<event>
 7    1  0.1501154E-015  0.9000772E+02  0.7816164E-02  0.1186339E+00
        -11   -1    0    0    0    0  0.00000000000E+00  0.00000000000E+00  0.45593999997E+02  0.45594000000E+02  0.51100000000E-03 0. -1.
         11   -1    0    0    0    0 -0.00000000000E+00 -0.00000000000E+00 -0.45593999997E+02  0.45594000000E+02  0.51100000000E-03 0.  1.
    9900012    2    1    2    0    0 -0.72728509208E+00  0.77194850416E+00 -0.51788821835E+00  0.90007721937E+02  0.89999983067E+02 0.  0.
         12    1    1    2    0    0  0.72728509208E+00 -0.77194850416E+00  0.51788821835E+00  0.11802780626E+01  0.00000000000E+00 0. -1.
         11    1    3    3    0    0 -0.34577031691E+02  0.52740286465E+01  0.76175590801E+01  0.35796839320E+02  0.51100000000E-03 0. -1.
        -11    1    3    3    0    0 -0.27689229347E+01 -0.82643884901E+01  0.99240610811E+01  0.13208105085E+02  0.51100000000E-03 0.  1.
        -12    1    3    3    0    0  0.36618669533E+02  0.37623083478E+01 -0.18059508379E+02  0.41002777533E+02  0.00000000000E+00 0.  1.
</event>
<event>
 7    1  0.1501154E-015  0.9000773E+02  0.7816164E-02  0.1186339E+00
        -11   -1    0    0    0    0  0.00000000000E+00  0.00000000000E+00  0.45593999997E+02  0.45594000000E+02  0.51100000000E-03 0. -1.
         11   -1    0    0    0    0 -0.00000000000E+00 -0.00000000000E+00 -0.45593999997E+02  0.45594000000E+02  0.51100000000E-03 0.  1.
    9900012    2    1    2    0    0  0.36235789119E+00  0.11226052970E+01 -0.38605056109E-01  0.90007730436E+02  0.89999991677E+02 0.  0.
         12    1    1    2    0    0 -0.36235789119E+00 -0.11226052970E+01  0.38605056109E-01  0.11802695643E+01  0.00000000000E+00 0. -1.
         11    1    3    3    0    0  0.70176514741E+01 -0.20745236740E+01 -0.61626392968E+01  0.95670896332E+01  0.51100000000E-03 0. -1.
        -11    1    3    3    0    0  0.23274485916E+02  0.27187873045E+01 -0.27029843496E+02  0.35772977773E+02  0.51100000000E-03 0.  1.
         12    1    3    3    0    0 -0.29929779499E+02  0.47834166647E+00  0.33153877736E+02  0.44667663030E+02  0.00000000000E+00 0. -1.
</event>
<event>
 7    1  0.1501154E-015  0.9000706E+02  0.7816164E-02  0.1186340E+00
        -11   -1    0    0    0    0  0.00000000000E+00  0.00000000000E+00  0.45593999997E+02  0.45594000000E+02  0.51100000000E-03 0. -1.
         11   -1    0    0    0    0 -0.00000000000E+00 -0.00000000000E+00 -0.45593999997E+02  0.45594000000E+02  0.51100000000E-03 0.  1.
    9900012    2    1    2    0    0  0.37790016129E+00 -0.10244124888E+01  0.44987269840E+00  0.90007061846E+02  0.89999314260E+02 0.  0.
         12    1    1    2    0    0 -0.37790016129E+00  0.10244124888E+01 -0.44987269840E+00  0.11809381542E+01  0.00000000000E+00 0. -1.
         11    1    3    3    0    0  0.15166930259E+02  0.18748134243E+00  0.87999363474E+01  0.17535957422E+02  0.51100000000E-03 0. -1.
        -11    1    3    3    0    0 -0.10229647413E+02  0.25498989048E+02 -0.27823522473E+02  0.39102334096E+02  0.51100000000E-03 0.  1.
         12    1    3    3    0    0 -0.45593826846E+01 -0.26710882879E+02  0.19473458824E+02  0.33368770328E+02  0.00000000000E+00 0. -1.
</event>
<event>
 7    1  0.1501154E-015  0.9000763E+02  0.7816164E-02  0.1186339E+00
        -11   -1    0    0    0    0  0.00000000000E+00  0.00000000000E+00  0.45593999997E+02  0.45594000000E+02  0.51100000000E-03 0.  1.
         11   -1    0    0    0    0 -0.00000000000E+00 -0.00000000000E+00 -0.45593999997E+02  0.45594000000E+02  0.51100000000E-03 0. -1.
    9900012    2    1    2    0    0  0.92020036800E+00 -0.58826861059E+00  0.44771979997E+00  0.90007626460E+02  0.89999886329E+02 0.  0.
         12    1    1    2    0    0 -0.92020036800E+00  0.58826861059E+00 -0.44771979997E+00  0.11803735404E+01  0.00000000000E+00 0. -1.
         11    1    3    3    0    0  0.31130858478E+02 -0.25130145717E+02 -0.26605672923E+01  0.40096548378E+02  0.51100000000E-03 0. -1.
        -11    1    3    3    0    0  0.44329343209E+01  0.41818360581E+01 -0.61680095495E+01  0.86708132015E+01  0.51100000000E-03 0.  1.
        -12    1    3    3    0    0 -0.34643592430E+02  0.20360041048E+02  0.92762966418E+01  0.41240264880E+02  0.00000000000E+00 0.  1.
</event>
<event>
 7    1  0.1501154E-015  0.9000766E+02  0.7816164E-02  0.1186339E+00
        -11   -1    0    0    0    0  0.00000000000E+00  0.00000000000E+00  0.45593999997E+02  0.45594000000E+02  0.51100000000E-03 0. -1.
         11   -1    0    0    0    0 -0.00000000000E+00 -0.00000000000E+00 -0.45593999997E+02  0.45594000000E+02  0.51100000000E-03 0.  1.
    9900012    2    1    2    0    0 -0.90832584895E+00  0.71784576836E+00  0.22985811738E+00  0.90007663968E+02  0.89999924332E+02 0.  0.
         12    1    1    2    0    0  0.90832584895E+00 -0.71784576836E+00 -0.22985811738E+00  0.11803360323E+01  0.00000000000E+00 0. -1.
         11    1    3    3    0    0 -0.75832654009E+01 -0.48882755398E+00  0.58031005218E+00  0.76211302663E+01  0.51100000000E-03 0. -1.
        -11    1    3    3    0    0  0.12272942562E+01  0.32906757079E+01 -0.41085847783E+02  0.41235684620E+02  0.51100000000E-03 0.  1.
         12    1    3    3    0    0  0.54476452957E+01 -0.20840023856E+01  0.40735395848E+02  0.41150849081E+02  0.00000000000E+00 0. -1.
</event>
<event>
 7    1  0.1501154E-015  0.9000770E+02  0.7816164E-02  0.1186339E+00
        -11   -1    0    0    0    0  0.00000000000E+00  0.00000000000E+00  0.45593999997E+02  0.45594000000E+02  0.51100000000E-03 0.  1.
         11   -1    0    0    0    0 -0.00000000000E+00 -0.00000000000E+00 -0.45593999997E+02  0.45594000000E+02  0.51100000000E-03 0. -1.
    9900012    2    1    2    0    0  0.10709699138E+01 -0.18437175117E+00 -0.46059497393E+00  0.90007696129E+02  0.89999956917E+02 0.  0.
         12    1    1    2    0    0 -0.10709699138E+01  0.18437175117E+00  0.46059497393E+00  0.11803038714E+01  0.00000000000E+00 0. -1.
         11    1    3    3    0    0  0.24856168014E+02  0.32809196421E+02  0.14711468631E+01  0.41187822612E+02  0.51100000000E-03 0. -1.
        -11    1    3    3    0    0 -0.97577149070E+01  0.27968109813E+01 -0.21607234738E+01  0.10378047893E+02  0.51100000000E-03 0.  1.
        -12    1    3    3    0    0 -0.14027483193E+02 -0.35790379154E+02  0.22898163675E+00  0.38441825624E+02  0.00000000000E+00 0.  1.
</event>
<event>
 7    1  0.1501154E-015  0.9000803E+02  0.7816164E-02  0.1186338E+00
        -11   -1    0    0    0    0  0.00000000000E+00  0.00000000000E+00  0.45593999997E+02  0.45594000000E+02  0.51100000000E-03 0. -1.
         11   -1    0    0    0    0 -0.00000000000E+00 -0.00000000000E+00 -0.45593999997E+02  0.45594000000E+02  0.51100000000E-03 0.  1.
    9900012    2    1    2    0    0 -0.97847783876E+00  0.62665854401E+00  0.20544426908E+00  0.90008030865E+02  0.90000296072E+02 0.  0.
         12    1    1    2    0    0  0.97847783876E+00 -0.62665854401E+00 -0.20544426908E+00  0.11799691349E+01  0.00000000000E+00 0. -1.
         11    1    3    3    0    0  0.48430281748E+00  0.66665067812E+01 -0.77599544933E+01  0.10241765272E+02  0.51100000000E-03 0. -1.
        -11    1    3    3    0    0 -0.25223558575E+02  0.11509977397E+02 -0.23690789681E+02  0.36468630394E+02  0.51100000000E-03 0.  1.
         12    1    3    3    0    0  0.23760777919E+02 -0.17549825634E+02  0.31656188443E+02  0.43297635199E+02  0.00000000000E+00 0. -1.
</event>
<event>
 7    1  0.1501154E-015  0.9000765E+02  0.7816164E-02  0.1186339E+00
        -11   -1    0    0    0    0  0.00000000000E+00  0.00000000000E+00  0.45593999997E+02  0.45594000000E+02  0.51100000000E-03 0. -1.
         11   -1    0    0    0    0 -0.00000000000E+00 -0.00000000000E+00 -0.45593999997E+02  0.45594000000E+02  0.51100000000E-03 0.  1.
    9900012    2    1    2    0    0  0.82153775980E+00  0.83262170914E+00 -0.15826081616E+00  0.90007648490E+02  0.89999908650E+02 0.  0.
         12    1    1    2    0    0 -0.82153775980E+00 -0.83262170914E+00  0.15826081616E+00  0.11803515100E+01  0.00000000000E+00 0. -1.
         11    1    3    3    0    0 -0.16072155549E+02 -0.65240829209E+00  0.21714352819E+01  0.16231295451E+02  0.51100000000E-03 0. -1.
        -11    1    3    3    0    0 -0.15234704561E+02  0.25151421603E+02  0.11455679990E+02  0.31558245135E+02  0.51100000000E-03 0.  1.
         12    1    3    3    0    0  0.32128397870E+02 -0.23666391601E+02 -0.13785376088E+02  0.42218107904E+02  0.00000000000E+00 0. -1.
</event>
<event>
 7    1  0.1501154E-015  0.9000777E+02  0.7816164E-02  0.1186339E+00
        -11   -1    0    0    0    0  0.00000000000E+00  0.00000000000E+00  0.45593999997E+02  0.45594000000E+02  0.51100000000E-03 0. -1.
         11   -1    0    0    0    0 -0.00000000000E+00 -0.00000000000E+00 -0.45593999997E+02  0.45594000000E+02  0.51100000000E-03 0.  1.
    9900012    2    1    2    0    0  0.96115084093E+00  0.63146100059E+00  0.26532191698E+00  0.90007767119E+02  0.90000028845E+02 0.  0.
         12    1    1    2    0    0 -0.96115084093E+00 -0.63146100059E+00 -0.26532191698E+00  0.11802328812E+01  0.00000000000E+00 0. -1.
         11    1    3    3    0    0  0.17240781372E+01  0.88519329866E+00 -0.91200108342E+01  0.93236586422E+01  0.51100000000E-03 0. -1.
        -11    1    3    3    0    0  0.16918996663E+02  0.26679402000E+02 -0.19740191842E+02  0.37252088712E+02  0.51100000000E-03 0.  1.
         12    1    3    3    0    0 -0.17681923959E+02 -0.26933134298E+02  0.29125524593E+02  0.43432019765E+02  0.00000000000E+00 0. -1.
</event>
<event>
 7    1  0.1501154E-015  0.9000751E+02  0.7816164E-02  0.1186340E+00
        -11   -1    0    0    0    0  0.00000000000E+00  0.00000000000E+00  0.45593999997E+02  0.45594000000E+02  0.51100000000E-03 0.  1.
         11   -1    0    0    0    0 -0.00000000000E+00 -0.00000000000E+00 -0.45593999997E+02  0.45594000000E+02  0.51100000000E-03 0. -1.
    9900012    2    1    2    0    0 -0.82514812025E+00  0.64024303432E+00  0.55025352862E+00  0.90007508785E+02  0.89999767100E+02 0.  0.
         12    1    1    2    0    0  0.82514812025E+00 -0.64024303432E+00 -0.55025352862E+00  0.11804912152E+01  0.00000000000E+00 0. -1.
         11    1    3    3    0    0 -0.59638197002E+01  0.17286232636E+02 -0.60861549093E+01  0.19272318647E+02  0.51100000000E-03 0. -1.
        -11    1    3    3    0    0 -0.22236464381E+02  0.80984361705E+01  0.20506152989E+02  0.31313692328E+02  0.51100000000E-03 0.  1.
         12    1    3    3    0    0  0.27375135960E+02 -0.24744425772E+02 -0.13869744551E+02  0.39421497810E+02  0.00000000000E+00 0. -1.
</event>
<event>
 7    1  0.1501154E-015  0.9000776E+02  0.7816164E-02  0.1186339E+00
        -11   -1    0    0    0    0  0.00000000000E+00  0.00000000000E+00  0.45593999997E+02  0.45594000000E+02  0.51100000000E-03 0.  1.
         11   -1    0    0    0    0 -0.00000000000E+00 -0.00000000000E+00 -0.45593999997E+02  0.45594000000E+02  0.51100000000E-03 0. -1.
    9900012    2    1    2    0    0  0.11110533904E+01  0.39812342985E+00 -0.56858908049E-02  0.90007756707E+02  0.90000018295E+02 0.  0.
         12    1    1    2    0    0 -0.11110533904E+01 -0.39812342985E+00  0.56858908049E-02  0.11802432932E+01  0.00000000000E+00 0. -1.
         11    1    3    3    0    0  0.99461041833E+01 -0.29646805251E+02 -0.28524760869E+02  0.42326351519E+02  0.51100000000E-03 0. -1.
        -11    1    3    3    0    0 -0.78233787730E+01 -0.24152380946E+00  0.46289727493E+01  0.90934579864E+01  0.51100000000E-03 0.  1.
        -12    1    3    3    0    0 -0.10116720199E+01  0.30286452490E+02  0.23890102229E+02  0.38587947201E+02  0.00000000000E+00 0.  1.
</event>
<event>
 7    1  0.1501154E-015  0.9000792E+02  0.7816164E-02  0.1186339E+00
        -11   -1    0    0    0    0  0.00000000000E+00  0.00000000000E+00  0.45593999997E+02  0.45594000000E+02  0.51100000000E-03 0. -1.
         11   -1    0    0    0    0 -0.00000000000E+00 -0.00000000000E+00 -0.45593999997E+02  0.45594000000E+02  0.51100000000E-03 0.  1.
    9900012    2    1    2    0    0 -0.63958812070E+00 -0.74976884701E+00 -0.64913225142E+00  0.90007915695E+02  0.90000179382E+02 0.  0.
         12    1    1    2    0    0  0.63958812070E+00  0.74976884701E+00  0.64913225142E+00  0.11800843054E+01  0.00000000000E+00 0. -1.
         11    1    3    3    0    0 -0.31434098687E+02  0.22038999464E+01  0.25191459080E+02  0.40343144970E+02  0.51100000000E-03 0. -1.
        -11    1    3    3    0    0  0.55212585536E+01  0.18493214731E+01  0.62457000458E+01  0.85389141727E+01  0.51100000000E-03 0.  1.
        -12    1    3    3    0    0  0.25273252013E+02 -0.48029902665E+01 -0.32086291377E+02  0.41125856552E+02  0.00000000000E+00 0.  1.
</event>
<event>
 7    1  0.1501154E-015  0.9000731E+02  0.7816164E-02  0.1186340E+00
        -11   -1    0    0    0    0  0.00000000000E+00  0.00000000000E+00  0.45593999997E+02  0.45594000000E+02  0.51100000000E-03 0. -1.
         11   -1    0    0    0    0 -0.00000000000E+00 -0.00000000000E+00 -0.45593999997E+02  0.45594000000E+02  0.51100000000E-03 0.  1.
    9900012    2    1    2    0    0 -0.35631170276E+00  0.10059960843E+01 -0.50500817047E+00  0.90007314011E+02  0.89999569755E+02 0.  0.
         12    1    1    2    0    0  0.35631170276E+00 -0.10059960843E+01  0.50500817047E+00  0.11806859885E+01  0.00000000000E+00 0. -1.
         11    1    3    3    0    0  0.20183444754E+02  0.30795118054E+02  0.73129023678E+00  0.36827238883E+02  0.51100000000E-03 0. -1.
        -11    1    3    3    0    0  0.50771156139E+01  0.67491045847E+01 -0.13719098829E+01  0.85562639417E+01  0.51100000000E-03 0.  1.
        -12    1    3    3    0    0 -0.25616872070E+02 -0.36538226554E+02  0.13561147565E+00  0.44623811187E+02  0.00000000000E+00 0.  1.
</event>
<event>
 7    1  0.1501154E-015  0.9000774E+02  0.7816164E-02  0.1186339E+00
        -11   -1    0    0    0    0  0.00000000000E+00  0.00000000000E+00  0.45593999997E+02  0.45594000000E+02  0.51100000000E-03 0. -1.
         11   -1    0    0    0    0 -0.00000000000E+00 -0.00000000000E+00 -0.45593999997E+02  0.45594000000E+02  0.51100000000E-03 0.  1.
    9900012    2    1    2    0    0 -0.50915039660E+00 -0.64076941863E+00 -0.85041004788E+00  0.90007738663E+02  0.90000000013E+02 0.  0.
         12    1    1    2    0    0  0.50915039660E+00  0.64076941863E+00  0.85041004788E+00  0.11802613371E+01  0.00000000000E+00 0. -1.
         11    1    3    3    0    0  0.22005605032E+02 -0.24435486360E+02  0.25400382461E+02  0.41551402815E+02  0.51100000000E-03 0. -1.
        -11    1    3    3    0    0 -0.32914097942E+01 -0.44077748215E+01 -0.81219129996E+01  0.98095529126E+01  0.51100000000E-03 0.  1.
        -12    1    3    3    0    0 -0.19223345635E+02  0.28202491762E+02 -0.18128879509E+02  0.38646782935E+02  0.00000000000E+00 0.  1.
</event>
<event>
 7    1  0.1501154E-015  0.9000763E+02  0.7816164E-02  0.1186339E+00
        -11   -1    0    0    0    0  0.00000000000E+00  0.00000000000E+00  0.45593999997E+02  0.45594000000E+02  0.51100000000E-03 0. -1.
         11   -1    0    0    0    0 -0.00000000000E+00 -0.00000000000E+00 -0.45593999997E+02  0.45594000000E+02  0.51100000000E-03 0.  1.
    9900012    2    1    2    0    0 -0.10078382501E+00 -0.11087936845E+01 -0.39202957745E+00  0.90007632259E+02  0.89999892205E+02 0.  0.
         12    1    1    2    0    0  0.10078382501E+00  0.11087936845E+01  0.39202957745E+00  0.11803677409E+01  0.00000000000E+00 0. -1.
         11    1    3    3    0    0  0.33397366886E+02 -0.19474254423E+02  0.86716763577E+01  0.39621063481E+02  0.51100000000E-03 0. -1.
        -11    1    3    3    0    0 -0.35821555861E+01 -0.94071100319E-01  0.98407823781E+01  0.10472902467E+02  0.51100000000E-03 0.  1.
        -12    1    3    3    0    0 -0.29915995125E+02  0.18459531838E+02 -0.18904488313E+02  0.39913666311E+02  0.00000000000E+00 0.  1.
</event>
<event>
 7    1  0.1501154E-015  0.9000759E+02  0.7816164E-02  0.1186339E+00
        -11   -1    0    0    0    0  0.00000000000E+00  0.00000000000E+00  0.45593999997E+02  0.45594000000E+02  0.51100000000E-03 0.  1.
         11   -1    0    0    0    0 -0.00000000000E+00 -0.00000000000E+00 -0.45593999997E+02  0.45594000000E+02  0.51100000000E-03 0. -1.
    9900012    2    1    2    0    0  0.25233418227E+00  0.85628193705E+00  0.77231614493E+00  0.90007591798E+02  0.89999851210E+02 0.  0.
         12    1    1    2    0    0 -0.25233418227E+00 -0.85628193705E+00 -0.77231614493E+00  0.11804082018E+01  0.00000000000E+00 0. -1.
         11    1    3    3    0    0 -0.14623663681E+02  0.23189349467E+02 -0.24369739668E+02  0.36680808059E+02  0.51100000000E-03 0. -1.
        -11    1    3    3    0    0 -0.38106022884E+01  0.51532119203E+01 -0.52535112735E+01  0.82870781255E+01  0.51100000000E-03 0.  1.
        -12    1    3    3    0    0  0.18686600152E+02 -0.27486279450E+02  0.30395567086E+02  0.45039705613E+02  0.00000000000E+00 0.  1.
</event>
<event>
 7    1  0.1501154E-015  0.9000774E+02  0.7816164E-02  0.1186339E+00
        -11   -1    0    0    0    0  0.00000000000E+00  0.00000000000E+00  0.45593999997E+02  0.45594000000E+02  0.51100000000E-03 0.  1.
         11   -1    0    0    0    0 -0.00000000000E+00 -0.00000000000E+00 -0.45593999997E+02  0.45594000000E+02  0.51100000000E-03 0. -1.
    9900012    2    1    2    0    0  0.10376191005E+01 -0.19220884965E+00  0.52859632181E+00  0.90007740829E+02  0.90000002208E+02 0.  0.
         12    1    1    2    0    0 -0.10376191005E+01  0.19220884965E+00 -0.52859632181E+00  0.11802591712E+01  0.00000000000E+00 0. -1.
         11    1    3    3    0    0  0.57420892762E+01 -0.68856438245E+00 -0.76749028360E+01  0.96098826199E+01  0.51100000000E-03 0. -1.
        -11    1    3    3    0    0  0.34798563738E+02 -0.83307955417E+01  0.15967113249E+02  0.39182788292E+02  0.51100000000E-03 0.  1.
         12    1    3    3    0    0 -0.39503033914E+02  0.88271510745E+01 -0.77636140913E+01  0.41215069917E+02  0.00000000000E+00 0. -1.
</event>
<event>
 7    1  0.1501154E-015  0.9000821E+02  0.7816164E-02  0.1186338E+00
        -11   -1    0    0    0    0  0.00000000000E+00  0.00000000000E+00  0.45593999997E+02  0.45594000000E+02  0.51100000000E-03 0. -1.
         11   -1    0    0    0    0 -0.00000000000E+00 -0.00000000000E+00 -0.45593999997E+02  0.45594000000E+02  0.51100000000E-03 0.  1.
    9900012    2    1    2    0    0  0.80104032449E+00 -0.85956327552E+00 -0.10668696604E+00  0.90008213267E+02  0.90000480881E+02 0.  0.
         12    1    1    2    0    0 -0.80104032449E+00  0.85956327552E+00  0.10668696604E+00  0.11797867328E+01  0.00000000000E+00 0. -1.
         11    1    3    3    0    0  0.35079909137E+02 -0.58748368025E+01  0.15934741488E+02  0.38974731803E+02  0.51100000000E-03 0. -1.
        -11    1    3    3    0    0 -0.22398847301E+01  0.94255421290E+01  0.64515091838E+01  0.11639583285E+02  0.51100000000E-03 0.  1.
        -12    1    3    3    0    0 -0.32038984083E+02 -0.44102686020E+01 -0.22492937638E+02  0.39393898180E+02  0.00000000000E+00 0.  1.
</event>
<event>
 7    1  0.1501154E-015  0.9000771E+02  0.7816164E-02  0.1186339E+00
        -11   -1    0    0    0    0  0.00000000000E+00  0.00000000000E+00  0.45593999997E+02  0.45594000000E+02  0.51100000000E-03 0.  1.
         11   -1    0    0    0    0 -0.00000000000E+00 -0.00000000000E+00 -0.45593999997E+02  0.45594000000E+02  0.51100000000E-03 0. -1.
    9900012    2    1    2    0    0  0.11323886768E+01  0.33072681716E+00  0.37542743987E-01  0.90007706053E+02  0.89999966973E+02 0.  0.
         12    1    1    2    0    0 -0.11323886768E+01 -0.33072681716E+00 -0.37542743987E-01  0.11802939466E+01  0.00000000000E+00 0. -1.
         11    1    3    3    0    0 -0.62510834806E+01 -0.96931838965E+01  0.87812094839E+01  0.14496327086E+02  0.51100000000E-03 0. -1.
        -11    1    3    3    0    0 -0.38623135607E+01  0.39189723665E+02 -0.17435292017E+02  0.43066707733E+02  0.51100000000E-03 0.  1.
         12    1    3    3    0    0  0.11245785718E+02 -0.29165812951E+02  0.86916252768E+01  0.32444671234E+02  0.00000000000E+00 0. -1.
</event>
<event>
 7    1  0.1501154E-015  0.9000780E+02  0.7816164E-02  0.1186339E+00
        -11   -1    0    0    0    0  0.00000000000E+00  0.00000000000E+00  0.45593999997E+02  0.45594000000E+02  0.51100000000E-03 0.  1.
         11   -1    0    0    0    0 -0.00000000000E+00 -0.00000000000E+00 -0.45593999997E+02  0.45594000000E+02  0.51100000000E-03 0. -1.
    9900012    2    1    2    0    0 -0.91816170122E+00  0.71704614073E+00  0.18893253036E+00  0.90007800195E+02  0.90000062358E+02 0.  0.
         12    1    1    2    0    0  0.91816170122E+00 -0.71704614073E+00 -0.18893253036E+00  0.11801998045E+01  0.00000000000E+00 0. -1.
         11    1    3    3    0    0 -0.19311074960E+02  0.63674493179E+01 -0.34557982907E+02  0.40096336613E+02  0.51100000000E-03 0. -1.
        -11    1    3    3    0    0 -0.41533986569E+00 -0.10301409621E+02  0.21084119210E+00  0.10311934914E+02  0.51100000000E-03 0.  1.
        -12    1    3    3    0    0  0.18808253124E+02  0.46510064443E+01  0.34536074245E+02  0.39599528669E+02  0.00000000000E+00 0.  1.
</event>
<event>
 7    1  0.1501154E-015  0.9000776E+02  0.7816164E-02  0.1186339E+00
        -11   -1    0    0    0    0  0.00000000000E+00  0.00000000000E+00  0.45593999997E+02  0.45594000000E+02  0.51100000000E-03 0. -1.
         11   -1    0    0    0    0 -0.00000000000E+00 -0.00000000000E+00 -0.45593999997E+02  0.45594000000E+02  0.51100000000E-03 0.  1.
    9900012    2    1    2    0    0  0.45512486895E+00  0.27024819552E+00 -0.10548914064E+01  0.90007759087E+02  0.90000020707E+02 0.  0.
         12    1    1    2    0    0 -0.45512486895E+00 -0.27024819552E+00  0.10548914064E+01  0.11802409130E+01  0.00000000000E+00 0. -1.
         11    1    3    3    0    0  0.29879628824E+01  0.27534419569E+02  0.24279190003E+02  0.36831389475E+02  0.51100000000E-03 0. -1.
        -11    1    3    3    0    0 -0.89517146020E+01  0.70642369961E+01 -0.32544277798E+01  0.11858665148E+02  0.51100000000E-03 0.  1.
        -12    1    3    3    0    0  0.64188765885E+01 -0.34328408369E+02 -0.22079653630E+02  0.41317704465E+02  0.00000000000E+00 0.  1.
</event>
<event>
 7    1  0.1501154E-015  0.9000771E+02  0.7816164E-02  0.1186339E+00
        -11   -1    0    0    0    0  0.00000000000E+00  0.00000000000E+00  0.45593999997E+02  0.45594000000E+02  0.51100000000E-03 0.  1.
         11   -1    0    0    0    0 -0.00000000000E+00 -0.00000000000E+00 -0.45593999997E+02  0.45594000000E+02  0.51100000000E-03 0. -1.
    9900012    2    1    2    0    0 -0.84855521393E-01 -0.11770753349E+01 -0.19409298141E-01  0.90007710407E+02  0.89999971384E+02 0.  0.
         12    1    1    2    0    0  0.84855521393E-01  0.11770753349E+01  0.19409298141E-01  0.11802895935E+01  0.00000000000E+00 0. -1.
         11    1    3    3    0    0 -0.35242805299E+01  0.39414215428E+02  0.32104650105E+01  0.39701486331E+02  0.51100000000E-03 0. -1.
        -11    1    3    3    0    0  0.69179135001E+01  0.51914842665E+00  0.45845452034E+01  0.83153531054E+01  0.51100000000E-03 0.  1.
        -12    1    3    3    0    0 -0.34784884917E+01 -0.41110439189E+02 -0.78144195120E+01  0.41990870970E+02  0.00000000000E+00 0.  1.
</event>
<event>
 7    1  0.1501154E-015  0.9000781E+02  0.7816164E-02  0.1186339E+00
        -11   -1    0    0    0    0  0.00000000000E+00  0.00000000000E+00  0.45593999997E+02  0.45594000000E+02  0.51100000000E-03 0. -1.
         11   -1    0    0    0    0 -0.00000000000E+00 -0.00000000000E+00 -0.45593999997E+02  0.45594000000E+02  0.51100000000E-03 0.  1.
    9900012    2    1    2    0    0  0.66732845870E+00  0.97244135910E+00 -0.43359894426E-01  0.90007809528E+02  0.90000071814E+02 0.  0.
         12    1    1    2    0    0 -0.66732845870E+00 -0.97244135910E+00  0.43359894426E-01  0.11801904715E+01  0.00000000000E+00 0. -1.
         11    1    3    3    0    0 -0.10200343564E+02  0.31754546669E+02 -0.16600859268E+02  0.37255694486E+02  0.51100000000E-03 0. -1.
        -11    1    3    3    0    0 -0.13689608335E+02 -0.17333874201E+02  0.73372773337E+01  0.23274539955E+02  0.51100000000E-03 0.  1.
        -12    1    3    3    0    0  0.24557280358E+02 -0.13448231109E+02  0.92202220399E+01  0.29477575087E+02  0.00000000000E+00 0.  1.
</event>
<event>
 8    1  0.1501154E-015  0.9000750E+02  0.7816164E-02  0.1186340E+00
        -11   -1    0    0    0    0  0.00000000000E+00  0.00000000000E+00  0.45593999997E+02  0.45594000000E+02  0.51100000000E-03 0.  1.
         11   -1    0    0    0    0 -0.00000000000E+00 -0.00000000000E+00 -0.45593999997E+02  0.45594000000E+02  0.51100000000E-03 0. -1.
    9900012    2    1    2    0    0  0.79925669133E+00  0.58108537868E+00 -0.64583556545E+00  0.90007502201E+02  0.89999760430E+02 0.  0.
         23    2    3    3    0    0  0.24679120418E+02 -0.43862616153E+01  0.14332576127E+02  0.61384517650E+02  0.54169530117E+02 0.  0.
         12    1    1    2    0    0 -0.79925669133E+00 -0.58108537868E+00  0.64583556545E+00  0.11804977990E+01  0.00000000000E+00 0. -1.
         11    1    4    4    0    0 -0.15702134833E+02 -0.79226359884E+01 -0.19609802905E+01  0.17696628020E+02  0.51100000000E-03 0. -1.
        -11    1    4    4    0    0  0.40381255251E+02  0.35363743731E+01  0.16293556418E+02  0.43687889630E+02  0.51100000000E-03 0.  1.
         12    1    3    3    0    0 -0.23879863727E+02  0.49673469940E+01 -0.14978411693E+02  0.28622984551E+02  0.00000000000E+00 0. -1.
</event>
<event>
 7    1  0.1501154E-015  0.9000777E+02  0.7816164E-02  0.1186339E+00
        -11   -1    0    0    0    0  0.00000000000E+00  0.00000000000E+00  0.45593999997E+02  0.45594000000E+02  0.51100000000E-03 0.  1.
         11   -1    0    0    0    0 -0.00000000000E+00 -0.00000000000E+00 -0.45593999997E+02  0.45594000000E+02  0.51100000000E-03 0. -1.
    9900012    2    1    2    0    0  0.10011963426E+01 -0.46039710093E+00  0.42258505415E+00  0.90007772168E+02  0.90000033961E+02 0.  0.
         12    1    1    2    0    0 -0.10011963426E+01  0.46039710093E+00 -0.42258505415E+00  0.11802278318E+01  0.00000000000E+00 0. -1.
         11    1    3    3    0    0 -0.33558010891E+02 -0.31827332335E+01 -0.11077176574E+02  0.35482019769E+02  0.51100000000E-03 0. -1.
        -11    1    3    3    0    0 -0.87663333493E+01 -0.93989835336E+00 -0.19173256619E+01  0.90226463557E+01  0.51100000000E-03 0.  1.
        -12    1    3    3    0    0  0.43325540583E+02  0.36622344859E+01  0.13417087290E+02  0.45503106043E+02  0.00000000000E+00 0.  1.
</event>
<event>
 7    1  0.1501154E-015  0.9000778E+02  0.7816164E-02  0.1186339E+00
        -11   -1    0    0    0    0  0.00000000000E+00  0.00000000000E+00  0.45593999997E+02  0.45594000000E+02  0.51100000000E-03 0.  1.
         11   -1    0    0    0    0 -0.00000000000E+00 -0.00000000000E+00 -0.45593999997E+02  0.45594000000E+02  0.51100000000E-03 0. -1.
    9900012    2    1    2    0    0 -0.10624601621E+01  0.25024072463E+00  0.44885999033E+00  0.90007780822E+02  0.90000042729E+02 0.  0.
         12    1    1    2    0    0  0.10624601621E+01 -0.25024072463E+00 -0.44885999033E+00  0.11802191776E+01  0.00000000000E+00 0. -1.
         11    1    3    3    0    0 -0.21860416724E+02 -0.13682504434E+02 -0.26654801310E+02  0.37088639502E+02  0.51100000000E-03 0. -1.
        -11    1    3    3    0    0 -0.69007246508E+01 -0.76746971938E+01  0.60290903513E+01  0.11952861935E+02  0.51100000000E-03 0.  1.
        -12    1    3    3    0    0  0.27698681213E+02  0.21607442353E+02  0.21074570949E+02  0.40966279385E+02  0.00000000000E+00 0.  1.
</event>
<event>
 7    1  0.1501154E-015  0.9000786E+02  0.7816164E-02  0.1186339E+00
        -11   -1    0    0    0    0  0.00000000000E+00  0.00000000000E+00  0.45593999997E+02  0.45594000000E+02  0.51100000000E-03 0.  1.
         11   -1    0    0    0    0 -0.00000000000E+00 -0.00000000000E+00 -0.45593999997E+02  0.45594000000E+02  0.51100000000E-03 0. -1.
    9900012    2    1    2    0    0  0.10492731379E+01 -0.42441074144E-02  0.54013786469E+00  0.90007855499E+02  0.90000118391E+02 0.  0.
         12    1    1    2    0    0 -0.10492731379E+01  0.42441074144E-02 -0.54013786469E+00  0.11801445010E+01  0.00000000000E+00 0. -1.
         11    1    3    3    0    0 -0.10379836321E+01 -0.22362625129E+02  0.48066043625E+01  0.22896896262E+02  0.51100000000E-03 0. -1.
        -11    1    3    3    0    0 -0.20159618446E+02 -0.43805892152E+01 -0.20181039692E+02  0.28859558920E+02  0.51100000000E-03 0.  1.
         12    1    3    3    0    0  0.22246875216E+02  0.26738970237E+02  0.15914573194E+02  0.38251400316E+02  0.00000000000E+00 0. -1.
</event>
<event>
 7    1  0.1501154E-015  0.9000773E+02  0.7816164E-02  0.1186339E+00
        -11   -1    0    0    0    0  0.00000000000E+00  0.00000000000E+00  0.45593999997E+02  0.45594000000E+02  0.51100000000E-03 0. -1.
         11   -1    0    0    0    0 -0.00000000000E+00 -0.00000000000E+00 -0.45593999997E+02  0.45594000000E+02  0.51100000000E-03 0.  1.
    9900012    2    1    2    0    0  0.87025646570E+00  0.20897782220E+00 -0.76942337765E+00  0.90007732920E+02  0.89999994194E+02 0.  0.
         12    1    1    2    0    0 -0.87025646570E+00 -0.20897782220E+00  0.76942337765E+00  0.11802670801E+01  0.00000000000E+00 0. -1.
         11    1    3    3    0    0 -0.21501356377E+01 -0.48885828090E+01 -0.85215600304E+01  0.10056754484E+02  0.51100000000E-03 0. -1.
        -11    1    3    3    0    0 -0.26638397440E+01 -0.36271066884E+02 -0.39560943141E+01  0.36583288775E+02  0.51100000000E-03 0.  1.
         12    1    3    3    0    0  0.56842318474E+01  0.41368627515E+02  0.11708230967E+02  0.43367689661E+02  0.00000000000E+00 0. -1.
</event>
<event>
 7    1  0.1501154E-015  0.9000776E+02  0.7816164E-02  0.1186339E+00
        -11   -1    0    0    0    0  0.00000000000E+00  0.00000000000E+00  0.45593999997E+02  0.45594000000E+02  0.51100000000E-03 0.  1.
         11   -1    0    0    0    0 -0.00000000000E+00 -0.00000000000E+00 -0.45593999997E+02  0.45594000000E+02  0.51100000000E-03 0. -1.
    9900012    2    1    2    0    0  0.78641709305E+00 -0.34539652179E+00  0.80944701053E+00  0.90007764827E+02  0.90000026522E+02 0.  0.
         12    1    1    2    0    0 -0.78641709305E+00  0.34539652179E+00 -0.80944701053E+00  0.11802351733E+01  0.00000000000E+00 0. -1.
         11    1    3    3    0    0  0.91364865988E+00  0.11428918549E+01 -0.10017482558E+01  0.17732612596E+01  0.51100000000E-03 0. -1.
        -11    1    3    3    0    0 -0.41894847608E+02 -0.14711810324E+02  0.12182537590E+01  0.44419587590E+02  0.51100000000E-03 0.  1.
         12    1    3    3    0    0  0.41767616042E+02  0.13223521948E+02  0.59294150728E+00  0.43814915978E+02  0.00000000000E+00 0. -1.
</event>
<event>
 7    1  0.1501154E-015  0.9000777E+02  0.7816164E-02  0.1186339E+00
        -11   -1    0    0    0    0  0.00000000000E+00  0.00000000000E+00  0.45593999997E+02  0.45594000000E+02  0.51100000000E-03 0.  1.
         11   -1    0    0    0    0 -0.00000000000E+00 -0.00000000000E+00 -0.45593999997E+02  0.45594000000E+02  0.51100000000E-03 0. -1.
    9900012    2    1    2    0    0  0.25620137534E+00 -0.38726075014E+00  0.10850462656E+01  0.90007773144E+02  0.90000034949E+02 0.  0.
         12    1    1    2    0    0 -0.25620137534E+00  0.38726075014E+00 -0.10850462656E+01  0.11802268561E+01  0.00000000000E+00 0. -1.
         11    1    3    3    0    0 -0.16101990804E+02  0.23807448107E+02 -0.20828103711E+02  0.35494768596E+02  0.51100000000E-03 0. -1.
        -11    1    3    3    0    0 -0.57473246964E+01 -0.38762233226E+01 -0.90386637951E+01  0.11390974141E+02  0.51100000000E-03 0.  1.
        -12    1    3    3    0    0  0.22105516875E+02 -0.20318485535E+02  0.30951813771E+02  0.43122030408E+02  0.00000000000E+00 0.  1.
</event>
<event>
 7    1  0.1552531E-015  0.9000766E+02  0.7816164E-02  0.1186339E+00
        -11   -1    0    0    0    0  0.00000000000E+00  0.00000000000E+00  0.45593999997E+02  0.45594000000E+02  0.51100000000E-03 0.  1.
         11   -1    0    0    0    0 -0.00000000000E+00 -0.00000000000E+00 -0.45593999997E+02  0.45594000000E+02  0.51100000000E-03 0. -1.
    9900012    2    1    2    0    0  0.77416473439E+00  0.85651300191E+00  0.24548551322E+00  0.90007657382E+02  0.89999917660E+02 0.  0.
         12    1    1    2    0    0 -0.77416473439E+00 -0.85651300191E+00 -0.24548551322E+00  0.11803426179E+01  0.00000000000E+00 0. -1.
         11    1    3    3    0    0 -0.22454373580E+02  0.76321199541E+01 -0.31482558154E+02  0.39415728029E+02  0.51100000000E-03 0. -1.
        -11    1    3    3    0    0  0.35948491337E+01 -0.76790538432E+01 -0.43334956811E+01  0.95220792529E+01  0.51100000000E-03 0.  1.
        -12    1    3    3    0    0  0.19633689180E+02  0.90344689100E+00  0.36061539348E+02  0.41069850101E+02  0.00000000000E+00 0.  1.
</event>
<event>
 7    1  0.1501154E-015  0.9000773E+02  0.7816164E-02  0.1186339E+00
        -11   -1    0    0    0    0  0.00000000000E+00  0.00000000000E+00  0.45593999997E+02  0.45594000000E+02  0.51100000000E-03 0.  1.
         11   -1    0    0    0    0 -0.00000000000E+00 -0.00000000000E+00 -0.45593999997E+02  0.45594000000E+02  0.51100000000E-03 0. -1.
    9900012    2    1    2    0    0  0.99065240256E+00  0.60548599613E+00 -0.21220324482E+00  0.90007730670E+02  0.89999991915E+02 0.  0.
         12    1    1    2    0    0 -0.99065240256E+00 -0.60548599613E+00  0.21220324482E+00  0.11802693300E+01  0.00000000000E+00 0. -1.
         11    1    3    3    0    0 -0.48876289665E+01 -0.39902816514E+02  0.12668592463E+01  0.40220997194E+02  0.51100000000E-03 0. -1.
        -11    1    3    3    0    0  0.75944247636E+01 -0.14341061406E+01  0.64509865529E+00  0.77555206433E+01  0.51100000000E-03 0.  1.
        -12    1    3    3    0    0 -0.17161433945E+01  0.41942408651E+02 -0.21241611464E+01  0.42031212833E+02  0.00000000000E+00 0.  1.
</event>
<event>
 7    1  0.1501154E-015  0.9000768E+02  0.7816164E-02  0.1186339E+00
        -11   -1    0    0    0    0  0.00000000000E+00  0.00000000000E+00  0.45593999997E+02  0.45594000000E+02  0.51100000000E-03 0. -1.
         11   -1    0    0    0    0 -0.00000000000E+00 -0.00000000000E+00 -0.45593999997E+02  0.45594000000E+02  0.51100000000E-03 0.  1.
    9900012    2    1    2    0    0  0.66878965366E+00 -0.31238877620E+00 -0.92102247263E+00  0.90007682778E+02  0.89999943391E+02 0.  0.
         12    1    1    2    0    0 -0.66878965366E+00  0.31238877620E+00  0.92102247263E+00  0.11803172215E+01  0.00000000000E+00 0. -1.
         11    1    3    3    0    0  0.81411489058E+01 -0.41484466308E+01 -0.78581331618E+01  0.12051480075E+02  0.51100000000E-03 0. -1.
        -11    1    3    3    0    0  0.78456371891E+01  0.15386976525E+02 -0.30975749524E+02  0.35465618962E+02  0.51100000000E-03 0.  1.
         12    1    3    3    0    0 -0.15317996441E+02 -0.11550918670E+02  0.37912860214E+02  0.42490583741E+02  0.00000000000E+00 0. -1.
</event>
<event>
 7    1  0.1501154E-015  0.9000770E+02  0.7816164E-02  0.1186339E+00
        -11   -1    0    0    0    0  0.00000000000E+00  0.00000000000E+00  0.45593999997E+02  0.45594000000E+02  0.51100000000E-03 0.  1.
         11   -1    0    0    0    0 -0.00000000000E+00 -0.00000000000E+00 -0.45593999997E+02  0.45594000000E+02  0.51100000000E-03 0. -1.
    9900012    2    1    2    0    0  0.13832071462E-01 -0.11786424801E+01  0.61012779568E-01  0.90007698352E+02  0.89999959170E+02 0.  0.
         12    1    1    2    0    0 -0.13832071462E-01  0.11786424801E+01 -0.61012779568E-01  0.11803016485E+01  0.00000000000E+00 0. -1.
         11    1    3    3    0    0  0.35528812724E+02  0.62279116878E+01 -0.52101185478E+01  0.36444872796E+02  0.51100000000E-03 0. -1.
        -11    1    3    3    0    0  0.27885295935E+01  0.10130763919E+02 -0.23107177801E+01  0.10758610123E+02  0.51100000000E-03 0.  1.
        -12    1    3    3    0    0 -0.38303510246E+02 -0.17537318087E+02  0.75818491075E+01  0.42804215432E+02  0.00000000000E+00 0.  1.
</event>
<event>
 7    1  0.1501154E-015  0.9000773E+02  0.7816164E-02  0.1186339E+00
        -11   -1    0    0    0    0  0.00000000000E+00  0.00000000000E+00  0.45593999997E+02  0.45594000000E+02  0.51100000000E-03 0. -1.
         11   -1    0    0    0    0 -0.00000000000E+00 -0.00000000000E+00 -0.45593999997E+02  0.45594000000E+02  0.51100000000E-03 0.  1.
    9900012    2    1    2    0    0  0.40532356584E+00 -0.86968786762E+00 -0.68731357465E+00  0.90007727095E+02  0.89999988293E+02 0.  0.
         12    1    1    2    0    0 -0.40532356584E+00  0.86968786762E+00  0.68731357465E+00  0.11802729049E+01  0.00000000000E+00 0. -1.
         11    1    3    3    0    0  0.29007669090E+02 -0.22629425833E+02 -0.79559920867E+01  0.37640850016E+02  0.51100000000E-03 0. -1.
        -11    1    3    3    0    0  0.16151931016E+01 -0.50389392583E+01 -0.76576556607E+01  0.93080313753E+01  0.51100000000E-03 0.  1.
        -12    1    3    3    0    0 -0.30217538625E+02  0.26798677224E+02  0.14926334173E+02  0.43058845704E+02  0.00000000000E+00 0.  1.
</event>
<event>
 7    1  0.1501154E-015  0.9000773E+02  0.7816164E-02  0.1186339E+00
        -11   -1    0    0    0    0  0.00000000000E+00  0.00000000000E+00  0.45593999997E+02  0.45594000000E+02  0.51100000000E-03 0.  1.
         11   -1    0    0    0    0 -0.00000000000E+00 -0.00000000000E+00 -0.45593999997E+02  0.45594000000E+02  0.51100000000E-03 0. -1.
    9900012    2    1    2    0    0 -0.96639307412E+00 -0.61818613734E+00  0.27743724262E+00  0.90007728380E+02  0.89999989594E+02 0.  0.
         12    1    1    2    0    0  0.96639307412E+00  0.61818613734E+00 -0.27743724262E+00  0.11802716203E+01  0.00000000000E+00 0. -1.
         11    1    3    3    0    0 -0.28647842270E+02 -0.10126139689E+02 -0.10830728353E+02  0.32257437106E+02  0.51100000000E-03 0. -1.
        -11    1    3    3    0    0 -0.50651636213E+01 -0.13950660728E+02 -0.28606892829E+01  0.15114905249E+02  0.51100000000E-03 0.  1.
        -12    1    3    3    0    0  0.32746612817E+02  0.23458614279E+02  0.13968854878E+02  0.42635386025E+02  0.00000000000E+00 0.  1.
</event>
<event>
 7    1  0.1501154E-015  0.9000773E+02  0.7816164E-02  0.1186339E+00
        -11   -1    0    0    0    0  0.00000000000E+00  0.00000000000E+00  0.45593999997E+02  0.45594000000E+02  0.51100000000E-03 0.  1.
         11   -1    0    0    0    0 -0.00000000000E+00 -0.00000000000E+00 -0.45593999997E+02  0.45594000000E+02  0.51100000000E-03 0. -1.
    9900012    2    1    2    0    0 -0.11119790803E+01  0.26370847136E+00 -0.29494803027E+00  0.90007731398E+02  0.89999992652E+02 0.  0.
         12    1    1    2    0    0  0.11119790803E+01 -0.26370847136E+00  0.29494803027E+00  0.11802686022E+01  0.00000000000E+00 0. -1.
         11    1    3    3    0    0 -0.19005320974E+01 -0.26664565404E+01 -0.35882359470E+02  0.36031454788E+02  0.51100000000E-03 0. -1.
        -11    1    3    3    0    0 -0.40564768691E+01 -0.67423780492E+00 -0.85183940727E+01  0.94589977823E+01  0.51100000000E-03 0.  1.
        -12    1    3    3    0    0  0.48450298861E+01  0.36044028167E+01  0.44105805513E+02  0.44517278827E+02  0.00000000000E+00 0.  1.
</event>
<event>
 7    1  0.1501154E-015  0.9000795E+02  0.7816164E-02  0.1186339E+00
        -11   -1    0    0    0    0  0.00000000000E+00  0.00000000000E+00  0.45593999997E+02  0.45594000000E+02  0.51100000000E-03 0.  1.
         11   -1    0    0    0    0 -0.00000000000E+00 -0.00000000000E+00 -0.45593999997E+02  0.45594000000E+02  0.51100000000E-03 0. -1.
    9900012    2    1    2    0    0  0.30619761520E+00  0.27476608764E+00  0.11060080866E+01  0.90007954547E+02  0.90000218747E+02 0.  0.
         12    1    1    2    0    0 -0.30619761520E+00 -0.27476608764E+00 -0.11060080866E+01  0.11800454526E+01  0.00000000000E+00 0. -1.
         11    1    3    3    0    0 -0.19631823313E+02  0.47860979048E+01 -0.94301099423E+01  0.22298928081E+02  0.51100000000E-03 0. -1.
        -11    1    3    3    0    0  0.20584973854E+02  0.26025135737E+02  0.15739333606E+02  0.36725678501E+02  0.51100000000E-03 0.  1.
        -12    1    3    3    0    0 -0.64695292580E+00 -0.30536467555E+02 -0.52032155773E+01  0.30983347965E+02  0.00000000000E+00 0.  1.
</event>
<event>
 7    1  0.1501154E-015  0.9000774E+02  0.7816164E-02  0.1186339E+00
        -11   -1    0    0    0    0  0.00000000000E+00  0.00000000000E+00  0.45593999997E+02  0.45594000000E+02  0.51100000000E-03 0. -1.
         11   -1    0    0    0    0 -0.00000000000E+00 -0.00000000000E+00 -0.45593999997E+02  0.45594000000E+02  0.51100000000E-03 0.  1.
    9900012    2    1    2    0    0  0.11050869404E+01 -0.41117934860E+00  0.52233380372E-01  0.90007739889E+02  0.90000001256E+02 0.  0.
         12    1    1    2    0    0 -0.11050869404E+01  0.41117934860E+00 -0.52233380372E-01  0.11802601106E+01  0.00000000000E+00 0. -1.
         11    1    3    3    0    0 -0.15816133660E+02  0.93281905506E+01  0.18756069536E+02  0.26247959303E+02  0.51100000000E-03 0. -1.
        -11    1    3    3    0    0 -0.36702550215E+01  0.91872977539E+01  0.16231053967E+02  0.19008532954E+02  0.51100000000E-03 0.  1.
        -12    1    3    3    0    0  0.20591475622E+02 -0.18926667653E+02 -0.34934890122E+02  0.44751247632E+02  0.00000000000E+00 0.  1.
</event>
<event>
 7    1  0.1501154E-015  0.9000771E+02  0.7816164E-02  0.1186339E+00
        -11   -1    0    0    0    0  0.00000000000E+00  0.00000000000E+00  0.45593999997E+02  0.45594000000E+02  0.51100000000E-03 0. -1.
         11   -1    0    0    0    0 -0.00000000000E+00 -0.00000000000E+00 -0.45593999997E+02  0.45594000000E+02  0.51100000000E-03 0.  1.
    9900012    2    1    2    0    0 -0.10577114795E+01 -0.72997797850E-01 -0.51866487240E+00  0.90007705332E+02  0.89999966243E+02 0.  0.
         12    1    1    2    0    0  0.10577114795E+01  0.72997797850E-01  0.51866487240E+00  0.11802946676E+01  0.00000000000E+00 0. -1.
         11    1    3    3    0    0 -0.20645926272E+02 -0.14857875839E+02 -0.32269400956E+02  0.41089231976E+02  0.51100000000E-03 0. -1.
        -11    1    3    3    0    0  0.16663156769E+01 -0.79654004895E+01  0.54271342220E+01  0.97815131252E+01  0.51100000000E-03 0.  1.
        -12    1    3    3    0    0  0.17921899116E+02  0.22750278531E+02  0.26323601861E+02  0.39136960231E+02  0.00000000000E+00 0.  1.
</event>
<event>
 7    1  0.1501154E-015  0.9000780E+02  0.7816164E-02  0.1186339E+00
        -11   -1    0    0    0    0  0.00000000000E+00  0.00000000000E+00  0.45593999997E+02  0.45594000000E+02  0.51100000000E-03 0.  1.
         11   -1    0    0    0    0 -0.00000000000E+00 -0.00000000000E+00 -0.45593999997E+02  0.45594000000E+02  0.51100000000E-03 0. -1.
    9900012    2    1    2    0    0  0.68847236250E+00 -0.22553131727E+00  0.93167234838E+00  0.90007800045E+02  0.90000062206E+02 0.  0.
         12    1    1    2    0    0 -0.68847236250E+00  0.22553131727E+00 -0.93167234838E+00  0.11801999550E+01  0.00000000000E+00 0. -1.
         11    1    3    3    0    0 -0.26475641248E+02 -0.16523851313E+02 -0.22390602672E+02  0.38410107133E+02  0.51100000000E-03 0. -1.
        -11    1    3    3    0    0  0.82794185147E+01  0.30426450683E+01 -0.85275420157E+01  0.12268880676E+02  0.51100000000E-03 0.  1.
        -12    1    3    3    0    0  0.18884695095E+02  0.13255674928E+02  0.31849817036E+02  0.39328812236E+02  0.00000000000E+00 0.  1.
</event>
<event>
 7    1  0.1501154E-015  0.9000771E+02  0.7816164E-02  0.1186339E+00
        -11   -1    0    0    0    0  0.00000000000E+00  0.00000000000E+00  0.45593999997E+02  0.45594000000E+02  0.51100000000E-03 0.  1.
         11   -1    0    0    0    0 -0.00000000000E+00 -0.00000000000E+00 -0.45593999997E+02  0.45594000000E+02  0.51100000000E-03 0. -1.
    9900012    2    1    2    0    0 -0.93454611153E+00 -0.33016342518E-01  0.72014422263E+00  0.90007714350E+02  0.89999975380E+02 0.  0.
         12    1    1    2    0    0  0.93454611153E+00  0.33016342518E-01 -0.72014422263E+00  0.11802856497E+01  0.00000000000E+00 0. -1.
         11    1    3    3    0    0 -0.64920783775E+01 -0.12448190474E+02 -0.32348323742E+02  0.35263558767E+02  0.51100000000E-03 0. -1.
        -11    1    3    3    0    0 -0.46935378234E+00 -0.18894103950E+01 -0.93626503581E+01  0.95629172643E+01  0.51100000000E-03 0.  1.
        -12    1    3    3    0    0  0.60268860483E+01  0.14304584527E+02  0.42431118323E+02  0.45181238319E+02  0.00000000000E+00 0.  1.
</event>
<event>
 7    1  0.1501154E-015  0.9000766E+02  0.7816164E-02  0.1186339E+00
        -11   -1    0    0    0    0  0.00000000000E+00  0.00000000000E+00  0.45593999997E+02  0.45594000000E+02  0.51100000000E-03 0.  1.
         11   -1    0    0    0    0 -0.00000000000E+00 -0.00000000000E+00 -0.45593999997E+02  0.45594000000E+02  0.51100000000E-03 0. -1.
    9900012    2    1    2    0    0  0.17362072539E+00 -0.10250771716E+01  0.55880903302E+00  0.90007663226E+02  0.89999923581E+02 0.  0.
         12    1    1    2    0    0 -0.17362072539E+00  0.10250771716E+01 -0.55880903302E+00  0.11803367737E+01  0.00000000000E+00 0. -1.
         11    1    3    3    0    0 -0.81642732017E+01  0.45935723795E+01  0.26019690526E+01  0.97224743419E+01  0.51100000000E-03 0. -1.
        -11    1    3    3    0    0 -0.17234290408E+02  0.20538410725E+02  0.23513644254E+02  0.35661443427E+02  0.51100000000E-03 0.  1.
         12    1    3    3    0    0  0.25572184335E+02 -0.26157060276E+02 -0.25556804273E+02  0.44623745457E+02  0.00000000000E+00 0. -1.
</event>
<event>
 7    1  0.1501154E-015  0.9000719E+02  0.7816164E-02  0.1186340E+00
        -11   -1    0    0    0    0  0.00000000000E+00  0.00000000000E+00  0.45593999997E+02  0.45594000000E+02  0.51100000000E-03 0. -1.
         11   -1    0    0    0    0 -0.00000000000E+00 -0.00000000000E+00 -0.45593999997E+02  0.45594000000E+02  0.51100000000E-03 0.  1.
    9900012    2    1    2    0    0 -0.88294455569E+00 -0.67966664486E+00 -0.39085044723E+00  0.90007194382E+02  0.89999448546E+02 0.  0.
         12    1    1    2    0    0  0.88294455569E+00  0.67966664486E+00  0.39085044723E+00  0.11808056185E+01  0.00000000000E+00 0. -1.
         11    1    3    3    0    0  0.98258866510E+01  0.67802754103E+01 -0.15488081253E+01  0.12038230351E+02  0.51100000000E-03 0. -1.
        -11    1    3    3    0    0  0.31184507643E+01  0.11328961244E+02 -0.33888737200E+02  0.35868044375E+02  0.51100000000E-03 0.  1.
         12    1    3    3    0    0 -0.13827281971E+02 -0.18788903299E+02  0.35046694878E+02  0.42100919655E+02  0.00000000000E+00 0. -1.
</event>
<event>
 7    1  0.1501154E-015  0.9000752E+02  0.7816164E-02  0.1186339E+00
        -11   -1    0    0    0    0  0.00000000000E+00  0.00000000000E+00  0.45593999997E+02  0.45594000000E+02  0.51100000000E-03 0.  1.
         11   -1    0    0    0    0 -0.00000000000E+00 -0.00000000000E+00 -0.45593999997E+02  0.45594000000E+02  0.51100000000E-03 0. -1.
    9900012    2    1    2    0    0  0.47551527722E+00  0.93326283479E+00  0.54445773470E+00  0.90007521909E+02  0.89999780398E+02 0.  0.
         12    1    1    2    0    0 -0.47551527722E+00 -0.93326283479E+00 -0.54445773470E+00  0.11804780907E+01  0.00000000000E+00 0. -1.
         11    1    3    3    0    0  0.61641940236E+01  0.58535289370E+01  0.44972388696E+01  0.96169770036E+01  0.51100000000E-03 0. -1.
        -11    1    3    3    0    0  0.39588164796E+01 -0.41785882235E+02  0.85291735731E+00  0.41981658499E+02  0.51100000000E-03 0.  1.
         12    1    3    3    0    0 -0.96474952259E+01  0.36865616133E+02 -0.48056984922E+01  0.38408886406E+02  0.00000000000E+00 0. -1.
</event>
<event>
 7    1  0.1501154E-015  0.9000771E+02  0.7816164E-02  0.1186339E+00
        -11   -1    0    0    0    0  0.00000000000E+00  0.00000000000E+00  0.45593999997E+02  0.45594000000E+02  0.51100000000E-03 0. -1.
         11   -1    0    0    0    0 -0.00000000000E+00 -0.00000000000E+00 -0.45593999997E+02  0.45594000000E+02  0.51100000000E-03 0.  1.
    9900012    2    1    2    0    0  0.61268027433E+00  0.77652294667E+00 -0.64399076184E+00  0.90007708042E+02  0.89999968988E+02 0.  0.
         12    1    1    2    0    0 -0.61268027433E+00 -0.77652294667E+00  0.64399076184E+00  0.11802919582E+01  0.00000000000E+00 0. -1.
         11    1    3    3    0    0 -0.54338648649E+01 -0.61783904483E+01  0.45819095452E+01  0.94177115714E+01  0.51100000000E-03 0. -1.
        -11    1    3    3    0    0 -0.34407436118E+02  0.52332724702E+01  0.11681420976E+02  0.36711229852E+02  0.51100000000E-03 0.  1.
         12    1    3    3    0    0  0.40453981257E+02  0.17216409247E+01 -0.16907321283E+02  0.43878766619E+02  0.00000000000E+00 0. -1.
</event>
<event>
 7    1  0.1501154E-015  0.9000807E+02  0.7816164E-02  0.1186338E+00
        -11   -1    0    0    0    0  0.00000000000E+00  0.00000000000E+00  0.45593999997E+02  0.45594000000E+02  0.51100000000E-03 0. -1.
         11   -1    0    0    0    0 -0.00000000000E+00 -0.00000000000E+00 -0.45593999997E+02  0.45594000000E+02  0.51100000000E-03 0.  1.
    9900012    2    1    2    0    0  0.76191959795E+00  0.85474783303E+00 -0.28483384690E+00  0.90008065403E+02  0.90000331066E+02 0.  0.
         12    1    1    2    0    0 -0.76191959795E+00 -0.85474783303E+00  0.28483384690E+00  0.11799345966E+01  0.00000000000E+00 0. -1.
         11    1    3    3    0    0 -0.76364359092E+01 -0.37349426606E+02  0.53120172093E+01  0.38490418915E+02  0.51100000000E-03 0. -1.
        -11    1    3    3    0    0 -0.39588630838E+01  0.16837022792E+01  0.92514516831E+01  0.10202784364E+02  0.51100000000E-03 0.  1.
        -12    1    3    3    0    0  0.12357218591E+02  0.36520472160E+02 -0.14848302739E+02  0.41314862124E+02  0.00000000000E+00 0.  1.
</event>
<event>
 7    1  0.1501154E-015  0.9000778E+02  0.7816164E-02  0.1186339E+00
        -11   -1    0    0    0    0  0.00000000000E+00  0.00000000000E+00  0.45593999997E+02  0.45594000000E+02  0.51100000000E-03 0.  1.
         11   -1    0    0    0    0 -0.00000000000E+00 -0.00000000000E+00 -0.45593999997E+02  0.45594000000E+02  0.51100000000E-03 0. -1.
    9900012    2    1    2    0    0  0.70939022518E+00  0.58472474827E+00  0.74011553693E+00  0.90007784541E+02  0.90000046496E+02 0.  0.
         12    1    1    2    0    0 -0.70939022518E+00 -0.58472474827E+00 -0.74011553693E+00  0.11802154595E+01  0.00000000000E+00 0. -1.
         11    1    3    3    0    0 -0.34132735373E+02  0.14594646188E+02 -0.12270940683E+02  0.39097612547E+02  0.51100000000E-03 0. -1.
        -11    1    3    3    0    0  0.68811041312E+00  0.76999946152E+01  0.61151615872E+01  0.98569069446E+01  0.51100000000E-03 0.  1.
        -12    1    3    3    0    0  0.34154015185E+02 -0.21709916055E+02  0.68958946326E+01  0.41053265049E+02  0.00000000000E+00 0.  1.
</event>
<event>
 7    1  0.1501154E-015  0.9000777E+02  0.7816164E-02  0.1186339E+00
        -11   -1    0    0    0    0  0.00000000000E+00  0.00000000000E+00  0.45593999997E+02  0.45594000000E+02  0.51100000000E-03 0.  1.
         11   -1    0    0    0    0 -0.00000000000E+00 -0.00000000000E+00 -0.45593999997E+02  0.45594000000E+02  0.51100000000E-03 0. -1.
    9900012    2    1    2    0    0 -0.66839768713E+00  0.50808774564E+00  0.82947930436E+00  0.90007769285E+02  0.90000031039E+02 0.  0.
         12    1    1    2    0    0  0.66839768713E+00 -0.50808774564E+00 -0.82947930436E+00  0.11802307155E+01  0.00000000000E+00 0. -1.
         11    1    3    3    0    0  0.79209901076E+01  0.44401683912E+01 -0.19186200134E+00  0.90826202670E+01  0.51100000000E-03 0. -1.
        -11    1    3    3    0    0  0.34359487993E+02  0.91521668115E+01  0.47477265883E+01  0.35873074590E+02  0.51100000000E-03 0.  1.
         12    1    3    3    0    0 -0.42948875788E+02 -0.13084247457E+02 -0.37263852826E+01  0.45052074428E+02  0.00000000000E+00 0. -1.
</event>
<event>
 7    1  0.1501154E-015  0.9000766E+02  0.7816164E-02  0.1186339E+00
        -11   -1    0    0    0    0  0.00000000000E+00  0.00000000000E+00  0.45593999997E+02  0.45594000000E+02  0.51100000000E-03 0.  1.
         11   -1    0    0    0    0 -0.00000000000E+00 -0.00000000000E+00 -0.45593999997E+02  0.45594000000E+02  0.51100000000E-03 0. -1.
    9900012    2    1    2    0    0 -0.69913401438E+00 -0.69283144594E+00  0.65145597966E+00  0.90007661626E+02  0.89999921960E+02 0.  0.
         12    1    1    2    0    0  0.69913401438E+00  0.69283144594E+00 -0.65145597966E+00  0.11803383735E+01  0.00000000000E+00 0. -1.
         11    1    3    3    0    0 -0.37594713960E+02 -0.94583774207E+00  0.10984965846E+02  0.39178139334E+02  0.51100000000E-03 0. -1.
        -11    1    3    3    0    0 -0.51461922459E+01  0.47961103494E+01 -0.39386479091E+01  0.80621905664E+01  0.51100000000E-03 0.  1.
        -12    1    3    3    0    0  0.42041772192E+02 -0.45431040533E+01 -0.63948619576E+01  0.42767331726E+02  0.00000000000E+00 0.  1.
</event>
<event>
 7    1  0.1501154E-015  0.9000776E+02  0.7816164E-02  0.1186339E+00
        -11   -1    0    0    0    0  0.00000000000E+00  0.00000000000E+00  0.45593999997E+02  0.45594000000E+02  0.51100000000E-03 0.  1.
         11   -1    0    0    0    0 -0.00000000000E+00 -0.00000000000E+00 -0.45593999997E+02  0.45594000000E+02  0.51100000000E-03 0. -1.
    9900012    2    1    2    0    0  0.37013761511E+00  0.93940298163E+00  0.61113265404E+00  0.90007761492E+02  0.90000023143E+02 0.  0.
         12    1    1    2    0    0 -0.37013761511E+00 -0.93940298163E+00 -0.61113265404E+00  0.11802385085E+01  0.00000000000E+00 0. -1.
         11    1    3    3    0    0  0.23305167314E+02  0.19534573551E+02 -0.15289096621E+02  0.34036551868E+02  0.51100000000E-03 0. -1.
        -11    1    3    3    0    0  0.86471995455E+01  0.84460159314E+01  0.34814676146E+01  0.12578945191E+02  0.51100000000E-03 0.  1.
        -12    1    3    3    0    0 -0.31582229245E+02 -0.27041186501E+02  0.12418761660E+02  0.43392264433E+02  0.00000000000E+00 0.  1.
</event>
<event>
 7    1  0.1501154E-015  0.9000778E+02  0.7816164E-02  0.1186339E+00
        -11   -1    0    0    0    0  0.00000000000E+00  0.00000000000E+00  0.45593999997E+02  0.45594000000E+02  0.51100000000E-03 0. -1.
         11   -1    0    0    0    0 -0.00000000000E+00 -0.00000000000E+00 -0.45593999997E+02  0.45594000000E+02  0.51100000000E-03 0.  1.
    9900012    2    1    2    0    0 -0.63726167490E+00 -0.67630771692E+00 -0.72760919032E+00  0.90007784043E+02  0.90000045993E+02 0.  0.
         12    1    1    2    0    0  0.63726167490E+00  0.67630771692E+00  0.72760919032E+00  0.11802159566E+01  0.00000000000E+00 0. -1.
         11    1    3    3    0    0  0.44226835295E+02  0.38351086293E+01  0.15912532445E+01  0.44421313641E+02  0.51100000000E-03 0. -1.
        -11    1    3    3    0    0 -0.10011061948E+02 -0.16087153288E+01  0.20384836045E+01  0.10342376033E+02  0.51100000000E-03 0.  1.
        -12    1    3    3    0    0 -0.34853035022E+02 -0.29027010174E+01 -0.43573460393E+01  0.35244094370E+02  0.00000000000E+00 0.  1.
</event>
<event>
 7    1  0.1501154E-015  0.9000784E+02  0.7816164E-02  0.1186339E+00
        -11   -1    0    0    0    0  0.00000000000E+00  0.00000000000E+00  0.45593999997E+02  0.45594000000E+02  0.51100000000E-03 0.  1.
         11   -1    0    0    0    0 -0.00000000000E+00 -0.00000000000E+00 -0.45593999997E+02  0.45594000000E+02  0.51100000000E-03 0. -1.
    9900012    2    1    2    0    0  0.78086473994E+00  0.81688928451E+00  0.34016888687E+00  0.90007842080E+02  0.90000104795E+02 0.  0.
         12    1    1    2    0    0 -0.78086473994E+00 -0.81688928451E+00 -0.34016888687E+00  0.11801579203E+01  0.00000000000E+00 0. -1.
         11    1    3    3    0    0 -0.13536853937E+02  0.12921957382E+02  0.11326271428E+01  0.18748499716E+02  0.51100000000E-03 0. -1.
        -11    1    3    3    0    0 -0.88051811553E+01  0.19362855106E+02  0.18053606578E+02  0.27899535547E+02  0.51100000000E-03 0.  1.
        -12    1    3    3    0    0  0.23122899833E+02 -0.31467923203E+02 -0.18846064834E+02  0.43359806816E+02  0.00000000000E+00 0.  1.
</event>
<event>
 7    1  0.1501154E-015  0.9000770E+02  0.7816164E-02  0.1186339E+00
        -11   -1    0    0    0    0  0.00000000000E+00  0.00000000000E+00  0.45593999997E+02  0.45594000000E+02  0.51100000000E-03 0.  1.
         11   -1    0    0    0    0 -0.00000000000E+00 -0.00000000000E+00 -0.45593999997E+02  0.45594000000E+02  0.51100000000E-03 0. -1.
    9900012    2    1    2    0    0 -0.58365625094E+00 -0.10249123755E+01 -0.44704223051E-01  0.90007704078E+02  0.89999964971E+02 0.  0.
         12    1    1    2    0    0  0.58365625094E+00  0.10249123755E+01  0.44704223051E-01  0.11802959223E+01  0.00000000000E+00 0. -1.
         11    1    3    3    0    0 -0.49291999592E+01  0.34703677641E+02  0.56412126528E+01  0.35503035567E+02  0.51100000000E-03 0. -1.
        -11    1    3    3    0    0  0.21017839032E+01  0.79545464377E+01 -0.69137259055E+01  0.10746716278E+02  0.51100000000E-03 0.  1.
        -12    1    3    3    0    0  0.22437598051E+01 -0.43683136454E+02  0.12278090296E+01  0.43757952232E+02  0.00000000000E+00 0.  1.
</event>
<event>
 7    1  0.1501154E-015  0.9000767E+02  0.7816164E-02  0.1186339E+00
        -11   -1    0    0    0    0  0.00000000000E+00  0.00000000000E+00  0.45593999997E+02  0.45594000000E+02  0.51100000000E-03 0.  1.
         11   -1    0    0    0    0 -0.00000000000E+00 -0.00000000000E+00 -0.45593999997E+02  0.45594000000E+02  0.51100000000E-03 0. -1.
    9900012    2    1    2    0    0 -0.10191071754E+01  0.15669248433E-01 -0.59527942520E+00  0.90007668456E+02  0.89999928879E+02 0.  0.
         12    1    1    2    0    0  0.10191071754E+01 -0.15669248433E-01  0.59527942520E+00  0.11803315443E+01  0.00000000000E+00 0. -1.
         11    1    3    3    0    0  0.12404077765E+01  0.30949257240E+01 -0.82664256683E+01  0.89135273758E+01  0.51100000000E-03 0. -1.
        -11    1    3    3    0    0  0.38368629777E+02  0.46403885362E+01 -0.17189996655E+01  0.38686430656E+02  0.51100000000E-03 0.  1.
         12    1    3    3    0    0 -0.40628144729E+02 -0.77196450118E+01  0.93901459086E+01  0.42407710424E+02  0.00000000000E+00 0. -1.
</event>
<event>
 7    1  0.1501154E-015  0.9000778E+02  0.7816164E-02  0.1186339E+00
        -11   -1    0    0    0    0  0.00000000000E+00  0.00000000000E+00  0.45593999997E+02  0.45594000000E+02  0.51100000000E-03 0. -1.
         11   -1    0    0    0    0 -0.00000000000E+00 -0.00000000000E+00 -0.45593999997E+02  0.45594000000E+02  0.51100000000E-03 0.  1.
    9900012    2    1    2    0    0  0.19946313788E+00  0.77128626705E+00  0.87077418183E+00  0.90007781493E+02  0.90000043408E+02 0.  0.
         12    1    1    2    0    0 -0.19946313788E+00 -0.77128626705E+00 -0.87077418183E+00  0.11802185072E+01  0.00000000000E+00 0. -1.
         11    1    3    3    0    0  0.70747340979E+01 -0.15073411618E+02 -0.40927113117E+01  0.17146716493E+02  0.51100000000E-03 0. -1.
        -11    1    3    3    0    0  0.60020859273E+01 -0.79717263061E+01 -0.28278968839E+02  0.29987889800E+02  0.51100000000E-03 0.  1.
         12    1    3    3    0    0 -0.12877356887E+02  0.23816424191E+02  0.33242454332E+02  0.42873175200E+02  0.00000000000E+00 0. -1.
</event>
<event>
 7    1  0.1501154E-015  0.9000773E+02  0.7816164E-02  0.1186339E+00
        -11   -1    0    0    0    0  0.00000000000E+00  0.00000000000E+00  0.45593999997E+02  0.45594000000E+02  0.51100000000E-03 0.  1.
         11   -1    0    0    0    0 -0.00000000000E+00 -0.00000000000E+00 -0.45593999997E+02  0.45594000000E+02  0.51100000000E-03 0. -1.
    9900012    2    1    2    0    0  0.95276690224E+00 -0.68471003566E+00 -0.12819676495E+00  0.90007734346E+02  0.89999995640E+02 0.  0.
         12    1    1    2    0    0 -0.95276690224E+00  0.68471003566E+00  0.12819676495E+00  0.11802656538E+01  0.00000000000E+00 0. -1.
         11    1    3    3    0    0  0.30499670444E+02  0.17774963388E+02 -0.16676330122E+02  0.39042018484E+02  0.51100000000E-03 0. -1.
        -11    1    3    3    0    0 -0.97472955647E+00  0.31507642370E+01 -0.72447355795E+01  0.79601260583E+01  0.51100000000E-03 0.  1.
        -12    1    3    3    0    0 -0.28572173986E+02 -0.21610437661E+02  0.23792868937E+02  0.43005589804E+02  0.00000000000E+00 0.  1.
</event>
<event>
 7    1  0.1501154E-015  0.9000768E+02  0.7816164E-02  0.1186339E+00
        -11   -1    0    0    0    0  0.00000000000E+00  0.00000000000E+00  0.45593999997E+02  0.45594000000E+02  0.51100000000E-03 0.  1.
         11   -1    0    0    0    0 -0.00000000000E+00 -0.00000000000E+00 -0.45593999997E+02  0.45594000000E+02  0.51100000000E-03 0. -1.
    9900012    2    1    2    0    0  0.29922985025E+00  0.27404095265E+00  0.11083811577E+01  0.90007684052E+02  0.89999944681E+02 0.  0.
         12    1    1    2    0    0 -0.29922985025E+00 -0.27404095265E+00 -0.11083811577E+01  0.11803159483E+01  0.00000000000E+00 0. -1.
         11    1    3    3    0    0 -0.29925711849E+02 -0.28763428424E+02 -0.96312677636E+01  0.42610378588E+02  0.51100000000E-03 0. -1.
        -11    1    3    3    0    0  0.59532591610E+00  0.66257990929E+01  0.76203189382E+01  0.10115576481E+02  0.51100000000E-03 0.  1.
        -12    1    3    3    0    0  0.29629615784E+02  0.22411670284E+02  0.31193299832E+01  0.37281728983E+02  0.00000000000E+00 0.  1.
</event>
<event>
 7    1  0.1501154E-015  0.9000771E+02  0.7816164E-02  0.1186339E+00
        -11   -1    0    0    0    0  0.00000000000E+00  0.00000000000E+00  0.45593999997E+02  0.45594000000E+02  0.51100000000E-03 0. -1.
         11   -1    0    0    0    0 -0.00000000000E+00 -0.00000000000E+00 -0.45593999997E+02  0.45594000000E+02  0.51100000000E-03 0.  1.
    9900012    2    1    2    0    0  0.94129393551E+00 -0.63823862221E+00  0.31574313838E+00  0.90007713365E+02  0.89999974381E+02 0.  0.
         12    1    1    2    0    0 -0.94129393551E+00  0.63823862221E+00 -0.31574313838E+00  0.11802866352E+01  0.00000000000E+00 0. -1.
         11    1    3    3    0    0  0.23932138627E+02 -0.23218847683E+02 -0.15840269830E+02  0.36915800080E+02  0.51100000000E-03 0. -1.
        -11    1    3    3    0    0  0.67650568705E+01  0.62500910584E+01 -0.73677339798E+01  0.11794623222E+02  0.51100000000E-03 0.  1.
        -12    1    3    3    0    0 -0.29755901562E+02  0.16330518003E+02  0.23523746948E+02  0.41297290062E+02  0.00000000000E+00 0.  1.
</event>
<event>
 7    1  0.1501154E-015  0.9000769E+02  0.7816164E-02  0.1186339E+00
        -11   -1    0    0    0    0  0.00000000000E+00  0.00000000000E+00  0.45593999997E+02  0.45594000000E+02  0.51100000000E-03 0. -1.
         11   -1    0    0    0    0 -0.00000000000E+00 -0.00000000000E+00 -0.45593999997E+02  0.45594000000E+02  0.51100000000E-03 0.  1.
    9900012    2    1    2    0    0 -0.40505769150E+00 -0.28944203215E-01 -0.11082531754E+01  0.90007688769E+02  0.89999949461E+02 0.  0.
         12    1    1    2    0    0  0.40505769150E+00  0.28944203215E-01  0.11082531754E+01  0.11803112306E+01  0.00000000000E+00 0. -1.
         11    1    3    3    0    0  0.34306341657E+00  0.83430148718E+01  0.40910496018E+01  0.92984018393E+01  0.51100000000E-03 0. -1.
        -11    1    3    3    0    0 -0.31379275155E+02 -0.25925434863E+02 -0.16082392152E+02  0.43765630576E+02  0.51100000000E-03 0.  1.
         12    1    3    3    0    0  0.30631154047E+02  0.17553475788E+02  0.10883089375E+02  0.36943656354E+02  0.00000000000E+00 0. -1.
</event>
<event>
 7    1  0.1501154E-015  0.9000777E+02  0.7816164E-02  0.1186339E+00
        -11   -1    0    0    0    0  0.00000000000E+00  0.00000000000E+00  0.45593999997E+02  0.45594000000E+02  0.51100000000E-03 0.  1.
         11   -1    0    0    0    0 -0.00000000000E+00 -0.00000000000E+00 -0.45593999997E+02  0.45594000000E+02  0.51100000000E-03 0. -1.
    9900012    2    1    2    0    0 -0.15093602970E+00 -0.11339687257E+01  0.29028382381E+00  0.90007774829E+02  0.90000036657E+02 0.  0.
         12    1    1    2    0    0  0.15093602970E+00  0.11339687257E+01 -0.29028382381E+00  0.11802251710E+01  0.00000000000E+00 0. -1.
         11    1    3    3    0    0 -0.27422523024E+02  0.26648693350E+02  0.27349959214E+01  0.38335725234E+02  0.51100000000E-03 0. -1.
        -11    1    3    3    0    0  0.50492710388E+01  0.55000643496E+01 -0.83699578353E+01  0.11216150868E+02  0.51100000000E-03 0.  1.
        -12    1    3    3    0    0  0.22222315956E+02 -0.33282726425E+02  0.59252457377E+01  0.40455898727E+02  0.00000000000E+00 0.  1.
</event>
<event>
 7    1  0.1501154E-015  0.9000775E+02  0.7816164E-02  0.1186339E+00
        -11   -1    0    0    0    0  0.00000000000E+00  0.00000000000E+00  0.45593999997E+02  0.45594000000E+02  0.51100000000E-03 0.  1.
         11   -1    0    0    0    0 -0.00000000000E+00 -0.00000000000E+00 -0.45593999997E+02  0.45594000000E+02  0.51100000000E-03 0. -1.
    9900012    2    1    2    0    0 -0.87017882864E+00  0.18103082085E+00  0.77653049277E+00  0.90007753010E+02  0.90000014549E+02 0.  0.
         12    1    1    2    0    0  0.87017882864E+00 -0.18103082085E+00 -0.77653049277E+00  0.11802469903E+01  0.00000000000E+00 0. -1.
         11    1    3    3    0    0  0.35344955546E+02 -0.36459103722E+01 -0.73600906185E+00  0.35540121759E+02  0.51100000000E-03 0. -1.
        -11    1    3    3    0    0  0.76305371833E+01 -0.45335805163E+01 -0.35219491442E+01  0.95489568037E+01  0.51100000000E-03 0.  1.
        -12    1    3    3    0    0 -0.43845671558E+02  0.83605217094E+01  0.50344886988E+01  0.44918674447E+02  0.00000000000E+00 0.  1.
</event>
<event>
 7    1  0.1501154E-015  0.9000769E+02  0.7816164E-02  0.1186339E+00
        -11   -1    0    0    0    0  0.00000000000E+00  0.00000000000E+00  0.45593999997E+02  0.45594000000E+02  0.51100000000E-03 0. -1.
         11   -1    0    0    0    0 -0.00000000000E+00 -0.00000000000E+00 -0.45593999997E+02  0.45594000000E+02  0.51100000000E-03 0.  1.
    9900012    2    1    2    0    0 -0.12960796295E+00  0.40299395722E+00 -0.11017818503E+01  0.90007692583E+02  0.89999953325E+02 0.  0.
         12    1    1    2    0    0  0.12960796295E+00 -0.40299395722E+00  0.11017818503E+01  0.11803074172E+01  0.00000000000E+00 0. -1.
         11    1    3    3    0    0 -0.38890742329E+01  0.35473655718E+02 -0.17239169748E+02  0.39631983577E+02  0.51100000000E-03 0. -1.
        -11    1    3    3    0    0 -0.91649470685E+00 -0.51635794997E+01 -0.94052839086E+01  0.10768559860E+02  0.51100000000E-03 0.  1.
        -12    1    3    3    0    0  0.46759609768E+01 -0.29907082261E+02  0.25542671806E+02  0.39607149146E+02  0.00000000000E+00 0.  1.
</event>
<event>
 7    1  0.1501154E-015  0.9000770E+02  0.7816164E-02  0.1186339E+00
        -11   -1    0    0    0    0  0.00000000000E+00  0.00000000000E+00  0.45593999997E+02  0.45594000000E+02  0.51100000000E-03 0.  1.
         11   -1    0    0    0    0 -0.00000000000E+00 -0.00000000000E+00 -0.45593999997E+02  0.45594000000E+02  0.51100000000E-03 0. -1.
    9900012    2    1    2    0    0  0.74336972830E+00 -0.87739032606E+00 -0.26589624444E+00  0.90007697856E+02  0.89999958668E+02 0.  0.
         12    1    1    2    0    0 -0.74336972830E+00  0.87739032606E+00  0.26589624444E+00  0.11803021435E+01  0.00000000000E+00 0. -1.
         11    1    3    3    0    0 -0.27095114020E+01  0.52694122596E+01 -0.77269743472E+01  0.97372629842E+01  0.51100000000E-03 0. -1.
        -11    1    3    3    0    0 -0.24078071923E+02 -0.28624343663E+02  0.20205471301E+02  0.42513147007E+02  0.51100000000E-03 0.  1.
         12    1    3    3    0    0  0.27530953054E+02  0.22477541077E+02 -0.12744393198E+02  0.37757287865E+02  0.00000000000E+00 0. -1.
</event>
<event>
 7    1  0.1501154E-015  0.9000775E+02  0.7816164E-02  0.1186339E+00
        -11   -1    0    0    0    0  0.00000000000E+00  0.00000000000E+00  0.45593999997E+02  0.45594000000E+02  0.51100000000E-03 0.  1.
         11   -1    0    0    0    0 -0.00000000000E+00 -0.00000000000E+00 -0.45593999997E+02  0.45594000000E+02  0.51100000000E-03 0. -1.
    9900012    2    1    2    0    0 -0.63876055983E+00 -0.96877247790E+00  0.21551638226E+00  0.90007753213E+02  0.90000014756E+02 0.  0.
         12    1    1    2    0    0  0.63876055983E+00  0.96877247790E+00 -0.21551638226E+00  0.11802467868E+01  0.00000000000E+00 0. -1.
         11    1    3    3    0    0 -0.67581377732E+01  0.38022172074E+01 -0.58902212063E+01  0.97377609323E+01  0.51100000000E-03 0. -1.
        -11    1    3    3    0    0 -0.19686882711E+02  0.13957699368E+02  0.31376758692E+02  0.39583982983E+02  0.51100000000E-03 0.  1.
         12    1    3    3    0    0  0.25806259924E+02 -0.18728689054E+02 -0.25271021104E+02  0.40686009298E+02  0.00000000000E+00 0. -1.
</event>
<event>
 7    1  0.1501154E-015  0.9000791E+02  0.7816164E-02  0.1186339E+00
        -11   -1    0    0    0    0  0.00000000000E+00  0.00000000000E+00  0.45593999997E+02  0.45594000000E+02  0.51100000000E-03 0. -1.
         11   -1    0    0    0    0 -0.00000000000E+00 -0.00000000000E+00 -0.45593999997E+02  0.45594000000E+02  0.51100000000E-03 0.  1.
    9900012    2    1    2    0    0  0.53048104755E-01  0.11365603226E+01 -0.31308367357E+00  0.90007913200E+02  0.90000176854E+02 0.  0.
         12    1    1    2    0    0 -0.53048104755E-01 -0.11365603226E+01  0.31308367357E+00  0.11800867997E+01  0.00000000000E+00 0. -1.
         11    1    3    3    0    0 -0.24012887747E+02 -0.22104542288E+02 -0.20847068633E+02  0.38727636625E+02  0.51100000000E-03 0. -1.
        -11    1    3    3    0    0  0.44295622058E+01  0.12653133986E+01 -0.86527863698E+01  0.98026910364E+01  0.51100000000E-03 0.  1.
        -12    1    3    3    0    0  0.19636373646E+02  0.21975789212E+02  0.29186771329E+02  0.41477585538E+02  0.00000000000E+00 0.  1.
</event>
<event>
 7    1  0.1501154E-015  0.9000779E+02  0.7816164E-02  0.1186339E+00
        -11   -1    0    0    0    0  0.00000000000E+00  0.00000000000E+00  0.45593999997E+02  0.45594000000E+02  0.51100000000E-03 0.  1.
         11   -1    0    0    0    0 -0.00000000000E+00 -0.00000000000E+00 -0.45593999997E+02  0.45594000000E+02  0.51100000000E-03 0. -1.
    9900012    2    1    2    0    0  0.61002201441E+00 -0.98092352105E+00  0.24197766666E+00  0.90007791966E+02  0.90000054020E+02 0.  0.
         12    1    1    2    0    0 -0.61002201441E+00  0.98092352105E+00 -0.24197766666E+00  0.11802080339E+01  0.00000000000E+00 0. -1.
         11    1    3    3    0    0  0.25180714972E+02  0.18582892509E+02  0.16213362731E+02  0.35245786014E+02  0.51100000000E-03 0. -1.
        -11    1    3    3    0    0 -0.28916728991E+01  0.12229456035E+02  0.11994428084E+01  0.12623788274E+02  0.51100000000E-03 0.  1.
        -12    1    3    3    0    0 -0.21679020058E+02 -0.31793272065E+02 -0.17170827872E+02  0.42138217678E+02  0.00000000000E+00 0.  1.
</event>
<event>
 7    1  0.1501154E-015  0.9000773E+02  0.7816164E-02  0.1186339E+00
        -11   -1    0    0    0    0  0.00000000000E+00  0.00000000000E+00  0.45593999997E+02  0.45594000000E+02  0.51100000000E-03 0.  1.
         11   -1    0    0    0    0 -0.00000000000E+00 -0.00000000000E+00 -0.45593999997E+02  0.45594000000E+02  0.51100000000E-03 0. -1.
    9900012    2    1    2    0    0  0.97544609178E+00 -0.10893569470E+00  0.65549163110E+00  0.90007732513E+02  0.89999993782E+02 0.  0.
         12    1    1    2    0    0 -0.97544609178E+00  0.10893569470E+00 -0.65549163110E+00  0.11802674875E+01  0.00000000000E+00 0. -1.
         11    1    3    3    0    0 -0.45430288550E+00  0.44833627664E+01  0.81750168500E+01  0.93347647837E+01  0.51100000000E-03 0. -1.
        -11    1    3    3    0    0 -0.13656735916E+02  0.13336918767E+02 -0.37822929513E+02  0.42366895512E+02  0.51100000000E-03 0.  1.
         12    1    3    3    0    0  0.15086484894E+02 -0.17929217228E+02  0.30303404294E+02  0.38306072217E+02  0.00000000000E+00 0. -1.
</event>
<event>
 7    1  0.1501154E-015  0.9000771E+02  0.7816164E-02  0.1186339E+00
        -11   -1    0    0    0    0  0.00000000000E+00  0.00000000000E+00  0.45593999997E+02  0.45594000000E+02  0.51100000000E-03 0. -1.
         11   -1    0    0    0    0 -0.00000000000E+00 -0.00000000000E+00 -0.45593999997E+02  0.45594000000E+02  0.51100000000E-03 0.  1.
    9900012    2    1    2    0    0 -0.11685799157E+01 -0.88955953270E-01  0.13995095488E+00  0.90007712556E+02  0.89999973562E+02 0.  0.
         12    1    1    2    0    0  0.11685799157E+01  0.88955953270E-01 -0.13995095488E+00  0.11802874442E+01  0.00000000000E+00 0. -1.
         11    1    3    3    0    0 -0.40562532904E+02 -0.83608251105E+01 -0.49589232950E+01  0.41711070384E+02  0.51100000000E-03 0. -1.
        -11    1    3    3    0    0  0.12146596964E+01 -0.49668369164E+00  0.88476096388E+01  0.89443998932E+01  0.51100000000E-03 0.  1.
        -12    1    3    3    0    0  0.38179293292E+02  0.87685528488E+01 -0.37487353889E+01  0.39352242278E+02  0.00000000000E+00 0.  1.
</event>
<event>
 7    1  0.1501154E-015  0.9000830E+02  0.7816164E-02  0.1186338E+00
        -11   -1    0    0    0    0  0.00000000000E+00  0.00000000000E+00  0.45593999997E+02  0.45594000000E+02  0.51100000000E-03 0. -1.
         11   -1    0    0    0    0 -0.00000000000E+00 -0.00000000000E+00 -0.45593999997E+02  0.45594000000E+02  0.51100000000E-03 0.  1.
    9900012    2    1    2    0    0  0.37720548160E+00  0.52804182689E+00 -0.98517752082E+00  0.90008302202E+02  0.90000570990E+02 0.  0.
         12    1    1    2    0    0 -0.37720548160E+00 -0.52804182689E+00  0.98517752082E+00  0.11796977977E+01  0.00000000000E+00 0. -1.
         11    1    3    3    0    0  0.64515358928E+00  0.78724784254E+01 -0.39699341682E+01  0.88403912398E+01  0.51100000000E-03 0. -1.
        -11    1    3    3    0    0  0.16989824051E+02  0.31743751968E+02 -0.83533885965E+01  0.36960776664E+02  0.51100000000E-03 0.  1.
         12    1    3    3    0    0 -0.17257772158E+02 -0.39088188567E+02  0.11338145244E+02  0.44207134298E+02  0.00000000000E+00 0. -1.
</event>
<event>
 7    1  0.1501154E-015  0.9000776E+02  0.7816164E-02  0.1186339E+00
        -11   -1    0    0    0    0  0.00000000000E+00  0.00000000000E+00  0.45593999997E+02  0.45594000000E+02  0.51100000000E-03 0.  1.
         11   -1    0    0    0    0 -0.00000000000E+00 -0.00000000000E+00 -0.45593999997E+02  0.45594000000E+02  0.51100000000E-03 0. -1.
    9900012    2    1    2    0    0  0.74774411000E+00 -0.70884267276E+00  0.57566909804E+00  0.90007756763E+02  0.90000018352E+02 0.  0.
         12    1    1    2    0    0 -0.74774411000E+00  0.70884267276E+00 -0.57566909804E+00  0.11802432373E+01  0.00000000000E+00 0. -1.
         11    1    3    3    0    0 -0.94330191993E+01  0.55185401501E+01  0.32669592781E+01  0.11406540220E+02  0.51100000000E-03 0. -1.
        -11    1    3    3    0    0 -0.19826097283E+02 -0.93488686583E+01  0.28003730104E+02  0.35562401194E+02  0.51100000000E-03 0.  1.
         12    1    3    3    0    0  0.30006860592E+02  0.31214858355E+01 -0.30695020284E+02  0.43038815349E+02  0.00000000000E+00 0. -1.
</event>
<event>
 7    1  0.1501154E-015  0.9000782E+02  0.7816164E-02  0.1186339E+00
        -11   -1    0    0    0    0  0.00000000000E+00  0.00000000000E+00  0.45593999997E+02  0.45594000000E+02  0.51100000000E-03 0.  1.
         11   -1    0    0    0    0 -0.00000000000E+00 -0.00000000000E+00 -0.45593999997E+02  0.45594000000E+02  0.51100000000E-03 0. -1.
    9900012    2    1    2    0    0  0.10248875261E+01  0.29083428732E+00  0.50778607394E+00  0.90007819624E+02  0.90000082043E+02 0.  0.
         12    1    1    2    0    0 -0.10248875261E+01 -0.29083428732E+00 -0.50778607394E+00  0.11801803763E+01  0.00000000000E+00 0. -1.
         11    1    3    3    0    0  0.14696948011E+01  0.89807652113E+01 -0.47827472183E+01  0.10280506690E+02  0.51100000000E-03 0. -1.
        -11    1    3    3    0    0 -0.26921156945E+01 -0.80369989909E+01  0.42048837997E+02  0.42894587267E+02  0.51100000000E-03 0.  1.
         12    1    3    3    0    0  0.22473084194E+01 -0.65293193312E+00 -0.36758304705E+02  0.36832725666E+02  0.00000000000E+00 0. -1.
</event>
<event>
 7    1  0.1501154E-015  0.9000772E+02  0.7816164E-02  0.1186339E+00
        -11   -1    0    0    0    0  0.00000000000E+00  0.00000000000E+00  0.45593999997E+02  0.45594000000E+02  0.51100000000E-03 0. -1.
         11   -1    0    0    0    0 -0.00000000000E+00 -0.00000000000E+00 -0.45593999997E+02  0.45594000000E+02  0.51100000000E-03 0.  1.
    9900012    2    1    2    0    0 -0.95549638087E+00 -0.31898808159E+00 -0.61507939626E+00  0.90007724865E+02  0.89999986033E+02 0.  0.
         12    1    1    2    0    0  0.95549638087E+00  0.31898808159E+00  0.61507939626E+00  0.11802751348E+01  0.00000000000E+00 0. -1.
         11    1    3    3    0    0 -0.42597931952E+01 -0.39700637557E+01 -0.79506764754E+01  0.98549734128E+01  0.51100000000E-03 0. -1.
        -11    1    3    3    0    0  0.30319054121E+02 -0.73496692377E+01 -0.22471767314E+02  0.38447925916E+02  0.51100000000E-03 0.  1.
         12    1    3    3    0    0 -0.27014757307E+02  0.11000744912E+02  0.29807364393E+02  0.41704825537E+02  0.00000000000E+00 0. -1.
</event>
<event>
 7    1  0.1501154E-015  0.9000771E+02  0.7816164E-02  0.1186339E+00
        -11   -1    0    0    0    0  0.00000000000E+00  0.00000000000E+00  0.45593999997E+02  0.45594000000E+02  0.51100000000E-03 0.  1.
         11   -1    0    0    0    0 -0.00000000000E+00 -0.00000000000E+00 -0.45593999997E+02  0.45594000000E+02  0.51100000000E-03 0. -1.
    9900012    2    1    2    0    0  0.81146332386E-01  0.92142357076E+00  0.73312631824E+00  0.90007711763E+02  0.89999972758E+02 0.  0.
         12    1    1    2    0    0 -0.81146332386E-01 -0.92142357076E+00 -0.73312631824E+00  0.11802882370E+01  0.00000000000E+00 0. -1.
         11    1    3    3    0    0  0.13359495553E+02 -0.30653705063E+02  0.90483829713E+01  0.34641001576E+02  0.51100000000E-03 0. -1.
        -11    1    3    3    0    0 -0.39661162318E+01 -0.85592472168E+01  0.66397696165E+01  0.11535914862E+02  0.51100000000E-03 0.  1.
        -12    1    3    3    0    0 -0.93122329887E+01  0.40134375850E+02 -0.14955026270E+02  0.43830795325E+02  0.00000000000E+00 0.  1.
</event>
<event>
 7    1  0.1501154E-015  0.9000773E+02  0.7816164E-02  0.1186339E+00
        -11   -1    0    0    0    0  0.00000000000E+00  0.00000000000E+00  0.45593999997E+02  0.45594000000E+02  0.51100000000E-03 0.  1.
         11   -1    0    0    0    0 -0.00000000000E+00 -0.00000000000E+00 -0.45593999997E+02  0.45594000000E+02  0.51100000000E-03 0. -1.
    9900012    2    1    2    0    0 -0.10245860204E+01  0.11118998715E+00  0.57523889747E+00  0.90007729050E+02  0.89999990273E+02 0.  0.
         12    1    1    2    0    0  0.10245860204E+01 -0.11118998715E+00 -0.57523889747E+00  0.11802709500E+01  0.00000000000E+00 0. -1.
         11    1    3    3    0    0 -0.77506177917E+01 -0.82778758481E+00 -0.65640281711E+01  0.10190376565E+02  0.51100000000E-03 0. -1.
        -11    1    3    3    0    0 -0.21708394101E+02  0.94303712212E+01 -0.26117011018E+02  0.35246057093E+02  0.51100000000E-03 0.  1.
         12    1    3    3    0    0  0.28434425872E+02 -0.84913936493E+01  0.33256278086E+02  0.44571295392E+02  0.00000000000E+00 0. -1.
</event>
<event>
 7    1  0.1740841E-015  0.9000775E+02  0.7816164E-02  0.1186339E+00
        -11   -1    0    0    0    0  0.00000000000E+00  0.00000000000E+00  0.45593999997E+02  0.45594000000E+02  0.51100000000E-03 0.  1.
         11   -1    0    0    0    0 -0.00000000000E+00 -0.00000000000E+00 -0.45593999997E+02  0.45594000000E+02  0.51100000000E-03 0. -1.
    9900012    2    1    2    0    0  0.72181639912E+00  0.88234881013E+00  0.30564834143E+00  0.90007754583E+02  0.90000016143E+02 0.  0.
         12    1    1    2    0    0 -0.72181639912E+00 -0.88234881013E+00 -0.30564834143E+00  0.11802454174E+01  0.00000000000E+00 0. -1.
         11    1    3    3    0    0 -0.22617924754E+02 -0.99178560445E+01 -0.28245638675E+02  0.37520001241E+02  0.51100000000E-03 0. -1.
        -11    1    3    3    0    0 -0.20956972684E+01 -0.87795065526E+01 -0.70903913655E+00  0.90539725594E+01  0.51100000000E-03 0.  1.
        -12    1    3    3    0    0  0.25435438422E+02  0.19579711407E+02  0.29260326153E+02  0.43433780782E+02  0.00000000000E+00 0.  1.
</event>
<event>
 7    1  0.1501154E-015  0.9000776E+02  0.7816164E-02  0.1186339E+00
        -11   -1    0    0    0    0  0.00000000000E+00  0.00000000000E+00  0.45593999997E+02  0.45594000000E+02  0.51100000000E-03 0. -1.
         11   -1    0    0    0    0 -0.00000000000E+00 -0.00000000000E+00 -0.45593999997E+02  0.45594000000E+02  0.51100000000E-03 0.  1.
    9900012    2    1    2    0    0 -0.74169082295E+00 -0.29544495434E+00 -0.86923192371E+00  0.90007763949E+02  0.90000025634E+02 0.  0.
         12    1    1    2    0    0  0.74169082295E+00  0.29544495434E+00  0.86923192371E+00  0.11802360506E+01  0.00000000000E+00 0. -1.
         11    1    3    3    0    0 -0.28495971487E+01  0.65406687945E+01 -0.47440043355E-01  0.71346200324E+01  0.51100000000E-03 0. -1.
        -11    1    3    3    0    0 -0.29797946796E+01  0.25976736206E+02 -0.29198528087E+02  0.39194694066E+02  0.51100000000E-03 0.  1.
         12    1    3    3    0    0  0.50877010053E+01 -0.32812849955E+02  0.28376736206E+02  0.43678449851E+02  0.00000000000E+00 0. -1.
</event>
<event>
 7    1  0.1501154E-015  0.9000779E+02  0.7816164E-02  0.1186339E+00
        -11   -1    0    0    0    0  0.00000000000E+00  0.00000000000E+00  0.45593999997E+02  0.45594000000E+02  0.51100000000E-03 0.  1.
         11   -1    0    0    0    0 -0.00000000000E+00 -0.00000000000E+00 -0.45593999997E+02  0.45594000000E+02  0.51100000000E-03 0. -1.
    9900012    2    1    2    0    0 -0.20868689652E+00 -0.97401787009E+00 -0.63296063732E+00  0.90007788070E+02  0.90000050072E+02 0.  0.
         12    1    1    2    0    0  0.20868689652E+00  0.97401787009E+00  0.63296063732E+00  0.11802119303E+01  0.00000000000E+00 0. -1.
         11    1    3    3    0    0  0.33973450927E+01  0.98480811207E+01  0.13958426448E+01  0.10510710366E+02  0.51100000000E-03 0. -1.
        -11    1    3    3    0    0  0.29771080018E+01  0.33989710828E+02  0.63862487721E+00  0.34125818030E+02  0.51100000000E-03 0.  1.
         12    1    3    3    0    0 -0.65831399910E+01 -0.44811809819E+02 -0.26674281593E+01  0.45371259674E+02  0.00000000000E+00 0. -1.
</event>
<event>
 7    1  0.1501154E-015  0.9000774E+02  0.7816164E-02  0.1186339E+00
        -11   -1    0    0    0    0  0.00000000000E+00  0.00000000000E+00  0.45593999997E+02  0.45594000000E+02  0.51100000000E-03 0.  1.
         11   -1    0    0    0    0 -0.00000000000E+00 -0.00000000000E+00 -0.45593999997E+02  0.45594000000E+02  0.51100000000E-03 0. -1.
    9900012    2    1    2    0    0 -0.95858796213E+00 -0.60341904444E+00  0.33167542530E+00  0.90007739854E+02  0.90000001220E+02 0.  0.
         12    1    1    2    0    0  0.95858796213E+00  0.60341904444E+00 -0.33167542530E+00  0.11802601459E+01  0.00000000000E+00 0. -1.
         11    1    3    3    0    0  0.16771411386E+02  0.29235242820E+02  0.18802135987E+01  0.33756701054E+02  0.51100000000E-03 0. -1.
        -11    1    3    3    0    0 -0.88376113922E+01  0.77848934233E+01 -0.11362140511E+02  0.16364784691E+02  0.51100000000E-03 0.  1.
        -12    1    3    3    0    0 -0.88923879559E+01 -0.37623555287E+02  0.98136023377E+01  0.39886254109E+02  0.00000000000E+00 0.  1.
</event>
<event>
 7    1  0.1501154E-015  0.9000771E+02  0.7816164E-02  0.1186339E+00
        -11   -1    0    0    0    0  0.00000000000E+00  0.00000000000E+00  0.45593999997E+02  0.45594000000E+02  0.51100000000E-03 0. -1.
         11   -1    0    0    0    0 -0.00000000000E+00 -0.00000000000E+00 -0.45593999997E+02  0.45594000000E+02  0.51100000000E-03 0.  1.
    9900012    2    1    2    0    0 -0.10848822369E+01 -0.68845073359E-01 -0.45975876673E+00  0.90007708834E+02  0.89999969791E+02 0.  0.
         12    1    1    2    0    0  0.10848822369E+01  0.68845073359E-01  0.45975876673E+00  0.11802911656E+01  0.00000000000E+00 0. -1.
         11    1    3    3    0    0 -0.30229843544E+02  0.19538842483E+02  0.38407809519E+01  0.36198914416E+02  0.51100000000E-03 0. -1.
        -11    1    3    3    0    0 -0.86304749239E+01 -0.12387769714E+01  0.59695982254E+01  0.10566729344E+02  0.51100000000E-03 0.  1.
        -12    1    3    3    0    0  0.37775436231E+02 -0.18368910584E+02 -0.10270137944E+02  0.43242065075E+02  0.00000000000E+00 0.  1.
</event>
<event>
 7    1  0.1501154E-015  0.9000683E+02  0.7816164E-02  0.1186341E+00
        -11   -1    0    0    0    0  0.00000000000E+00  0.00000000000E+00  0.45593999997E+02  0.45594000000E+02  0.51100000000E-03 0.  1.
         11   -1    0    0    0    0 -0.00000000000E+00 -0.00000000000E+00 -0.45593999997E+02  0.45594000000E+02  0.51100000000E-03 0. -1.
    9900012    2    1    2    0    0  0.25880652676E+00  0.56729926300E+00  0.10031741812E+01  0.90006827824E+02  0.89999077146E+02 0.  0.
         12    1    1    2    0    0 -0.25880652676E+00 -0.56729926300E+00 -0.10031741812E+01  0.11811721763E+01  0.00000000000E+00 0. -1.
         11    1    3    3    0    0 -0.10463738557E+02  0.30046485893E+02 -0.22391217011E+02  0.38905626053E+02  0.51100000000E-03 0. -1.
        -11    1    3    3    0    0  0.25735784185E+01  0.71882942093E+01  0.20811786431E+01  0.79136707235E+01  0.51100000000E-03 0.  1.
        -12    1    3    3    0    0  0.81489666650E+01 -0.36667480839E+02  0.21313212549E+02  0.43187531047E+02  0.00000000000E+00 0.  1.
</event>
<event>
 7    1  0.1501154E-015  0.9000765E+02  0.7816164E-02  0.1186339E+00
        -11   -1    0    0    0    0  0.00000000000E+00  0.00000000000E+00  0.45593999997E+02  0.45594000000E+02  0.51100000000E-03 0. -1.
         11   -1    0    0    0    0 -0.00000000000E+00 -0.00000000000E+00 -0.45593999997E+02  0.45594000000E+02  0.51100000000E-03 0.  1.
    9900012    2    1    2    0    0 -0.38249980175E+00  0.10853770816E+01  0.26242710557E+00  0.90007653655E+02  0.89999913884E+02 0.  0.
         12    1    1    2    0    0  0.38249980175E+00 -0.10853770816E+01 -0.26242710557E+00  0.11803463447E+01  0.00000000000E+00 0. -1.
         11    1    3    3    0    0  0.49475199386E+01 -0.37659180221E+02  0.95298368523E+01  0.39160051062E+02  0.51100000000E-03 0. -1.
        -11    1    3    3    0    0  0.94508364727E+01  0.17318876495E+01 -0.48078952612E+01  0.10744003070E+02  0.51100000000E-03 0.  1.
        -12    1    3    3    0    0 -0.14780856213E+02  0.37012669654E+02 -0.44595144856E+01  0.40103599523E+02  0.00000000000E+00 0.  1.
</event>
<event>
 7    1  0.1501154E-015  0.9000775E+02  0.7816164E-02  0.1186339E+00
        -11   -1    0    0    0    0  0.00000000000E+00  0.00000000000E+00  0.45593999997E+02  0.45594000000E+02  0.51100000000E-03 0.  1.
         11   -1    0    0    0    0 -0.00000000000E+00 -0.00000000000E+00 -0.45593999997E+02  0.45594000000E+02  0.51100000000E-03 0. -1.
    9900012    2    1    2    0    0  0.11751708176E+01 -0.96989543334E-01  0.50453922350E-01  0.90007754678E+02  0.90000016240E+02 0.  0.
         12    1    1    2    0    0 -0.11751708176E+01  0.96989543334E-01 -0.50453922350E-01  0.11802453221E+01  0.00000000000E+00 0. -1.
         11    1    3    3    0    0  0.48042608073E+01  0.81650383501E+01 -0.21849839710E+01  0.97222902846E+01  0.51100000000E-03 0. -1.
        -11    1    3    3    0    0  0.15112850474E-01  0.22098207975E+02  0.31155980621E+02  0.38197200851E+02  0.51100000000E-03 0.  1.
         12    1    3    3    0    0 -0.36442028402E+01 -0.30360235869E+02 -0.28920542728E+02  0.42088263542E+02  0.00000000000E+00 0. -1.
</event>
<event>
 7    1  0.1501154E-015  0.9000752E+02  0.7816164E-02  0.1186339E+00
        -11   -1    0    0    0    0  0.00000000000E+00  0.00000000000E+00  0.45593999997E+02  0.45594000000E+02  0.51100000000E-03 0.  1.
         11   -1    0    0    0    0 -0.00000000000E+00 -0.00000000000E+00 -0.45593999997E+02  0.45594000000E+02  0.51100000000E-03 0. -1.
    9900012    2    1    2    0    0 -0.65306227953E+00 -0.98026789801E+00  0.78250300789E-01  0.90007517640E+02  0.89999776073E+02 0.  0.
         12    1    1    2    0    0  0.65306227953E+00  0.98026789801E+00 -0.78250300789E-01  0.11804823600E+01  0.00000000000E+00 0. -1.
         11    1    3    3    0    0 -0.36010667679E+02  0.14722554936E+02  0.10169300493E+02  0.40211148743E+02  0.51100000000E-03 0. -1.
        -11    1    3    3    0    0 -0.46634003672E+01 -0.46950187475E+01 -0.42883634770E+01  0.78854654648E+01  0.51100000000E-03 0.  1.
        -12    1    3    3    0    0  0.40021005766E+02 -0.11007804086E+02 -0.58026867147E+01  0.41910903432E+02  0.00000000000E+00 0.  1.
</event>
<event>
 7    1  0.1501154E-015  0.9000774E+02  0.7816164E-02  0.1186339E+00
        -11   -1    0    0    0    0  0.00000000000E+00  0.00000000000E+00  0.45593999997E+02  0.45594000000E+02  0.51100000000E-03 0. -1.
         11   -1    0    0    0    0 -0.00000000000E+00 -0.00000000000E+00 -0.45593999997E+02  0.45594000000E+02  0.51100000000E-03 0.  1.
    9900012    2    1    2    0    0 -0.21861989419E+00  0.17165600516E+00 -0.11470606136E+01  0.90007742192E+02  0.90000003589E+02 0.  0.
         12    1    1    2    0    0  0.21861989419E+00 -0.17165600516E+00  0.11470606136E+01  0.11802578080E+01  0.00000000000E+00 0. -1.
         11    1    3    3    0    0 -0.11512657787E+01  0.22275419983E+02  0.36139256366E+02  0.42468407073E+02  0.51100000000E-03 0. -1.
        -11    1    3    3    0    0  0.67235170051E+01 -0.44742148776E+01 -0.31176173116E+01  0.86570097407E+01  0.51100000000E-03 0.  1.
        -12    1    3    3    0    0 -0.57908711206E+01 -0.17629549100E+02 -0.34168699668E+02  0.38882325379E+02  0.00000000000E+00 0.  1.
</event>
<event>
 7    1  0.1501154E-015  0.9000777E+02  0.7816164E-02  0.1186339E+00
        -11   -1    0    0    0    0  0.00000000000E+00  0.00000000000E+00  0.45593999997E+02  0.45594000000E+02  0.51100000000E-03 0.  1.
         11   -1    0    0    0    0 -0.00000000000E+00 -0.00000000000E+00 -0.45593999997E+02  0.45594000000E+02  0.51100000000E-03 0. -1.
    9900012    2    1    2    0    0  0.48286651781E+00  0.10764960557E+01 -0.30489985112E-01  0.90007773975E+02  0.90000035791E+02 0.  0.
         12    1    1    2    0    0 -0.48286651781E+00 -0.10764960557E+01  0.30489985112E-01  0.11802260255E+01  0.00000000000E+00 0. -1.
         11    1    3    3    0    0  0.40341810100E+02  0.10621685039E+02  0.18870452601E+01  0.41759343569E+02  0.51100000000E-03 0. -1.
        -11    1    3    3    0    0 -0.58884093112E+01  0.79939837950E+01  0.49779461762E+00  0.99410734266E+01  0.51100000000E-03 0.  1.
        -12    1    3    3    0    0 -0.33970534271E+02 -0.17539172778E+02 -0.24153298629E+01  0.38307356979E+02  0.00000000000E+00 0.  1.
</event>
<event>
 7    1  0.1501154E-015  0.9000776E+02  0.7816164E-02  0.1186339E+00
        -11   -1    0    0    0    0  0.00000000000E+00  0.00000000000E+00  0.45593999997E+02  0.45594000000E+02  0.51100000000E-03 0.  1.
         11   -1    0    0    0    0 -0.00000000000E+00 -0.00000000000E+00 -0.45593999997E+02  0.45594000000E+02  0.51100000000E-03 0. -1.
    9900012    2    1    2    0    0 -0.34204251641E+00  0.99547280143E+00  0.53386183535E+00  0.90007759499E+02  0.90000021124E+02 0.  0.
         12    1    1    2    0    0  0.34204251641E+00 -0.99547280143E+00 -0.53386183535E+00  0.11802405012E+01  0.00000000000E+00 0. -1.
         11    1    3    3    0    0  0.40525359397E+01  0.31982626020E+01  0.80703413606E+01  0.95803100760E+01  0.51100000000E-03 0. -1.
        -11    1    3    3    0    0  0.17625951933E+02 -0.27803703487E+02  0.18522681492E+02  0.37773136474E+02  0.51100000000E-03 0.  1.
         12    1    3    3    0    0 -0.22020530390E+02  0.25600913687E+02 -0.26059161017E+02  0.42654312949E+02  0.00000000000E+00 0. -1.
</event>
<event>
 7    1  0.1501154E-015  0.9000773E+02  0.7816164E-02  0.1186339E+00
        -11   -1    0    0    0    0  0.00000000000E+00  0.00000000000E+00  0.45593999997E+02  0.45594000000E+02  0.51100000000E-03 0.  1.
         11   -1    0    0    0    0 -0.00000000000E+00 -0.00000000000E+00 -0.45593999997E+02  0.45594000000E+02  0.51100000000E-03 0. -1.
    9900012    2    1    2    0    0  0.18116732314E+00 -0.11022313112E+01  0.38117172148E+00  0.90007734206E+02  0.89999995498E+02 0.  0.
         12    1    1    2    0    0 -0.18116732314E+00  0.11022313112E+01 -0.38117172148E+00  0.11802657936E+01  0.00000000000E+00 0. -1.
         11    1    3    3    0    0 -0.45851313322E+01 -0.57030870167E+01  0.55617243788E+01  0.91913768925E+01  0.51100000000E-03 0. -1.
        -11    1    3    3    0    0  0.17491773651E+02 -0.29371860929E+02  0.17119322630E+02  0.38232702853E+02  0.51100000000E-03 0.  1.
         12    1    3    3    0    0 -0.12725474996E+02  0.33972716634E+02 -0.22299875287E+02  0.42583654461E+02  0.00000000000E+00 0. -1.
</event>
<event>
 7    1  0.1501154E-015  0.9000780E+02  0.7816164E-02  0.1186339E+00
        -11   -1    0    0    0    0  0.00000000000E+00  0.00000000000E+00  0.45593999997E+02  0.45594000000E+02  0.51100000000E-03 0. -1.
         11   -1    0    0    0    0 -0.00000000000E+00 -0.00000000000E+00 -0.45593999997E+02  0.45594000000E+02  0.51100000000E-03 0.  1.
    9900012    2    1    2    0    0  0.90540527643E+00 -0.25379028973E+00  0.71323438100E+00  0.90007800225E+02  0.90000062388E+02 0.  0.
         12    1    1    2    0    0 -0.90540527643E+00  0.25379028973E+00 -0.71323438100E+00  0.11801997746E+01  0.00000000000E+00 0. -1.
         11    1    3    3    0    0  0.86579459595E+01  0.97998016567E+01  0.10719577524E+02  0.16908739849E+02  0.51100000000E-03 0. -1.
        -11    1    3    3    0    0  0.16308588277E+02  0.22908033299E+02 -0.15191830562E+02  0.31961535591E+02  0.51100000000E-03 0.  1.
         12    1    3    3    0    0 -0.24061128961E+02 -0.32961625245E+02  0.51854874197E+01  0.41137524785E+02  0.00000000000E+00 0. -1.
</event>
<event>
 7    1  0.1501154E-015  0.9000767E+02  0.7816164E-02  0.1186339E+00
        -11   -1    0    0    0    0  0.00000000000E+00  0.00000000000E+00  0.45593999997E+02  0.45594000000E+02  0.51100000000E-03 0.  1.
         11   -1    0    0    0    0 -0.00000000000E+00 -0.00000000000E+00 -0.45593999997E+02  0.45594000000E+02  0.51100000000E-03 0. -1.
    9900012    2    1    2    0    0  0.78831004153E+00 -0.77988374730E+00 -0.40438016590E+00  0.90007671783E+02  0.89999932251E+02 0.  0.
         12    1    1    2    0    0 -0.78831004153E+00  0.77988374730E+00  0.40438016590E+00  0.11803282168E+01  0.00000000000E+00 0. -1.
         11    1    3    3    0    0  0.22797425319E+01 -0.37634340002E+02 -0.78146206924E+01  0.38504662967E+02  0.51100000000E-03 0. -1.
        -11    1    3    3    0    0  0.67063513535E+01 -0.37102013559E+01  0.65936374129E+01  0.10110232301E+02  0.51100000000E-03 0.  1.
        -12    1    3    3    0    0 -0.81977838439E+01  0.40564657611E+02  0.81660311363E+00  0.41392776515E+02  0.00000000000E+00 0.  1.
</event>
<event>
 7    1  0.1501154E-015  0.9000772E+02  0.7816164E-02  0.1186339E+00
        -11   -1    0    0    0    0  0.00000000000E+00  0.00000000000E+00  0.45593999997E+02  0.45594000000E+02  0.51100000000E-03 0. -1.
         11   -1    0    0    0    0 -0.00000000000E+00 -0.00000000000E+00 -0.45593999997E+02  0.45594000000E+02  0.51100000000E-03 0.  1.
    9900012    2    1    2    0    0 -0.85200244534E+00  0.21847565802E+00 -0.78702804593E+00  0.90007723369E+02  0.89999984518E+02 0.  0.
         12    1    1    2    0    0  0.85200244534E+00 -0.21847565802E+00  0.78702804593E+00  0.11802766308E+01  0.00000000000E+00 0. -1.
         11    1    3    3    0    0 -0.35750777882E+01  0.63055507375E+01 -0.57970089594E+01  0.92815119690E+01  0.51100000000E-03 0. -1.
        -11    1    3    3    0    0  0.36723255030E+02  0.36584199449E+00 -0.16196990330E+02  0.40138183771E+02  0.51100000000E-03 0.  1.
         12    1    3    3    0    0 -0.34000179688E+02 -0.64529170740E+01  0.21206971243E+02  0.40588027630E+02  0.00000000000E+00 0. -1.
</event>
<event>
 7    1  0.1501154E-015  0.9000768E+02  0.7816164E-02  0.1186339E+00
        -11   -1    0    0    0    0  0.00000000000E+00  0.00000000000E+00  0.45593999997E+02  0.45594000000E+02  0.51100000000E-03 0.  1.
         11   -1    0    0    0    0 -0.00000000000E+00 -0.00000000000E+00 -0.45593999997E+02  0.45594000000E+02  0.51100000000E-03 0. -1.
    9900012    2    1    2    0    0  0.80511848538E+00  0.77745048372E+00 -0.37484819753E+00  0.90007679619E+02  0.89999940190E+02 0.  0.
         12    1    1    2    0    0 -0.80511848538E+00 -0.77745048372E+00  0.37484819753E+00  0.11803203808E+01  0.00000000000E+00 0. -1.
         11    1    3    3    0    0  0.60597854404E+01  0.30176213004E+01 -0.37870501810E+02  0.38470793408E+02  0.51100000000E-03 0. -1.
        -11    1    3    3    0    0 -0.10171379406E+02  0.42880445307E+01 -0.19883357261E+01  0.11215960242E+02  0.51100000000E-03 0.  1.
        -12    1    3    3    0    0  0.49167124512E+01 -0.65282153473E+01  0.39483989338E+02  0.40320925969E+02  0.00000000000E+00 0.  1.
</event>
<event>
 7    1  0.1501154E-015  0.9000780E+02  0.7816164E-02  0.1186339E+00
        -11   -1    0    0    0    0  0.00000000000E+00  0.00000000000E+00  0.45593999997E+02  0.45594000000E+02  0.51100000000E-03 0. -1.
         11   -1    0    0    0    0 -0.00000000000E+00 -0.00000000000E+00 -0.45593999997E+02  0.45594000000E+02  0.51100000000E-03 0.  1.
    9900012    2    1    2    0    0  0.84661348300E+00  0.60822072568E+00  0.55332974924E+00  0.90007804825E+02  0.90000067048E+02 0.  0.
         12    1    1    2    0    0 -0.84661348300E+00 -0.60822072568E+00 -0.55332974924E+00  0.11801951754E+01  0.00000000000E+00 0. -1.
         11    1    3    3    0    0  0.71403670946E+00  0.86254393118E+01  0.10345413070E+02  0.13488351404E+02  0.51100000000E-03 0. -1.
        -11    1    3    3    0    0  0.20109864230E+02 -0.21279457946E+02 -0.32326042295E+02  0.43614160321E+02  0.51100000000E-03 0.  1.
         12    1    3    3    0    0 -0.19977287456E+02  0.13262239360E+02  0.22533958974E+02  0.32905293100E+02  0.00000000000E+00 0. -1.
</event>
<event>
 7    1  0.1501154E-015  0.9000644E+02  0.7816164E-02  0.1186342E+00
        -11   -1    0    0    0    0  0.00000000000E+00  0.00000000000E+00  0.45593999997E+02  0.45594000000E+02  0.51100000000E-03 0. -1.
         11   -1    0    0    0    0 -0.00000000000E+00 -0.00000000000E+00 -0.45593999997E+02  0.45594000000E+02  0.51100000000E-03 0.  1.
    9900012    2    1    2    0    0 -0.79776601896E+00  0.64011039168E+00  0.59152756192E+00  0.90006443065E+02  0.89998687304E+02 0.  0.
         12    1    1    2    0    0  0.79776601896E+00 -0.64011039168E+00 -0.59152756192E+00  0.11815569352E+01  0.00000000000E+00 0. -1.
         11    1    3    3    0    0  0.48383539236E-02 -0.22226505848E+01 -0.10715123471E+02  0.10943220289E+02  0.51100000000E-03 0. -1.
        -11    1    3    3    0    0  0.16722020595E+02  0.28158795420E+02 -0.17307814779E+02  0.37041924693E+02  0.51100000000E-03 0.  1.
         12    1    3    3    0    0 -0.17524624968E+02 -0.25296034443E+02  0.28614465812E+02  0.42021298083E+02  0.00000000000E+00 0. -1.
</event>
<event>
 7    1  0.1501154E-015  0.9000824E+02  0.7816164E-02  0.1186338E+00
        -11   -1    0    0    0    0  0.00000000000E+00  0.00000000000E+00  0.45593999997E+02  0.45594000000E+02  0.51100000000E-03 0.  1.
         11   -1    0    0    0    0 -0.00000000000E+00 -0.00000000000E+00 -0.45593999997E+02  0.45594000000E+02  0.51100000000E-03 0. -1.
    9900012    2    1    2    0    0 -0.10035261741E+01  0.61915253607E+00  0.37723543072E-01  0.90008238282E+02  0.90000506226E+02 0.  0.
         12    1    1    2    0    0  0.10035261741E+01 -0.61915253607E+00 -0.37723543072E-01  0.11797617177E+01  0.00000000000E+00 0. -1.
         11    1    3    3    0    0  0.28347556946E+02  0.81940975358E+01 -0.20921085391E+02  0.36172075326E+02  0.51100000000E-03 0. -1.
        -11    1    3    3    0    0  0.61669330286E+01  0.61531453722E+01 -0.25598957892E+01  0.90799409504E+01  0.51100000000E-03 0.  1.
        -12    1    3    3    0    0 -0.35518016148E+02 -0.13728090372E+02  0.23518704723E+02  0.44756222006E+02  0.00000000000E+00 0.  1.
</event>
<event>
 7    1  0.1501154E-015  0.9000777E+02  0.7816164E-02  0.1186339E+00
        -11   -1    0    0    0    0  0.00000000000E+00  0.00000000000E+00  0.45593999997E+02  0.45594000000E+02  0.51100000000E-03 0.  1.
         11   -1    0    0    0    0 -0.00000000000E+00 -0.00000000000E+00 -0.45593999997E+02  0.45594000000E+02  0.51100000000E-03 0. -1.
    9900012    2    1    2    0    0  0.87719086050E-02  0.10282653937E+01  0.57925524514E+00  0.90007769808E+02  0.90000031570E+02 0.  0.
         12    1    1    2    0    0 -0.87719086050E-02 -0.10282653937E+01 -0.57925524514E+00  0.11802301916E+01  0.00000000000E+00 0. -1.
         11    1    3    3    0    0  0.27852794600E+02 -0.26049472973E+02 -0.15386926833E+02  0.41123116697E+02  0.51100000000E-03 0. -1.
        -11    1    3    3    0    0 -0.69147323505E+01 -0.36592083834E+01  0.73045442305E+01  0.10703256334E+02  0.51100000000E-03 0.  1.
        -12    1    3    3    0    0 -0.20929290341E+02  0.30736946750E+02  0.86616378474E+01  0.38181396778E+02  0.00000000000E+00 0.  1.
</event>
<event>
 7    1  0.1810210E-015  0.9000771E+02  0.7816164E-02  0.1186339E+00
        -11   -1    0    0    0    0  0.00000000000E+00  0.00000000000E+00  0.45593999997E+02  0.45594000000E+02  0.51100000000E-03 0.  1.
         11   -1    0    0    0    0 -0.00000000000E+00 -0.00000000000E+00 -0.45593999997E+02  0.45594000000E+02  0.51100000000E-03 0. -1.
    9900012    2    1    2    0    0 -0.45949202023E+00 -0.30519403246E+00  0.10434565193E+01  0.90007712822E+02  0.89999973832E+02 0.  0.
         12    1    1    2    0    0  0.45949202023E+00  0.30519403246E+00 -0.10434565193E+01  0.11802871777E+01  0.00000000000E+00 0. -1.
         11    1    3    3    0    0  0.19415342401E+02 -0.11769117192E+01 -0.35336905465E+02  0.40336553272E+02  0.51100000000E-03 0. -1.
        -11    1    3    3    0    0 -0.19802469901E+01 -0.97916687685E+01  0.31927028685E+01  0.10487683599E+02  0.51100000000E-03 0.  1.
        -12    1    3    3    0    0 -0.17894587431E+02  0.10663386455E+02  0.33187659116E+02  0.39183475951E+02  0.00000000000E+00 0.  1.
</event>
<event>
 7    1  0.1501154E-015  0.9000810E+02  0.7816164E-02  0.1186338E+00
        -11   -1    0    0    0    0  0.00000000000E+00  0.00000000000E+00  0.45593999997E+02  0.45594000000E+02  0.51100000000E-03 0.  1.
         11   -1    0    0    0    0 -0.00000000000E+00 -0.00000000000E+00 -0.45593999997E+02  0.45594000000E+02  0.51100000000E-03 0. -1.
    9900012    2    1    2    0    0 -0.10840697316E+01  0.15842159204E+00  0.43801729225E+00  0.90008100118E+02  0.90000366239E+02 0.  0.
         12    1    1    2    0    0  0.10840697316E+01 -0.15842159204E+00 -0.43801729225E+00  0.11798998823E+01  0.00000000000E+00 0. -1.
         11    1    3    3    0    0 -0.81012560748E+01 -0.62645838202E+01 -0.49197252971E+01  0.11361296479E+02  0.51100000000E-03 0. -1.
        -11    1    3    3    0    0 -0.83080610626E+01  0.38840613120E+02 -0.77505929528E+01  0.40468367863E+02  0.51100000000E-03 0.  1.
         12    1    3    3    0    0  0.15325247406E+02 -0.32417607708E+02  0.13108335542E+02  0.38178435775E+02  0.00000000000E+00 0. -1.
</event>
<event>
 7    1  0.1643564E-015  0.9000790E+02  0.7816164E-02  0.1186339E+00
        -11   -1    0    0    0    0  0.00000000000E+00  0.00000000000E+00  0.45593999997E+02  0.45594000000E+02  0.51100000000E-03 0.  1.
         11   -1    0    0    0    0 -0.00000000000E+00 -0.00000000000E+00 -0.45593999997E+02  0.45594000000E+02  0.51100000000E-03 0. -1.
    9900012    2    1    2    0    0 -0.52342226680E+00 -0.88222509925E+00  0.58338100708E+00  0.90007904498E+02  0.90000168037E+02 0.  0.
         12    1    1    2    0    0  0.52342226680E+00  0.88222509925E+00 -0.58338100708E+00  0.11800955023E+01  0.00000000000E+00 0. -1.
         11    1    3    3    0    0  0.37137981397E+02 -0.83748012056E+01 -0.77447456824E+01  0.38850328743E+02  0.51100000000E-03 0. -1.
        -11    1    3    3    0    0  0.19832158398E+01  0.65838700889E+01 -0.58664877508E+01  0.90385933201E+01  0.51100000000E-03 0.  1.
        -12    1    3    3    0    0 -0.39644619504E+02  0.90870601751E+00  0.14194614440E+02  0.42118982435E+02  0.00000000000E+00 0.  1.
</event>
<event>
 7    1  0.1501154E-015  0.9000761E+02  0.7816164E-02  0.1186339E+00
        -11   -1    0    0    0    0  0.00000000000E+00  0.00000000000E+00  0.45593999997E+02  0.45594000000E+02  0.51100000000E-03 0. -1.
         11   -1    0    0    0    0 -0.00000000000E+00 -0.00000000000E+00 -0.45593999997E+02  0.45594000000E+02  0.51100000000E-03 0.  1.
    9900012    2    1    2    0    0  0.17294073863E+00  0.11553753673E+01 -0.16884715408E+00  0.90007614427E+02  0.89999874138E+02 0.  0.
         12    1    1    2    0    0 -0.17294073863E+00 -0.11553753673E+01  0.16884715408E+00  0.11803855726E+01  0.00000000000E+00 0. -1.
         11    1    3    3    0    0  0.33549057873E+02 -0.19725363981E+02  0.20561893421E+02  0.44016141694E+02  0.51100000000E-03 0. -1.
        -11    1    3    3    0    0 -0.10552538938E+02  0.12487383879E+01 -0.80191986654E+01  0.13312511900E+02  0.51100000000E-03 0.  1.
        -12    1    3    3    0    0 -0.22823578197E+02  0.19632000961E+02 -0.12711541909E+02  0.32678960833E+02  0.00000000000E+00 0.  1.
</event>
<event>
 7    1  0.2142331E-015  0.9000847E+02  0.7816164E-02  0.1186338E+00
        -11   -1    0    0    0    0  0.00000000000E+00  0.00000000000E+00  0.45593999997E+02  0.45594000000E+02  0.51100000000E-03 0.  1.
         11   -1    0    0    0    0 -0.00000000000E+00 -0.00000000000E+00 -0.45593999997E+02  0.45594000000E+02  0.51100000000E-03 0. -1.
    9900012    2    1    2    0    0 -0.97722201437E+00 -0.58369536898E+00  0.30924539972E+00  0.90008467946E+02  0.90000738920E+02 0.  0.
         12    1    1    2    0    0  0.97722201437E+00  0.58369536898E+00 -0.30924539972E+00  0.11795320540E+01  0.00000000000E+00 0. -1.
         11    1    3    3    0    0 -0.14717852130E+02 -0.34003323836E+02 -0.60532174359E+01  0.37543077188E+02  0.51100000000E-03 0. -1.
        -11    1    3    3    0    0  0.42668123774E+01 -0.73761233825E+01 -0.38595853279E+01  0.93546396607E+01  0.51100000000E-03 0.  1.
        -12    1    3    3    0    0  0.94738177380E+01  0.40795751849E+02  0.10222048164E+02  0.43110751097E+02  0.00000000000E+00 0.  1.
</event>
<event>
 7    1  0.1501154E-015  0.9000782E+02  0.7816164E-02  0.1186339E+00
        -11   -1    0    0    0    0  0.00000000000E+00  0.00000000000E+00  0.45593999997E+02  0.45594000000E+02  0.51100000000E-03 0.  1.
         11   -1    0    0    0    0 -0.00000000000E+00 -0.00000000000E+00 -0.45593999997E+02  0.45594000000E+02  0.51100000000E-03 0. -1.
    9900012    2    1    2    0    0 -0.11210229009E+01 -0.23353567775E+00  0.28563734935E+00  0.90007822067E+02  0.90000084519E+02 0.  0.
         12    1    1    2    0    0  0.11210229009E+01  0.23353567775E+00 -0.28563734935E+00  0.11801779325E+01  0.00000000000E+00 0. -1.
         11    1    3    3    0    0  0.22350158345E+02 -0.36865747925E+01 -0.25701542092E+02  0.34259154659E+02  0.51100000000E-03 0. -1.
        -11    1    3    3    0    0  0.88020220486E+01 -0.42721201766E+01 -0.44230692195E+01  0.10737324831E+02  0.51100000000E-03 0.  1.
        -12    1    3    3    0    0 -0.32273203295E+02  0.77251592914E+01  0.30410248661E+02  0.45011342577E+02  0.00000000000E+00 0.  1.
</event>
<event>
 7    1  0.1501154E-015  0.9000777E+02  0.7816164E-02  0.1186339E+00
        -11   -1    0    0    0    0  0.00000000000E+00  0.00000000000E+00  0.45593999997E+02  0.45594000000E+02  0.51100000000E-03 0. -1.
         11   -1    0    0    0    0 -0.00000000000E+00 -0.00000000000E+00 -0.45593999997E+02  0.45594000000E+02  0.51100000000E-03 0.  1.
    9900012    2    1    2    0    0 -0.95873984993E+00  0.38135721272E+00  0.57299829195E+00  0.90007770164E+02  0.90000031930E+02 0.  0.
         12    1    1    2    0    0  0.95873984993E+00 -0.38135721272E+00 -0.57299829195E+00  0.11802298361E+01  0.00000000000E+00 0. -1.
         11    1    3    3    0    0 -0.37557909079E+02 -0.45362325804E+01  0.11268691761E+02  0.39473501931E+02  0.51100000000E-03 0. -1.
        -11    1    3    3    0    0  0.18338000538E+00  0.63248643079E+01  0.74906625767E+01  0.98054863642E+01  0.51100000000E-03 0.  1.
        -12    1    3    3    0    0  0.36415789224E+02 -0.14072745147E+01 -0.18186356045E+02  0.40728781869E+02  0.00000000000E+00 0.  1.
</event>
<event>
 7    1  0.1501154E-015  0.9000764E+02  0.7816164E-02  0.1186339E+00
        -11   -1    0    0    0    0  0.00000000000E+00  0.00000000000E+00  0.45593999997E+02  0.45594000000E+02  0.51100000000E-03 0. -1.
         11   -1    0    0    0    0 -0.00000000000E+00 -0.00000000000E+00 -0.45593999997E+02  0.45594000000E+02  0.51100000000E-03 0.  1.
    9900012    2    1    2    0    0 -0.80970874837E+00 -0.78417448151E+00 -0.35026912514E+00  0.90007641438E+02  0.89999901505E+02 0.  0.
         12    1    1    2    0    0  0.80970874837E+00  0.78417448151E+00  0.35026912514E+00  0.11803585619E+01  0.00000000000E+00 0. -1.
         11    1    3    3    0    0  0.16133298294E+02  0.21747292521E+02 -0.30534436148E+02  0.40811515984E+02  0.51100000000E-03 0. -1.
        -11    1    3    3    0    0  0.67121350997E+01 -0.38936212285E+01  0.21504340660E+01  0.80521680808E+01  0.51100000000E-03 0.  1.
        -12    1    3    3    0    0 -0.23655142142E+02 -0.18637845774E+02  0.28033732957E+02  0.41143957373E+02  0.00000000000E+00 0.  1.
</event>
<event>
 7    1  0.1501154E-015  0.9000778E+02  0.7816164E-02  0.1186339E+00
        -11   -1    0    0    0    0  0.00000000000E+00  0.00000000000E+00  0.45593999997E+02  0.45594000000E+02  0.51100000000E-03 0.  1.
         11   -1    0    0    0    0 -0.00000000000E+00 -0.00000000000E+00 -0.45593999997E+02  0.45594000000E+02  0.51100000000E-03 0. -1.
    9900012    2    1    2    0    0 -0.10372127126E+01  0.31479601734E+00  0.46692842655E+00  0.90007775911E+02  0.90000037753E+02 0.  0.
         12    1    1    2    0    0  0.10372127126E+01 -0.31479601734E+00 -0.46692842655E+00  0.11802240886E+01  0.00000000000E+00 0. -1.
         11    1    3    3    0    0 -0.83790157998E+01 -0.22368225707E+00 -0.52902255347E+01  0.99118326254E+01  0.51100000000E-03 0. -1.
        -11    1    3    3    0    0  0.73986743850E+01  0.26844615456E+02  0.32354387112E+02  0.42687001854E+02  0.51100000000E-03 0.  1.
         12    1    3    3    0    0 -0.56871297721E-01 -0.26306137182E+02 -0.26597233151E+02  0.37408941432E+02  0.00000000000E+00 0. -1.
</event>
<event>
 7    1  0.1501154E-015  0.9000776E+02  0.7816164E-02  0.1186339E+00
        -11   -1    0    0    0    0  0.00000000000E+00  0.00000000000E+00  0.45593999997E+02  0.45594000000E+02  0.51100000000E-03 0. -1.
         11   -1    0    0    0    0 -0.00000000000E+00 -0.00000000000E+00 -0.45593999997E+02  0.45594000000E+02  0.51100000000E-03 0.  1.
    9900012    2    1    2    0    0  0.41743324403E+00  0.84219540877E+00 -0.71373213392E+00  0.90007763931E+02  0.90000025615E+02 0.  0.
         12    1    1    2    0    0 -0.41743324403E+00 -0.84219540877E+00  0.71373213392E+00  0.11802360691E+01  0.00000000000E+00 0. -1.
         11    1    3    3    0    0 -0.92063715200E+00 -0.13704621630E+02  0.25113452712E+01  0.13963204580E+02  0.51100000000E-03 0. -1.
        -11    1    3    3    0    0 -0.24118399995E+02  0.20466958988E+02 -0.26332806780E+02  0.41158356888E+02  0.51100000000E-03 0.  1.
         12    1    3    3    0    0  0.25456470391E+02 -0.59201419490E+01  0.23107729375E+02  0.34886202463E+02  0.00000000000E+00 0. -1.
</event>
<event>
 7    1  0.1501154E-015  0.9000775E+02  0.7816164E-02  0.1186339E+00
        -11   -1    0    0    0    0  0.00000000000E+00  0.00000000000E+00  0.45593999997E+02  0.45594000000E+02  0.51100000000E-03 0. -1.
         11   -1    0    0    0    0 -0.00000000000E+00 -0.00000000000E+00 -0.45593999997E+02  0.45594000000E+02  0.51100000000E-03 0.  1.
    9900012    2    1    2    0    0  0.38426423595E-01  0.64189898960E+00 -0.98968957491E+00  0.90007747333E+02  0.90000008798E+02 0.  0.
         12    1    1    2    0    0 -0.38426423595E-01 -0.64189898960E+00  0.98968957491E+00  0.11802526668E+01  0.00000000000E+00 0. -1.
         11    1    3    3    0    0 -0.37122487683E+02  0.15218958968E+02  0.84396474059E+01  0.40999066483E+02  0.51100000000E-03 0. -1.
        -11    1    3    3    0    0 -0.19075873294E+01 -0.60260011847E+01 -0.62502653798E+01  0.88891730367E+01  0.51100000000E-03 0.  1.
        -12    1    3    3    0    0  0.39068501436E+02 -0.85510587936E+01 -0.31790716010E+01  0.40119507814E+02  0.00000000000E+00 0.  1.
</event>
<event>
 7    1  0.1501154E-015  0.9000777E+02  0.7816164E-02  0.1186339E+00
        -11   -1    0    0    0    0  0.00000000000E+00  0.00000000000E+00  0.45593999997E+02  0.45594000000E+02  0.51100000000E-03 0.  1.
         11   -1    0    0    0    0 -0.00000000000E+00 -0.00000000000E+00 -0.45593999997E+02  0.45594000000E+02  0.51100000000E-03 0. -1.
    9900012    2    1    2    0    0  0.97622021417E+00 -0.50037180866E+00  0.43539745460E+00  0.90007767482E+02  0.90000029213E+02 0.  0.
         12    1    1    2    0    0 -0.97622021417E+00  0.50037180866E+00 -0.43539745460E+00  0.11802325182E+01  0.00000000000E+00 0. -1.
         11    1    3    3    0    0  0.66772494727E+01  0.53235309479E+01  0.39473284555E+01  0.94078182630E+01  0.51100000000E-03 0. -1.
        -11    1    3    3    0    0  0.81879342830E+01 -0.41597877018E+01  0.36800681322E+02  0.37929358650E+02  0.51100000000E-03 0.  1.
         12    1    3    3    0    0 -0.13888963541E+02 -0.16641150548E+01 -0.40312612323E+02  0.42670590569E+02  0.00000000000E+00 0. -1.
</event>
<event>
 7    1  0.1501154E-015  0.9000772E+02  0.7816164E-02  0.1186339E+00
        -11   -1    0    0    0    0  0.00000000000E+00  0.00000000000E+00  0.45593999997E+02  0.45594000000E+02  0.51100000000E-03 0.  1.
         11   -1    0    0    0    0 -0.00000000000E+00 -0.00000000000E+00 -0.45593999997E+02  0.45594000000E+02  0.51100000000E-03 0. -1.
    9900012    2    1    2    0    0 -0.10210125584E+00  0.29516877372E-01  0.11754815667E+01  0.90007723411E+02  0.89999984560E+02 0.  0.
         12    1    1    2    0    0  0.10210125584E+00 -0.29516877372E-01 -0.11754815667E+01  0.11802765888E+01  0.00000000000E+00 0. -1.
         11    1    3    3    0    0  0.80208096126E+01  0.39313129650E+01  0.16993180992E+01  0.90926503691E+01  0.51100000000E-03 0. -1.
        -11    1    3    3    0    0  0.29485179119E+02  0.19026840860E+02 -0.86110107529E+01  0.36132339632E+02  0.51100000000E-03 0.  1.
         12    1    3    3    0    0 -0.37608089988E+02 -0.22928636948E+02  0.80871742204E+01  0.44782733410E+02  0.00000000000E+00 0. -1.
</event>
<event>
 7    1  0.1501154E-015  0.9000675E+02  0.7816164E-02  0.1186341E+00
        -11   -1    0    0    0    0  0.00000000000E+00  0.00000000000E+00  0.45593999997E+02  0.45594000000E+02  0.51100000000E-03 0. -1.
         11   -1    0    0    0    0 -0.00000000000E+00 -0.00000000000E+00 -0.45593999997E+02  0.45594000000E+02  0.51100000000E-03 0.  1.
    9900012    2    1    2    0    0  0.94538955030E+00  0.58234016733E+00 -0.40308916856E+00  0.90006745434E+02  0.89998993668E+02 0.  0.
         12    1    1    2    0    0 -0.94538955030E+00 -0.58234016733E+00  0.40308916856E+00  0.11812545662E+01  0.00000000000E+00 0. -1.
         11    1    3    3    0    0  0.67838074327E+01  0.54998323164E+01  0.43694916209E+01  0.97652780851E+01  0.51100000000E-03 0. -1.
        -11    1    3    3    0    0  0.31337891458E+02 -0.20275675427E+02 -0.12339868342E+02  0.39312069470E+02  0.51100000000E-03 0.  1.
         12    1    3    3    0    0 -0.37176309341E+02  0.15358183278E+02  0.75672875526E+01  0.40929397879E+02  0.00000000000E+00 0. -1.
</event>
<event>
 7    1  0.1501154E-015  0.9000776E+02  0.7816164E-02  0.1186339E+00
        -11   -1    0    0    0    0  0.00000000000E+00  0.00000000000E+00  0.45593999997E+02  0.45594000000E+02  0.51100000000E-03 0.  1.
         11   -1    0    0    0    0 -0.00000000000E+00 -0.00000000000E+00 -0.45593999997E+02  0.45594000000E+02  0.51100000000E-03 0. -1.
    9900012    2    1    2    0    0 -0.25744776455E+00 -0.11517656935E+01 -0.11482827735E-01  0.90007756203E+02  0.90000017785E+02 0.  0.
         12    1    1    2    0    0  0.25744776455E+00  0.11517656935E+01  0.11482827735E-01  0.11802437967E+01  0.00000000000E+00 0. -1.
         11    1    3    3    0    0 -0.90115931768E+01 -0.47531685874E+01  0.23645763528E+01  0.10459093880E+02  0.51100000000E-03 0. -1.
        -11    1    3    3    0    0 -0.33107259722E+02  0.11085869898E+02  0.79062783995E+01  0.35797994303E+02  0.51100000000E-03 0.  1.
         12    1    3    3    0    0  0.41861405134E+02 -0.74844670042E+01 -0.10282337580E+02  0.43750668021E+02  0.00000000000E+00 0. -1.
</event>
<event>
 7    1  0.1501154E-015  0.9000777E+02  0.7816164E-02  0.1186339E+00
        -11   -1    0    0    0    0  0.00000000000E+00  0.00000000000E+00  0.45593999997E+02  0.45594000000E+02  0.51100000000E-03 0.  1.
         11   -1    0    0    0    0 -0.00000000000E+00 -0.00000000000E+00 -0.45593999997E+02  0.45594000000E+02  0.51100000000E-03 0. -1.
    9900012    2    1    2    0    0  0.10060482701E+01  0.53105995201E+00  0.31431630563E+00  0.90007765898E+02  0.90000027608E+02 0.  0.
         12    1    1    2    0    0 -0.10060482701E+01 -0.53105995201E+00 -0.31431630563E+00  0.11802341015E+01  0.00000000000E+00 0. -1.
         11    1    3    3    0    0 -0.96219464212E+01 -0.79151355661E+01  0.22813302146E+01  0.12666321162E+02  0.51100000000E-03 0. -1.
        -11    1    3    3    0    0 -0.21353851460E+02  0.27628402954E+02  0.12856115785E+02  0.37210150971E+02  0.51100000000E-03 0.  1.
         12    1    3    3    0    0  0.31981846152E+02 -0.19182207435E+02 -0.14823129694E+02  0.40131293766E+02  0.00000000000E+00 0. -1.
</event>
<event>
 7    1  0.1501154E-015  0.9000792E+02  0.7816164E-02  0.1186339E+00
        -11   -1    0    0    0    0  0.00000000000E+00  0.00000000000E+00  0.45593999997E+02  0.45594000000E+02  0.51100000000E-03 0. -1.
         11   -1    0    0    0    0 -0.00000000000E+00 -0.00000000000E+00 -0.45593999997E+02  0.45594000000E+02  0.51100000000E-03 0.  1.
    9900012    2    1    2    0    0 -0.10979930948E+00  0.62457729294E+00 -0.99520940205E+00  0.90007917614E+02  0.90000181327E+02 0.  0.
         12    1    1    2    0    0  0.10979930948E+00 -0.62457729294E+00  0.99520940205E+00  0.11800823857E+01  0.00000000000E+00 0. -1.
         11    1    3    3    0    0  0.31241606929E+02  0.36727515633E+01 -0.50312182668E+01  0.31856557646E+02  0.51100000000E-03 0. -1.
        -11    1    3    3    0    0 -0.90351780341E+01  0.69246435327E+01 -0.20543700183E+02  0.23486778145E+02  0.51100000000E-03 0.  1.
         12    1    3    3    0    0 -0.22316228204E+02 -0.99728178030E+01  0.24579709047E+02  0.34664581824E+02  0.00000000000E+00 0. -1.
</event>
<event>
 7    1  0.1501154E-015  0.9000785E+02  0.7816164E-02  0.1186339E+00
        -11   -1    0    0    0    0  0.00000000000E+00  0.00000000000E+00  0.45593999997E+02  0.45594000000E+02  0.51100000000E-03 0.  1.
         11   -1    0    0    0    0 -0.00000000000E+00 -0.00000000000E+00 -0.45593999997E+02  0.45594000000E+02  0.51100000000E-03 0. -1.
    9900012    2    1    2    0    0  0.64809876205E+00  0.43083379089E+00  0.88719529557E+00  0.90007845242E+02  0.90000107999E+02 0.  0.
         12    1    1    2    0    0 -0.64809876205E+00 -0.43083379089E+00 -0.88719529557E+00  0.11801547582E+01  0.00000000000E+00 0. -1.
         11    1    3    3    0    0  0.31825633659E+02 -0.17549025472E+02 -0.11638199870E+02  0.38161327929E+02  0.51100000000E-03 0. -1.
        -11    1    3    3    0    0  0.17068481410E+01 -0.80442210334E+01  0.35704169479E+01  0.89649707224E+01  0.51100000000E-03 0.  1.
        -12    1    3    3    0    0 -0.32884383038E+02  0.26024080297E+02  0.89549782174E+01  0.42881546590E+02  0.00000000000E+00 0.  1.
</event>
<event>
 7    1  0.1501154E-015  0.9000769E+02  0.7816164E-02  0.1186339E+00
        -11   -1    0    0    0    0  0.00000000000E+00  0.00000000000E+00  0.45593999997E+02  0.45594000000E+02  0.51100000000E-03 0.  1.
         11   -1    0    0    0    0 -0.00000000000E+00 -0.00000000000E+00 -0.45593999997E+02  0.45594000000E+02  0.51100000000E-03 0. -1.
    9900012    2    1    2    0    0  0.94172116836E+00  0.66223809081E+00  0.26026354170E+00  0.90007688533E+02  0.89999949222E+02 0.  0.
         12    1    1    2    0    0 -0.94172116836E+00 -0.66223809081E+00 -0.26026354170E+00  0.11803114669E+01  0.00000000000E+00 0. -1.
         11    1    3    3    0    0 -0.46799422814E+01  0.21559559912E+01  0.72752826395E+01  0.89151412629E+01  0.51100000000E-03 0. -1.
        -11    1    3    3    0    0 -0.10545045292E+02  0.32820223427E+01  0.34532452020E+02  0.36255480877E+02  0.51100000000E-03 0.  1.
         12    1    3    3    0    0  0.16166708742E+02 -0.47757402431E+01 -0.41547471118E+02  0.44837066393E+02  0.00000000000E+00 0. -1.
</event>
<event>
 7    1  0.1501154E-015  0.9000877E+02  0.7816164E-02  0.1186337E+00
        -11   -1    0    0    0    0  0.00000000000E+00  0.00000000000E+00  0.45593999997E+02  0.45594000000E+02  0.51100000000E-03 0.  1.
         11   -1    0    0    0    0 -0.00000000000E+00 -0.00000000000E+00 -0.45593999997E+02  0.45594000000E+02  0.51100000000E-03 0. -1.
    9900012    2    1    2    0    0 -0.33408062000E-01  0.94446184091E+00 -0.70530780331E+00  0.90008770012E+02  0.90001044970E+02 0.  0.
         12    1    1    2    0    0  0.33408062000E-01 -0.94446184091E+00  0.70530780331E+00  0.11792299881E+01  0.00000000000E+00 0. -1.
         11    1    3    3    0    0  0.60518194697E+01  0.34117922258E+01  0.29621272673E+01  0.75524196980E+01  0.51100000000E-03 0. -1.
        -11    1    3    3    0    0  0.20325738591E+02  0.31118819667E+02  0.83022936061E+01  0.38084703833E+02  0.51100000000E-03 0.  1.
         12    1    3    3    0    0 -0.26410966122E+02 -0.33586150051E+02 -0.11969728677E+02  0.44371646480E+02  0.00000000000E+00 0. -1.
</event>
<event>
 7    1  0.1501154E-015  0.9000780E+02  0.7816164E-02  0.1186339E+00
        -11   -1    0    0    0    0  0.00000000000E+00  0.00000000000E+00  0.45593999997E+02  0.45594000000E+02  0.51100000000E-03 0. -1.
         11   -1    0    0    0    0 -0.00000000000E+00 -0.00000000000E+00 -0.45593999997E+02  0.45594000000E+02  0.51100000000E-03 0.  1.
    9900012    2    1    2    0    0  0.72740131167E+00  0.66728149886E+00  0.64691754507E+00  0.90007796807E+02  0.90000058925E+02 0.  0.
         12    1    1    2    0    0 -0.72740131167E+00 -0.66728149886E+00 -0.64691754507E+00  0.11802031931E+01  0.00000000000E+00 0. -1.
         11    1    3    3    0    0 -0.26614361069E+02  0.41988690173E+01  0.29288042483E+02  0.39796283104E+02  0.51100000000E-03 0. -1.
        -11    1    3    3    0    0  0.57097792498E+01 -0.65915791792E+01  0.50346852191E+01  0.10069684736E+02  0.51100000000E-03 0.  1.
        -12    1    3    3    0    0  0.21631983131E+02  0.30599916607E+01 -0.33675810157E+02  0.40141828968E+02  0.00000000000E+00 0.  1.
</event>
<event>
 7    1  0.1501154E-015  0.9000774E+02  0.7816164E-02  0.1186339E+00
        -11   -1    0    0    0    0  0.00000000000E+00  0.00000000000E+00  0.45593999997E+02  0.45594000000E+02  0.51100000000E-03 0.  1.
         11   -1    0    0    0    0 -0.00000000000E+00 -0.00000000000E+00 -0.45593999997E+02  0.45594000000E+02  0.51100000000E-03 0. -1.
    9900012    2    1    2    0    0 -0.89733849719E+00 -0.32029718657E+00 -0.69655970582E+00  0.90007744905E+02  0.90000006337E+02 0.  0.
         12    1    1    2    0    0  0.89733849719E+00  0.32029718657E+00  0.69655970582E+00  0.11802550953E+01  0.00000000000E+00 0. -1.
         11    1    3    3    0    0  0.84619994457E+01  0.22663384498E+01  0.18748922885E+01  0.89586241099E+01  0.51100000000E-03 0. -1.
        -11    1    3    3    0    0 -0.10905988582E+02 -0.36299421325E+02  0.17538609515E+02  0.41763517566E+02  0.51100000000E-03 0.  1.
         12    1    3    3    0    0  0.15466506395E+01  0.33712785689E+02 -0.20110061510E+02  0.39285603229E+02  0.00000000000E+00 0. -1.
</event>
<event>
 7    1  0.1501154E-015  0.9000778E+02  0.7816164E-02  0.1186339E+00
        -11   -1    0    0    0    0  0.00000000000E+00  0.00000000000E+00  0.45593999997E+02  0.45594000000E+02  0.51100000000E-03 0.  1.
         11   -1    0    0    0    0 -0.00000000000E+00 -0.00000000000E+00 -0.45593999997E+02  0.45594000000E+02  0.51100000000E-03 0. -1.
    9900012    2    1    2    0    0 -0.28413426052E+00  0.81617465549E+00  0.80376333309E+00  0.90007784409E+02  0.90000046363E+02 0.  0.
         12    1    1    2    0    0  0.28413426052E+00 -0.81617465549E+00 -0.80376333309E+00  0.11802155913E+01  0.00000000000E+00 0. -1.
         11    1    3    3    0    0  0.96116180013E+00 -0.29057851074E+02 -0.17213779079E+02  0.33787523311E+02  0.51100000000E-03 0. -1.
        -11    1    3    3    0    0  0.27059347152E+01 -0.65366436508E+01 -0.84592824696E+01  0.11027658549E+02  0.51100000000E-03 0.  1.
        -12    1    3    3    0    0 -0.39512307758E+01  0.36410669381E+02  0.26476824881E+02  0.45192602549E+02  0.00000000000E+00 0.  1.
</event>
<event>
 7    1  0.1501154E-015  0.9000771E+02  0.7816164E-02  0.1186339E+00
        -11   -1    0    0    0    0  0.00000000000E+00  0.00000000000E+00  0.45593999997E+02  0.45594000000E+02  0.51100000000E-03 0.  1.
         11   -1    0    0    0    0 -0.00000000000E+00 -0.00000000000E+00 -0.45593999997E+02  0.45594000000E+02  0.51100000000E-03 0. -1.
    9900012    2    1    2    0    0 -0.10621405296E+01 -0.14032826709E+00  0.49522204705E+00  0.90007712152E+02  0.89999973153E+02 0.  0.
         12    1    1    2    0    0  0.10621405296E+01  0.14032826709E+00 -0.49522204705E+00  0.11802878475E+01  0.00000000000E+00 0. -1.
         11    1    3    3    0    0  0.71504822630E+01 -0.44934286439E+01 -0.11324638894E+01  0.85207260426E+01  0.51100000000E-03 0. -1.
        -11    1    3    3    0    0 -0.34040483250E+02 -0.33625935104E+01 -0.25940877559E+02  0.42930067130E+02  0.51100000000E-03 0.  1.
         12    1    3    3    0    0  0.25827860457E+02  0.77156938872E+01  0.27568563496E+02  0.38556918979E+02  0.00000000000E+00 0. -1.
</event>
<event>
 7    1  0.1501154E-015  0.9000777E+02  0.7816164E-02  0.1186339E+00
        -11   -1    0    0    0    0  0.00000000000E+00  0.00000000000E+00  0.45593999997E+02  0.45594000000E+02  0.51100000000E-03 0.  1.
         11   -1    0    0    0    0 -0.00000000000E+00 -0.00000000000E+00 -0.45593999997E+02  0.45594000000E+02  0.51100000000E-03 0. -1.
    9900012    2    1    2    0    0  0.13547924891E+00 -0.85337724267E+00  0.80395259656E+00  0.90007768191E+02  0.90000029931E+02 0.  0.
         12    1    1    2    0    0 -0.13547924891E+00  0.85337724267E+00 -0.80395259656E+00  0.11802318089E+01  0.00000000000E+00 0. -1.
         11    1    3    3    0    0  0.54778691949E+01 -0.90022908453E+01 -0.19094154416E+01  0.10709535890E+02  0.51100000000E-03 0. -1.
        -11    1    3    3    0    0  0.18023970951E+02 -0.27839983909E+02  0.12226847976E+02  0.35347192881E+02  0.51100000000E-03 0.  1.
         12    1    3    3    0    0 -0.23366360897E+02  0.35988897511E+02 -0.95134799376E+01  0.43951039421E+02  0.00000000000E+00 0. -1.
</event>
<event>
 7    1  0.1501154E-015  0.9000775E+02  0.7816164E-02  0.1186339E+00
        -11   -1    0    0    0    0  0.00000000000E+00  0.00000000000E+00  0.45593999997E+02  0.45594000000E+02  0.51100000000E-03 0.  1.
         11   -1    0    0    0    0 -0.00000000000E+00 -0.00000000000E+00 -0.45593999997E+02  0.45594000000E+02  0.51100000000E-03 0. -1.
    9900012    2    1    2    0    0 -0.88366582228E+00  0.10035755764E+00  0.77592817137E+00  0.90007745175E+02  0.90000006611E+02 0.  0.
         12    1    1    2    0    0  0.88366582228E+00 -0.10035755764E+00 -0.77592817137E+00  0.11802548250E+01  0.00000000000E+00 0. -1.
         11    1    3    3    0    0  0.36733992831E+02  0.13440293246E+02 -0.29187016220E+01  0.39224310463E+02  0.51100000000E-03 0. -1.
        -11    1    3    3    0    0 -0.21786230125E+01 -0.57512932810E+00 -0.10342491127E+02  0.10585097777E+02  0.51100000000E-03 0.  1.
        -12    1    3    3    0    0 -0.35439035641E+02 -0.12764806361E+02  0.14037120920E+02  0.40198336935E+02  0.00000000000E+00 0.  1.
</event>
<event>
 7    1  0.1501154E-015  0.9000775E+02  0.7816164E-02  0.1186339E+00
        -11   -1    0    0    0    0  0.00000000000E+00  0.00000000000E+00  0.45593999997E+02  0.45594000000E+02  0.51100000000E-03 0. -1.
         11   -1    0    0    0    0 -0.00000000000E+00 -0.00000000000E+00 -0.45593999997E+02  0.45594000000E+02  0.51100000000E-03 0.  1.
    9900012    2    1    2    0    0 -0.51509938569E+00  0.61243392021E+00 -0.86751180973E+00  0.90007754507E+02  0.90000016066E+02 0.  0.
         12    1    1    2    0    0  0.51509938569E+00 -0.61243392021E+00  0.86751180973E+00  0.11802454930E+01  0.00000000000E+00 0. -1.
         11    1    3    3    0    0  0.30579227623E+02  0.70120193998E+01  0.25743100331E+02  0.40582814010E+02  0.51100000000E-03 0. -1.
        -11    1    3    3    0    0 -0.30879876133E+01 -0.10906873925E+02 -0.13036630858E+01  0.11410306921E+02  0.51100000000E-03 0.  1.
        -12    1    3    3    0    0 -0.28006339395E+02  0.45072884457E+01 -0.25306949055E+02  0.38014633576E+02  0.00000000000E+00 0.  1.
</event>
<event>
 7    1  0.1501154E-015  0.9000781E+02  0.7816164E-02  0.1186339E+00
        -11   -1    0    0    0    0  0.00000000000E+00  0.00000000000E+00  0.45593999997E+02  0.45594000000E+02  0.51100000000E-03 0. -1.
         11   -1    0    0    0    0 -0.00000000000E+00 -0.00000000000E+00 -0.45593999997E+02  0.45594000000E+02  0.51100000000E-03 0.  1.
    9900012    2    1    2    0    0  0.54699348751E+00 -0.94571945470E+00 -0.44639011615E+00  0.90007808787E+02  0.90000071063E+02 0.  0.
         12    1    1    2    0    0 -0.54699348751E+00  0.94571945470E+00  0.44639011615E+00  0.11801912125E+01  0.00000000000E+00 0. -1.
         11    1    3    3    0    0  0.28093179667E+00 -0.99681778883E+01 -0.51851881049E+01  0.11239647193E+02  0.51100000000E-03 0. -1.
        -11    1    3    3    0    0 -0.23660191540E+02  0.16463783290E+00 -0.28387891460E+02  0.36955434664E+02  0.51100000000E-03 0.  1.
         12    1    3    3    0    0  0.23926253231E+02  0.88578206007E+01  0.33126689449E+02  0.41812726930E+02  0.00000000000E+00 0. -1.
</event>
<event>
 7    1  0.1501154E-015  0.9000777E+02  0.7816164E-02  0.1186339E+00
        -11   -1    0    0    0    0  0.00000000000E+00  0.00000000000E+00  0.45593999997E+02  0.45594000000E+02  0.51100000000E-03 0. -1.
         11   -1    0    0    0    0 -0.00000000000E+00 -0.00000000000E+00 -0.45593999997E+02  0.45594000000E+02  0.51100000000E-03 0.  1.
    9900012    2    1    2    0    0 -0.87711391405E-01  0.10990575730E+01 -0.42110482344E+00  0.90007766926E+02  0.90000028649E+02 0.  0.
         12    1    1    2    0    0  0.87711391405E-01 -0.10990575730E+01  0.42110482344E+00  0.11802330742E+01  0.00000000000E+00 0. -1.
         11    1    3    3    0    0  0.12432123603E+02 -0.33379352202E+02 -0.10654660318E+02  0.37178765948E+02  0.51100000000E-03 0. -1.
        -11    1    3    3    0    0 -0.73906515526E+01 -0.65145744802E+01 -0.12981166952E+01  0.99371282696E+01  0.51100000000E-03 0.  1.
        -12    1    3    3    0    0 -0.51291834417E+01  0.40992984255E+02  0.11531672189E+02  0.42891872708E+02  0.00000000000E+00 0.  1.
</event>
<event>
 7    1  0.1501154E-015  0.9000799E+02  0.7816164E-02  0.1186339E+00
        -11   -1    0    0    0    0  0.00000000000E+00  0.00000000000E+00  0.45593999997E+02  0.45594000000E+02  0.51100000000E-03 0. -1.
         11   -1    0    0    0    0 -0.00000000000E+00 -0.00000000000E+00 -0.45593999997E+02  0.45594000000E+02  0.51100000000E-03 0.  1.
    9900012    2    1    2    0    0  0.11114437982E+01 -0.37412251351E+00  0.13096698970E+00  0.90007988422E+02  0.90000253069E+02 0.  0.
         12    1    1    2    0    0 -0.11114437982E+01  0.37412251351E+00 -0.13096698970E+00  0.11800115779E+01  0.00000000000E+00 0. -1.
         11    1    3    3    0    0 -0.75702078430E+01  0.10165035865E+01  0.45028315692E+01  0.88666125849E+01  0.51100000000E-03 0. -1.
        -11    1    3    3    0    0 -0.27057748973E+02 -0.10487571426E+02  0.21479848121E+02  0.36103944515E+02  0.51100000000E-03 0.  1.
         12    1    3    3    0    0  0.35739400615E+02  0.90969453265E+01 -0.25851712701E+02  0.45037431323E+02  0.00000000000E+00 0. -1.
</event>
<event>
 7    1  0.1501154E-015  0.9000766E+02  0.7816164E-02  0.1186339E+00
        -11   -1    0    0    0    0  0.00000000000E+00  0.00000000000E+00  0.45593999997E+02  0.45594000000E+02  0.51100000000E-03 0. -1.
         11   -1    0    0    0    0 -0.00000000000E+00 -0.00000000000E+00 -0.45593999997E+02  0.45594000000E+02  0.51100000000E-03 0.  1.
    9900012    2    1    2    0    0  0.47186773366E+00  0.59287748191E+00 -0.90500319037E+00  0.90007663759E+02  0.89999924121E+02 0.  0.
         12    1    1    2    0    0 -0.47186773366E+00 -0.59287748191E+00  0.90500319037E+00  0.11803362407E+01  0.00000000000E+00 0. -1.
         11    1    3    3    0    0 -0.15278157504E+02  0.33618359487E+02  0.17958993604E+02  0.41062655087E+02  0.51100000000E-03 0. -1.
        -11    1    3    3    0    0  0.10776329303E+01 -0.49712206801E+01  0.65880391012E+01  0.83232558079E+01  0.51100000000E-03 0.  1.
        -12    1    3    3    0    0  0.14672392308E+02 -0.28054261325E+02 -0.25452035896E+02  0.40621752864E+02  0.00000000000E+00 0.  1.
</event>
<event>
 7    1  0.1501154E-015  0.9000773E+02  0.7816164E-02  0.1186339E+00
        -11   -1    0    0    0    0  0.00000000000E+00  0.00000000000E+00  0.45593999997E+02  0.45594000000E+02  0.51100000000E-03 0.  1.
         11   -1    0    0    0    0 -0.00000000000E+00 -0.00000000000E+00 -0.45593999997E+02  0.45594000000E+02  0.51100000000E-03 0. -1.
    9900012    2    1    2    0    0  0.44052101553E+00  0.79314306881E+00 -0.75492380079E+00  0.90007726880E+02  0.89999988075E+02 0.  0.
         12    1    1    2    0    0 -0.44052101553E+00 -0.79314306881E+00  0.75492380079E+00  0.11802731200E+01  0.00000000000E+00 0. -1.
         11    1    3    3    0    0 -0.12104080583E+02  0.28124231698E+02 -0.18631743704E+02  0.35841638482E+02  0.51100000000E-03 0. -1.
        -11    1    3    3    0    0 -0.56182052248E+01  0.76510844049E+01 -0.24695821801E+01  0.98082699252E+01  0.51100000000E-03 0.  1.
        -12    1    3    3    0    0  0.18162806824E+02 -0.34982173034E+02  0.20346402083E+02  0.44357818473E+02  0.00000000000E+00 0.  1.
</event>
<event>
 7    1  0.1501154E-015  0.9000774E+02  0.7816164E-02  0.1186339E+00
        -11   -1    0    0    0    0  0.00000000000E+00  0.00000000000E+00  0.45593999997E+02  0.45594000000E+02  0.51100000000E-03 0. -1.
         11   -1    0    0    0    0 -0.00000000000E+00 -0.00000000000E+00 -0.45593999997E+02  0.45594000000E+02  0.51100000000E-03 0.  1.
    9900012    2    1    2    0    0 -0.24347741170E-01 -0.11210156659E+01  0.36843783320E+00  0.90007739278E+02  0.90000000636E+02 0.  0.
         12    1    1    2    0    0  0.24347741170E-01  0.11210156659E+01 -0.36843783320E+00  0.11802607223E+01  0.00000000000E+00 0. -1.
         11    1    3    3    0    0 -0.21388063652E+02  0.33524279906E+02  0.16836630388E+02  0.43183315448E+02  0.51100000000E-03 0. -1.
        -11    1    3    3    0    0  0.33397411608E+01 -0.75000606612E+01  0.31461356414E+01  0.87922096584E+01  0.51100000000E-03 0.  1.
        -12    1    3    3    0    0  0.18023974750E+02 -0.27145234911E+02 -0.19614328197E+02  0.38032214171E+02  0.00000000000E+00 0.  1.
</event>
<event>
 7    1  0.1501154E-015  0.9000787E+02  0.7816164E-02  0.1186339E+00
        -11   -1    0    0    0    0  0.00000000000E+00  0.00000000000E+00  0.45593999997E+02  0.45594000000E+02  0.51100000000E-03 0. -1.
         11   -1    0    0    0    0 -0.00000000000E+00 -0.00000000000E+00 -0.45593999997E+02  0.45594000000E+02  0.51100000000E-03 0.  1.
    9900012    2    1    2    0    0  0.45442758981E+00 -0.54296434884E+00  0.94413131030E+00  0.90007873460E+02  0.90000136590E+02 0.  0.
         12    1    1    2    0    0 -0.45442758981E+00  0.54296434884E+00 -0.94413131030E+00  0.11801265396E+01  0.00000000000E+00 0. -1.
         11    1    3    3    0    0 -0.10871775181E+02  0.23620903138E+02 -0.14954300316E+00  0.26003171422E+02  0.51100000000E-03 0. -1.
        -11    1    3    3    0    0 -0.65333783249E+01  0.11033428343E+02  0.17133836331E+02  0.21400699078E+02  0.51100000000E-03 0.  1.
        -12    1    3    3    0    0  0.17859581096E+02 -0.35197295830E+02 -0.16040162018E+02  0.42604002960E+02  0.00000000000E+00 0.  1.
</event>
<event>
 7    1  0.1501154E-015  0.9000776E+02  0.7816164E-02  0.1186339E+00
        -11   -1    0    0    0    0  0.00000000000E+00  0.00000000000E+00  0.45593999997E+02  0.45594000000E+02  0.51100000000E-03 0. -1.
         11   -1    0    0    0    0 -0.00000000000E+00 -0.00000000000E+00 -0.45593999997E+02  0.45594000000E+02  0.51100000000E-03 0.  1.
    9900012    2    1    2    0    0 -0.61595488138E+00  0.33254596324E+00 -0.95024620711E+00  0.90007764817E+02  0.90000026512E+02 0.  0.
         12    1    1    2    0    0  0.61595488138E+00 -0.33254596324E+00  0.95024620711E+00  0.11802351832E+01  0.00000000000E+00 0. -1.
         11    1    3    3    0    0 -0.77684274474E+01  0.37005766056E+02  0.18022142874E+02  0.41887621327E+02  0.51100000000E-03 0. -1.
        -11    1    3    3    0    0  0.47183566770E+00 -0.66244390491E+01  0.56359831546E+01  0.87103460317E+01  0.51100000000E-03 0.  1.
        -12    1    3    3    0    0  0.66806368983E+01 -0.30048781044E+02 -0.24608372235E+02  0.39409797458E+02  0.00000000000E+00 0.  1.
</event>
<event>
 7    1  0.1501154E-015  0.9000784E+02  0.7816164E-02  0.1186339E+00
        -11   -1    0    0    0    0  0.00000000000E+00  0.00000000000E+00  0.45593999997E+02  0.45594000000E+02  0.51100000000E-03 0. -1.
         11   -1    0    0    0    0 -0.00000000000E+00 -0.00000000000E+00 -0.45593999997E+02  0.45594000000E+02  0.51100000000E-03 0.  1.
    9900012    2    1    2    0    0  0.36475219341E+00  0.81418108493E+00  0.77255688908E+00  0.90007839355E+02  0.90000102034E+02 0.  0.
         12    1    1    2    0    0 -0.36475219341E+00 -0.81418108493E+00 -0.77255688908E+00  0.11801606452E+01  0.00000000000E+00 0. -1.
         11    1    3    3    0    0  0.46212257021E+01  0.38980100250E+01 -0.81390255586E+01  0.10138734953E+02  0.51100000000E-03 0. -1.
        -11    1    3    3    0    0  0.12134975581E+02  0.32960035686E+02  0.17668123975E+02  0.39316462072E+02  0.51100000000E-03 0.  1.
         12    1    3    3    0    0 -0.16391449089E+02 -0.36043864626E+02 -0.87565415273E+01  0.40552642330E+02  0.00000000000E+00 0. -1.
</event>
<event>
 7    1  0.1501154E-015  0.9000787E+02  0.7816164E-02  0.1186339E+00
        -11   -1    0    0    0    0  0.00000000000E+00  0.00000000000E+00  0.45593999997E+02  0.45594000000E+02  0.51100000000E-03 0.  1.
         11   -1    0    0    0    0 -0.00000000000E+00 -0.00000000000E+00 -0.45593999997E+02  0.45594000000E+02  0.51100000000E-03 0. -1.
    9900012    2    1    2    0    0 -0.11062689428E+01  0.40843670591E+00 -0.45388223468E-01  0.90007867970E+02  0.90000131027E+02 0.  0.
         12    1    1    2    0    0  0.11062689428E+01 -0.40843670591E+00  0.45388223468E-01  0.11801320296E+01  0.00000000000E+00 0. -1.
         11    1    3    3    0    0  0.39584647778E+01  0.32639202124E+02 -0.27160214895E+02  0.42645799701E+02  0.51100000000E-03 0. -1.
        -11    1    3    3    0    0 -0.10319179346E+02 -0.68817690898E+01  0.52208595073E+01  0.13457398799E+02  0.51100000000E-03 0.  1.
        -12    1    3    3    0    0  0.52544456257E+01 -0.25348996328E+02  0.21893967164E+02  0.33904669470E+02  0.00000000000E+00 0.  1.
</event>
<event>
 7    1  0.1501154E-015  0.9000773E+02  0.7816164E-02  0.1186339E+00
        -11   -1    0    0    0    0  0.00000000000E+00  0.00000000000E+00  0.45593999997E+02  0.45594000000E+02  0.51100000000E-03 0. -1.
         11   -1    0    0    0    0 -0.00000000000E+00 -0.00000000000E+00 -0.45593999997E+02  0.45594000000E+02  0.51100000000E-03 0.  1.
    9900012    2    1    2    0    0  0.87990417375E+00  0.26858225991E+00 -0.73937316710E+00  0.90007728647E+02  0.89999989866E+02 0.  0.
         12    1    1    2    0    0 -0.87990417375E+00 -0.26858225991E+00  0.73937316710E+00  0.11802713525E+01  0.00000000000E+00 0. -1.
         11    1    3    3    0    0  0.89288743292E+01 -0.20165914310E+01 -0.48816967300E+01  0.10374121698E+02  0.51100000000E-03 0. -1.
        -11    1    3    3    0    0  0.29140358081E+02  0.18962104251E+02  0.14359009175E+02  0.37615196550E+02  0.51100000000E-03 0.  1.
         12    1    3    3    0    0 -0.37189328237E+02 -0.16676930560E+02 -0.10216685612E+02  0.42018410399E+02  0.00000000000E+00 0. -1.
</event>
<event>
 7    1  0.1501154E-015  0.9000774E+02  0.7816164E-02  0.1186339E+00
        -11   -1    0    0    0    0  0.00000000000E+00  0.00000000000E+00  0.45593999997E+02  0.45594000000E+02  0.51100000000E-03 0. -1.
         11   -1    0    0    0    0 -0.00000000000E+00 -0.00000000000E+00 -0.45593999997E+02  0.45594000000E+02  0.51100000000E-03 0.  1.
    9900012    2    1    2    0    0 -0.76223248349E+00 -0.90025033917E+00  0.39457717169E-01  0.90007743272E+02  0.90000004683E+02 0.  0.
         12    1    1    2    0    0  0.76223248349E+00  0.90025033917E+00 -0.39457717169E-01  0.11802567278E+01  0.00000000000E+00 0. -1.
         11    1    3    3    0    0 -0.78165491889E+01 -0.17288350496E+00 -0.56235884046E+01  0.96308398769E+01  0.51100000000E-03 0. -1.
        -11    1    3    3    0    0 -0.31814541945E+02 -0.27143620318E+00 -0.16280565398E+02  0.35739272051E+02  0.51100000000E-03 0.  1.
         12    1    3    3    0    0  0.38868858650E+02 -0.45593063104E+00  0.21943611520E+02  0.44637631345E+02  0.00000000000E+00 0. -1.
</event>
<event>
 7    1  0.1501154E-015  0.9000785E+02  0.7816164E-02  0.1186339E+00
        -11   -1    0    0    0    0  0.00000000000E+00  0.00000000000E+00  0.45593999997E+02  0.45594000000E+02  0.51100000000E-03 0.  1.
         11   -1    0    0    0    0 -0.00000000000E+00 -0.00000000000E+00 -0.45593999997E+02  0.45594000000E+02  0.51100000000E-03 0. -1.
    9900012    2    1    2    0    0  0.25268925094E+00  0.67647492826E+00  0.93343005568E+00  0.90007846682E+02  0.90000109458E+02 0.  0.
         12    1    1    2    0    0 -0.25268925094E+00 -0.67647492826E+00 -0.93343005568E+00  0.11801533184E+01  0.00000000000E+00 0. -1.
         11    1    3    3    0    0  0.57236454020E+01 -0.10535858920E+00  0.45337260799E+01  0.73024577745E+01  0.51100000000E-03 0. -1.
        -11    1    3    3    0    0 -0.32997289873E+02  0.74951769785E+00  0.26197740290E+02  0.42139109059E+02  0.51100000000E-03 0.  1.
         12    1    3    3    0    0  0.27526333722E+02  0.32315819607E-01 -0.29798036314E+02  0.40566279848E+02  0.00000000000E+00 0. -1.
</event>
<event>
 7    1  0.1501154E-015  0.9000785E+02  0.7816164E-02  0.1186339E+00
        -11   -1    0    0    0    0  0.00000000000E+00  0.00000000000E+00  0.45593999997E+02  0.45594000000E+02  0.51100000000E-03 0.  1.
         11   -1    0    0    0    0 -0.00000000000E+00 -0.00000000000E+00 -0.45593999997E+02  0.45594000000E+02  0.51100000000E-03 0. -1.
    9900012    2    1    2    0    0  0.10524474970E+01 -0.53189324073E+00 -0.46870258457E-01  0.90007850444E+02  0.90000113270E+02 0.  0.
         12    1    1    2    0    0 -0.10524474970E+01  0.53189324073E+00  0.46870258457E-01  0.11801495560E+01  0.00000000000E+00 0. -1.
         11    1    3    3    0    0  0.46857615199E+01 -0.63488099382E+01  0.14017580796E+02  0.16085904397E+02  0.51100000000E-03 0. -1.
        -11    1    3    3    0    0  0.32935302382E+02  0.86853277391E+00 -0.16678110333E+02  0.36927602911E+02  0.51100000000E-03 0.  1.
         12    1    3    3    0    0 -0.36568616405E+02  0.49483839235E+01  0.26136592791E+01  0.36994343136E+02  0.00000000000E+00 0. -1.
</event>
<event>
 7    1  0.1501154E-015  0.9000774E+02  0.7816164E-02  0.1186339E+00
        -11   -1    0    0    0    0  0.00000000000E+00  0.00000000000E+00  0.45593999997E+02  0.45594000000E+02  0.51100000000E-03 0.  1.
         11   -1    0    0    0    0 -0.00000000000E+00 -0.00000000000E+00 -0.45593999997E+02  0.45594000000E+02  0.51100000000E-03 0. -1.
    9900012    2    1    2    0    0 -0.11500984905E+01 -0.22608344877E+00 -0.13843600758E+00  0.90007743760E+02  0.90000005178E+02 0.  0.
         12    1    1    2    0    0  0.11500984905E+01  0.22608344877E+00  0.13843600758E+00  0.11802562399E+01  0.00000000000E+00 0. -1.
         11    1    3    3    0    0  0.16478464296E+02 -0.11926257237E+02 -0.37915650409E+02  0.43027571898E+02  0.51100000000E-03 0. -1.
        -11    1    3    3    0    0  0.25211339347E+01 -0.15283272005E+01  0.88417137356E+01  0.93202898234E+01  0.51100000000E-03 0.  1.
        -12    1    3    3    0    0 -0.20149696722E+02  0.13228500988E+02  0.28935500666E+02  0.37659882039E+02  0.00000000000E+00 0.  1.
</event>
<event>
 7    1  0.1501154E-015  0.9000769E+02  0.7816164E-02  0.1186339E+00
        -11   -1    0    0    0    0  0.00000000000E+00  0.00000000000E+00  0.45593999997E+02  0.45594000000E+02  0.51100000000E-03 0.  1.
         11   -1    0    0    0    0 -0.00000000000E+00 -0.00000000000E+00 -0.45593999997E+02  0.45594000000E+02  0.51100000000E-03 0. -1.
    9900012    2    1    2    0    0 -0.58483656096E+00 -0.90487214004E+00  0.48198122612E+00  0.90007689323E+02  0.89999950022E+02 0.  0.
         12    1    1    2    0    0  0.58483656096E+00  0.90487214004E+00 -0.48198122612E+00  0.11803106774E+01  0.00000000000E+00 0. -1.
         11    1    3    3    0    0 -0.20134648872E+01 -0.62702072768E+01 -0.74443633338E+01  0.99392195797E+01  0.51100000000E-03 0. -1.
        -11    1    3    3    0    0 -0.20787552311E+02  0.11718836655E+02  0.36321718579E+02  0.43459414451E+02  0.51100000000E-03 0.  1.
         12    1    3    3    0    0  0.22216180638E+02 -0.63535015179E+01 -0.28395374019E+02  0.36609055292E+02  0.00000000000E+00 0. -1.
</event>
<event>
 7    1  0.1501154E-015  0.9000775E+02  0.7816164E-02  0.1186339E+00
        -11   -1    0    0    0    0  0.00000000000E+00  0.00000000000E+00  0.45593999997E+02  0.45594000000E+02  0.51100000000E-03 0. -1.
         11   -1    0    0    0    0 -0.00000000000E+00 -0.00000000000E+00 -0.45593999997E+02  0.45594000000E+02  0.51100000000E-03 0.  1.
    9900012    2    1    2    0    0 -0.75217713647E+00 -0.47852292025E-01 -0.90826153359E+00  0.90007746087E+02  0.90000007535E+02 0.  0.
         12    1    1    2    0    0  0.75217713647E+00  0.47852292025E-01  0.90826153359E+00  0.11802539133E+01  0.00000000000E+00 0. -1.
         11    1    3    3    0    0  0.10592824564E+02 -0.69962022627E+00  0.32857677407E+02  0.34530050182E+02  0.51100000000E-03 0. -1.
        -11    1    3    3    0    0 -0.88149008747E+00 -0.17147287733E+01  0.10118754975E+02  0.10300802010E+02  0.51100000000E-03 0.  1.
        -12    1    3    3    0    0 -0.10463511613E+02  0.23664967076E+01 -0.43884693916E+02  0.45176893895E+02  0.00000000000E+00 0.  1.
</event>
<event>
 7    1  0.1501154E-015  0.9000770E+02  0.7816164E-02  0.1186339E+00
        -11   -1    0    0    0    0  0.00000000000E+00  0.00000000000E+00  0.45593999997E+02  0.45594000000E+02  0.51100000000E-03 0. -1.
         11   -1    0    0    0    0 -0.00000000000E+00 -0.00000000000E+00 -0.45593999997E+02  0.45594000000E+02  0.51100000000E-03 0.  1.
    9900012    2    1    2    0    0 -0.32557498667E+00  0.88036582094E+00 -0.71558035115E+00  0.90007704152E+02  0.89999965046E+02 0.  0.
         12    1    1    2    0    0  0.32557498667E+00 -0.88036582094E+00  0.71558035115E+00  0.11802958483E+01  0.00000000000E+00 0. -1.
         11    1    3    3    0    0  0.16930504984E+01  0.36132193491E+02  0.56207784197E+01  0.36605941823E+02  0.51100000000E-03 0. -1.
        -11    1    3    3    0    0  0.24126947673E+01  0.31402534518E+01  0.10518510900E+02  0.11239277538E+02  0.51100000000E-03 0.  1.
        -12    1    3    3    0    0 -0.44313202524E+01 -0.38392081122E+02 -0.16854869670E+02  0.42162484790E+02  0.00000000000E+00 0.  1.
</event>
<event>
 7    1  0.1501154E-015  0.9000770E+02  0.7816164E-02  0.1186339E+00
        -11   -1    0    0    0    0  0.00000000000E+00  0.00000000000E+00  0.45593999997E+02  0.45594000000E+02  0.51100000000E-03 0.  1.
         11   -1    0    0    0    0 -0.00000000000E+00 -0.00000000000E+00 -0.45593999997E+02  0.45594000000E+02  0.51100000000E-03 0. -1.
    9900012    2    1    2    0    0  0.10548613193E+01  0.14340867974E+00 -0.50971336518E+00  0.90007700815E+02  0.89999961665E+02 0.  0.
         12    1    1    2    0    0 -0.10548613193E+01 -0.14340867974E+00  0.50971336518E+00  0.11802991853E+01  0.00000000000E+00 0. -1.
         11    1    3    3    0    0  0.65182580176E+01 -0.43638305341E+01  0.12966636803E+02  0.15154681612E+02  0.51100000000E-03 0. -1.
        -11    1    3    3    0    0  0.12169823810E+02 -0.20706793677E+02  0.18620549223E+02  0.30390800739E+02  0.51100000000E-03 0.  1.
         12    1    3    3    0    0 -0.17633220508E+02  0.25214032891E+02 -0.32096899392E+02  0.44462218463E+02  0.00000000000E+00 0. -1.
</event>
<event>
 7    1  0.1501154E-015  0.9000771E+02  0.7816164E-02  0.1186339E+00
        -11   -1    0    0    0    0  0.00000000000E+00  0.00000000000E+00  0.45593999997E+02  0.45594000000E+02  0.51100000000E-03 0. -1.
         11   -1    0    0    0    0 -0.00000000000E+00 -0.00000000000E+00 -0.45593999997E+02  0.45594000000E+02  0.51100000000E-03 0.  1.
    9900012    2    1    2    0    0 -0.10881532329E+01  0.66342119057E-01 -0.45233781973E+00  0.90007708410E+02  0.89999969361E+02 0.  0.
         12    1    1    2    0    0  0.10881532329E+01 -0.66342119057E-01  0.45233781973E+00  0.11802915904E+01  0.00000000000E+00 0. -1.
         11    1    3    3    0    0  0.35462539394E+01 -0.77146482702E+01  0.40459296175E+01  0.94053847166E+01  0.51100000000E-03 0. -1.
        -11    1    3    3    0    0 -0.35824583168E+02 -0.10322649188E+02 -0.18864105988E+02  0.41782919243E+02  0.51100000000E-03 0.  1.
         12    1    3    3    0    0  0.31190175996E+02  0.18103639578E+02  0.14365838551E+02  0.38819404450E+02  0.00000000000E+00 0. -1.
</event>
<event>
 7    1  0.1501154E-015  0.9000756E+02  0.7816164E-02  0.1186339E+00
        -11   -1    0    0    0    0  0.00000000000E+00  0.00000000000E+00  0.45593999997E+02  0.45594000000E+02  0.51100000000E-03 0.  1.
         11   -1    0    0    0    0 -0.00000000000E+00 -0.00000000000E+00 -0.45593999997E+02  0.45594000000E+02  0.51100000000E-03 0. -1.
    9900012    2    1    2    0    0  0.68349785494E+00 -0.44729295300E+00  0.85217942708E+00  0.90007555135E+02  0.89999814063E+02 0.  0.
         12    1    1    2    0    0 -0.68349785494E+00  0.44729295300E+00 -0.85217942708E+00  0.11804448651E+01  0.00000000000E+00 0. -1.
         11    1    3    3    0    0  0.39440351635E+02 -0.80933605708E-01 -0.10468222350E+02  0.40806023658E+02  0.51100000000E-03 0. -1.
        -11    1    3    3    0    0  0.13899386492E+01 -0.34588067557E+01  0.79675903737E+01  0.87964635079E+01  0.51100000000E-03 0.  1.
        -12    1    3    3    0    0 -0.40146792429E+02  0.30924474084E+01  0.33528114030E+01  0.40405067969E+02  0.00000000000E+00 0.  1.
</event>
<event>
 7    1  0.1501154E-015  0.9000765E+02  0.7816164E-02  0.1186339E+00
        -11   -1    0    0    0    0  0.00000000000E+00  0.00000000000E+00  0.45593999997E+02  0.45594000000E+02  0.51100000000E-03 0. -1.
         11   -1    0    0    0    0 -0.00000000000E+00 -0.00000000000E+00 -0.45593999997E+02  0.45594000000E+02  0.51100000000E-03 0.  1.
    9900012    2    1    2    0    0 -0.11186444447E+01  0.33987949054E+00  0.16233288639E+00  0.90007646058E+02  0.89999906186E+02 0.  0.
         12    1    1    2    0    0  0.11186444447E+01 -0.33987949054E+00 -0.16233288639E+00  0.11803539418E+01  0.00000000000E+00 0. -1.
         11    1    3    3    0    0 -0.95809328799E+01  0.32670090057E+02  0.19869094854E+01  0.34103912807E+02  0.51100000000E-03 0. -1.
        -11    1    3    3    0    0 -0.17631674928E+02 -0.55537092009E+01 -0.55137710514E+00  0.18493881789E+02  0.51100000000E-03 0.  1.
        -12    1    3    3    0    0  0.26093963364E+02 -0.26776501366E+02 -0.12731994938E+01  0.37409851462E+02  0.00000000000E+00 0.  1.
</event>
<event>
 7    1  0.1501154E-015  0.9000776E+02  0.7816164E-02  0.1186339E+00
        -11   -1    0    0    0    0  0.00000000000E+00  0.00000000000E+00  0.45593999997E+02  0.45594000000E+02  0.51100000000E-03 0. -1.
         11   -1    0    0    0    0 -0.00000000000E+00 -0.00000000000E+00 -0.45593999997E+02  0.45594000000E+02  0.51100000000E-03 0.  1.
    9900012    2    1    2    0    0 -0.69264459921E+00  0.64371515392E+00 -0.70628042276E+00  0.90007763678E+02  0.90000025359E+02 0.  0.
         12    1    1    2    0    0  0.69264459921E+00 -0.64371515392E+00  0.70628042276E+00  0.11802363220E+01  0.00000000000E+00 0. -1.
         11    1    3    3    0    0 -0.13242640046E+02 -0.34556249558E+02  0.96795491625E+01  0.38251739452E+02  0.51100000000E-03 0. -1.
        -11    1    3    3    0    0  0.20434651383E+00  0.29773443992E+01  0.10840266745E+02  0.11243563516E+02  0.51100000000E-03 0.  1.
        -12    1    3    3    0    0  0.12345648933E+02  0.32222620312E+02 -0.21226096330E+02  0.40512460710E+02  0.00000000000E+00 0.  1.
</event>
<event>
 7    1  0.1501154E-015  0.9000774E+02  0.7816164E-02  0.1186339E+00
        -11   -1    0    0    0    0  0.00000000000E+00  0.00000000000E+00  0.45593999997E+02  0.45594000000E+02  0.51100000000E-03 0.  1.
         11   -1    0    0    0    0 -0.00000000000E+00 -0.00000000000E+00 -0.45593999997E+02  0.45594000000E+02  0.51100000000E-03 0. -1.
    9900012    2    1    2    0    0 -0.82401750783E+00 -0.84495406099E+00 -0.73712444330E-02  0.90007743014E+02  0.90000004422E+02 0.  0.
         12    1    1    2    0    0  0.82401750783E+00  0.84495406099E+00  0.73712444330E-02  0.11802569863E+01  0.00000000000E+00 0. -1.
         11    1    3    3    0    0 -0.33190395205E+01  0.31878150944E+02  0.27756137792E+02  0.42398534365E+02  0.51100000000E-03 0. -1.
        -11    1    3    3    0    0  0.30391801188E+01  0.45341644841E+00 -0.89564343369E+01  0.94688921508E+01  0.51100000000E-03 0.  1.
        -12    1    3    3    0    0 -0.54415810618E+00 -0.33176521454E+02 -0.18807074699E+02  0.38140316498E+02  0.00000000000E+00 0.  1.
</event>
<event>
 7    1  0.1501154E-015  0.9000773E+02  0.7816164E-02  0.1186339E+00
        -11   -1    0    0    0    0  0.00000000000E+00  0.00000000000E+00  0.45593999997E+02  0.45594000000E+02  0.51100000000E-03 0.  1.
         11   -1    0    0    0    0 -0.00000000000E+00 -0.00000000000E+00 -0.45593999997E+02  0.45594000000E+02  0.51100000000E-03 0. -1.
    9900012    2    1    2    0    0 -0.91924756056E+00 -0.62665911253E+00 -0.39411568247E+00  0.90007726772E+02  0.89999987966E+02 0.  0.
         12    1    1    2    0    0  0.91924756056E+00  0.62665911253E+00  0.39411568247E+00  0.11802732277E+01  0.00000000000E+00 0. -1.
         11    1    3    3    0    0  0.65926492777E+01  0.92415998684E+01 -0.55877303940E+01  0.12652783245E+02  0.51100000000E-03 0. -1.
        -11    1    3    3    0    0 -0.18807126389E+02 -0.29023659211E+02 -0.22934795023E+02  0.41498019471E+02  0.51100000000E-03 0.  1.
         12    1    3    3    0    0  0.11295229551E+02  0.19155400230E+02  0.28128409734E+02  0.35856924056E+02  0.00000000000E+00 0. -1.
</event>
<event>
 7    1  0.1501154E-015  0.9000768E+02  0.7816164E-02  0.1186339E+00
        -11   -1    0    0    0    0  0.00000000000E+00  0.00000000000E+00  0.45593999997E+02  0.45594000000E+02  0.51100000000E-03 0.  1.
         11   -1    0    0    0    0 -0.00000000000E+00 -0.00000000000E+00 -0.45593999997E+02  0.45594000000E+02  0.51100000000E-03 0. -1.
    9900012    2    1    2    0    0  0.39332548167E+00  0.89341871073E+00  0.66351875161E+00  0.90007678408E+02  0.89999938963E+02 0.  0.
         12    1    1    2    0    0 -0.39332548167E+00 -0.89341871073E+00 -0.66351875161E+00  0.11803215922E+01  0.00000000000E+00 0. -1.
         11    1    3    3    0    0 -0.26987224679E+01  0.72776926383E+01 -0.32289289852E+00  0.77686661134E+01  0.51100000000E-03 0. -1.
        -11    1    3    3    0    0 -0.30037767304E+02  0.49635189972E+00  0.26342851452E+02  0.39955721151E+02  0.51100000000E-03 0.  1.
         12    1    3    3    0    0  0.33129815253E+02 -0.68806258273E+01 -0.25356439802E+02  0.42283291143E+02  0.00000000000E+00 0. -1.
</event>
<event>
 7    1  0.1501154E-015  0.9000690E+02  0.7816164E-02  0.1186341E+00
        -11   -1    0    0    0    0  0.00000000000E+00  0.00000000000E+00  0.45593999997E+02  0.45594000000E+02  0.51100000000E-03 0.  1.
         11   -1    0    0    0    0 -0.00000000000E+00 -0.00000000000E+00 -0.45593999997E+02  0.45594000000E+02  0.51100000000E-03 0. -1.
    9900012    2    1    2    0    0 -0.10734177199E+01 -0.27722986113E+00  0.40733015630E+00  0.90006898881E+02  0.89999149142E+02 0.  0.
         12    1    1    2    0    0  0.10734177199E+01  0.27722986113E+00 -0.40733015630E+00  0.11811011191E+01  0.00000000000E+00 0. -1.
         11    1    3    3    0    0  0.98832776707E+01  0.32242796406E+00 -0.55606863030E+00  0.99041582122E+01  0.51100000000E-03 0. -1.
        -11    1    3    3    0    0  0.28930078474E+02  0.13091300965E+02 -0.14861987205E+02  0.35060095057E+02  0.51100000000E-03 0.  1.
         12    1    3    3    0    0 -0.39886773864E+02 -0.13690958790E+02  0.15825385992E+02  0.45042645612E+02  0.00000000000E+00 0. -1.
</event>
<event>
 7    1  0.1561400E-015  0.9000780E+02  0.7816164E-02  0.1186339E+00
        -11   -1    0    0    0    0  0.00000000000E+00  0.00000000000E+00  0.45593999997E+02  0.45594000000E+02  0.51100000000E-03 0. -1.
         11   -1    0    0    0    0 -0.00000000000E+00 -0.00000000000E+00 -0.45593999997E+02  0.45594000000E+02  0.51100000000E-03 0.  1.
    9900012    2    1    2    0    0 -0.32689790764E+00  0.10012154790E+00 -0.11295980682E+01  0.90007797322E+02  0.90000059446E+02 0.  0.
         12    1    1    2    0    0  0.32689790764E+00 -0.10012154790E+00  0.11295980682E+01  0.11802026784E+01  0.00000000000E+00 0. -1.
         11    1    3    3    0    0  0.84721114250E+01  0.28305805534E+01 -0.28652859375E+01  0.93807634034E+01  0.51100000000E-03 0. -1.
        -11    1    3    3    0    0 -0.14156635646E+02 -0.12271701665E+01 -0.37965602809E+02  0.40537677244E+02  0.51100000000E-03 0.  1.
         12    1    3    3    0    0  0.53576263136E+01 -0.15032888389E+01  0.39701290678E+02  0.40089356674E+02  0.00000000000E+00 0. -1.
</event>
<event>
 7    1  0.1501154E-015  0.9000767E+02  0.7816164E-02  0.1186339E+00
        -11   -1    0    0    0    0  0.00000000000E+00  0.00000000000E+00  0.45593999997E+02  0.45594000000E+02  0.51100000000E-03 0.  1.
         11   -1    0    0    0    0 -0.00000000000E+00 -0.00000000000E+00 -0.45593999997E+02  0.45594000000E+02  0.51100000000E-03 0. -1.
    9900012    2    1    2    0    0  0.10060900965E+01  0.55203485720E+00  0.27608608103E+00  0.90007668144E+02  0.89999928564E+02 0.  0.
         12    1    1    2    0    0 -0.10060900965E+01 -0.55203485720E+00 -0.27608608103E+00  0.11803318559E+01  0.00000000000E+00 0. -1.
         11    1    3    3    0    0 -0.14430090054E+02  0.60043817672E+01 -0.10253902413E+02  0.18692849283E+02  0.51100000000E-03 0. -1.
        -11    1    3    3    0    0  0.24031045651E+02  0.15370005604E+02 -0.18925385379E+02  0.34233002196E+02  0.51100000000E-03 0.  1.
         12    1    3    3    0    0 -0.85948655008E+01 -0.20822352514E+02  0.29455373873E+02  0.37081816665E+02  0.00000000000E+00 0. -1.
</event>
<event>
 7    1  0.1501154E-015  0.9000764E+02  0.7816164E-02  0.1186339E+00
        -11   -1    0    0    0    0  0.00000000000E+00  0.00000000000E+00  0.45593999997E+02  0.45594000000E+02  0.51100000000E-03 0.  1.
         11   -1    0    0    0    0 -0.00000000000E+00 -0.00000000000E+00 -0.45593999997E+02  0.45594000000E+02  0.51100000000E-03 0. -1.
    9900012    2    1    2    0    0 -0.70952721626E+00  0.92972964928E+00  0.15945187072E+00  0.90007639466E+02  0.89999899507E+02 0.  0.
         12    1    1    2    0    0  0.70952721626E+00 -0.92972964928E+00 -0.15945187072E+00  0.11803605341E+01  0.00000000000E+00 0. -1.
         11    1    3    3    0    0 -0.58010984505E+01 -0.10834777031E+02  0.25866055306E+02  0.28637352425E+02  0.51100000000E-03 0. -1.
        -11    1    3    3    0    0  0.35786836026E+01  0.25662360839E+02  0.61069056541E+01  0.26620631794E+02  0.51100000000E-03 0.  1.
         12    1    3    3    0    0  0.15128876316E+01 -0.13897854159E+02 -0.31813509090E+02  0.34749655247E+02  0.00000000000E+00 0. -1.
</event>
<event>
 7    1  0.1501154E-015  0.9000788E+02  0.7816164E-02  0.1186339E+00
        -11   -1    0    0    0    0  0.00000000000E+00  0.00000000000E+00  0.45593999997E+02  0.45594000000E+02  0.51100000000E-03 0.  1.
         11   -1    0    0    0    0 -0.00000000000E+00 -0.00000000000E+00 -0.45593999997E+02  0.45594000000E+02  0.51100000000E-03 0. -1.
    9900012    2    1    2    0    0 -0.10114616058E+01  0.44314870463E+00  0.41622466954E+00  0.90007882069E+02  0.90000145313E+02 0.  0.
         12    1    1    2    0    0  0.10114616058E+01 -0.44314870463E+00 -0.41622466954E+00  0.11801179305E+01  0.00000000000E+00 0. -1.
         11    1    3    3    0    0  0.18624743441E+02 -0.20708143284E+02 -0.20711647179E+02  0.34708508981E+02  0.51100000000E-03 0. -1.
        -11    1    3    3    0    0  0.29586195907E+01 -0.80779997278E+01 -0.50916350454E+01  0.99966122853E+01  0.51100000000E-03 0.  1.
        -12    1    3    3    0    0 -0.22594824637E+02  0.29229291716E+02  0.26219506894E+02  0.45302760804E+02  0.00000000000E+00 0.  1.
</event>
<event>
 7    1  0.1501154E-015  0.9000782E+02  0.7816164E-02  0.1186339E+00
        -11   -1    0    0    0    0  0.00000000000E+00  0.00000000000E+00  0.45593999997E+02  0.45594000000E+02  0.51100000000E-03 0. -1.
         11   -1    0    0    0    0 -0.00000000000E+00 -0.00000000000E+00 -0.45593999997E+02  0.45594000000E+02  0.51100000000E-03 0.  1.
    9900012    2    1    2    0    0  0.10977223654E+01 -0.34695333007E+00  0.25971364572E+00  0.90007821123E+02  0.90000083561E+02 0.  0.
         12    1    1    2    0    0 -0.10977223654E+01  0.34695333007E+00 -0.25971364572E+00  0.11801788773E+01  0.00000000000E+00 0. -1.
         11    1    3    3    0    0 -0.30664614541E+02  0.18298090943E+02  0.71547005727E+01  0.36418792644E+02  0.51100000000E-03 0. -1.
        -11    1    3    3    0    0  0.12521979872E+01  0.94455791956E+01  0.45609331186E+01  0.10563573132E+02  0.51100000000E-03 0.  1.
        -12    1    3    3    0    0  0.30510138919E+02 -0.28090623469E+02 -0.11455920045E+02  0.43025455347E+02  0.00000000000E+00 0.  1.
</event>
<event>
 7    1  0.1501154E-015  0.9000776E+02  0.7816164E-02  0.1186339E+00
        -11   -1    0    0    0    0  0.00000000000E+00  0.00000000000E+00  0.45593999997E+02  0.45594000000E+02  0.51100000000E-03 0.  1.
         11   -1    0    0    0    0 -0.00000000000E+00 -0.00000000000E+00 -0.45593999997E+02  0.45594000000E+02  0.51100000000E-03 0. -1.
    9900012    2    1    2    0    0 -0.22324587974E-01 -0.52529678842E+00  0.10566591255E+01  0.90007761206E+02  0.90000022854E+02 0.  0.
         12    1    1    2    0    0  0.22324587974E-01  0.52529678842E+00 -0.10566591255E+01  0.11802387939E+01  0.00000000000E+00 0. -1.
         11    1    3    3    0    0 -0.80165924903E+01 -0.36316627240E+02 -0.16415609541E+02  0.40652618687E+02  0.51100000000E-03 0. -1.
        -11    1    3    3    0    0 -0.30150924731E+01 -0.17527993661E+01  0.85382465792E+01  0.92230549791E+01  0.51100000000E-03 0.  1.
        -12    1    3    3    0    0  0.11009360375E+02  0.37544129818E+02  0.89340220871E+01  0.40132087540E+02  0.00000000000E+00 0.  1.
</event>
<event>
 7    1  0.1501154E-015  0.9000773E+02  0.7816164E-02  0.1186339E+00
        -11   -1    0    0    0    0  0.00000000000E+00  0.00000000000E+00  0.45593999997E+02  0.45594000000E+02  0.51100000000E-03 0.  1.
         11   -1    0    0    0    0 -0.00000000000E+00 -0.00000000000E+00 -0.45593999997E+02  0.45594000000E+02  0.51100000000E-03 0. -1.
    9900012    2    1    2    0    0 -0.28409495251E+00 -0.56446618179E-01  0.11441813893E+01  0.90007725788E+02  0.89999986969E+02 0.  0.
         12    1    1    2    0    0  0.28409495251E+00  0.56446618179E-01 -0.11441813893E+01  0.11802742115E+01  0.00000000000E+00 0. -1.
         11    1    3    3    0    0 -0.14848185571E+02  0.31531529709E+02  0.73919210799E+01  0.35627889048E+02  0.51100000000E-03 0. -1.
        -11    1    3    3    0    0 -0.81908235602E+01  0.54530891108E+00  0.89771433450E+01  0.12164540900E+02  0.51100000000E-03 0.  1.
        -12    1    3    3    0    0  0.22754914179E+02 -0.32133285238E+02 -0.15224883036E+02  0.42215295841E+02  0.00000000000E+00 0.  1.
</event>
<event>
 7    1  0.1501154E-015  0.9000786E+02  0.7816164E-02  0.1186339E+00
        -11   -1    0    0    0    0  0.00000000000E+00  0.00000000000E+00  0.45593999997E+02  0.45594000000E+02  0.51100000000E-03 0. -1.
         11   -1    0    0    0    0 -0.00000000000E+00 -0.00000000000E+00 -0.45593999997E+02  0.45594000000E+02  0.51100000000E-03 0.  1.
    9900012    2    1    2    0    0 -0.53800169878E+00  0.33538689412E+00 -0.99538702678E+00  0.90007862072E+02  0.90000125051E+02 0.  0.
         12    1    1    2    0    0  0.53800169878E+00 -0.33538689412E+00  0.99538702678E+00  0.11801379283E+01  0.00000000000E+00 0. -1.
         11    1    3    3    0    0 -0.39699335059E+01 -0.91695367506E+00 -0.86552180280E+01  0.95662937158E+01  0.51100000000E-03 0. -1.
        -11    1    3    3    0    0 -0.12952687412E+02 -0.26925948199E+02 -0.21416492833E+02  0.36762004341E+02  0.51100000000E-03 0.  1.
         12    1    3    3    0    0  0.16384619219E+02  0.28178288768E+02  0.29076323835E+02  0.43679564015E+02  0.00000000000E+00 0. -1.
</event>
<event>
 7    1  0.1501154E-015  0.9000767E+02  0.7816164E-02  0.1186339E+00
        -11   -1    0    0    0    0  0.00000000000E+00  0.00000000000E+00  0.45593999997E+02  0.45594000000E+02  0.51100000000E-03 0. -1.
         11   -1    0    0    0    0 -0.00000000000E+00 -0.00000000000E+00 -0.45593999997E+02  0.45594000000E+02  0.51100000000E-03 0.  1.
    9900012    2    1    2    0    0 -0.11129460687E+01 -0.21861654809E+00  0.32670194403E+00  0.90007671102E+02  0.89999931561E+02 0.  0.
         12    1    1    2    0    0  0.11129460687E+01  0.21861654809E+00 -0.32670194403E+00  0.11803288979E+01  0.00000000000E+00 0. -1.
         11    1    3    3    0    0 -0.10710919973E+02  0.89528189294E+00 -0.39241308828E+01  0.11442208694E+02  0.51100000000E-03 0. -1.
        -11    1    3    3    0    0 -0.43698974969E+01 -0.33569652800E+02 -0.16424773068E+02  0.37626995148E+02  0.51100000000E-03 0.  1.
         12    1    3    3    0    0  0.13967871402E+02  0.32455754359E+02  0.20675605895E+02  0.40938467261E+02  0.00000000000E+00 0. -1.
</event>
<event>
 7    1  0.1501154E-015  0.9000773E+02  0.7816164E-02  0.1186339E+00
        -11   -1    0    0    0    0  0.00000000000E+00  0.00000000000E+00  0.45593999997E+02  0.45594000000E+02  0.51100000000E-03 0.  1.
         11   -1    0    0    0    0 -0.00000000000E+00 -0.00000000000E+00 -0.45593999997E+02  0.45594000000E+02  0.51100000000E-03 0. -1.
    9900012    2    1    2    0    0  0.56136175910E+00  0.10375945001E+01  0.36038475036E-01  0.90007733868E+02  0.89999995155E+02 0.  0.
         12    1    1    2    0    0 -0.56136175910E+00 -0.10375945001E+01 -0.36038475036E-01  0.11802661323E+01  0.00000000000E+00 0. -1.
         11    1    3    3    0    0 -0.19951493010E+01 -0.85273702668E+01 -0.65660911616E+01  0.10945785390E+02  0.51100000000E-03 0. -1.
        -11    1    3    3    0    0  0.27661353620E+02  0.33593093409E+02 -0.83664208005E+00  0.43524089642E+02  0.51100000000E-03 0.  1.
         12    1    3    3    0    0 -0.25104842560E+02 -0.24028128642E+02  0.74387717167E+01  0.35537858836E+02  0.00000000000E+00 0. -1.
</event>
<event>
 7    1  0.1501154E-015  0.9000774E+02  0.7816164E-02  0.1186339E+00
        -11   -1    0    0    0    0  0.00000000000E+00  0.00000000000E+00  0.45593999997E+02  0.45594000000E+02  0.51100000000E-03 0. -1.
         11   -1    0    0    0    0 -0.00000000000E+00 -0.00000000000E+00 -0.45593999997E+02  0.45594000000E+02  0.51100000000E-03 0.  1.
    9900012    2    1    2    0    0 -0.15458732297E+00  0.11697654253E+01 -0.27833999118E-01  0.90007735995E+02  0.89999997310E+02 0.  0.
         12    1    1    2    0    0  0.15458732297E+00 -0.11697654253E+01  0.27833999118E-01  0.11802640053E+01  0.00000000000E+00 0. -1.
         11    1    3    3    0    0 -0.56221503691E+01  0.87777871251E+01  0.33523944313E+01  0.10949733799E+02  0.51100000000E-03 0. -1.
        -11    1    3    3    0    0 -0.28286976566E+02 -0.26305620014E+02  0.66311992352E+01  0.39193258235E+02  0.51100000000E-03 0.  1.
         12    1    3    3    0    0  0.33754539612E+02  0.18697598314E+02 -0.10011427666E+02  0.39864743960E+02  0.00000000000E+00 0. -1.
</event>
<event>
 7    1  0.1501154E-015  0.9000786E+02  0.7816164E-02  0.1186339E+00
        -11   -1    0    0    0    0  0.00000000000E+00  0.00000000000E+00  0.45593999997E+02  0.45594000000E+02  0.51100000000E-03 0.  1.
         11   -1    0    0    0    0 -0.00000000000E+00 -0.00000000000E+00 -0.45593999997E+02  0.45594000000E+02  0.51100000000E-03 0. -1.
    9900012    2    1    2    0    0 -0.11413565673E+01 -0.29137818330E+00 -0.71698991073E-01  0.90007857295E+02  0.90000120211E+02 0.  0.
         12    1    1    2    0    0  0.11413565673E+01  0.29137818330E+00  0.71698991073E-01  0.11801427052E+01  0.00000000000E+00 0. -1.
         11    1    3    3    0    0  0.10197649877E+02  0.29425003395E+01  0.98678460822E+01  0.14492230947E+02  0.51100000000E-03 0. -1.
        -11    1    3    3    0    0  0.24669661565E+02  0.49105366203E+01  0.16521075470E+02  0.30094044370E+02  0.51100000000E-03 0.  1.
         12    1    3    3    0    0 -0.36008668009E+02 -0.81444151430E+01 -0.26460620543E+02  0.45421581977E+02  0.00000000000E+00 0. -1.
</event>
<event>
 7    1  0.1501154E-015  0.9000771E+02  0.7816164E-02  0.1186339E+00
        -11   -1    0    0    0    0  0.00000000000E+00  0.00000000000E+00  0.45593999997E+02  0.45594000000E+02  0.51100000000E-03 0.  1.
         11   -1    0    0    0    0 -0.00000000000E+00 -0.00000000000E+00 -0.45593999997E+02  0.45594000000E+02  0.51100000000E-03 0. -1.
    9900012    2    1    2    0    0  0.72297241547E+00 -0.36194755646E+00 -0.85987861608E+00  0.90007709196E+02  0.89999970158E+02 0.  0.
         12    1    1    2    0    0 -0.72297241547E+00  0.36194755646E+00  0.85987861608E+00  0.11802908038E+01  0.00000000000E+00 0. -1.
         11    1    3    3    0    0  0.39886619164E+01  0.33554253298E+01  0.72333545249E+01  0.89157008121E+01  0.51100000000E-03 0. -1.
        -11    1    3    3    0    0  0.25038675745E+02  0.27401909087E+02  0.39702266989E+01  0.37330451444E+02  0.51100000000E-03 0.  1.
         12    1    3    3    0    0 -0.28304365246E+02 -0.31119281973E+02 -0.12063459840E+02  0.43761556940E+02  0.00000000000E+00 0. -1.
</event>
<event>
 7    1  0.1587815E-015  0.9000769E+02  0.7816164E-02  0.1186339E+00
        -11   -1    0    0    0    0  0.00000000000E+00  0.00000000000E+00  0.45593999997E+02  0.45594000000E+02  0.51100000000E-03 0.  1.
         11   -1    0    0    0    0 -0.00000000000E+00 -0.00000000000E+00 -0.45593999997E+02  0.45594000000E+02  0.51100000000E-03 0. -1.
    9900012    2    1    2    0    0  0.95101828290E+00  0.95183420416E-01  0.69255182446E+00  0.90007693393E+02  0.89999954145E+02 0.  0.
         12    1    1    2    0    0 -0.95101828290E+00 -0.95183420416E-01 -0.69255182446E+00  0.11803066074E+01  0.00000000000E+00 0. -1.
         11    1    3    3    0    0 -0.18378840496E+02  0.33139751815E+02 -0.90741494412E+01  0.38966204802E+02  0.51100000000E-03 0. -1.
        -11    1    3    3    0    0  0.12548828899E+01 -0.29571890722E+00 -0.90695660695E+01  0.91607428569E+01  0.51100000000E-03 0.  1.
        -12    1    3    3    0    0  0.18074975889E+02 -0.32748849487E+02  0.18836267335E+02  0.41880745734E+02  0.00000000000E+00 0.  1.
</event>
<event>
 7    1  0.1501154E-015  0.9000731E+02  0.7816164E-02  0.1186340E+00
        -11   -1    0    0    0    0  0.00000000000E+00  0.00000000000E+00  0.45593999997E+02  0.45594000000E+02  0.51100000000E-03 0. -1.
         11   -1    0    0    0    0 -0.00000000000E+00 -0.00000000000E+00 -0.45593999997E+02  0.45594000000E+02  0.51100000000E-03 0.  1.
    9900012    2    1    2    0    0 -0.49060033342E+00 -0.75010893043E+00  0.76855483592E+00  0.90007310104E+02  0.89999565796E+02 0.  0.
         12    1    1    2    0    0  0.49060033342E+00  0.75010893043E+00 -0.76855483592E+00  0.11806898960E+01  0.00000000000E+00 0. -1.
         11    1    3    3    0    0 -0.33704089671E+02 -0.13983389581E+02 -0.11176345757E+02  0.38162960439E+02  0.51100000000E-03 0. -1.
        -11    1    3    3    0    0  0.16692930295E+01 -0.94153541186E+01 -0.33153028373E+01  0.10120605988E+02  0.51100000000E-03 0.  1.
        -12    1    3    3    0    0  0.31544196309E+02  0.22648634770E+02  0.15260203430E+02  0.41723743677E+02  0.00000000000E+00 0.  1.
</event>
<event>
 7    1  0.1501154E-015  0.9000773E+02  0.7816164E-02  0.1186339E+00
        -11   -1    0    0    0    0  0.00000000000E+00  0.00000000000E+00  0.45593999997E+02  0.45594000000E+02  0.51100000000E-03 0.  1.
         11   -1    0    0    0    0 -0.00000000000E+00 -0.00000000000E+00 -0.45593999997E+02  0.45594000000E+02  0.51100000000E-03 0. -1.
    9900012    2    1    2    0    0  0.32729830313E+00 -0.99879031918E+00 -0.53696497823E+00  0.90007729832E+02  0.89999991066E+02 0.  0.
         12    1    1    2    0    0 -0.32729830313E+00  0.99879031918E+00  0.53696497823E+00  0.11802701677E+01  0.00000000000E+00 0. -1.
         11    1    3    3    0    0 -0.10348976684E+02 -0.37053085596E+02 -0.11678787012E+02  0.40204807386E+02  0.51100000000E-03 0. -1.
        -11    1    3    3    0    0 -0.11451521751E+01  0.36218354822E+01 -0.90475860708E+01  0.98126387753E+01  0.51100000000E-03 0.  1.
        -12    1    3    3    0    0  0.11821427162E+02  0.32432459795E+02  0.20189408104E+02  0.39990283671E+02  0.00000000000E+00 0.  1.
</event>
<event>
 7    1  0.1501154E-015  0.9000785E+02  0.7816164E-02  0.1186339E+00
        -11   -1    0    0    0    0  0.00000000000E+00  0.00000000000E+00  0.45593999997E+02  0.45594000000E+02  0.51100000000E-03 0.  1.
         11   -1    0    0    0    0 -0.00000000000E+00 -0.00000000000E+00 -0.45593999997E+02  0.45594000000E+02  0.51100000000E-03 0. -1.
    9900012    2    1    2    0    0 -0.47904305078E+00  0.29174991470E-01  0.10781602733E+01  0.90007846197E+02  0.90000108966E+02 0.  0.
         12    1    1    2    0    0  0.47904305078E+00 -0.29174991470E-01 -0.10781602733E+01  0.11801538034E+01  0.00000000000E+00 0. -1.
         11    1    3    3    0    0 -0.37581214467E+01  0.64351017847E+01  0.49802044334E+01  0.89630602055E+01  0.51100000000E-03 0. -1.
        -11    1    3    3    0    0  0.33754230307E+02  0.11134222377E+02  0.17772475831E+02  0.39738896172E+02  0.51100000000E-03 0.  1.
         12    1    3    3    0    0 -0.30475151911E+02 -0.17540149170E+02 -0.21674519991E+02  0.41305889819E+02  0.00000000000E+00 0. -1.
</event>
<event>
 7    1  0.1501154E-015  0.9000771E+02  0.7816164E-02  0.1186339E+00
        -11   -1    0    0    0    0  0.00000000000E+00  0.00000000000E+00  0.45593999997E+02  0.45594000000E+02  0.51100000000E-03 0.  1.
         11   -1    0    0    0    0 -0.00000000000E+00 -0.00000000000E+00 -0.45593999997E+02  0.45594000000E+02  0.51100000000E-03 0. -1.
    9900012    2    1    2    0    0 -0.23884605278E+00  0.62547656882E+00  0.97201208793E+00  0.90007713647E+02  0.89999974668E+02 0.  0.
         12    1    1    2    0    0  0.23884605278E+00 -0.62547656882E+00 -0.97201208793E+00  0.11802863526E+01  0.00000000000E+00 0. -1.
         11    1    3    3    0    0  0.19564895582E+01  0.16627534854E+01  0.71380880379E+01  0.75858355929E+01  0.51100000000E-03 0. -1.
        -11    1    3    3    0    0  0.23916763137E+02  0.84509426892E+01  0.28397285475E+02  0.38076709599E+02  0.51100000000E-03 0.  1.
         12    1    3    3    0    0 -0.26112098748E+02 -0.94882196058E+01 -0.34563361425E+02  0.44345168455E+02  0.00000000000E+00 0. -1.
</event>
<event>
 7    1  0.1501154E-015  0.9000776E+02  0.7816164E-02  0.1186339E+00
        -11   -1    0    0    0    0  0.00000000000E+00  0.00000000000E+00  0.45593999997E+02  0.45594000000E+02  0.51100000000E-03 0.  1.
         11   -1    0    0    0    0 -0.00000000000E+00 -0.00000000000E+00 -0.45593999997E+02  0.45594000000E+02  0.51100000000E-03 0. -1.
    9900012    2    1    2    0    0  0.39828657772E+00  0.38023543603E+00  0.10439117423E+01  0.90007761503E+02  0.90000023155E+02 0.  0.
         12    1    1    2    0    0 -0.39828657772E+00 -0.38023543603E+00 -0.10439117423E+01  0.11802384973E+01  0.00000000000E+00 0. -1.
         11    1    3    3    0    0 -0.15453398449E+01  0.26694268319E+02 -0.30782061513E+02  0.40773856177E+02  0.51100000000E-03 0. -1.
        -11    1    3    3    0    0  0.34158296434E+01 -0.73196003720E+01 -0.37288518369E+01  0.88965598993E+01  0.51100000000E-03 0.  1.
        -12    1    3    3    0    0 -0.14722032208E+01 -0.18994432511E+02  0.35554825092E+02  0.40337345426E+02  0.00000000000E+00 0.  1.
</event>
<event>
 7    1  0.1501154E-015  0.9000780E+02  0.7816164E-02  0.1186339E+00
        -11   -1    0    0    0    0  0.00000000000E+00  0.00000000000E+00  0.45593999997E+02  0.45594000000E+02  0.51100000000E-03 0.  1.
         11   -1    0    0    0    0 -0.00000000000E+00 -0.00000000000E+00 -0.45593999997E+02  0.45594000000E+02  0.51100000000E-03 0. -1.
    9900012    2    1    2    0    0  0.10315802591E+01  0.55346723675E+00 -0.14961098639E+00  0.90007802025E+02  0.90000064212E+02 0.  0.
         12    1    1    2    0    0 -0.10315802591E+01 -0.55346723675E+00  0.14961098639E+00  0.11801979751E+01  0.00000000000E+00 0. -1.
         11    1    3    3    0    0  0.32732641291E+00  0.78412185774E+01 -0.22382492553E+00  0.78512387059E+01  0.51100000000E-03 0. -1.
        -11    1    3    3    0    0  0.10534753391E+02 -0.10219280872E+02  0.39121610779E+02  0.41784149635E+02  0.51100000000E-03 0.  1.
         12    1    3    3    0    0 -0.98304995444E+01  0.29315295310E+01 -0.39047396840E+02  0.40372413684E+02  0.00000000000E+00 0. -1.
</event>
<event>
 7    1  0.1501154E-015  0.9000775E+02  0.7816164E-02  0.1186339E+00
        -11   -1    0    0    0    0  0.00000000000E+00  0.00000000000E+00  0.45593999997E+02  0.45594000000E+02  0.51100000000E-03 0.  1.
         11   -1    0    0    0    0 -0.00000000000E+00 -0.00000000000E+00 -0.45593999997E+02  0.45594000000E+02  0.51100000000E-03 0. -1.
    9900012    2    1    2    0    0 -0.68115584430E+00  0.95638273226E+00 -0.11980141463E+00  0.90007748504E+02  0.90000009984E+02 0.  0.
         12    1    1    2    0    0  0.68115584430E+00 -0.95638273226E+00  0.11980141463E+00  0.11802514960E+01  0.00000000000E+00 0. -1.
         11    1    3    3    0    0 -0.18129768098E+02 -0.29127549897E+02 -0.91285532611E+01  0.35502579332E+02  0.51100000000E-03 0. -1.
        -11    1    3    3    0    0 -0.33301372799E+01 -0.70630698796E+01 -0.54838084518E+01  0.95419560796E+01  0.51100000000E-03 0.  1.
        -12    1    3    3    0    0  0.20778749534E+02  0.37147002509E+02  0.14492560298E+02  0.44963213093E+02  0.00000000000E+00 0.  1.
</event>
<event>
 7    1  0.1501154E-015  0.9000752E+02  0.7816164E-02  0.1186339E+00
        -11   -1    0    0    0    0  0.00000000000E+00  0.00000000000E+00  0.45593999997E+02  0.45594000000E+02  0.51100000000E-03 0. -1.
         11   -1    0    0    0    0 -0.00000000000E+00 -0.00000000000E+00 -0.45593999997E+02  0.45594000000E+02  0.51100000000E-03 0.  1.
    9900012    2    1    2    0    0 -0.17379840734E+00  0.10088672853E+01 -0.58781208524E+00  0.90007516144E+02  0.89999774557E+02 0.  0.
         12    1    1    2    0    0  0.17379840734E+00 -0.10088672853E+01  0.58781208524E+00  0.11804838556E+01  0.00000000000E+00 0. -1.
         11    1    3    3    0    0 -0.38598893190E+00  0.24541961377E+02  0.29821669142E+02  0.38623681937E+02  0.51100000000E-03 0. -1.
        -11    1    3    3    0    0  0.63993086928E+01 -0.12485599408E+01  0.55948377648E+01  0.85914063777E+01  0.51100000000E-03 0.  1.
        -12    1    3    3    0    0 -0.61871181682E+01 -0.22284534151E+02 -0.36004318992E+02  0.42792427830E+02  0.00000000000E+00 0.  1.
</event>
<event>
 7    1  0.1501154E-015  0.9000776E+02  0.7816164E-02  0.1186339E+00
        -11   -1    0    0    0    0  0.00000000000E+00  0.00000000000E+00  0.45593999997E+02  0.45594000000E+02  0.51100000000E-03 0.  1.
         11   -1    0    0    0    0 -0.00000000000E+00 -0.00000000000E+00 -0.45593999997E+02  0.45594000000E+02  0.51100000000E-03 0. -1.
    9900012    2    1    2    0    0  0.50162826852E+00  0.20442383455E+00 -0.10485932713E+01  0.90007759401E+02  0.90000021025E+02 0.  0.
         12    1    1    2    0    0 -0.50162826852E+00 -0.20442383455E+00  0.10485932713E+01  0.11802405994E+01  0.00000000000E+00 0. -1.
         11    1    3    3    0    0  0.27862558633E+01 -0.52558965138E+01  0.72107292443E+01  0.93478492925E+01  0.51100000000E-03 0. -1.
        -11    1    3    3    0    0  0.52316028320E+01 -0.41593416244E+01  0.35040426192E+02  0.35672135609E+02  0.51100000000E-03 0.  1.
         12    1    3    3    0    0 -0.75162304268E+01  0.96196619727E+01 -0.43299748707E+02  0.44987774499E+02  0.00000000000E+00 0. -1.
</event>
<event>
 7    1  0.1501154E-015  0.9000801E+02  0.7816164E-02  0.1186339E+00
        -11   -1    0    0    0    0  0.00000000000E+00  0.00000000000E+00  0.45593999997E+02  0.45594000000E+02  0.51100000000E-03 0.  1.
         11   -1    0    0    0    0 -0.00000000000E+00 -0.00000000000E+00 -0.45593999997E+02  0.45594000000E+02  0.51100000000E-03 0. -1.
    9900012    2    1    2    0    0  0.57367187968E+00  0.94886300383E+00  0.40366004236E+00  0.90008007688E+02  0.90000272589E+02 0.  0.
         12    1    1    2    0    0 -0.57367187968E+00 -0.94886300383E+00 -0.40366004236E+00  0.11799923116E+01  0.00000000000E+00 0. -1.
         11    1    3    3    0    0 -0.27628452375E+02  0.23865401965E+02 -0.12410659303E+01  0.36529837619E+02  0.51100000000E-03 0. -1.
        -11    1    3    3    0    0 -0.45312647823E+01  0.73135388557E+01  0.23386864018E+01  0.89156976995E+01  0.51100000000E-03 0.  1.
        -12    1    3    3    0    0  0.32733389036E+02 -0.30230077817E+02 -0.69396042913E+00  0.44562472370E+02  0.00000000000E+00 0.  1.
</event>
<event>
 7    1  0.1501154E-015  0.9000773E+02  0.7816164E-02  0.1186339E+00
        -11   -1    0    0    0    0  0.00000000000E+00  0.00000000000E+00  0.45593999997E+02  0.45594000000E+02  0.51100000000E-03 0.  1.
         11   -1    0    0    0    0 -0.00000000000E+00 -0.00000000000E+00 -0.45593999997E+02  0.45594000000E+02  0.51100000000E-03 0. -1.
    9900012    2    1    2    0    0 -0.36923683824E+00  0.51115201205E+00  0.99771071969E+00  0.90007729310E+02  0.89999990537E+02 0.  0.
         12    1    1    2    0    0  0.36923683824E+00 -0.51115201205E+00 -0.99771071969E+00  0.11802706903E+01  0.00000000000E+00 0. -1.
         11    1    3    3    0    0  0.24844441613E+02 -0.24623097270E+02 -0.13044286524E+02  0.37332246241E+02  0.51100000000E-03 0. -1.
        -11    1    3    3    0    0  0.59596550143E+01 -0.35736996197E+01  0.67246774769E+01  0.96700622692E+01  0.51100000000E-03 0.  1.
        -12    1    3    3    0    0 -0.31173333466E+02  0.28707948902E+02  0.73173197667E+01  0.43005420799E+02  0.00000000000E+00 0.  1.
</event>
<event>
 7    1  0.1501154E-015  0.9000803E+02  0.7816164E-02  0.1186338E+00
        -11   -1    0    0    0    0  0.00000000000E+00  0.00000000000E+00  0.45593999997E+02  0.45594000000E+02  0.51100000000E-03 0. -1.
         11   -1    0    0    0    0 -0.00000000000E+00 -0.00000000000E+00 -0.45593999997E+02  0.45594000000E+02  0.51100000000E-03 0.  1.
    9900012    2    1    2    0    0  0.77935328478E+00  0.45781892069E+00 -0.75850645032E+00  0.90008033161E+02  0.90000298398E+02 0.  0.
         12    1    1    2    0    0 -0.77935328478E+00 -0.45781892069E+00  0.75850645032E+00  0.11799668393E+01  0.00000000000E+00 0. -1.
         11    1    3    3    0    0  0.38017711475E+01 -0.50973784360E+01  0.61140339113E+01  0.88214591598E+01  0.51100000000E-03 0. -1.
        -11    1    3    3    0    0  0.14158253302E+02 -0.34499441092E+02 -0.22762050924E+01  0.37361058364E+02  0.51100000000E-03 0.  1.
         12    1    3    3    0    0 -0.17180671165E+02  0.40054638449E+02 -0.45963352692E+01  0.43825515637E+02  0.00000000000E+00 0. -1.
</event>
<event>
 7    1  0.1501154E-015  0.9000778E+02  0.7816164E-02  0.1186339E+00
        -11   -1    0    0    0    0  0.00000000000E+00  0.00000000000E+00  0.45593999997E+02  0.45594000000E+02  0.51100000000E-03 0. -1.
         11   -1    0    0    0    0 -0.00000000000E+00 -0.00000000000E+00 -0.45593999997E+02  0.45594000000E+02  0.51100000000E-03 0.  1.
    9900012    2    1    2    0    0  0.92848646940E+00 -0.68609380731E+00 -0.24517431419E+00  0.90007778715E+02  0.90000040594E+02 0.  0.
         12    1    1    2    0    0 -0.92848646940E+00  0.68609380731E+00  0.24517431419E+00  0.11802212846E+01  0.00000000000E+00 0. -1.
         11    1    3    3    0    0 -0.16872391302E+02 -0.34830388197E+02  0.23500710127E+01  0.38773139727E+02  0.51100000000E-03 0. -1.
        -11    1    3    3    0    0  0.76346725384E+01 -0.57881303540E+01  0.19543539553E+01  0.97780456845E+01  0.51100000000E-03 0.  1.
        -12    1    3    3    0    0  0.10166205233E+02  0.39932424744E+02 -0.45495992822E+01  0.41456593304E+02  0.00000000000E+00 0.  1.
</event>
<event>
 7    1  0.1501154E-015  0.9000776E+02  0.7816164E-02  0.1186339E+00
        -11   -1    0    0    0    0  0.00000000000E+00  0.00000000000E+00  0.45593999997E+02  0.45594000000E+02  0.51100000000E-03 0. -1.
         11   -1    0    0    0    0 -0.00000000000E+00 -0.00000000000E+00 -0.45593999997E+02  0.45594000000E+02  0.51100000000E-03 0.  1.
    9900012    2    1    2    0    0  0.11118909022E+01 -0.66506105747E-01 -0.39019647371E+00  0.90007755225E+02  0.90000016794E+02 0.  0.
         12    1    1    2    0    0 -0.11118909022E+01  0.66506105747E-01  0.39019647371E+00  0.11802447748E+01  0.00000000000E+00 0. -1.
         11    1    3    3    0    0 -0.25524054333E+02  0.19849328470E+02 -0.65283748393E+01  0.32986252722E+02  0.51100000000E-03 0. -1.
        -11    1    3    3    0    0 -0.91795652108E+01  0.63945144709E+01 -0.31462117363E+01  0.11621225466E+02  0.51100000000E-03 0.  1.
        -12    1    3    3    0    0  0.35815510446E+02 -0.26310349047E+02  0.92843901019E+01  0.45400277037E+02  0.00000000000E+00 0.  1.
</event>
<event>
 7    1  0.1501154E-015  0.9000773E+02  0.7816164E-02  0.1186339E+00
        -11   -1    0    0    0    0  0.00000000000E+00  0.00000000000E+00  0.45593999997E+02  0.45594000000E+02  0.51100000000E-03 0.  1.
         11   -1    0    0    0    0 -0.00000000000E+00 -0.00000000000E+00 -0.45593999997E+02  0.45594000000E+02  0.51100000000E-03 0. -1.
    9900012    2    1    2    0    0 -0.22547266568E+00 -0.67749583490E+00 -0.93978272960E+00  0.90007733035E+02  0.89999994311E+02 0.  0.
         12    1    1    2    0    0  0.22547266568E+00  0.67749583490E+00  0.93978272960E+00  0.11802669648E+01  0.00000000000E+00 0. -1.
         11    1    3    3    0    0 -0.10133407545E+01 -0.86530387725E+01  0.56324126351E+01  0.10374295727E+02  0.51100000000E-03 0. -1.
        -11    1    3    3    0    0 -0.12044630992E+02 -0.21997080826E+02  0.24163758338E+02  0.34825736430E+02  0.51100000000E-03 0.  1.
         12    1    3    3    0    0  0.12832499081E+02  0.29972623764E+02 -0.30735953703E+02  0.44807700878E+02  0.00000000000E+00 0. -1.
</event>
<event>
 7    1  0.1501154E-015  0.9000785E+02  0.7816164E-02  0.1186339E+00
        -11   -1    0    0    0    0  0.00000000000E+00  0.00000000000E+00  0.45593999997E+02  0.45594000000E+02  0.51100000000E-03 0. -1.
         11   -1    0    0    0    0 -0.00000000000E+00 -0.00000000000E+00 -0.45593999997E+02  0.45594000000E+02  0.51100000000E-03 0.  1.
    9900012    2    1    2    0    0 -0.91837627321E+00  0.58306595272E+00 -0.45758010887E+00  0.90007847281E+02  0.90000110065E+02 0.  0.
         12    1    1    2    0    0  0.91837627321E+00 -0.58306595272E+00  0.45758010887E+00  0.11801527191E+01  0.00000000000E+00 0. -1.
         11    1    3    3    0    0 -0.61068103243E+01 -0.24616593950E+02  0.30090762843E+02  0.39353828769E+02  0.51100000000E-03 0. -1.
        -11    1    3    3    0    0 -0.58784007385E+01  0.53094219315E+01  0.43133769582E+01  0.90194665881E+01  0.51100000000E-03 0.  1.
        -12    1    3    3    0    0  0.11066834790E+02  0.19890237971E+02 -0.34861719910E+02  0.41634551924E+02  0.00000000000E+00 0.  1.
</event>
<event>
 7    1  0.1501154E-015  0.9000778E+02  0.7816164E-02  0.1186339E+00
        -11   -1    0    0    0    0  0.00000000000E+00  0.00000000000E+00  0.45593999997E+02  0.45594000000E+02  0.51100000000E-03 0.  1.
         11   -1    0    0    0    0 -0.00000000000E+00 -0.00000000000E+00 -0.45593999997E+02  0.45594000000E+02  0.51100000000E-03 0. -1.
    9900012    2    1    2    0    0  0.93684890758E+00  0.36702095978E+00  0.61687047065E+00  0.90007779920E+02  0.90000041815E+02 0.  0.
         12    1    1    2    0    0 -0.93684890758E+00 -0.36702095978E+00 -0.61687047065E+00  0.11802200804E+01  0.00000000000E+00 0. -1.
         11    1    3    3    0    0 -0.95210472225E+01 -0.55302501876E+01  0.97298620706E+01  0.14693679714E+02  0.51100000000E-03 0. -1.
        -11    1    3    3    0    0 -0.71502588131E+01 -0.95144185284E+01  0.28573869754E+02  0.30953455284E+02  0.51100000000E-03 0.  1.
         12    1    3    3    0    0  0.17608154943E+02  0.15411689676E+02 -0.37686861354E+02  0.44360644922E+02  0.00000000000E+00 0. -1.
</event>
<event>
 7    1  0.1501154E-015  0.9000671E+02  0.7816164E-02  0.1186341E+00
        -11   -1    0    0    0    0  0.00000000000E+00  0.00000000000E+00  0.45593999997E+02  0.45594000000E+02  0.51100000000E-03 0. -1.
         11   -1    0    0    0    0 -0.00000000000E+00 -0.00000000000E+00 -0.45593999997E+02  0.45594000000E+02  0.51100000000E-03 0.  1.
    9900012    2    1    2    0    0  0.44649742716E+00  0.10917444372E+01 -0.64653279412E-01  0.90006710063E+02  0.89998957830E+02 0.  0.
         12    1    1    2    0    0 -0.44649742716E+00 -0.10917444372E+01  0.64653279412E-01  0.11812899370E+01  0.00000000000E+00 0. -1.
         11    1    3    3    0    0  0.28086734788E+01 -0.63456879146E+01  0.58658436740E+01  0.90865023022E+01  0.51100000000E-03 0. -1.
        -11    1    3    3    0    0 -0.22518388639E+02 -0.30210991336E+02 -0.63630887700E+01  0.38213488761E+02  0.51100000000E-03 0.  1.
         12    1    3    3    0    0  0.20156212587E+02  0.37648423688E+02  0.43259181661E+00  0.42706718999E+02  0.00000000000E+00 0. -1.
</event>
<event>
 7    1  0.1501154E-015  0.9000751E+02  0.7816164E-02  0.1186340E+00
        -11   -1    0    0    0    0  0.00000000000E+00  0.00000000000E+00  0.45593999997E+02  0.45594000000E+02  0.51100000000E-03 0.  1.
         11   -1    0    0    0    0 -0.00000000000E+00 -0.00000000000E+00 -0.45593999997E+02  0.45594000000E+02  0.51100000000E-03 0. -1.
    9900012    2    1    2    0    0  0.89931824404E+00  0.75929345030E+00  0.90905592434E-01  0.90007507021E+02  0.89999765313E+02 0.  0.
         12    1    1    2    0    0 -0.89931824404E+00 -0.75929345030E+00 -0.90905592434E-01  0.11804929794E+01  0.00000000000E+00 0. -1.
         11    1    3    3    0    0 -0.52021978335E+01 -0.54752827600E+01  0.53225158969E+01  0.92396298268E+01  0.51100000000E-03 0. -1.
        -11    1    3    3    0    0 -0.26757215120E+02  0.25908712521E+02 -0.16658779665E+02  0.40801040252E+02  0.51100000000E-03 0.  1.
         12    1    3    3    0    0  0.32858731198E+02 -0.19674136311E+02  0.11427169360E+02  0.39966836941E+02  0.00000000000E+00 0. -1.
</event>
<event>
 7    1  0.1501154E-015  0.9000778E+02  0.7816164E-02  0.1186339E+00
        -11   -1    0    0    0    0  0.00000000000E+00  0.00000000000E+00  0.45593999997E+02  0.45594000000E+02  0.51100000000E-03 0. -1.
         11   -1    0    0    0    0 -0.00000000000E+00 -0.00000000000E+00 -0.45593999997E+02  0.45594000000E+02  0.51100000000E-03 0.  1.
    9900012    2    1    2    0    0  0.49801893795E+00 -0.99970248984E+00 -0.38142922213E+00  0.90007781299E+02  0.90000043212E+02 0.  0.
         12    1    1    2    0    0 -0.49801893795E+00  0.99970248984E+00  0.38142922213E+00  0.11802187010E+01  0.00000000000E+00 0. -1.
         11    1    3    3    0    0  0.19509165742E+02 -0.25772975427E+02 -0.21026552345E+02  0.38561246272E+02  0.51100000000E-03 0. -1.
        -11    1    3    3    0    0  0.26523824575E+01 -0.74521534833E+01  0.60711727702E+01  0.99714022738E+01  0.51100000000E-03 0.  1.
        -12    1    3    3    0    0 -0.21663529261E+02  0.32225426420E+02  0.14573950352E+02  0.41475132753E+02  0.00000000000E+00 0.  1.
</event>
<event>
 7    1  0.1501154E-015  0.9000783E+02  0.7816164E-02  0.1186339E+00
        -11   -1    0    0    0    0  0.00000000000E+00  0.00000000000E+00  0.45593999997E+02  0.45594000000E+02  0.51100000000E-03 0.  1.
         11   -1    0    0    0    0 -0.00000000000E+00 -0.00000000000E+00 -0.45593999997E+02  0.45594000000E+02  0.51100000000E-03 0. -1.
    9900012    2    1    2    0    0  0.10406225319E+01  0.51471769771E+00 -0.21206759658E+00  0.90007829577E+02  0.90000092127E+02 0.  0.
         12    1    1    2    0    0 -0.10406225319E+01 -0.51471769771E+00  0.21206759658E+00  0.11801704231E+01  0.00000000000E+00 0. -1.
         11    1    3    3    0    0 -0.64242748358E+01  0.22749231147E+01 -0.83382735712E+01  0.10769094147E+02  0.51100000000E-03 0. -1.
        -11    1    3    3    0    0  0.15338428340E+02  0.36384019885E+02  0.80148349034E+01  0.40290220472E+02  0.51100000000E-03 0.  1.
         12    1    3    3    0    0 -0.78735309727E+01 -0.38144225302E+02  0.11137107129E+00  0.38948514957E+02  0.00000000000E+00 0. -1.
</event>
<event>
 7    1  0.1501154E-015  0.9000823E+02  0.7816164E-02  0.1186338E+00
        -11   -1    0    0    0    0  0.00000000000E+00  0.00000000000E+00  0.45593999997E+02  0.45594000000E+02  0.51100000000E-03 0.  1.
         11   -1    0    0    0    0 -0.00000000000E+00 -0.00000000000E+00 -0.45593999997E+02  0.45594000000E+02  0.51100000000E-03 0. -1.
    9900012    2    1    2    0    0  0.78908944342E+00 -0.24099155086E+00  0.84328154164E+00  0.90008227634E+02  0.90000495437E+02 0.  0.
         12    1    1    2    0    0 -0.78908944342E+00  0.24099155086E+00 -0.84328154164E+00  0.11797723661E+01  0.00000000000E+00 0. -1.
         11    1    3    3    0    0  0.25632945465E+01  0.62930189584E+01  0.67097928719E+01  0.95495490567E+01  0.51100000000E-03 0. -1.
        -11    1    3    3    0    0 -0.18900215575E+02 -0.73763725510E+01  0.32569241401E+02  0.38371662806E+02  0.51100000000E-03 0.  1.
         12    1    3    3    0    0  0.17126010472E+02  0.84236204178E+00 -0.38435752731E+02  0.42087015771E+02  0.00000000000E+00 0. -1.
</event>
<event>
 7    1  0.1501154E-015  0.9000782E+02  0.7816164E-02  0.1186339E+00
        -11   -1    0    0    0    0  0.00000000000E+00  0.00000000000E+00  0.45593999997E+02  0.45594000000E+02  0.51100000000E-03 0.  1.
         11   -1    0    0    0    0 -0.00000000000E+00 -0.00000000000E+00 -0.45593999997E+02  0.45594000000E+02  0.51100000000E-03 0. -1.
    9900012    2    1    2    0    0 -0.69062586413E-01  0.79476331025E+00  0.86970970412E+00  0.90007824873E+02  0.90000087362E+02 0.  0.
         12    1    1    2    0    0  0.69062586413E-01 -0.79476331025E+00 -0.86970970412E+00  0.11801751267E+01  0.00000000000E+00 0. -1.
         11    1    3    3    0    0 -0.34634714292E+01 -0.12012581054E+01  0.80127830818E+01  0.88115463089E+01  0.51100000000E-03 0. -1.
        -11    1    3    3    0    0 -0.90554567871E+01  0.30379858944E+02 -0.29243914355E+02  0.43129382724E+02  0.51100000000E-03 0.  1.
         12    1    3    3    0    0  0.12449865630E+02 -0.28383837529E+02  0.22100840977E+02  0.38066895841E+02  0.00000000000E+00 0. -1.
</event>
<event>
 7    1  0.1501154E-015  0.9000775E+02  0.7816164E-02  0.1186339E+00
        -11   -1    0    0    0    0  0.00000000000E+00  0.00000000000E+00  0.45593999997E+02  0.45594000000E+02  0.51100000000E-03 0.  1.
         11   -1    0    0    0    0 -0.00000000000E+00 -0.00000000000E+00 -0.45593999997E+02  0.45594000000E+02  0.51100000000E-03 0. -1.
    9900012    2    1    2    0    0  0.56967051087E+00 -0.96489428955E+00  0.37071963324E+00  0.90007754887E+02  0.90000016451E+02 0.  0.
         12    1    1    2    0    0 -0.56967051087E+00  0.96489428955E+00 -0.37071963324E+00  0.11802451133E+01  0.00000000000E+00 0. -1.
         11    1    3    3    0    0 -0.10881826746E+02  0.27744132739E+01 -0.28327714214E-01  0.11229974402E+02  0.51100000000E-03 0. -1.
        -11    1    3    3    0    0 -0.27949733638E+02  0.18447977521E+02  0.17998764508E+01  0.33537367824E+02  0.51100000000E-03 0.  1.
         12    1    3    3    0    0  0.39401230896E+02 -0.22187285084E+02 -0.14008291034E+01  0.45240412660E+02  0.00000000000E+00 0. -1.
</event>
<event>
 7    1  0.1781826E-015  0.9000732E+02  0.7816164E-02  0.1186340E+00
        -11   -1    0    0    0    0  0.00000000000E+00  0.00000000000E+00  0.45593999997E+02  0.45594000000E+02  0.51100000000E-03 0. -1.
         11   -1    0    0    0    0 -0.00000000000E+00 -0.00000000000E+00 -0.45593999997E+02  0.45594000000E+02  0.51100000000E-03 0.  1.
    9900012    2    1    2    0    0  0.10887233626E+00 -0.62803892406E+00 -0.99383742044E+00  0.90007322697E+02  0.89999578556E+02 0.  0.
         12    1    1    2    0    0 -0.10887233626E+00  0.62803892406E+00  0.99383742044E+00  0.11806773031E+01  0.00000000000E+00 0. -1.
         11    1    3    3    0    0  0.27138292644E+02  0.28241199060E+02  0.19223283515E+01  0.39214124988E+02  0.51100000000E-03 0. -1.
        -11    1    3    3    0    0  0.25141161377E+00  0.62010884018E+00  0.88948559436E+01  0.89199890859E+01  0.51100000000E-03 0.  1.
        -12    1    3    3    0    0 -0.27280831922E+02 -0.29489346824E+02 -0.11811021716E+02  0.41873208623E+02  0.00000000000E+00 0.  1.
</event>
<event>
 7    1  0.1501154E-015  0.9000776E+02  0.7816164E-02  0.1186339E+00
        -11   -1    0    0    0    0  0.00000000000E+00  0.00000000000E+00  0.45593999997E+02  0.45594000000E+02  0.51100000000E-03 0.  1.
         11   -1    0    0    0    0 -0.00000000000E+00 -0.00000000000E+00 -0.45593999997E+02  0.45594000000E+02  0.51100000000E-03 0. -1.
    9900012    2    1    2    0    0  0.23586084186E+00  0.92571921140E+00  0.69308776765E+00  0.90007763986E+02  0.90000025671E+02 0.  0.
         12    1    1    2    0    0 -0.23586084186E+00 -0.92571921140E+00 -0.69308776765E+00  0.11802360140E+01  0.00000000000E+00 0. -1.
         11    1    3    3    0    0  0.56073647238E+01 -0.49884101604E-01  0.78638210208E+01  0.96584009483E+01  0.51100000000E-03 0. -1.
        -11    1    3    3    0    0 -0.38411038333E+02  0.18491898217E+02 -0.41466369791E+01  0.42831679444E+02  0.51100000000E-03 0.  1.
         12    1    3    3    0    0  0.33039534451E+02 -0.17516294904E+02 -0.30240962741E+01  0.37517683593E+02  0.00000000000E+00 0. -1.
</event>
<event>
 7    1  0.1501154E-015  0.9000775E+02  0.7816164E-02  0.1186339E+00
        -11   -1    0    0    0    0  0.00000000000E+00  0.00000000000E+00  0.45593999997E+02  0.45594000000E+02  0.51100000000E-03 0. -1.
         11   -1    0    0    0    0 -0.00000000000E+00 -0.00000000000E+00 -0.45593999997E+02  0.45594000000E+02  0.51100000000E-03 0.  1.
    9900012    2    1    2    0    0  0.30246232484E+00 -0.88000501650E+00 -0.72602063770E+00  0.90007746530E+02  0.90000007984E+02 0.  0.
         12    1    1    2    0    0 -0.30246232484E+00  0.88000501650E+00  0.72602063770E+00  0.11802534700E+01  0.00000000000E+00 0. -1.
         11    1    3    3    0    0 -0.29794962269E+02 -0.12818203612E+02  0.22928362060E+02  0.39720975661E+02  0.51100000000E-03 0. -1.
        -11    1    3    3    0    0  0.76365792289E+00  0.79645724535E+01  0.47139610637E+01  0.92864964848E+01  0.51100000000E-03 0.  1.
        -12    1    3    3    0    0  0.29333766671E+02  0.39736261418E+01 -0.28368343762E+02  0.41000274384E+02  0.00000000000E+00 0.  1.
</event>
<event>
 7    1  0.1501154E-015  0.9000766E+02  0.7816164E-02  0.1186339E+00
        -11   -1    0    0    0    0  0.00000000000E+00  0.00000000000E+00  0.45593999997E+02  0.45594000000E+02  0.51100000000E-03 0. -1.
         11   -1    0    0    0    0 -0.00000000000E+00 -0.00000000000E+00 -0.45593999997E+02  0.45594000000E+02  0.51100000000E-03 0.  1.
    9900012    2    1    2    0    0 -0.57236593243E+00 -0.10275968860E+01 -0.98156680740E-01  0.90007664092E+02  0.89999924458E+02 0.  0.
         12    1    1    2    0    0  0.57236593243E+00  0.10275968860E+01  0.98156680740E-01  0.11803359075E+01  0.00000000000E+00 0. -1.
         11    1    3    3    0    0 -0.96561091458E+01 -0.20600328618E+01  0.11215900281E+01  0.99369081549E+01  0.51100000000E-03 0. -1.
        -11    1    3    3    0    0  0.88216135403E+01 -0.38751483712E+02  0.40057715556E+01  0.39944268192E+02  0.51100000000E-03 0.  1.
         12    1    3    3    0    0  0.26212967302E+00  0.39783919688E+02 -0.52255182645E+01  0.40126487746E+02  0.00000000000E+00 0. -1.
</event>
<event>
 7    1  0.1501154E-015  0.9000743E+02  0.7816164E-02  0.1186340E+00
        -11   -1    0    0    0    0  0.00000000000E+00  0.00000000000E+00  0.45593999997E+02  0.45594000000E+02  0.51100000000E-03 0.  1.
         11   -1    0    0    0    0 -0.00000000000E+00 -0.00000000000E+00 -0.45593999997E+02  0.45594000000E+02  0.51100000000E-03 0. -1.
    9900012    2    1    2    0    0 -0.10691248505E+01  0.33433943859E+00  0.37273469067E+00  0.90007431512E+02  0.89999688807E+02 0.  0.
         12    1    1    2    0    0  0.10691248505E+01 -0.33433943859E+00 -0.37273469067E+00  0.11805684884E+01  0.00000000000E+00 0. -1.
         11    1    3    3    0    0 -0.53919839139E+00 -0.36163910411E+01  0.89199649946E+01  0.96402694378E+01  0.51100000000E-03 0. -1.
        -11    1    3    3    0    0  0.25533291491E+02 -0.76739581789E+01  0.24843750193E+02  0.36442427642E+02  0.51100000000E-03 0.  1.
         12    1    3    3    0    0 -0.26063217950E+02  0.11624688659E+02 -0.33390980497E+02  0.43924734432E+02  0.00000000000E+00 0. -1.
</event>
<event>
 7    1  0.1501154E-015  0.9000775E+02  0.7816164E-02  0.1186339E+00
        -11   -1    0    0    0    0  0.00000000000E+00  0.00000000000E+00  0.45593999997E+02  0.45594000000E+02  0.51100000000E-03 0.  1.
         11   -1    0    0    0    0 -0.00000000000E+00 -0.00000000000E+00 -0.45593999997E+02  0.45594000000E+02  0.51100000000E-03 0. -1.
    9900012    2    1    2    0    0 -0.10109180603E+01 -0.41268377770E+00  0.44803297717E+00  0.90007747157E+02  0.90000008619E+02 0.  0.
         12    1    1    2    0    0  0.10109180603E+01  0.41268377770E+00 -0.44803297717E+00  0.11802528431E+01  0.00000000000E+00 0. -1.
         11    1    3    3    0    0  0.46813081167E+01  0.16760506223E+00 -0.63571386487E+01  0.78965783223E+01  0.51100000000E-03 0. -1.
        -11    1    3    3    0    0 -0.18403883524E+02  0.15340548728E+02 -0.30991887621E+02  0.39173108922E+02  0.51100000000E-03 0.  1.
         12    1    3    3    0    0  0.12711657347E+02 -0.15920837568E+02  0.37797059247E+02  0.42938059913E+02  0.00000000000E+00 0. -1.
</event>
<event>
 7    1  0.1501154E-015  0.9000777E+02  0.7816164E-02  0.1186339E+00
        -11   -1    0    0    0    0  0.00000000000E+00  0.00000000000E+00  0.45593999997E+02  0.45594000000E+02  0.51100000000E-03 0. -1.
         11   -1    0    0    0    0 -0.00000000000E+00 -0.00000000000E+00 -0.45593999997E+02  0.45594000000E+02  0.51100000000E-03 0.  1.
    9900012    2    1    2    0    0 -0.22060221463E+00  0.30394529001E+00 -0.11188798638E+01  0.90007771113E+02  0.90000032892E+02 0.  0.
         12    1    1    2    0    0  0.22060221463E+00 -0.30394529001E+00  0.11188798638E+01  0.11802288871E+01  0.00000000000E+00 0. -1.
         11    1    3    3    0    0  0.14267055418E+02 -0.92650297208E+01  0.12092020229E+02  0.20871190658E+02  0.51100000000E-03 0. -1.
        -11    1    3    3    0    0  0.13127655296E+02  0.29724951991E+02 -0.29298759681E-01  0.32494752855E+02  0.51100000000E-03 0.  1.
        -12    1    3    3    0    0 -0.27615312928E+02 -0.20155976980E+02 -0.13181601333E+02  0.36641827600E+02  0.00000000000E+00 0.  1.
</event>
<event>
 7    1  0.1776441E-015  0.9000769E+02  0.7816164E-02  0.1186339E+00
        -11   -1    0    0    0    0  0.00000000000E+00  0.00000000000E+00  0.45593999997E+02  0.45594000000E+02  0.51100000000E-03 0.  1.
         11   -1    0    0    0    0 -0.00000000000E+00 -0.00000000000E+00 -0.45593999997E+02  0.45594000000E+02  0.51100000000E-03 0. -1.
    9900012    2    1    2    0    0 -0.10650936245E+01 -0.42299525703E+00  0.28244643034E+00  0.90007692666E+02  0.89999953409E+02 0.  0.
         12    1    1    2    0    0  0.10650936245E+01  0.42299525703E+00 -0.28244643034E+00  0.11803073339E+01  0.00000000000E+00 0. -1.
         11    1    3    3    0    0  0.34479915520E+01 -0.27345549390E+02 -0.29165730814E+02  0.40128637796E+02  0.51100000000E-03 0. -1.
        -11    1    3    3    0    0  0.94837185582E+01  0.95846903412E+00  0.23335383786E+01  0.98135101878E+01  0.51100000000E-03 0.  1.
        -12    1    3    3    0    0 -0.13996803735E+02  0.25964085099E+02  0.27114638866E+02  0.40065544682E+02  0.00000000000E+00 0.  1.
</event>
<event>
 7    1  0.1501154E-015  0.9000764E+02  0.7816164E-02  0.1186339E+00
        -11   -1    0    0    0    0  0.00000000000E+00  0.00000000000E+00  0.45593999997E+02  0.45594000000E+02  0.51100000000E-03 0. -1.
         11   -1    0    0    0    0 -0.00000000000E+00 -0.00000000000E+00 -0.45593999997E+02  0.45594000000E+02  0.51100000000E-03 0.  1.
    9900012    2    1    2    0    0 -0.69577543700E+00  0.87736163075E+00  0.37334534471E+00  0.90007638345E+02  0.89999898371E+02 0.  0.
         12    1    1    2    0    0  0.69577543700E+00 -0.87736163075E+00 -0.37334534471E+00  0.11803616549E+01  0.00000000000E+00 0. -1.
         11    1    3    3    0    0 -0.22205411190E+02  0.73859111175E+01  0.33516102824E+02  0.40877391281E+02  0.51100000000E-03 0. -1.
        -11    1    3    3    0    0  0.10158839722E+02 -0.42692808931E+01  0.28013979765E+01  0.11369987455E+02  0.51100000000E-03 0.  1.
        -12    1    3    3    0    0  0.11350796031E+02 -0.22392685937E+01 -0.35944155456E+02  0.37760259610E+02  0.00000000000E+00 0.  1.
</event>
<event>
 7    1  0.1501154E-015  0.9000779E+02  0.7816164E-02  0.1186339E+00
        -11   -1    0    0    0    0  0.00000000000E+00  0.00000000000E+00  0.45593999997E+02  0.45594000000E+02  0.51100000000E-03 0. -1.
         11   -1    0    0    0    0 -0.00000000000E+00 -0.00000000000E+00 -0.45593999997E+02  0.45594000000E+02  0.51100000000E-03 0.  1.
    9900012    2    1    2    0    0 -0.73027443128E+00  0.52927510095E+00 -0.76122012228E+00  0.90007792835E+02  0.90000054901E+02 0.  0.
         12    1    1    2    0    0  0.73027443128E+00 -0.52927510095E+00  0.76122012228E+00  0.11802071649E+01  0.00000000000E+00 0. -1.
         11    1    3    3    0    0  0.13140535585E+01 -0.54348567669E+01 -0.71424844766E+01  0.90708042417E+01  0.51100000000E-03 0. -1.
        -11    1    3    3    0    0 -0.40386165468E+02 -0.24040369005E+01 -0.30589753173E+01  0.40573132549E+02  0.51100000000E-03 0.  1.
         12    1    3    3    0    0  0.38341837478E+02  0.83681687684E+01  0.94402396717E+01  0.40363856044E+02  0.00000000000E+00 0. -1.
</event>
<event>
 7    1  0.1501154E-015  0.9000769E+02  0.7816164E-02  0.1186339E+00
        -11   -1    0    0    0    0  0.00000000000E+00  0.00000000000E+00  0.45593999997E+02  0.45594000000E+02  0.51100000000E-03 0.  1.
         11   -1    0    0    0    0 -0.00000000000E+00 -0.00000000000E+00 -0.45593999997E+02  0.45594000000E+02  0.51100000000E-03 0. -1.
    9900012    2    1    2    0    0  0.91276211767E+00  0.74742381075E+00 -0.36753578492E-01  0.90007691624E+02  0.89999952354E+02 0.  0.
         12    1    1    2    0    0 -0.91276211767E+00 -0.74742381075E+00  0.36753578492E-01  0.11803083757E+01  0.00000000000E+00 0. -1.
         11    1    3    3    0    0  0.32446058478E+02  0.13058347338E+01 -0.14222534214E+02  0.35450421646E+02  0.51100000000E-03 0. -1.
        -11    1    3    3    0    0  0.95671864926E+01  0.23601432961E+01 -0.23973294765E+01  0.10141426066E+02  0.51100000000E-03 0.  1.
        -12    1    3    3    0    0 -0.41100482853E+02 -0.29185542192E+01  0.16583110112E+02  0.44415843913E+02  0.00000000000E+00 0.  1.
</event>
<event>
 7    1  0.1501154E-015  0.9000772E+02  0.7816164E-02  0.1186339E+00
        -11   -1    0    0    0    0  0.00000000000E+00  0.00000000000E+00  0.45593999997E+02  0.45594000000E+02  0.51100000000E-03 0.  1.
         11   -1    0    0    0    0 -0.00000000000E+00 -0.00000000000E+00 -0.45593999997E+02  0.45594000000E+02  0.51100000000E-03 0. -1.
    9900012    2    1    2    0    0 -0.35984529189E+00  0.75431436353E-01  0.11215571802E+01  0.90007716541E+02  0.89999977599E+02 0.  0.
         12    1    1    2    0    0  0.35984529189E+00 -0.75431436353E-01 -0.11215571802E+01  0.11802834592E+01  0.00000000000E+00 0. -1.
         11    1    3    3    0    0  0.12396599374E+01  0.54441902609E+01 -0.62836885189E+01  0.84059922687E+01  0.51100000000E-03 0. -1.
        -11    1    3    3    0    0  0.37788747700E+02 -0.13956179458E+02 -0.15192930529E+01  0.40312189837E+02  0.51100000000E-03 0.  1.
         12    1    3    3    0    0 -0.39388252929E+02  0.85874206331E+01  0.89245387520E+01  0.41289534435E+02  0.00000000000E+00 0. -1.
</event>
<event>
 7    1  0.1501154E-015  0.9000766E+02  0.7816164E-02  0.1186339E+00
        -11   -1    0    0    0    0  0.00000000000E+00  0.00000000000E+00  0.45593999997E+02  0.45594000000E+02  0.51100000000E-03 0.  1.
         11   -1    0    0    0    0 -0.00000000000E+00 -0.00000000000E+00 -0.45593999997E+02  0.45594000000E+02  0.51100000000E-03 0. -1.
    9900012    2    1    2    0    0 -0.51572832308E+00  0.29443194634E+00  0.10200631060E+01  0.90007663347E+02  0.89999923703E+02 0.  0.
         12    1    1    2    0    0  0.51572832308E+00 -0.29443194634E+00 -0.10200631060E+01  0.11803366530E+01  0.00000000000E+00 0. -1.
         11    1    3    3    0    0 -0.23485114431E+02 -0.26484620787E+02  0.11953608907E+02  0.37361403938E+02  0.51100000000E-03 0. -1.
        -11    1    3    3    0    0  0.37349701152E+01 -0.88684232825E+01  0.25507136133E+01  0.99551531117E+01  0.51100000000E-03 0.  1.
        -12    1    3    3    0    0  0.19234415993E+02  0.35647476016E+02 -0.13484259415E+02  0.42691106297E+02  0.00000000000E+00 0.  1.
</event>
<event>
 7    1  0.1988746E-015  0.9000761E+02  0.7816164E-02  0.1186339E+00
        -11   -1    0    0    0    0  0.00000000000E+00  0.00000000000E+00  0.45593999997E+02  0.45594000000E+02  0.51100000000E-03 0. -1.
         11   -1    0    0    0    0 -0.00000000000E+00 -0.00000000000E+00 -0.45593999997E+02  0.45594000000E+02  0.51100000000E-03 0.  1.
    9900012    2    1    2    0    0  0.57506999511E+00 -0.41361855601E+00 -0.94421377925E+00  0.90007607917E+02  0.89999867541E+02 0.  0.
         12    1    1    2    0    0 -0.57506999511E+00  0.41361855601E+00  0.94421377925E+00  0.11803920832E+01  0.00000000000E+00 0. -1.
         11    1    3    3    0    0 -0.83544456339E+01  0.33592948718E+01 -0.20525323715E+01  0.92355028712E+01  0.51100000000E-03 0. -1.
        -11    1    3    3    0    0  0.30682648263E+02 -0.31777238583E+01 -0.29853857546E+02  0.42927562754E+02  0.51100000000E-03 0.  1.
         12    1    3    3    0    0 -0.21753132634E+02 -0.59518956946E+00  0.30962176138E+02  0.37844542291E+02  0.00000000000E+00 0. -1.
</event>
<event>
 7    1  0.1501154E-015  0.9000644E+02  0.7816164E-02  0.1186342E+00
        -11   -1    0    0    0    0  0.00000000000E+00  0.00000000000E+00  0.45593999997E+02  0.45594000000E+02  0.51100000000E-03 0. -1.
         11   -1    0    0    0    0 -0.00000000000E+00 -0.00000000000E+00 -0.45593999997E+02  0.45594000000E+02  0.51100000000E-03 0.  1.
    9900012    2    1    2    0    0  0.10726424380E+01 -0.13559122125E+00  0.47660093568E+00  0.90006435262E+02  0.89998679397E+02 0.  0.
         12    1    1    2    0    0 -0.10726424380E+01  0.13559122125E+00 -0.47660093568E+00  0.11815647384E+01  0.00000000000E+00 0. -1.
         11    1    3    3    0    0  0.93711476849E+00  0.86329207497E+01 -0.39786981923E+01  0.95517299128E+01  0.51100000000E-03 0. -1.
        -11    1    3    3    0    0 -0.13287049443E+02 -0.12324818141E+02 -0.34570111145E+02  0.39032542961E+02  0.51100000000E-03 0.  1.
         12    1    3    3    0    0  0.13422577113E+02  0.35563061697E+01  0.39025410273E+02  0.41422162388E+02  0.00000000000E+00 0. -1.
</event>
<event>
 7    1  0.1501154E-015  0.9000754E+02  0.7816164E-02  0.1186339E+00
        -11   -1    0    0    0    0  0.00000000000E+00  0.00000000000E+00  0.45593999997E+02  0.45594000000E+02  0.51100000000E-03 0. -1.
         11   -1    0    0    0    0 -0.00000000000E+00 -0.00000000000E+00 -0.45593999997E+02  0.45594000000E+02  0.51100000000E-03 0.  1.
    9900012    2    1    2    0    0  0.91236947251E+00 -0.10089923979E+00 -0.74221652112E+00  0.90007540735E+02  0.89999799473E+02 0.  0.
         12    1    1    2    0    0 -0.91236947251E+00  0.10089923979E+00  0.74221652112E+00  0.11804592645E+01  0.00000000000E+00 0. -1.
         11    1    3    3    0    0  0.42199142321E+02 -0.22408542045E+01  0.18819318435E+01  0.42300481178E+02  0.51100000000E-03 0. -1.
        -11    1    3    3    0    0 -0.27346959711E+01  0.59355473741E+01 -0.59341630312E+01  0.88274331392E+01  0.51100000000E-03 0.  1.
        -12    1    3    3    0    0 -0.38552076877E+02 -0.37955924094E+01  0.33100146666E+01  0.38879626418E+02  0.00000000000E+00 0.  1.
</event>
<event>
 7    1  0.1501154E-015  0.9000774E+02  0.7816164E-02  0.1186339E+00
        -11   -1    0    0    0    0  0.00000000000E+00  0.00000000000E+00  0.45593999997E+02  0.45594000000E+02  0.51100000000E-03 0.  1.
         11   -1    0    0    0    0 -0.00000000000E+00 -0.00000000000E+00 -0.45593999997E+02  0.45594000000E+02  0.51100000000E-03 0. -1.
    9900012    2    1    2    0    0  0.91564017365E+00 -0.74460847140E+00  0.13551422328E-01  0.90007736324E+02  0.89999997644E+02 0.  0.
         12    1    1    2    0    0 -0.91564017365E+00  0.74460847140E+00 -0.13551422328E-01  0.11802636758E+01  0.00000000000E+00 0. -1.
         11    1    3    3    0    0  0.14028870256E+02 -0.20383471542E+02 -0.26682634488E+02  0.36390357187E+02  0.51100000000E-03 0. -1.
        -11    1    3    3    0    0  0.24161544645E+01 -0.21485784046E+01 -0.86800878800E+01  0.92627273209E+01  0.51100000000E-03 0.  1.
        -12    1    3    3    0    0 -0.15529384547E+02  0.21787441475E+02  0.35376273790E+02  0.44354651816E+02  0.00000000000E+00 0.  1.
</event>
<event>
 7    1  0.1501154E-015  0.9000769E+02  0.7816164E-02  0.1186339E+00
        -11   -1    0    0    0    0  0.00000000000E+00  0.00000000000E+00  0.45593999997E+02  0.45594000000E+02  0.51100000000E-03 0.  1.
         11   -1    0    0    0    0 -0.00000000000E+00 -0.00000000000E+00 -0.45593999997E+02  0.45594000000E+02  0.51100000000E-03 0. -1.
    9900012    2    1    2    0    0 -0.83806534976E+00  0.82910272978E+00 -0.57940703980E-01  0.90007694111E+02  0.89999954873E+02 0.  0.
         12    1    1    2    0    0  0.83806534976E+00 -0.82910272978E+00  0.57940703980E-01  0.11803058892E+01  0.00000000000E+00 0. -1.
         11    1    3    3    0    0  0.34397924208E+01 -0.29048930657E+02 -0.65902645177E+01  0.29985065131E+02  0.51100000000E-03 0. -1.
        -11    1    3    3    0    0  0.16921294584E+01 -0.14627629826E+02  0.25224064329E+01  0.14939658327E+02  0.51100000000E-03 0.  1.
        -12    1    3    3    0    0 -0.59699872289E+01  0.44505663213E+02  0.40099173808E+01  0.45082970654E+02  0.00000000000E+00 0.  1.
</event>
<event>
 7    1  0.1501154E-015  0.9000788E+02  0.7816164E-02  0.1186339E+00
        -11   -1    0    0    0    0  0.00000000000E+00  0.00000000000E+00  0.45593999997E+02  0.45594000000E+02  0.51100000000E-03 0. -1.
         11   -1    0    0    0    0 -0.00000000000E+00 -0.00000000000E+00 -0.45593999997E+02  0.45594000000E+02  0.51100000000E-03 0.  1.
    9900012    2    1    2    0    0 -0.10225950791E+01  0.50323171304E+00 -0.30617325850E+00  0.90007879279E+02  0.90000142485E+02 0.  0.
         12    1    1    2    0    0  0.10225950791E+01 -0.50323171304E+00  0.30617325850E+00  0.11801207214E+01  0.00000000000E+00 0. -1.
         11    1    3    3    0    0  0.82550239975E+01 -0.28570098289E+01  0.12096982400E+02  0.14921290488E+02  0.51100000000E-03 0. -1.
        -11    1    3    3    0    0  0.17539687560E+02 -0.10828345662E+02 -0.32649500441E+02  0.38611961732E+02  0.51100000000E-03 0.  1.
         12    1    3    3    0    0 -0.26817306636E+02  0.14188587204E+02  0.20246344782E+02  0.36474627059E+02  0.00000000000E+00 0. -1.
</event>
<event>
 7    1  0.1501154E-015  0.9000768E+02  0.7816164E-02  0.1186339E+00
        -11   -1    0    0    0    0  0.00000000000E+00  0.00000000000E+00  0.45593999997E+02  0.45594000000E+02  0.51100000000E-03 0.  1.
         11   -1    0    0    0    0 -0.00000000000E+00 -0.00000000000E+00 -0.45593999997E+02  0.45594000000E+02  0.51100000000E-03 0. -1.
    9900012    2    1    2    0    0 -0.96509470157E+00  0.45375510301E+00  0.50582718903E+00  0.90007676899E+02  0.89999937435E+02 0.  0.
         12    1    1    2    0    0  0.96509470157E+00 -0.45375510301E+00 -0.50582718903E+00  0.11803231005E+01  0.00000000000E+00 0. -1.
         11    1    3    3    0    0  0.82217449399E+01 -0.10049609086E+01  0.53077979780E+00  0.82999255261E+01  0.51100000000E-03 0. -1.
        -11    1    3    3    0    0  0.15176001478E+02  0.19303454792E+02  0.30239664779E+02  0.38953455739E+02  0.51100000000E-03 0.  1.
         12    1    3    3    0    0 -0.24362841120E+02 -0.17844738780E+02 -0.30264617388E+02  0.42754295635E+02  0.00000000000E+00 0. -1.
</event>
<event>
 7    1  0.1501154E-015  0.9000773E+02  0.7816164E-02  0.1186339E+00
        -11   -1    0    0    0    0  0.00000000000E+00  0.00000000000E+00  0.45593999997E+02  0.45594000000E+02  0.51100000000E-03 0. -1.
         11   -1    0    0    0    0 -0.00000000000E+00 -0.00000000000E+00 -0.45593999997E+02  0.45594000000E+02  0.51100000000E-03 0.  1.
    9900012    2    1    2    0    0  0.11623954718E+01 -0.18685161502E+00  0.83493973975E-01  0.90007725455E+02  0.89999986631E+02 0.  0.
         12    1    1    2    0    0 -0.11623954718E+01  0.18685161502E+00 -0.83493973975E-01  0.11802745455E+01  0.00000000000E+00 0. -1.
         11    1    3    3    0    0 -0.57386216113E+01 -0.55650511270E+01 -0.58383086464E+01  0.98988595381E+01  0.51100000000E-03 0. -1.
        -11    1    3    3    0    0 -0.93703312097E+01 -0.17591340931E+02 -0.29041100298E+02  0.35222775154E+02  0.51100000000E-03 0.  1.
         12    1    3    3    0    0  0.16271348293E+02  0.22969540443E+02  0.34962902919E+02  0.44886090763E+02  0.00000000000E+00 0. -1.
</event>
<event>
 7    1  0.1512716E-015  0.9000785E+02  0.7816164E-02  0.1186339E+00
        -11   -1    0    0    0    0  0.00000000000E+00  0.00000000000E+00  0.45593999997E+02  0.45594000000E+02  0.51100000000E-03 0.  1.
         11   -1    0    0    0    0 -0.00000000000E+00 -0.00000000000E+00 -0.45593999997E+02  0.45594000000E+02  0.51100000000E-03 0. -1.
    9900012    2    1    2    0    0 -0.85811338243E+00  0.73120176843E+00  0.34890357209E+00  0.90007852422E+02  0.90000115274E+02 0.  0.
         12    1    1    2    0    0  0.85811338243E+00 -0.73120176843E+00 -0.34890357209E+00  0.11801475780E+01  0.00000000000E+00 0. -1.
         11    1    3    3    0    0  0.37949903905E+02 -0.13695751260E+02  0.47084035676E+00  0.40348364277E+02  0.51100000000E-03 0. -1.
        -11    1    3    3    0    0 -0.12041493511E+01  0.38816337392E+01 -0.87637914052E+01  0.96602844782E+01  0.51100000000E-03 0.  1.
        -12    1    3    3    0    0 -0.37603867936E+02  0.10545319290E+02  0.86418546206E+01  0.39999203666E+02  0.00000000000E+00 0.  1.
</event>
<event>
 7    1  0.1501154E-015  0.9000747E+02  0.7816164E-02  0.1186340E+00
        -11   -1    0    0    0    0  0.00000000000E+00  0.00000000000E+00  0.45593999997E+02  0.45594000000E+02  0.51100000000E-03 0.  1.
         11   -1    0    0    0    0 -0.00000000000E+00 -0.00000000000E+00 -0.45593999997E+02  0.45594000000E+02  0.51100000000E-03 0. -1.
    9900012    2    1    2    0    0 -0.35402490578E-01  0.11687838339E+01 -0.16233056879E+00  0.90007466138E+02  0.89999723890E+02 0.  0.
         12    1    1    2    0    0  0.35402490578E-01 -0.11687838339E+01  0.16233056879E+00  0.11805338624E+01  0.00000000000E+00 0. -1.
         11    1    3    3    0    0 -0.27908022870E+02  0.13522823985E+02  0.18984735516E+02  0.36361307621E+02  0.51100000000E-03 0. -1.
        -11    1    3    3    0    0 -0.36241541587E+01  0.72072242610E+01  0.49143576732E+01  0.94461360627E+01  0.51100000000E-03 0.  1.
        -12    1    3    3    0    0  0.31496774538E+02 -0.19561264412E+02 -0.24061423758E+02  0.44200022454E+02  0.00000000000E+00 0.  1.
</event>
<event>
 7    1  0.1501154E-015  0.9000776E+02  0.7816164E-02  0.1186339E+00
        -11   -1    0    0    0    0  0.00000000000E+00  0.00000000000E+00  0.45593999997E+02  0.45594000000E+02  0.51100000000E-03 0. -1.
         11   -1    0    0    0    0 -0.00000000000E+00 -0.00000000000E+00 -0.45593999997E+02  0.45594000000E+02  0.51100000000E-03 0.  1.
    9900012    2    1    2    0    0  0.81595419690E+00  0.52899612862E+00 -0.66883748150E+00  0.90007762002E+02  0.90000023660E+02 0.  0.
         12    1    1    2    0    0 -0.81595419690E+00 -0.52899612862E+00  0.66883748150E+00  0.11802379981E+01  0.00000000000E+00 0. -1.
         11    1    3    3    0    0 -0.94107261863E+01 -0.21701327730E+01 -0.60195078902E+01  0.11380057957E+02  0.51100000000E-03 0. -1.
        -11    1    3    3    0    0  0.20396837767E+02  0.25391380847E+02 -0.23780015634E+02  0.40326695327E+02  0.51100000000E-03 0.  1.
         12    1    3    3    0    0 -0.10170157383E+02 -0.22692251945E+02  0.29130686042E+02  0.38301008718E+02  0.00000000000E+00 0. -1.
</event>
<event>
 7    1  0.1501154E-015  0.9000774E+02  0.7816164E-02  0.1186339E+00
        -11   -1    0    0    0    0  0.00000000000E+00  0.00000000000E+00  0.45593999997E+02  0.45594000000E+02  0.51100000000E-03 0.  1.
         11   -1    0    0    0    0 -0.00000000000E+00 -0.00000000000E+00 -0.45593999997E+02  0.45594000000E+02  0.51100000000E-03 0. -1.
    9900012    2    1    2    0    0  0.57117133366E+00  0.80192408772E-01  0.10297363755E+01  0.90007735403E+02  0.89999996711E+02 0.  0.
         12    1    1    2    0    0 -0.57117133366E+00 -0.80192408772E-01 -0.10297363755E+01  0.11802645966E+01  0.00000000000E+00 0. -1.
         11    1    3    3    0    0 -0.33811136633E+01 -0.60855031351E+01 -0.72887255676E+01  0.10079226095E+02  0.51100000000E-03 0. -1.
        -11    1    3    3    0    0  0.39815738095E+02  0.12979143608E+02 -0.22086196976E+01  0.41936012806E+02  0.51100000000E-03 0.  1.
         12    1    3    3    0    0 -0.35863453098E+02 -0.68134480638E+01  0.10527081641E+02  0.37992496503E+02  0.00000000000E+00 0. -1.
</event>
<event>
 7    1  0.1501154E-015  0.9000760E+02  0.7816164E-02  0.1186339E+00
        -11   -1    0    0    0    0  0.00000000000E+00  0.00000000000E+00  0.45593999997E+02  0.45594000000E+02  0.51100000000E-03 0.  1.
         11   -1    0    0    0    0 -0.00000000000E+00 -0.00000000000E+00 -0.45593999997E+02  0.45594000000E+02  0.51100000000E-03 0. -1.
    9900012    2    1    2    0    0 -0.24308939769E+00 -0.10759507516E+01  0.42022018829E+00  0.90007598593E+02  0.89999858094E+02 0.  0.
         12    1    1    2    0    0  0.24308939769E+00  0.10759507516E+01 -0.42022018829E+00  0.11804014070E+01  0.00000000000E+00 0. -1.
         11    1    3    3    0    0 -0.11567598223E+01  0.48802186790E+01 -0.45754350637E+01  0.67889052081E+01  0.51100000000E-03 0. -1.
        -11    1    3    3    0    0  0.41627081735E+02 -0.28498362616E+01 -0.20894698238E+01  0.41776804388E+02  0.51100000000E-03 0.  1.
         12    1    3    3    0    0 -0.40713411310E+02 -0.31063331690E+01  0.70851250758E+01  0.41441888997E+02  0.00000000000E+00 0. -1.
</event>
<event>
 7    1  0.1501154E-015  0.9000772E+02  0.7816164E-02  0.1186339E+00
        -11   -1    0    0    0    0  0.00000000000E+00  0.00000000000E+00  0.45593999997E+02  0.45594000000E+02  0.51100000000E-03 0. -1.
         11   -1    0    0    0    0 -0.00000000000E+00 -0.00000000000E+00 -0.45593999997E+02  0.45594000000E+02  0.51100000000E-03 0.  1.
    9900012    2    1    2    0    0 -0.19955440871E+00 -0.11119916132E+01 -0.34164423102E+00  0.90007716945E+02  0.89999978008E+02 0.  0.
         12    1    1    2    0    0  0.19955440871E+00  0.11119916132E+01  0.34164423102E+00  0.11802830552E+01  0.00000000000E+00 0. -1.
         11    1    3    3    0    0  0.26483084997E+02  0.23179781612E+02  0.93334485095E+01  0.36411115444E+02  0.51100000000E-03 0. -1.
        -11    1    3    3    0    0  0.27162204201E+00  0.85495507153E+01 -0.69528497280E+01  0.11023189900E+02  0.51100000000E-03 0.  1.
        -12    1    3    3    0    0 -0.26954261447E+02 -0.32841323940E+02 -0.27222430125E+01  0.42573411601E+02  0.00000000000E+00 0.  1.
</event>
<event>
 7    1  0.1501154E-015  0.9000826E+02  0.7816164E-02  0.1186338E+00
        -11   -1    0    0    0    0  0.00000000000E+00  0.00000000000E+00  0.45593999997E+02  0.45594000000E+02  0.51100000000E-03 0.  1.
         11   -1    0    0    0    0 -0.00000000000E+00 -0.00000000000E+00 -0.45593999997E+02  0.45594000000E+02  0.51100000000E-03 0. -1.
    9900012    2    1    2    0    0 -0.27258968818E+00 -0.35656047812E+00 -0.10910253613E+01  0.90008264075E+02  0.90000532360E+02 0.  0.
         12    1    1    2    0    0  0.27258968818E+00  0.35656047812E+00  0.10910253613E+01  0.11797359246E+01  0.00000000000E+00 0. -1.
         11    1    3    3    0    0  0.11930672105E+02 -0.26337731892E+02 -0.21701778016E+02  0.36152236824E+02  0.51100000000E-03 0. -1.
        -11    1    3    3    0    0  0.76730669634E+01 -0.47197060061E+01 -0.39130837957E+01  0.98215989769E+01  0.51100000000E-03 0.  1.
        -12    1    3    3    0    0 -0.19876328757E+02  0.30700877420E+02  0.24523836451E+02  0.44034428274E+02  0.00000000000E+00 0.  1.
</event>
<event>
 7    1  0.1501154E-015  0.9000772E+02  0.7816164E-02  0.1186339E+00
        -11   -1    0    0    0    0  0.00000000000E+00  0.00000000000E+00  0.45593999997E+02  0.45594000000E+02  0.51100000000E-03 0. -1.
         11   -1    0    0    0    0 -0.00000000000E+00 -0.00000000000E+00 -0.45593999997E+02  0.45594000000E+02  0.51100000000E-03 0.  1.
    9900012    2    1    2    0    0  0.10893326635E+01  0.39804862676E+00 -0.21901320583E+00  0.90007722429E+02  0.89999983565E+02 0.  0.
         12    1    1    2    0    0 -0.10893326635E+01 -0.39804862676E+00  0.21901320583E+00  0.11802775713E+01  0.00000000000E+00 0. -1.
         11    1    3    3    0    0 -0.35566794061E+02 -0.50348822191E+01  0.54605934470E+01  0.36334074363E+02  0.51100000000E-03 0. -1.
        -11    1    3    3    0    0 -0.78619595789E+01  0.34398440966E+01  0.89696921844E+00  0.86282958844E+01  0.51100000000E-03 0.  1.
        -12    1    3    3    0    0  0.44518086304E+02  0.19930867492E+01 -0.65765758712E+01  0.45045352181E+02  0.00000000000E+00 0.  1.
</event>
<event>
 7    1  0.1501154E-015  0.9000780E+02  0.7816164E-02  0.1186339E+00
        -11   -1    0    0    0    0  0.00000000000E+00  0.00000000000E+00  0.45593999997E+02  0.45594000000E+02  0.51100000000E-03 0.  1.
         11   -1    0    0    0    0 -0.00000000000E+00 -0.00000000000E+00 -0.45593999997E+02  0.45594000000E+02  0.51100000000E-03 0. -1.
    9900012    2    1    2    0    0  0.42455488407E+00 -0.28189269456E+00  0.10644978894E+01  0.90007802518E+02  0.90000064711E+02 0.  0.
         12    1    1    2    0    0 -0.42455488407E+00  0.28189269456E+00 -0.10644978894E+01  0.11801974824E+01  0.00000000000E+00 0. -1.
         11    1    3    3    0    0  0.31858009283E+02  0.97875161930E+01 -0.15099317983E+02  0.36588490438E+02  0.51100000000E-03 0. -1.
        -11    1    3    3    0    0  0.88422678131E+01 -0.51523829179E+01  0.46625221231E+01  0.11245970951E+02  0.51100000000E-03 0.  1.
        -12    1    3    3    0    0 -0.40275722212E+02 -0.49170259697E+01  0.11501293749E+02  0.42173341129E+02  0.00000000000E+00 0.  1.
</event>
<event>
 7    1  0.1501154E-015  0.9000773E+02  0.7816164E-02  0.1186339E+00
        -11   -1    0    0    0    0  0.00000000000E+00  0.00000000000E+00  0.45593999997E+02  0.45594000000E+02  0.51100000000E-03 0. -1.
         11   -1    0    0    0    0 -0.00000000000E+00 -0.00000000000E+00 -0.45593999997E+02  0.45594000000E+02  0.51100000000E-03 0.  1.
    9900012    2    1    2    0    0 -0.99985326367E-01 -0.11324891443E+01 -0.31702114450E+00  0.90007732601E+02  0.89999993871E+02 0.  0.
         12    1    1    2    0    0  0.99985326367E-01  0.11324891443E+01  0.31702114450E+00  0.11802673992E+01  0.00000000000E+00 0. -1.
         11    1    3    3    0    0 -0.14315187390E+01  0.50369093582E+01  0.73816673266E+01  0.90503433396E+01  0.51100000000E-03 0. -1.
        -11    1    3    3    0    0 -0.12259895458E+02  0.70475892542E+01 -0.40595926045E+02  0.42988402653E+02  0.51100000000E-03 0.  1.
         12    1    3    3    0    0  0.13591428871E+02 -0.13216987757E+02  0.32897237574E+02  0.37968986609E+02  0.00000000000E+00 0. -1.
</event>
<event>
 7    1  0.1501154E-015  0.9000753E+02  0.7816164E-02  0.1186339E+00
        -11   -1    0    0    0    0  0.00000000000E+00  0.00000000000E+00  0.45593999997E+02  0.45594000000E+02  0.51100000000E-03 0.  1.
         11   -1    0    0    0    0 -0.00000000000E+00 -0.00000000000E+00 -0.45593999997E+02  0.45594000000E+02  0.51100000000E-03 0. -1.
    9900012    2    1    2    0    0  0.11607621970E+01  0.81734054687E-01  0.19867355762E+00  0.90007525301E+02  0.89999783834E+02 0.  0.
         12    1    1    2    0    0 -0.11607621970E+01 -0.81734054687E-01 -0.19867355762E+00  0.11804746995E+01  0.00000000000E+00 0. -1.
         11    1    3    3    0    0 -0.98295175096E+01 -0.14649318282E+01  0.15148658160E+01  0.10052873143E+02  0.51100000000E-03 0. -1.
        -11    1    3    3    0    0 -0.33156685477E+02 -0.79328418828E+01  0.46531395381E+01  0.34408537894E+02  0.51100000000E-03 0.  1.
         12    1    3    3    0    0  0.44146965184E+02  0.94795077656E+01 -0.59693317965E+01  0.45546114264E+02  0.00000000000E+00 0. -1.
</event>
<event>
 7    1  0.1501154E-015  0.9000772E+02  0.7816164E-02  0.1186339E+00
        -11   -1    0    0    0    0  0.00000000000E+00  0.00000000000E+00  0.45593999997E+02  0.45594000000E+02  0.51100000000E-03 0.  1.
         11   -1    0    0    0    0 -0.00000000000E+00 -0.00000000000E+00 -0.45593999997E+02  0.45594000000E+02  0.51100000000E-03 0. -1.
    9900012    2    1    2    0    0  0.12074301737E+00 -0.73500882567E+00 -0.91555150966E+00  0.90007724008E+02  0.89999985165E+02 0.  0.
         12    1    1    2    0    0 -0.12074301737E+00  0.73500882567E+00  0.91555150966E+00  0.11802759918E+01  0.00000000000E+00 0. -1.
         11    1    3    3    0    0 -0.91157866014E+01  0.31709637550E+01  0.73934245744E+01  0.12157931720E+02  0.51100000000E-03 0. -1.
        -11    1    3    3    0    0  0.22019528831E+02  0.10990711060E+02  0.27567508468E+02  0.36954335375E+02  0.51100000000E-03 0.  1.
         12    1    3    3    0    0 -0.12782999213E+02 -0.14896683641E+02 -0.35876484553E+02  0.40895456914E+02  0.00000000000E+00 0. -1.
</event>
<event>
 7    1  0.1681638E-015  0.9000776E+02  0.7816164E-02  0.1186339E+00
        -11   -1    0    0    0    0  0.00000000000E+00  0.00000000000E+00  0.45593999997E+02  0.45594000000E+02  0.51100000000E-03 0.  1.
         11   -1    0    0    0    0 -0.00000000000E+00 -0.00000000000E+00 -0.45593999997E+02  0.45594000000E+02  0.51100000000E-03 0. -1.
    9900012    2    1    2    0    0  0.25569319378E+00 -0.10501405114E+01  0.47412846792E+00  0.90007757691E+02  0.90000019293E+02 0.  0.
         12    1    1    2    0    0 -0.25569319378E+00  0.10501405114E+01 -0.47412846792E+00  0.11802423087E+01  0.00000000000E+00 0. -1.
         11    1    3    3    0    0 -0.36915820284E+02 -0.13182581322E+01 -0.24244234483E+01  0.37018825225E+02  0.51100000000E-03 0. -1.
        -11    1    3    3    0    0 -0.47830796779E+01 -0.18964898330E+01 -0.80695297823E+01  0.95703623787E+01  0.51100000000E-03 0.  1.
        -12    1    3    3    0    0  0.41954593156E+02  0.21646074537E+01  0.10968081699E+02  0.43418570087E+02  0.00000000000E+00 0.  1.
</event>
<event>
 7    1  0.1894209E-015  0.9000769E+02  0.7816164E-02  0.1186339E+00
        -11   -1    0    0    0    0  0.00000000000E+00  0.00000000000E+00  0.45593999997E+02  0.45594000000E+02  0.51100000000E-03 0.  1.
         11   -1    0    0    0    0 -0.00000000000E+00 -0.00000000000E+00 -0.45593999997E+02  0.45594000000E+02  0.51100000000E-03 0. -1.
    9900012    2    1    2    0    0 -0.10745948792E+01  0.77474975806E-02  0.48817508831E+00  0.90007691102E+02  0.89999951824E+02 0.  0.
         12    1    1    2    0    0  0.10745948792E+01 -0.77474975806E-02 -0.48817508831E+00  0.11803088981E+01  0.00000000000E+00 0. -1.
         11    1    3    3    0    0  0.22881713363E+02  0.33979449930E+02  0.17715040869E+01  0.41003829711E+02  0.51100000000E-03 0. -1.
        -11    1    3    3    0    0 -0.31536952253E+01 -0.92887593392E+00 -0.86638091685E+01  0.92666171630E+01  0.51100000000E-03 0.  1.
        -12    1    3    3    0    0 -0.20802613017E+02 -0.33042826498E+02  0.73804801699E+01  0.39737244228E+02  0.00000000000E+00 0.  1.
</event>
<event>
 7    1  0.1501154E-015  0.9000706E+02  0.7816164E-02  0.1186340E+00
        -11   -1    0    0    0    0  0.00000000000E+00  0.00000000000E+00  0.45593999997E+02  0.45594000000E+02  0.51100000000E-03 0.  1.
         11   -1    0    0    0    0 -0.00000000000E+00 -0.00000000000E+00 -0.45593999997E+02  0.45594000000E+02  0.51100000000E-03 0. -1.
    9900012    2    1    2    0    0  0.73023515917E-01  0.81773942757E+00 -0.84887614854E+00  0.90007059307E+02  0.89999311687E+02 0.  0.
         12    1    1    2    0    0 -0.73023515917E-01 -0.81773942757E+00  0.84887614854E+00  0.11809406932E+01  0.00000000000E+00 0. -1.
         11    1    3    3    0    0 -0.97376149098E+01  0.22320242608E+01 -0.41034697438E+01  0.10800071325E+02  0.51100000000E-03 0. -1.
        -11    1    3    3    0    0 -0.16237268477E+02  0.32114540538E+02  0.67192440554E+01  0.36607934147E+02  0.51100000000E-03 0.  1.
         12    1    3    3    0    0  0.26047906903E+02 -0.33528825371E+02 -0.34646504602E+01  0.42599053835E+02  0.00000000000E+00 0. -1.
</event>
<event>
 7    1  0.1501154E-015  0.9000761E+02  0.7816164E-02  0.1186339E+00
        -11   -1    0    0    0    0  0.00000000000E+00  0.00000000000E+00  0.45593999997E+02  0.45594000000E+02  0.51100000000E-03 0.  1.
         11   -1    0    0    0    0 -0.00000000000E+00 -0.00000000000E+00 -0.45593999997E+02  0.45594000000E+02  0.51100000000E-03 0. -1.
    9900012    2    1    2    0    0 -0.75647543460E+00  0.90031992220E+00 -0.10238072888E+00  0.90007613259E+02  0.89999872954E+02 0.  0.
         12    1    1    2    0    0  0.75647543460E+00 -0.90031992220E+00  0.10238072888E+00  0.11803867413E+01  0.00000000000E+00 0. -1.
         11    1    3    3    0    0  0.54210031076E+01  0.15894086116E+01 -0.71066764063E+01  0.90784549474E+01  0.51100000000E-03 0. -1.
        -11    1    3    3    0    0  0.27030061873E+02 -0.19947049151E+02  0.21512878490E+02  0.39891264155E+02  0.51100000000E-03 0.  1.
         12    1    3    3    0    0 -0.33207540415E+02  0.19257960462E+02 -0.14508582812E+02  0.41037894156E+02  0.00000000000E+00 0. -1.
</event>
<event>
 7    1  0.1501154E-015  0.9000775E+02  0.7816164E-02  0.1186339E+00
        -11   -1    0    0    0    0  0.00000000000E+00  0.00000000000E+00  0.45593999997E+02  0.45594000000E+02  0.51100000000E-03 0. -1.
         11   -1    0    0    0    0 -0.00000000000E+00 -0.00000000000E+00 -0.45593999997E+02  0.45594000000E+02  0.51100000000E-03 0.  1.
    9900012    2    1    2    0    0 -0.21531214468E+00  0.95847418578E+00  0.65418816831E+00  0.90007748229E+02  0.90000009705E+02 0.  0.
         12    1    1    2    0    0  0.21531214468E+00 -0.95847418578E+00 -0.65418816831E+00  0.11802517714E+01  0.00000000000E+00 0. -1.
         11    1    3    3    0    0  0.70523619355E+01  0.28442393830E+02  0.30554402817E+02  0.42335293874E+02  0.51100000000E-03 0. -1.
        -11    1    3    3    0    0 -0.98935641256E+01 -0.73327243091E+01 -0.10169425162E+01  0.12356602658E+02  0.51100000000E-03 0.  1.
        -12    1    3    3    0    0  0.26258900454E+01 -0.20151195335E+02 -0.28883272133E+02  0.35315851697E+02  0.00000000000E+00 0.  1.
</event>
<event>
 7    1  0.1501154E-015  0.9000789E+02  0.7816164E-02  0.1186339E+00
        -11   -1    0    0    0    0  0.00000000000E+00  0.00000000000E+00  0.45593999997E+02  0.45594000000E+02  0.51100000000E-03 0.  1.
         11   -1    0    0    0    0 -0.00000000000E+00 -0.00000000000E+00 -0.45593999997E+02  0.45594000000E+02  0.51100000000E-03 0. -1.
    9900012    2    1    2    0    0 -0.50955233858E+00  0.10389809972E+01 -0.23137671315E+00  0.90007889716E+02  0.90000153060E+02 0.  0.
         12    1    1    2    0    0  0.50955233858E+00 -0.10389809972E+01  0.23137671315E+00  0.11801102837E+01  0.00000000000E+00 0. -1.
         11    1    3    3    0    0 -0.51487859036E+01 -0.35773797885E+01  0.31775964036E+01  0.70288520825E+01  0.51100000000E-03 0. -1.
        -11    1    3    3    0    0 -0.11525156675E+02  0.21937828401E+02  0.31939207623E+02  0.40425369945E+02  0.51100000000E-03 0.  1.
         12    1    3    3    0    0  0.16164390240E+02 -0.17321467615E+02 -0.35348180740E+02  0.42553667689E+02  0.00000000000E+00 0. -1.
</event>
<event>
 7    1  0.1501154E-015  0.9000765E+02  0.7816164E-02  0.1186339E+00
        -11   -1    0    0    0    0  0.00000000000E+00  0.00000000000E+00  0.45593999997E+02  0.45594000000E+02  0.51100000000E-03 0. -1.
         11   -1    0    0    0    0 -0.00000000000E+00 -0.00000000000E+00 -0.45593999997E+02  0.45594000000E+02  0.51100000000E-03 0.  1.
    9900012    2    1    2    0    0  0.86500515621E+00 -0.69206696244E+00  0.40748868932E+00  0.90007645124E+02  0.89999905240E+02 0.  0.
         12    1    1    2    0    0 -0.86500515621E+00  0.69206696244E+00 -0.40748868932E+00  0.11803548757E+01  0.00000000000E+00 0. -1.
         11    1    3    3    0    0 -0.65732154978E+01  0.27148324911E+02  0.34051113768E+02  0.44042219024E+02  0.51100000000E-03 0. -1.
        -11    1    3    3    0    0  0.34800557981E+01 -0.13921595065E+01 -0.83641841428E+01  0.91656136230E+01  0.51100000000E-03 0.  1.
        -12    1    3    3    0    0  0.39581648559E+01 -0.26448232367E+02 -0.25279440936E+02  0.36799812477E+02  0.00000000000E+00 0.  1.
</event>
<event>
 7    1  0.1501154E-015  0.9000683E+02  0.7816164E-02  0.1186341E+00
        -11   -1    0    0    0    0  0.00000000000E+00  0.00000000000E+00  0.45593999997E+02  0.45594000000E+02  0.51100000000E-03 0. -1.
         11   -1    0    0    0    0 -0.00000000000E+00 -0.00000000000E+00 -0.45593999997E+02  0.45594000000E+02  0.51100000000E-03 0.  1.
    9900012    2    1    2    0    0  0.87014282675E+00  0.67802356903E+00  0.42225023507E+00  0.90006831189E+02  0.89999080556E+02 0.  0.
         12    1    1    2    0    0 -0.87014282675E+00 -0.67802356903E+00 -0.42225023507E+00  0.11811688110E+01  0.00000000000E+00 0. -1.
         11    1    3    3    0    0 -0.15929059176E+02 -0.65156335442E+01  0.31027536416E+02  0.35480930414E+02  0.51100000000E-03 0. -1.
        -11    1    3    3    0    0 -0.19890300439E+01  0.64362156457E+01  0.86711348026E+01  0.10980423097E+02  0.51100000000E-03 0.  1.
        -12    1    3    3    0    0  0.18788232046E+02  0.75744146756E+00 -0.39276420983E+02  0.43545477679E+02  0.00000000000E+00 0.  1.
</event>
<event>
 7    1  0.1501154E-015  0.9000775E+02  0.7816164E-02  0.1186339E+00
        -11   -1    0    0    0    0  0.00000000000E+00  0.00000000000E+00  0.45593999997E+02  0.45594000000E+02  0.51100000000E-03 0. -1.
         11   -1    0    0    0    0 -0.00000000000E+00 -0.00000000000E+00 -0.45593999997E+02  0.45594000000E+02  0.51100000000E-03 0.  1.
    9900012    2    1    2    0    0  0.52476163068E+00  0.10561850689E+01  0.45600857758E-01  0.90007753794E+02  0.90000015344E+02 0.  0.
         12    1    1    2    0    0 -0.52476163068E+00 -0.10561850689E+01 -0.45600857758E-01  0.11802462061E+01  0.00000000000E+00 0. -1.
         11    1    3    3    0    0  0.10321157558E+02 -0.36836628189E+02  0.12660575815E+02  0.40295826706E+02  0.51100000000E-03 0. -1.
        -11    1    3    3    0    0 -0.58338280341E+00 -0.24632795071E+01 -0.76052872699E+01  0.80155147149E+01  0.51100000000E-03 0.  1.
        -12    1    3    3    0    0 -0.92130131236E+01  0.40356092765E+02 -0.50096876876E+01  0.41696412373E+02  0.00000000000E+00 0.  1.
</event>
<event>
 7    1  0.1501154E-015  0.9000769E+02  0.7816164E-02  0.1186339E+00
        -11   -1    0    0    0    0  0.00000000000E+00  0.00000000000E+00  0.45593999997E+02  0.45594000000E+02  0.51100000000E-03 0. -1.
         11   -1    0    0    0    0 -0.00000000000E+00 -0.00000000000E+00 -0.45593999997E+02  0.45594000000E+02  0.51100000000E-03 0.  1.
    9900012    2    1    2    0    0  0.41753426931E+00 -0.73968455609E-01 -0.11015061307E+01  0.90007694127E+02  0.89999954889E+02 0.  0.
         12    1    1    2    0    0 -0.41753426931E+00  0.73968455609E-01  0.11015061307E+01  0.11803058733E+01  0.00000000000E+00 0. -1.
         11    1    3    3    0    0  0.47049576769E+01 -0.67726987126E+01  0.31517570768E-01  0.82466398134E+01  0.51100000000E-03 0. -1.
        -11    1    3    3    0    0 -0.34577304046E+02  0.13183461569E+02 -0.23246728731E+02  0.43701304454E+02  0.51100000000E-03 0.  1.
         12    1    3    3    0    0  0.30289880638E+02 -0.64847313122E+01  0.22113705029E+02  0.38059749860E+02  0.00000000000E+00 0. -1.
</event>
<event>
 7    1  0.1501154E-015  0.9000787E+02  0.7816164E-02  0.1186339E+00
        -11   -1    0    0    0    0  0.00000000000E+00  0.00000000000E+00  0.45593999997E+02  0.45594000000E+02  0.51100000000E-03 0. -1.
         11   -1    0    0    0    0 -0.00000000000E+00 -0.00000000000E+00 -0.45593999997E+02  0.45594000000E+02  0.51100000000E-03 0.  1.
    9900012    2    1    2    0    0  0.14659171400E+00 -0.10482240055E+01  0.52197277574E+00  0.90007865145E+02  0.90000128165E+02 0.  0.
         12    1    1    2    0    0 -0.14659171400E+00  0.10482240055E+01 -0.52197277574E+00  0.11801348546E+01  0.00000000000E+00 0. -1.
         11    1    3    3    0    0 -0.11893964388E+02 -0.23624946454E+01 -0.45817942211E+01  0.12963047803E+02  0.51100000000E-03 0. -1.
        -11    1    3    3    0    0  0.37323176486E+02  0.92166645665E+00 -0.19191889983E+02  0.41978537533E+02  0.51100000000E-03 0.  1.
         12    1    3    3    0    0 -0.25282620385E+02  0.39260418320E+00  0.24295656980E+02  0.35066279809E+02  0.00000000000E+00 0. -1.
</event>
<event>
 7    1  0.1501154E-015  0.9000766E+02  0.7816164E-02  0.1186339E+00
        -11   -1    0    0    0    0  0.00000000000E+00  0.00000000000E+00  0.45593999997E+02  0.45594000000E+02  0.51100000000E-03 0. -1.
         11   -1    0    0    0    0 -0.00000000000E+00 -0.00000000000E+00 -0.45593999997E+02  0.45594000000E+02  0.51100000000E-03 0.  1.
    9900012    2    1    2    0    0  0.10957658222E+00  0.11224929664E+01 -0.34815619141E+00  0.90007656736E+02  0.89999917005E+02 0.  0.
         12    1    1    2    0    0 -0.10957658222E+00 -0.11224929664E+01  0.34815619141E+00  0.11803432639E+01  0.00000000000E+00 0. -1.
         11    1    3    3    0    0 -0.33374063525E+02 -0.15068175162E+02  0.39077871686E+01  0.36825925917E+02  0.51100000000E-03 0. -1.
        -11    1    3    3    0    0 -0.69308479012E+01 -0.38201098404E+01 -0.64513299505E+00  0.79401567153E+01  0.51100000000E-03 0.  1.
        -12    1    3    3    0    0  0.40414488008E+02  0.20010777968E+02 -0.36108103650E+01  0.45241574103E+02  0.00000000000E+00 0.  1.
</event>
<event>
 7    1  0.1507416E-015  0.9000775E+02  0.7816164E-02  0.1186339E+00
        -11   -1    0    0    0    0  0.00000000000E+00  0.00000000000E+00  0.45593999997E+02  0.45594000000E+02  0.51100000000E-03 0. -1.
         11   -1    0    0    0    0 -0.00000000000E+00 -0.00000000000E+00 -0.45593999997E+02  0.45594000000E+02  0.51100000000E-03 0.  1.
    9900012    2    1    2    0    0 -0.11454569747E+00 -0.24177520531E+00 -0.11495298797E+01  0.90007747946E+02  0.90000009419E+02 0.  0.
         12    1    1    2    0    0  0.11454569747E+00  0.24177520531E+00  0.11495298797E+01  0.11802520540E+01  0.00000000000E+00 0. -1.
         11    1    3    3    0    0  0.78541336282E+01  0.22711284773E+02  0.26902567026E+02  0.36072676418E+02  0.51100000000E-03 0. -1.
        -11    1    3    3    0    0  0.19703737860E+01  0.12684112378E+01  0.85881218762E+01  0.89020827646E+01  0.51100000000E-03 0.  1.
        -12    1    3    3    0    0 -0.99390531117E+01 -0.24221471216E+02 -0.36640218782E+02  0.45032988764E+02  0.00000000000E+00 0.  1.
</event>
<event>
 7    1  0.1501154E-015  0.9000782E+02  0.7816164E-02  0.1186339E+00
        -11   -1    0    0    0    0  0.00000000000E+00  0.00000000000E+00  0.45593999997E+02  0.45594000000E+02  0.51100000000E-03 0.  1.
         11   -1    0    0    0    0 -0.00000000000E+00 -0.00000000000E+00 -0.45593999997E+02  0.45594000000E+02  0.51100000000E-03 0. -1.
    9900012    2    1    2    0    0 -0.45436633064E+00 -0.13476536235E+00  0.10808415996E+01  0.90007818222E+02  0.90000080623E+02 0.  0.
         12    1    1    2    0    0  0.45436633064E+00  0.13476536235E+00 -0.10808415996E+01  0.11801817778E+01  0.00000000000E+00 0. -1.
         11    1    3    3    0    0  0.27876046139E+01  0.11147845555E+02 -0.13204567765E+01  0.11566711130E+02  0.51100000000E-03 0. -1.
        -11    1    3    3    0    0 -0.91231219719E+01  0.56553345020E+01  0.37511852799E+02  0.39017345675E+02  0.51100000000E-03 0.  1.
        -12    1    3    3    0    0  0.58811510274E+01 -0.16937945419E+02 -0.35110554423E+02  0.39423761418E+02  0.00000000000E+00 0.  1.
</event>
<event>
 7    1  0.1501154E-015  0.9000776E+02  0.7816164E-02  0.1186339E+00
        -11   -1    0    0    0    0  0.00000000000E+00  0.00000000000E+00  0.45593999997E+02  0.45594000000E+02  0.51100000000E-03 0.  1.
         11   -1    0    0    0    0 -0.00000000000E+00 -0.00000000000E+00 -0.45593999997E+02  0.45594000000E+02  0.51100000000E-03 0. -1.
    9900012    2    1    2    0    0 -0.33125305321E-01 -0.10562665633E+01  0.52552227210E+00  0.90007758501E+02  0.90000020113E+02 0.  0.
         12    1    1    2    0    0  0.33125305321E-01  0.10562665633E+01 -0.52552227210E+00  0.11802414994E+01  0.00000000000E+00 0. -1.
         11    1    3    3    0    0 -0.12326942735E+02 -0.33438495397E+02 -0.31999354785E+01  0.35781644442E+02  0.51100000000E-03 0. -1.
        -11    1    3    3    0    0  0.13819153011E+02  0.14485940692E+00 -0.12020673612E+02  0.18316292435E+02  0.51100000000E-03 0.  1.
        -12    1    3    3    0    0 -0.15253355811E+01  0.32237369427E+02  0.15746131363E+02  0.35909821624E+02  0.00000000000E+00 0.  1.
</event>
<event>
 7    1  0.1501154E-015  0.9000775E+02  0.7816164E-02  0.1186339E+00
        -11   -1    0    0    0    0  0.00000000000E+00  0.00000000000E+00  0.45593999997E+02  0.45594000000E+02  0.51100000000E-03 0.  1.
         11   -1    0    0    0    0 -0.00000000000E+00 -0.00000000000E+00 -0.45593999997E+02  0.45594000000E+02  0.51100000000E-03 0. -1.
    9900012    2    1    2    0    0  0.11295403626E+01  0.10863025676E+00  0.32454115127E+00  0.90007750483E+02  0.90000011989E+02 0.  0.
         12    1    1    2    0    0 -0.11295403626E+01 -0.10863025676E+00 -0.32454115127E+00  0.11802495170E+01  0.00000000000E+00 0. -1.
         11    1    3    3    0    0 -0.34795265217E+01 -0.70615582430E+01  0.52449776735E+01  0.94595190518E+01  0.51100000000E-03 0. -1.
        -11    1    3    3    0    0 -0.16788371698E+02 -0.15820890137E+02  0.27172449785E+02  0.35643961853E+02  0.51100000000E-03 0.  1.
         12    1    3    3    0    0  0.21397438583E+02  0.22991078637E+02 -0.32092886308E+02  0.44904269578E+02  0.00000000000E+00 0. -1.
</event>
<event>
 7    1  0.1501154E-015  0.9000775E+02  0.7816164E-02  0.1186339E+00
        -11   -1    0    0    0    0  0.00000000000E+00  0.00000000000E+00  0.45593999997E+02  0.45594000000E+02  0.51100000000E-03 0.  1.
         11   -1    0    0    0    0 -0.00000000000E+00 -0.00000000000E+00 -0.45593999997E+02  0.45594000000E+02  0.51100000000E-03 0. -1.
    9900012    2    1    2    0    0  0.71584600504E+00  0.84442974529E+00  0.40925672830E+00  0.90007750803E+02  0.90000012313E+02 0.  0.
         12    1    1    2    0    0 -0.71584600504E+00 -0.84442974529E+00 -0.40925672830E+00  0.11802491971E+01  0.00000000000E+00 0. -1.
         11    1    3    3    0    0  0.20920085894E+02 -0.13007527692E+01 -0.20198819648E+02  0.29109006631E+02  0.51100000000E-03 0. -1.
        -11    1    3    3    0    0  0.72932135120E+01 -0.36007315483E+01 -0.14081282376E+02  0.16261572637E+02  0.51100000000E-03 0.  1.
        -12    1    3    3    0    0 -0.27497453401E+02  0.57459140628E+01  0.34689358753E+02  0.44637171535E+02  0.00000000000E+00 0.  1.
</event>
<event>
 7    1  0.1501154E-015  0.9000795E+02  0.7816164E-02  0.1186339E+00
        -11   -1    0    0    0    0  0.00000000000E+00  0.00000000000E+00  0.45593999997E+02  0.45594000000E+02  0.51100000000E-03 0.  1.
         11   -1    0    0    0    0 -0.00000000000E+00 -0.00000000000E+00 -0.45593999997E+02  0.45594000000E+02  0.51100000000E-03 0. -1.
    9900012    2    1    2    0    0 -0.77553572920E+00 -0.87180861084E+00  0.17607932023E+00  0.90007953455E+02  0.90000217640E+02 0.  0.
         12    1    1    2    0    0  0.77553572920E+00  0.87180861084E+00 -0.17607932023E+00  0.11800465449E+01  0.00000000000E+00 0. -1.
         11    1    3    3    0    0  0.75337938808E+01  0.31437255409E+02 -0.11478419008E+02  0.34304710771E+02  0.51100000000E-03 0. -1.
        -11    1    3    3    0    0  0.54207756979E+01 -0.26182910034E+01  0.20867813049E+02  0.21718790912E+02  0.51100000000E-03 0.  1.
        -12    1    3    3    0    0 -0.13730105308E+02 -0.29690773017E+02 -0.92133147208E+01  0.33984451772E+02  0.00000000000E+00 0.  1.
</event>
<event>
 7    1  0.1501154E-015  0.9000769E+02  0.7816164E-02  0.1186339E+00
        -11   -1    0    0    0    0  0.00000000000E+00  0.00000000000E+00  0.45593999997E+02  0.45594000000E+02  0.51100000000E-03 0. -1.
         11   -1    0    0    0    0 -0.00000000000E+00 -0.00000000000E+00 -0.45593999997E+02  0.45594000000E+02  0.51100000000E-03 0.  1.
    9900012    2    1    2    0    0  0.19588566554E+00 -0.91507887920E-01 -0.11603436152E+01  0.90007685553E+02  0.89999946203E+02 0.  0.
         12    1    1    2    0    0 -0.19588566554E+00  0.91507887920E-01  0.11603436152E+01  0.11803144466E+01  0.00000000000E+00 0. -1.
         11    1    3    3    0    0  0.36366449350E+01 -0.16209949459E+02 -0.58097192948E+01  0.17599445627E+02  0.51100000000E-03 0. -1.
        -11    1    3    3    0    0 -0.14958194539E+02 -0.24197494708E+02 -0.61634275468E+01  0.29107630845E+02  0.51100000000E-03 0.  1.
        -12    1    3    3    0    0  0.11517435270E+02  0.40315936279E+02  0.10812803226E+02  0.43300609082E+02  0.00000000000E+00 0.  1.
</event>
<event>
 7    1  0.1501154E-015  0.9000776E+02  0.7816164E-02  0.1186339E+00
        -11   -1    0    0    0    0  0.00000000000E+00  0.00000000000E+00  0.45593999997E+02  0.45594000000E+02  0.51100000000E-03 0. -1.
         11   -1    0    0    0    0 -0.00000000000E+00 -0.00000000000E+00 -0.45593999997E+02  0.45594000000E+02  0.51100000000E-03 0.  1.
    9900012    2    1    2    0    0 -0.29639756767E+00 -0.11424148251E+01  0.21696042376E-02  0.90007759407E+02  0.90000021031E+02 0.  0.
         12    1    1    2    0    0  0.29639756767E+00  0.11424148251E+01 -0.21696042376E-02  0.11802405932E+01  0.00000000000E+00 0. -1.
         11    1    3    3    0    0 -0.72225326858E+01  0.28941567131E+02 -0.10903421563E+02  0.31759469272E+02  0.51100000000E-03 0. -1.
        -11    1    3    3    0    0 -0.43879128994E+00  0.12223384800E+02  0.91388329749E+01  0.15268331348E+02  0.51100000000E-03 0.  1.
         12    1    3    3    0    0  0.73649264080E+01 -0.42307366756E+02  0.17667581923E+01  0.42979958787E+02  0.00000000000E+00 0. -1.
</event>
<event>
 7    1  0.1501154E-015  0.9000770E+02  0.7816164E-02  0.1186339E+00
        -11   -1    0    0    0    0  0.00000000000E+00  0.00000000000E+00  0.45593999997E+02  0.45594000000E+02  0.51100000000E-03 0. -1.
         11   -1    0    0    0    0 -0.00000000000E+00 -0.00000000000E+00 -0.45593999997E+02  0.45594000000E+02  0.51100000000E-03 0.  1.
    9900012    2    1    2    0    0 -0.28825703532E+00  0.10726792905E+01  0.39922446920E+00  0.90007697854E+02  0.89999958666E+02 0.  0.
         12    1    1    2    0    0  0.28825703532E+00 -0.10726792905E+01 -0.39922446920E+00  0.11803021459E+01  0.00000000000E+00 0. -1.
         11    1    3    3    0    0  0.34089582079E+01 -0.31016753424E+01  0.92865737550E+01  0.10367344808E+02  0.51100000000E-03 0. -1.
        -11    1    3    3    0    0  0.13508677777E+02 -0.21147303572E+02  0.23990253408E+02  0.34716351803E+02  0.51100000000E-03 0.  1.
         12    1    3    3    0    0 -0.17205893020E+02  0.25321658205E+02 -0.32877602694E+02  0.44924001244E+02  0.00000000000E+00 0. -1.
</event>
<event>
 7    1  0.1501154E-015  0.9000775E+02  0.7816164E-02  0.1186339E+00
        -11   -1    0    0    0    0  0.00000000000E+00  0.00000000000E+00  0.45593999997E+02  0.45594000000E+02  0.51100000000E-03 0.  1.
         11   -1    0    0    0    0 -0.00000000000E+00 -0.00000000000E+00 -0.45593999997E+02  0.45594000000E+02  0.51100000000E-03 0. -1.
    9900012    2    1    2    0    0 -0.10942098892E+01  0.38002951053E+00  0.22644190762E+00  0.90007748481E+02  0.90000009961E+02 0.  0.
         12    1    1    2    0    0  0.10942098892E+01 -0.38002951053E+00 -0.22644190762E+00  0.11802515190E+01  0.00000000000E+00 0. -1.
         11    1    3    3    0    0  0.32297692483E+02  0.11372140300E+02  0.11730000075E+02  0.36194742943E+02  0.51100000000E-03 0. -1.
        -11    1    3    3    0    0  0.57975043584E+01  0.14423475666E+01  0.65883706610E+01  0.88937085357E+01  0.51100000000E-03 0.  1.
        -12    1    3    3    0    0 -0.39189406730E+02 -0.12434458356E+02 -0.18091928828E+02  0.44919297002E+02  0.00000000000E+00 0.  1.
</event>
<event>
 7    1  0.1501154E-015  0.9000696E+02  0.7816164E-02  0.1186341E+00
        -11   -1    0    0    0    0  0.00000000000E+00  0.00000000000E+00  0.45593999997E+02  0.45594000000E+02  0.51100000000E-03 0.  1.
         11   -1    0    0    0    0 -0.00000000000E+00 -0.00000000000E+00 -0.45593999997E+02  0.45594000000E+02  0.51100000000E-03 0. -1.
    9900012    2    1    2    0    0 -0.15427172025E+00  0.10775131320E+01 -0.45829105846E+00  0.90006955967E+02  0.89999206982E+02 0.  0.
         12    1    1    2    0    0  0.15427172025E+00 -0.10775131320E+01  0.45829105846E+00  0.11810440329E+01  0.00000000000E+00 0. -1.
         11    1    3    3    0    0  0.33138228278E+01 -0.21597751175E+01 -0.10252341765E+02  0.10988929076E+02  0.51100000000E-03 0. -1.
        -11    1    3    3    0    0  0.17904029562E+02 -0.19100562719E+02 -0.22348150944E+02  0.34421296048E+02  0.51100000000E-03 0.  1.
         12    1    3    3    0    0 -0.21372124111E+02  0.22337850969E+02  0.32142201651E+02  0.44596730843E+02  0.00000000000E+00 0. -1.
</event>
<event>
 7    1  0.1894215E-015  0.9000770E+02  0.7816164E-02  0.1186339E+00
        -11   -1    0    0    0    0  0.00000000000E+00  0.00000000000E+00  0.45593999997E+02  0.45594000000E+02  0.51100000000E-03 0. -1.
         11   -1    0    0    0    0 -0.00000000000E+00 -0.00000000000E+00 -0.45593999997E+02  0.45594000000E+02  0.51100000000E-03 0.  1.
    9900012    2    1    2    0    0 -0.76965566074E+00 -0.50605729659E+00 -0.73799819787E+00  0.90007701240E+02  0.89999962096E+02 0.  0.
         12    1    1    2    0    0  0.76965566074E+00  0.50605729659E+00  0.73799819787E+00  0.11802987603E+01  0.00000000000E+00 0. -1.
         11    1    3    3    0    0 -0.13143358409E+02 -0.39407217778E+02 -0.36353916782E+01  0.41700033047E+02  0.51100000000E-03 0. -1.
        -11    1    3    3    0    0  0.21975147418E+01  0.24348932579E+01  0.93442504916E+01  0.99031708926E+01  0.51100000000E-03 0.  1.
        -12    1    3    3    0    0  0.10176188006E+02  0.36466267223E+02 -0.64468570113E+01  0.38404497300E+02  0.00000000000E+00 0.  1.
</event>
<event>
 7    1  0.1501154E-015  0.9000774E+02  0.7816164E-02  0.1186339E+00
        -11   -1    0    0    0    0  0.00000000000E+00  0.00000000000E+00  0.45593999997E+02  0.45594000000E+02  0.51100000000E-03 0. -1.
         11   -1    0    0    0    0 -0.00000000000E+00 -0.00000000000E+00 -0.45593999997E+02  0.45594000000E+02  0.51100000000E-03 0.  1.
    9900012    2    1    2    0    0 -0.35830571654E+00  0.72036335192E+00 -0.86354205807E+00  0.90007741032E+02  0.90000002414E+02 0.  0.
         12    1    1    2    0    0  0.35830571654E+00 -0.72036335192E+00  0.86354205807E+00  0.11802589679E+01  0.00000000000E+00 0. -1.
         11    1    3    3    0    0  0.39638622667E+02  0.62242254790E+01  0.14784907526E+02  0.42761605215E+02  0.51100000000E-03 0. -1.
        -11    1    3    3    0    0 -0.22021586515E+01 -0.32750524534E+01 -0.75647342907E+01  0.85323312435E+01  0.51100000000E-03 0.  1.
        -12    1    3    3    0    0 -0.37794769732E+02 -0.22288096737E+01 -0.80837152933E+01  0.38713804574E+02  0.00000000000E+00 0.  1.
</event>
<event>
 7    1  0.1501154E-015  0.9000772E+02  0.7816164E-02  0.1186339E+00
        -11   -1    0    0    0    0  0.00000000000E+00  0.00000000000E+00  0.45593999997E+02  0.45594000000E+02  0.51100000000E-03 0. -1.
         11   -1    0    0    0    0 -0.00000000000E+00 -0.00000000000E+00 -0.45593999997E+02  0.45594000000E+02  0.51100000000E-03 0.  1.
    9900012    2    1    2    0    0 -0.37388597946E+00 -0.10685004291E+01 -0.33401722243E+00  0.90007724016E+02  0.89999985173E+02 0.  0.
         12    1    1    2    0    0  0.37388597946E+00  0.10685004291E+01  0.33401722243E+00  0.11802759836E+01  0.00000000000E+00 0. -1.
         11    1    3    3    0    0 -0.34654378669E+01 -0.19801655709E+02  0.31638422283E+02  0.37484724799E+02  0.51100000000E-03 0. -1.
        -11    1    3    3    0    0  0.93206169590E+01 -0.32807894681E+01  0.33543800082E+01  0.10435005775E+02  0.51100000000E-03 0.  1.
        -12    1    3    3    0    0 -0.62290650716E+01  0.22013944748E+02 -0.35326819514E+02  0.42087993442E+02  0.00000000000E+00 0.  1.
</event>
<event>
 7    1  0.1501154E-015  0.9000778E+02  0.7816164E-02  0.1186339E+00
        -11   -1    0    0    0    0  0.00000000000E+00  0.00000000000E+00  0.45593999997E+02  0.45594000000E+02  0.51100000000E-03 0.  1.
         11   -1    0    0    0    0 -0.00000000000E+00 -0.00000000000E+00 -0.45593999997E+02  0.45594000000E+02  0.51100000000E-03 0. -1.
    9900012    2    1    2    0    0 -0.64295312229E+00 -0.70547520553E+00  0.69415022825E+00  0.90007776071E+02  0.90000037915E+02 0.  0.
         12    1    1    2    0    0  0.64295312229E+00  0.70547520553E+00 -0.69415022825E+00  0.11802239289E+01  0.00000000000E+00 0. -1.
         11    1    3    3    0    0 -0.31802054357E+02 -0.11403583431E+02  0.17032477708E+02  0.37835402383E+02  0.51100000000E-03 0. -1.
        -11    1    3    3    0    0 -0.91952719734E+00  0.95543679080E+01  0.75070361186E+01  0.12185526986E+02  0.51100000000E-03 0.  1.
        -12    1    3    3    0    0  0.32078628432E+02  0.11437403177E+01 -0.23845363598E+02  0.39986846701E+02  0.00000000000E+00 0.  1.
</event>
<event>
 7    1  0.1501154E-015  0.9000777E+02  0.7816164E-02  0.1186339E+00
        -11   -1    0    0    0    0  0.00000000000E+00  0.00000000000E+00  0.45593999997E+02  0.45594000000E+02  0.51100000000E-03 0.  1.
         11   -1    0    0    0    0 -0.00000000000E+00 -0.00000000000E+00 -0.45593999997E+02  0.45594000000E+02  0.51100000000E-03 0. -1.
    9900012    2    1    2    0    0 -0.66712826723E+00 -0.60185399258E+00  0.76528617445E+00  0.90007766429E+02  0.90000028146E+02 0.  0.
         12    1    1    2    0    0  0.66712826723E+00  0.60185399258E+00 -0.76528617445E+00  0.11802335710E+01  0.00000000000E+00 0. -1.
         11    1    3    3    0    0  0.52191152239E+01 -0.81988330858E+01  0.21951174801E+01  0.99638631414E+01  0.51100000000E-03 0. -1.
        -11    1    3    3    0    0 -0.18373971744E+02  0.29861229986E+02  0.25182444463E+02  0.43167712509E+02  0.51100000000E-03 0.  1.
         12    1    3    3    0    0  0.12487728253E+02 -0.22264250893E+02 -0.26612275768E+02  0.36876190778E+02  0.00000000000E+00 0. -1.
</event>
<event>
 7    1  0.1501154E-015  0.9000777E+02  0.7816164E-02  0.1186339E+00
        -11   -1    0    0    0    0  0.00000000000E+00  0.00000000000E+00  0.45593999997E+02  0.45594000000E+02  0.51100000000E-03 0. -1.
         11   -1    0    0    0    0 -0.00000000000E+00 -0.00000000000E+00 -0.45593999997E+02  0.45594000000E+02  0.51100000000E-03 0.  1.
    9900012    2    1    2    0    0 -0.32935150589E+00  0.57331172006E+00 -0.97764509131E+00  0.90007767537E+02  0.90000029268E+02 0.  0.
         12    1    1    2    0    0  0.32935150589E+00 -0.57331172006E+00  0.97764509131E+00  0.11802324633E+01  0.00000000000E+00 0. -1.
         11    1    3    3    0    0 -0.50882597013E+00  0.79431802030E+01  0.55107787680E+01  0.96809967718E+01  0.51100000000E-03 0. -1.
        -11    1    3    3    0    0  0.19131183593E+02  0.21543917773E+02  0.21415397618E+02  0.35899329159E+02  0.51100000000E-03 0.  1.
         12    1    3    3    0    0 -0.18951709129E+02 -0.28913786256E+02 -0.27903821478E+02  0.44427441606E+02  0.00000000000E+00 0. -1.
</event>
<event>
 7    1  0.1501154E-015  0.9000818E+02  0.7816164E-02  0.1186338E+00
        -11   -1    0    0    0    0  0.00000000000E+00  0.00000000000E+00  0.45593999997E+02  0.45594000000E+02  0.51100000000E-03 0. -1.
         11   -1    0    0    0    0 -0.00000000000E+00 -0.00000000000E+00 -0.45593999997E+02  0.45594000000E+02  0.51100000000E-03 0.  1.
    9900012    2    1    2    0    0  0.96870196368E+00 -0.66980356497E+00  0.70408885180E-01  0.90008178945E+02  0.90000446106E+02 0.  0.
         12    1    1    2    0    0 -0.96870196368E+00  0.66980356497E+00 -0.70408885180E-01  0.11798210547E+01  0.00000000000E+00 0. -1.
         11    1    3    3    0    0  0.33510890633E+02  0.17041007373E+02  0.14583020213E+02  0.40324188796E+02  0.51100000000E-03 0. -1.
        -11    1    3    3    0    0 -0.22087116490E+01 -0.45153284597E+00  0.78945324825E+01  0.82101115972E+01  0.51100000000E-03 0.  1.
        -12    1    3    3    0    0 -0.30333477020E+02 -0.17259278092E+02 -0.22407143810E+02  0.41473878552E+02  0.00000000000E+00 0.  1.
</event>
<event>
 7    1  0.1501154E-015  0.9000773E+02  0.7816164E-02  0.1186339E+00
        -11   -1    0    0    0    0  0.00000000000E+00  0.00000000000E+00  0.45593999997E+02  0.45594000000E+02  0.51100000000E-03 0. -1.
         11   -1    0    0    0    0 -0.00000000000E+00 -0.00000000000E+00 -0.45593999997E+02  0.45594000000E+02  0.51100000000E-03 0.  1.
    9900012    2    1    2    0    0  0.60789748832E-01  0.73263421482E+00 -0.92335833597E+00  0.90007729309E+02  0.89999990536E+02 0.  0.
         12    1    1    2    0    0 -0.60789748832E-01 -0.73263421482E+00  0.92335833597E+00  0.11802706905E+01  0.00000000000E+00 0. -1.
         11    1    3    3    0    0  0.13811707697E+02 -0.15453456397E+01  0.10498103829E+02  0.17417277253E+02  0.51100000000E-03 0. -1.
        -11    1    3    3    0    0  0.23481260503E+02  0.19629755461E+02 -0.52459224588E+01  0.31051837256E+02  0.51100000000E-03 0.  1.
         12    1    3    3    0    0 -0.37232178451E+02 -0.17351775607E+02 -0.61755397063E+01  0.41538614800E+02  0.00000000000E+00 0. -1.
</event>
<event>
 7    1  0.1501154E-015  0.9000769E+02  0.7816164E-02  0.1186339E+00
        -11   -1    0    0    0    0  0.00000000000E+00  0.00000000000E+00  0.45593999997E+02  0.45594000000E+02  0.51100000000E-03 0. -1.
         11   -1    0    0    0    0 -0.00000000000E+00 -0.00000000000E+00 -0.45593999997E+02  0.45594000000E+02  0.51100000000E-03 0.  1.
    9900012    2    1    2    0    0 -0.92351418949E+00  0.52349090262E+00 -0.51596688549E+00  0.90007685207E+02  0.89999945852E+02 0.  0.
         12    1    1    2    0    0  0.92351418949E+00 -0.52349090262E+00  0.51596688549E+00  0.11803147929E+01  0.00000000000E+00 0. -1.
         11    1    3    3    0    0  0.81676739262E+01 -0.19347456907E+01 -0.15935443327E+01  0.85436246438E+01  0.51100000000E-03 0. -1.
        -11    1    3    3    0    0  0.22188508593E+02  0.31117720925E+02  0.62500127488E+01  0.38726026504E+02  0.51100000000E-03 0.  1.
         12    1    3    3    0    0 -0.31279696708E+02 -0.28659484332E+02 -0.51724353016E+01  0.42738034060E+02  0.00000000000E+00 0. -1.
</event>
<event>
 7    1  0.1501154E-015  0.9000773E+02  0.7816164E-02  0.1186339E+00
        -11   -1    0    0    0    0  0.00000000000E+00  0.00000000000E+00  0.45593999997E+02  0.45594000000E+02  0.51100000000E-03 0. -1.
         11   -1    0    0    0    0 -0.00000000000E+00 -0.00000000000E+00 -0.45593999997E+02  0.45594000000E+02  0.51100000000E-03 0.  1.
    9900012    2    1    2    0    0  0.16198977899E+00  0.10243023772E+00 -0.11646074380E+01  0.90007727520E+02  0.89999988723E+02 0.  0.
         12    1    1    2    0    0 -0.16198977899E+00 -0.10243023772E+00  0.11646074380E+01  0.11802724799E+01  0.00000000000E+00 0. -1.
         11    1    3    3    0    0  0.69048397030E+01 -0.60873871976E+01 -0.28802434978E+01  0.96451488887E+01  0.51100000000E-03 0. -1.
        -11    1    3    3    0    0  0.33870442812E+02 -0.10370292619E+02 -0.57068372822E+01  0.35879212050E+02  0.51100000000E-03 0.  1.
         12    1    3    3    0    0 -0.40613292736E+02  0.16560110054E+02  0.74224733419E+01  0.44483366581E+02  0.00000000000E+00 0. -1.
</event>
<event>
 7    1  0.1501154E-015  0.9000776E+02  0.7816164E-02  0.1186339E+00
        -11   -1    0    0    0    0  0.00000000000E+00  0.00000000000E+00  0.45593999997E+02  0.45594000000E+02  0.51100000000E-03 0.  1.
         11   -1    0    0    0    0 -0.00000000000E+00 -0.00000000000E+00 -0.45593999997E+02  0.45594000000E+02  0.51100000000E-03 0. -1.
    9900012    2    1    2    0    0 -0.75879151703E+00  0.32089492888E+00 -0.84512643804E+00  0.90007755611E+02  0.90000017185E+02 0.  0.
         12    1    1    2    0    0  0.75879151703E+00 -0.32089492888E+00  0.84512643804E+00  0.11802443891E+01  0.00000000000E+00 0. -1.
         11    1    3    3    0    0 -0.13219574751E+02  0.16695115027E+02  0.77566886227E+01  0.22663853181E+02  0.51100000000E-03 0. -1.
        -11    1    3    3    0    0 -0.68877464625E+01 -0.15476639312E+02  0.24027413442E+02  0.29398707670E+02  0.51100000000E-03 0.  1.
         12    1    3    3    0    0  0.19348529697E+02 -0.89758078610E+00 -0.32629228502E+02  0.37945194760E+02  0.00000000000E+00 0. -1.
</event>
<event>
 7    1  0.1501154E-015  0.9000775E+02  0.7816164E-02  0.1186339E+00
        -11   -1    0    0    0    0  0.00000000000E+00  0.00000000000E+00  0.45593999997E+02  0.45594000000E+02  0.51100000000E-03 0.  1.
         11   -1    0    0    0    0 -0.00000000000E+00 -0.00000000000E+00 -0.45593999997E+02  0.45594000000E+02  0.51100000000E-03 0. -1.
    9900012    2    1    2    0    0  0.82462439429E+00  0.28962755735E+00  0.79316307737E+00  0.90007746984E+02  0.90000008445E+02 0.  0.
         12    1    1    2    0    0 -0.82462439429E+00 -0.28962755735E+00 -0.79316307737E+00  0.11802530156E+01  0.00000000000E+00 0. -1.
         11    1    3    3    0    0  0.52004696701E+01  0.13999298290E+01  0.78999468810E+01  0.95610590051E+01  0.51100000000E-03 0. -1.
        -11    1    3    3    0    0 -0.34354165781E+02  0.23013356130E+02 -0.18824450546E+00  0.41350437762E+02  0.51100000000E-03 0.  1.
         12    1    3    3    0    0  0.29978320506E+02 -0.24123658401E+02 -0.69185392981E+01  0.39096250217E+02  0.00000000000E+00 0. -1.
</event>
<event>
 7    1  0.1501154E-015  0.9000776E+02  0.7816164E-02  0.1186339E+00
        -11   -1    0    0    0    0  0.00000000000E+00  0.00000000000E+00  0.45593999997E+02  0.45594000000E+02  0.51100000000E-03 0. -1.
         11   -1    0    0    0    0 -0.00000000000E+00 -0.00000000000E+00 -0.45593999997E+02  0.45594000000E+02  0.51100000000E-03 0.  1.
    9900012    2    1    2    0    0  0.50042338826E+00 -0.85318293391E+00 -0.64391984305E+00  0.90007755343E+02  0.90000016913E+02 0.  0.
         12    1    1    2    0    0 -0.50042338826E+00  0.85318293391E+00  0.64391984305E+00  0.11802446571E+01  0.00000000000E+00 0. -1.
         11    1    3    3    0    0 -0.28206514105E+02 -0.26506650547E+02 -0.88428564555E+01  0.39703980552E+02  0.51100000000E-03 0. -1.
        -11    1    3    3    0    0  0.10097251503E+02 -0.60840131498E+01 -0.23705165390E+01  0.12024518820E+02  0.51100000000E-03 0.  1.
        -12    1    3    3    0    0  0.18609685990E+02  0.31737480763E+02  0.10569453151E+02  0.38279255971E+02  0.00000000000E+00 0.  1.
</event>
<event>
 7    1  0.1501154E-015  0.9000771E+02  0.7816164E-02  0.1186339E+00
        -11   -1    0    0    0    0  0.00000000000E+00  0.00000000000E+00  0.45593999997E+02  0.45594000000E+02  0.51100000000E-03 0.  1.
         11   -1    0    0    0    0 -0.00000000000E+00 -0.00000000000E+00 -0.45593999997E+02  0.45594000000E+02  0.51100000000E-03 0. -1.
    9900012    2    1    2    0    0  0.43026857925E+00  0.87633713965E+00  0.66330878483E+00  0.90007713435E+02  0.89999974452E+02 0.  0.
         12    1    1    2    0    0 -0.43026857925E+00 -0.87633713965E+00 -0.66330878483E+00  0.11802865655E+01  0.00000000000E+00 0. -1.
         11    1    3    3    0    0  0.63978163262E+01 -0.13953967592E+01  0.47607326298E+01  0.80959101584E+01  0.51100000000E-03 0. -1.
        -11    1    3    3    0    0 -0.17924876150E+02 -0.23469670111E+02 -0.30992860260E+02  0.42809858531E+02  0.51100000000E-03 0.  1.
         12    1    3    3    0    0  0.11957328403E+02  0.25741404010E+02  0.26895436415E+02  0.39101944745E+02  0.00000000000E+00 0. -1.
</event>
<event>
 7    1  0.1501154E-015  0.9000766E+02  0.7816164E-02  0.1186339E+00
        -11   -1    0    0    0    0  0.00000000000E+00  0.00000000000E+00  0.45593999997E+02  0.45594000000E+02  0.51100000000E-03 0. -1.
         11   -1    0    0    0    0 -0.00000000000E+00 -0.00000000000E+00 -0.45593999997E+02  0.45594000000E+02  0.51100000000E-03 0.  1.
    9900012    2    1    2    0    0  0.25470721715E+00  0.10612342653E+01 -0.44957463856E+00  0.90007656284E+02  0.89999916547E+02 0.  0.
         12    1    1    2    0    0 -0.25470721715E+00 -0.10612342653E+01  0.44957463856E+00  0.11803437160E+01  0.00000000000E+00 0. -1.
         11    1    3    3    0    0  0.30790244849E+02 -0.17121867184E+02  0.84848173410E+01  0.36237958542E+02  0.51100000000E-03 0. -1.
        -11    1    3    3    0    0  0.47455821446E+01 -0.49105533505E+01  0.59451376769E+01  0.90542115260E+01  0.51100000000E-03 0.  1.
        -12    1    3    3    0    0 -0.35281119777E+02  0.23093654800E+02 -0.14879529656E+02  0.44715486216E+02  0.00000000000E+00 0.  1.
</event>
<event>
 7    1  0.1501154E-015  0.9000773E+02  0.7816164E-02  0.1186339E+00
        -11   -1    0    0    0    0  0.00000000000E+00  0.00000000000E+00  0.45593999997E+02  0.45594000000E+02  0.51100000000E-03 0. -1.
         11   -1    0    0    0    0 -0.00000000000E+00 -0.00000000000E+00 -0.45593999997E+02  0.45594000000E+02  0.51100000000E-03 0.  1.
    9900012    2    1    2    0    0  0.94373165000E+00  0.67141954895E+00 -0.22716204885E+00  0.90007730440E+02  0.89999991682E+02 0.  0.
         12    1    1    2    0    0 -0.94373165000E+00 -0.67141954895E+00  0.22716204885E+00  0.11802695600E+01  0.00000000000E+00 0. -1.
         11    1    3    3    0    0  0.30596406920E+02 -0.18082084614E+02  0.13114336151E+02  0.37882551569E+02  0.51100000000E-03 0. -1.
        -11    1    3    3    0    0  0.50460462282E+01  0.62847832332E+01  0.64091197660E+01  0.10297470527E+02  0.51100000000E-03 0.  1.
        -12    1    3    3    0    0 -0.34698721498E+02  0.12468720930E+02 -0.19750617966E+02  0.41827708344E+02  0.00000000000E+00 0.  1.
</event>
<event>
 7    1  0.1501154E-015  0.9000745E+02  0.7816164E-02  0.1186340E+00
        -11   -1    0    0    0    0  0.00000000000E+00  0.00000000000E+00  0.45593999997E+02  0.45594000000E+02  0.51100000000E-03 0.  1.
         11   -1    0    0    0    0 -0.00000000000E+00 -0.00000000000E+00 -0.45593999997E+02  0.45594000000E+02  0.51100000000E-03 0. -1.
    9900012    2    1    2    0    0 -0.11315092601E+01  0.25425813514E+00  0.22078111071E+00  0.90007447289E+02  0.89999704793E+02 0.  0.
         12    1    1    2    0    0  0.11315092601E+01 -0.25425813514E+00 -0.22078111071E+00  0.11805527112E+01  0.00000000000E+00 0. -1.
         11    1    3    3    0    0 -0.24483890651E+01 -0.95993542733E+01  0.81975285322E+01  0.12858525801E+02  0.51100000000E-03 0. -1.
        -11    1    3    3    0    0 -0.19244967941E+02  0.11091800065E+02  0.27970708888E+02  0.35717745949E+02  0.51100000000E-03 0.  1.
         12    1    3    3    0    0  0.20561847746E+02 -0.12381876566E+01 -0.35947456309E+02  0.41431175539E+02  0.00000000000E+00 0. -1.
</event>
<event>
 7    1  0.1501154E-015  0.9000771E+02  0.7816164E-02  0.1186339E+00
        -11   -1    0    0    0    0  0.00000000000E+00  0.00000000000E+00  0.45593999997E+02  0.45594000000E+02  0.51100000000E-03 0.  1.
         11   -1    0    0    0    0 -0.00000000000E+00 -0.00000000000E+00 -0.45593999997E+02  0.45594000000E+02  0.51100000000E-03 0. -1.
    9900012    2    1    2    0    0  0.37956768331E+00 -0.36543821447E+00  0.10561516871E+01  0.90007714822E+02  0.89999975858E+02 0.  0.
         12    1    1    2    0    0 -0.37956768331E+00  0.36543821447E+00 -0.10561516871E+01  0.11802851778E+01  0.00000000000E+00 0. -1.
         11    1    3    3    0    0  0.35632265710E+02  0.17322385481E+02  0.29254935381E+01  0.39727596342E+02  0.51100000000E-03 0. -1.
        -11    1    3    3    0    0 -0.25649068187E+01  0.71073994011E+01 -0.51141099093E+01  0.91240338480E+01  0.51100000000E-03 0.  1.
        -12    1    3    3    0    0 -0.32687791208E+02 -0.24795223097E+02  0.32447680582E+01  0.41156084632E+02  0.00000000000E+00 0.  1.
</event>
<event>
 7    1  0.1501154E-015  0.9000768E+02  0.7816164E-02  0.1186339E+00
        -11   -1    0    0    0    0  0.00000000000E+00  0.00000000000E+00  0.45593999997E+02  0.45594000000E+02  0.51100000000E-03 0.  1.
         11   -1    0    0    0    0 -0.00000000000E+00 -0.00000000000E+00 -0.45593999997E+02  0.45594000000E+02  0.51100000000E-03 0. -1.
    9900012    2    1    2    0    0  0.62772201503E+00 -0.99753671853E+00 -0.63558911755E-01  0.90007680480E+02  0.89999941063E+02 0.  0.
         12    1    1    2    0    0 -0.62772201503E+00  0.99753671853E+00  0.63558911755E-01  0.11803195195E+01  0.00000000000E+00 0. -1.
         11    1    3    3    0    0 -0.90754920053E+00 -0.12387334953E+01 -0.92820089774E+01  0.94081771424E+01  0.51100000000E-03 0. -1.
        -11    1    3    3    0    0 -0.19650585637E+02  0.34096905308E+02 -0.10296590743E+01  0.39367558542E+02  0.51100000000E-03 0.  1.
         12    1    3    3    0    0  0.21185856852E+02 -0.33855708532E+02  0.10248109140E+02  0.41231944796E+02  0.00000000000E+00 0. -1.
</event>
<event>
 7    1  0.1501154E-015  0.9000777E+02  0.7816164E-02  0.1186339E+00
        -11   -1    0    0    0    0  0.00000000000E+00  0.00000000000E+00  0.45593999997E+02  0.45594000000E+02  0.51100000000E-03 0. -1.
         11   -1    0    0    0    0 -0.00000000000E+00 -0.00000000000E+00 -0.45593999997E+02  0.45594000000E+02  0.51100000000E-03 0.  1.
    9900012    2    1    2    0    0 -0.99571044288E+00  0.51544684111E+00 -0.36854701005E+00  0.90007766281E+02  0.90000027996E+02 0.  0.
         12    1    1    2    0    0  0.99571044288E+00 -0.51544684111E+00  0.36854701005E+00  0.11802337187E+01  0.00000000000E+00 0. -1.
         11    1    3    3    0    0 -0.20401148762E+01  0.10999518060E+01  0.96076536092E+01  0.98832672137E+01  0.51100000000E-03 0. -1.
        -11    1    3    3    0    0 -0.63337156636E+01  0.38678400820E+02 -0.11468864421E+01  0.39210330181E+02  0.51100000000E-03 0.  1.
         12    1    3    3    0    0  0.73781200969E+01 -0.39262905785E+02 -0.88293141771E+01  0.40914168887E+02  0.00000000000E+00 0. -1.
</event>
<event>
 7    1  0.1501154E-015  0.9000773E+02  0.7816164E-02  0.1186339E+00
        -11   -1    0    0    0    0  0.00000000000E+00  0.00000000000E+00  0.45593999997E+02  0.45594000000E+02  0.51100000000E-03 0.  1.
         11   -1    0    0    0    0 -0.00000000000E+00 -0.00000000000E+00 -0.45593999997E+02  0.45594000000E+02  0.51100000000E-03 0. -1.
    9900012    2    1    2    0    0 -0.83174770313E+00 -0.76742837607E+00  0.33510970749E+00  0.90007725002E+02  0.89999986172E+02 0.  0.
         12    1    1    2    0    0  0.83174770313E+00  0.76742837607E+00 -0.33510970749E+00  0.11802749977E+01  0.00000000000E+00 0. -1.
         11    1    3    3    0    0  0.17197915354E+02 -0.31434100383E+02  0.16505986323E+02  0.39450203348E+02  0.51100000000E-03 0. -1.
        -11    1    3    3    0    0  0.55034745002E+01  0.27409308275E+01  0.53660904533E+01  0.81606286761E+01  0.51100000000E-03 0.  1.
        -12    1    3    3    0    0 -0.23533137558E+02  0.27925741179E+02 -0.21536967069E+02  0.42396892979E+02  0.00000000000E+00 0.  1.
</event>
<event>
 7    1  0.1501154E-015  0.9000776E+02  0.7816164E-02  0.1186339E+00
        -11   -1    0    0    0    0  0.00000000000E+00  0.00000000000E+00  0.45593999997E+02  0.45594000000E+02  0.51100000000E-03 0. -1.
         11   -1    0    0    0    0 -0.00000000000E+00 -0.00000000000E+00 -0.45593999997E+02  0.45594000000E+02  0.51100000000E-03 0.  1.
    9900012    2    1    2    0    0  0.68786189823E+00 -0.25992006530E+00 -0.92317151804E+00  0.90007763548E+02  0.90000025227E+02 0.  0.
         12    1    1    2    0    0 -0.68786189823E+00  0.25992006530E+00  0.92317151804E+00  0.11802364522E+01  0.00000000000E+00 0. -1.
         11    1    3    3    0    0 -0.12356390132E+01  0.11546484877E+01 -0.10725240615E+02  0.10857753148E+02  0.51100000000E-03 0. -1.
        -11    1    3    3    0    0  0.38454752171E+02 -0.37087631467E+01 -0.63321034738E+01  0.39148670773E+02  0.51100000000E-03 0.  1.
         12    1    3    3    0    0 -0.36531251260E+02  0.22941945936E+01  0.16134172571E+02  0.40001339627E+02  0.00000000000E+00 0. -1.
</event>
<event>
 7    1  0.1501154E-015  0.9000775E+02  0.7816164E-02  0.1186339E+00
        -11   -1    0    0    0    0  0.00000000000E+00  0.00000000000E+00  0.45593999997E+02  0.45594000000E+02  0.51100000000E-03 0. -1.
         11   -1    0    0    0    0 -0.00000000000E+00 -0.00000000000E+00 -0.45593999997E+02  0.45594000000E+02  0.51100000000E-03 0.  1.
    9900012    2    1    2    0    0 -0.10162916862E+01  0.55598257988E+00 -0.22589547870E+00  0.90007748252E+02  0.90000009729E+02 0.  0.
         12    1    1    2    0    0  0.10162916862E+01 -0.55598257988E+00  0.22589547870E+00  0.11802517477E+01  0.00000000000E+00 0. -1.
         11    1    3    3    0    0 -0.15167371123E+02 -0.24432737360E+02  0.29117076227E+02  0.40924466154E+02  0.51100000000E-03 0. -1.
        -11    1    3    3    0    0  0.61433001869E+01 -0.50152169793E+01 -0.34412131972E+01  0.86449110502E+01  0.51100000000E-03 0.  1.
        -12    1    3    3    0    0  0.80077792495E+01  0.30003936920E+02 -0.25901758509E+02  0.40438371048E+02  0.00000000000E+00 0.  1.
</event>
<event>
 7    1  0.1501154E-015  0.9000776E+02  0.7816164E-02  0.1186339E+00
        -11   -1    0    0    0    0  0.00000000000E+00  0.00000000000E+00  0.45593999997E+02  0.45594000000E+02  0.51100000000E-03 0. -1.
         11   -1    0    0    0    0 -0.00000000000E+00 -0.00000000000E+00 -0.45593999997E+02  0.45594000000E+02  0.51100000000E-03 0.  1.
    9900012    2    1    2    0    0  0.21992239903E+00  0.10596656282E+01 -0.47085507633E+00  0.90007762054E+02  0.90000023714E+02 0.  0.
         12    1    1    2    0    0 -0.21992239903E+00 -0.10596656282E+01  0.47085507633E+00  0.11802379455E+01  0.00000000000E+00 0. -1.
         11    1    3    3    0    0  0.96424710322E+00 -0.26899718925E+02  0.16226209644E+02  0.31429516865E+02  0.51100000000E-03 0. -1.
        -11    1    3    3    0    0 -0.39027862130E+01 -0.13763076947E+02 -0.41352067202E+01  0.14891405647E+02  0.51100000000E-03 0.  1.
        -12    1    3    3    0    0  0.31584615088E+01  0.41722461500E+02 -0.12561858000E+02  0.43686839542E+02  0.00000000000E+00 0.  1.
</event>
<event>
 7    1  0.2007130E-015  0.9000791E+02  0.7816164E-02  0.1186339E+00
        -11   -1    0    0    0    0  0.00000000000E+00  0.00000000000E+00  0.45593999997E+02  0.45594000000E+02  0.51100000000E-03 0. -1.
         11   -1    0    0    0    0 -0.00000000000E+00 -0.00000000000E+00 -0.45593999997E+02  0.45594000000E+02  0.51100000000E-03 0.  1.
    9900012    2    1    2    0    0 -0.21455403362E+00 -0.45727604137E+00 -0.10665285341E+01  0.90007907662E+02  0.90000171243E+02 0.  0.
         12    1    1    2    0    0  0.21455403362E+00  0.45727604137E+00  0.10665285341E+01  0.11800923376E+01  0.00000000000E+00 0. -1.
         11    1    3    3    0    0 -0.30505051722E+02  0.23740441536E+02  0.34470879745E+01  0.38807849215E+02  0.51100000000E-03 0. -1.
        -11    1    3    3    0    0 -0.70490631612E+01 -0.67191820465E+01 -0.12506343921E+00  0.97392165983E+01  0.51100000000E-03 0.  1.
        -12    1    3    3    0    0  0.37339560850E+02 -0.17478535531E+02 -0.43885530693E+01  0.41460841849E+02  0.00000000000E+00 0.  1.
</event>
<event>
 7    1  0.1501154E-015  0.9000771E+02  0.7816164E-02  0.1186339E+00
        -11   -1    0    0    0    0  0.00000000000E+00  0.00000000000E+00  0.45593999997E+02  0.45594000000E+02  0.51100000000E-03 0.  1.
         11   -1    0    0    0    0 -0.00000000000E+00 -0.00000000000E+00 -0.45593999997E+02  0.45594000000E+02  0.51100000000E-03 0. -1.
    9900012    2    1    2    0    0  0.19871853507E+00 -0.10512304518E+01  0.49850361893E+00  0.90007711740E+02  0.89999972735E+02 0.  0.
         12    1    1    2    0    0 -0.19871853507E+00  0.10512304518E+01 -0.49850361893E+00  0.11802882601E+01  0.00000000000E+00 0. -1.
         11    1    3    3    0    0  0.38523872961E+02  0.15219081930E+02 -0.15931330276E+01  0.41451746837E+02  0.51100000000E-03 0. -1.
        -11    1    3    3    0    0 -0.47807497120E+01  0.25934491681E+01  0.79454079463E+01  0.96286579590E+01  0.51100000000E-03 0.  1.
        -12    1    3    3    0    0 -0.33544404714E+02 -0.18863761550E+02 -0.58537712998E+01  0.38927306944E+02  0.00000000000E+00 0.  1.
</event>
<event>
 7    1  0.1501154E-015  0.9000784E+02  0.7816164E-02  0.1186339E+00
        -11   -1    0    0    0    0  0.00000000000E+00  0.00000000000E+00  0.45593999997E+02  0.45594000000E+02  0.51100000000E-03 0. -1.
         11   -1    0    0    0    0 -0.00000000000E+00 -0.00000000000E+00 -0.45593999997E+02  0.45594000000E+02  0.51100000000E-03 0.  1.
    9900012    2    1    2    0    0  0.54530639986E+00 -0.10262194778E+01 -0.20563524048E+00  0.90007842664E+02  0.90000105387E+02 0.  0.
         12    1    1    2    0    0 -0.54530639986E+00  0.10262194778E+01  0.20563524048E+00  0.11801573363E+01  0.00000000000E+00 0. -1.
         11    1    3    3    0    0 -0.16166577047E+02 -0.31731624375E+02 -0.10390878768E+02  0.37097500734E+02  0.51100000000E-03 0. -1.
        -11    1    3    3    0    0 -0.87337550931E+01 -0.33386067567E+01  0.80355425211E+00  0.93845869808E+01  0.51100000000E-03 0.  1.
        -12    1    3    3    0    0  0.25445638540E+02  0.34044011654E+02  0.93816892756E+01  0.43525754949E+02  0.00000000000E+00 0.  1.
</event>
<event>
 7    1  0.1501154E-015  0.9000792E+02  0.7816164E-02  0.1186339E+00
        -11   -1    0    0    0    0  0.00000000000E+00  0.00000000000E+00  0.45593999997E+02  0.45594000000E+02  0.51100000000E-03 0.  1.
         11   -1    0    0    0    0 -0.00000000000E+00 -0.00000000000E+00 -0.45593999997E+02  0.45594000000E+02  0.51100000000E-03 0. -1.
    9900012    2    1    2    0    0 -0.69708923196E+00 -0.81151814441E+00  0.49808425387E+00  0.90007922452E+02  0.90000186228E+02 0.  0.
         12    1    1    2    0    0  0.69708923196E+00  0.81151814441E+00 -0.49808425387E+00  0.11800775483E+01  0.00000000000E+00 0. -1.
         11    1    3    3    0    0  0.10024859302E+02 -0.14522811138E+02 -0.46267987721E+01  0.18243275871E+02  0.51100000000E-03 0. -1.
        -11    1    3    3    0    0 -0.37203382499E+02 -0.71295955366E+01  0.29961349690E+01  0.37998679278E+02  0.51100000000E-03 0.  1.
         12    1    3    3    0    0  0.26481433965E+02  0.20840888530E+02  0.21287480570E+01  0.33765967302E+02  0.00000000000E+00 0. -1.
</event>
<event>
 7    1  0.1501154E-015  0.9000766E+02  0.7816164E-02  0.1186339E+00
        -11   -1    0    0    0    0  0.00000000000E+00  0.00000000000E+00  0.45593999997E+02  0.45594000000E+02  0.51100000000E-03 0.  1.
         11   -1    0    0    0    0 -0.00000000000E+00 -0.00000000000E+00 -0.45593999997E+02  0.45594000000E+02  0.51100000000E-03 0. -1.
    9900012    2    1    2    0    0  0.49908327700E+00 -0.97285341845E+00 -0.44461007615E+00  0.90007658519E+02  0.89999918812E+02 0.  0.
         12    1    1    2    0    0 -0.49908327700E+00  0.97285341845E+00  0.44461007615E+00  0.11803414807E+01  0.00000000000E+00 0. -1.
         11    1    3    3    0    0  0.26116840663E+01  0.48860674398E+01  0.80825496365E+01  0.97990896300E+01  0.51100000000E-03 0. -1.
        -11    1    3    3    0    0 -0.13032581217E+02 -0.26884590066E+02  0.25135783921E+02  0.39044039107E+02  0.51100000000E-03 0.  1.
         12    1    3    3    0    0  0.10919980428E+02  0.21025669208E+02 -0.33662943633E+02  0.41164529783E+02  0.00000000000E+00 0. -1.
</event>
<event>
 7    1  0.1501154E-015  0.9000763E+02  0.7816164E-02  0.1186339E+00
        -11   -1    0    0    0    0  0.00000000000E+00  0.00000000000E+00  0.45593999997E+02  0.45594000000E+02  0.51100000000E-03 0.  1.
         11   -1    0    0    0    0 -0.00000000000E+00 -0.00000000000E+00 -0.45593999997E+02  0.45594000000E+02  0.51100000000E-03 0. -1.
    9900012    2    1    2    0    0  0.41476856138E-01 -0.10517080797E+01  0.53427864040E+00  0.90007634006E+02  0.89999893975E+02 0.  0.
         12    1    1    2    0    0 -0.41476856138E-01  0.10517080797E+01 -0.53427864040E+00  0.11803659941E+01  0.00000000000E+00 0. -1.
         11    1    3    3    0    0 -0.16522550950E+01 -0.29803875090E+01  0.61800155748E+01  0.70572834270E+01  0.51100000000E-03 0. -1.
        -11    1    3    3    0    0  0.24281678393E+02 -0.69018585826E+01  0.30394129044E+02  0.39509981499E+02  0.51100000000E-03 0.  1.
         12    1    3    3    0    0 -0.22587946442E+02  0.88305380120E+01 -0.36039865978E+02  0.43440369080E+02  0.00000000000E+00 0. -1.
</event>
<event>
 7    1  0.1501154E-015  0.9000794E+02  0.7816164E-02  0.1186339E+00
        -11   -1    0    0    0    0  0.00000000000E+00  0.00000000000E+00  0.45593999997E+02  0.45594000000E+02  0.51100000000E-03 0. -1.
         11   -1    0    0    0    0 -0.00000000000E+00 -0.00000000000E+00 -0.45593999997E+02  0.45594000000E+02  0.51100000000E-03 0.  1.
    9900012    2    1    2    0    0  0.10592532767E+01  0.27786027492E+00 -0.43968054430E+00  0.90007939486E+02  0.90000203487E+02 0.  0.
         12    1    1    2    0    0 -0.10592532767E+01 -0.27786027492E+00  0.43968054430E+00  0.11800605144E+01  0.00000000000E+00 0. -1.
         11    1    3    3    0    0  0.23753765349E+02  0.23954724447E+02 -0.17131820206E+01  0.33778768250E+02  0.51100000000E-03 0. -1.
        -11    1    3    3    0    0  0.59365006530E+01  0.10231095013E+02 -0.98916195565E-01  0.11829079839E+02  0.51100000000E-03 0.  1.
        -12    1    3    3    0    0 -0.28631012725E+02 -0.33907959185E+02  0.13724176719E+01  0.44400091397E+02  0.00000000000E+00 0.  1.
</event>
<event>
 7    1  0.1501154E-015  0.9000771E+02  0.7816164E-02  0.1186339E+00
        -11   -1    0    0    0    0  0.00000000000E+00  0.00000000000E+00  0.45593999997E+02  0.45594000000E+02  0.51100000000E-03 0.  1.
         11   -1    0    0    0    0 -0.00000000000E+00 -0.00000000000E+00 -0.45593999997E+02  0.45594000000E+02  0.51100000000E-03 0. -1.
    9900012    2    1    2    0    0 -0.94221422313E+00 -0.62791952760E+00  0.33321742174E+00  0.90007710025E+02  0.89999970997E+02 0.  0.
         12    1    1    2    0    0  0.94221422313E+00  0.62791952760E+00 -0.33321742174E+00  0.11802899752E+01  0.00000000000E+00 0. -1.
         11    1    3    3    0    0  0.70628673461E+01  0.67052052740E+01  0.41862864689E+00  0.97477752908E+01  0.51100000000E-03 0. -1.
        -11    1    3    3    0    0 -0.19812671298E+02 -0.36670708345E+02  0.16163666713E+02  0.44705110629E+02  0.51100000000E-03 0.  1.
         12    1    3    3    0    0  0.11807589728E+02  0.29337583543E+02 -0.16249077938E+02  0.35554824105E+02  0.00000000000E+00 0. -1.
</event>
<event>
 7    1  0.1501154E-015  0.9000772E+02  0.7816164E-02  0.1186339E+00
        -11   -1    0    0    0    0  0.00000000000E+00  0.00000000000E+00  0.45593999997E+02  0.45594000000E+02  0.51100000000E-03 0. -1.
         11   -1    0    0    0    0 -0.00000000000E+00 -0.00000000000E+00 -0.45593999997E+02  0.45594000000E+02  0.51100000000E-03 0.  1.
    9900012    2    1    2    0    0  0.42101219632E+00  0.22203873410E+00 -0.10800499348E+01  0.90007720232E+02  0.89999981339E+02 0.  0.
         12    1    1    2    0    0 -0.42101219632E+00 -0.22203873410E+00  0.10800499348E+01  0.11802797679E+01  0.00000000000E+00 0. -1.
         11    1    3    3    0    0 -0.76976432408E+01  0.65001922614E+01 -0.50895721719E+01  0.11287601873E+02  0.51100000000E-03 0. -1.
        -11    1    3    3    0    0 -0.11426035654E+02  0.22434887699E+02 -0.23478359629E+02  0.34425453490E+02  0.51100000000E-03 0.  1.
         12    1    3    3    0    0  0.19544691091E+02 -0.28713041227E+02  0.27487881866E+02  0.44294664869E+02  0.00000000000E+00 0. -1.
</event>
<event>
 7    1  0.1501154E-015  0.9000778E+02  0.7816164E-02  0.1186339E+00
        -11   -1    0    0    0    0  0.00000000000E+00  0.00000000000E+00  0.45593999997E+02  0.45594000000E+02  0.51100000000E-03 0.  1.
         11   -1    0    0    0    0 -0.00000000000E+00 -0.00000000000E+00 -0.45593999997E+02  0.45594000000E+02  0.51100000000E-03 0. -1.
    9900012    2    1    2    0    0 -0.60949967399E+00  0.21683451474E+00  0.98712078635E+00  0.90007782009E+02  0.90000043932E+02 0.  0.
         12    1    1    2    0    0  0.60949967399E+00 -0.21683451474E+00 -0.98712078635E+00  0.11802179910E+01  0.00000000000E+00 0. -1.
         11    1    3    3    0    0 -0.22416442493E+01  0.20618280121E+00  0.78068007842E+01  0.81248765550E+01  0.51100000000E-03 0. -1.
        -11    1    3    3    0    0  0.40981462624E+02 -0.38719787046E+01 -0.95197386729E+01  0.42250419200E+02  0.51100000000E-03 0.  1.
         12    1    3    3    0    0 -0.39349318049E+02  0.38826304181E+01  0.27000586750E+01  0.39632486254E+02  0.00000000000E+00 0. -1.
</event>
<event>
 7    1  0.1501154E-015  0.9000776E+02  0.7816164E-02  0.1186339E+00
        -11   -1    0    0    0    0  0.00000000000E+00  0.00000000000E+00  0.45593999997E+02  0.45594000000E+02  0.51100000000E-03 0. -1.
         11   -1    0    0    0    0 -0.00000000000E+00 -0.00000000000E+00 -0.45593999997E+02  0.45594000000E+02  0.51100000000E-03 0.  1.
    9900012    2    1    2    0    0 -0.11570294344E+01 -0.12942692043E+00 -0.19367046428E+00  0.90007755666E+02  0.90000017240E+02 0.  0.
         12    1    1    2    0    0  0.11570294344E+01  0.12942692043E+00  0.19367046428E+00  0.11802443343E+01  0.00000000000E+00 0. -1.
         11    1    3    3    0    0  0.14237582436E+01  0.25472624793E+00  0.10605314571E+02  0.10703488703E+02  0.51100000000E-03 0. -1.
        -11    1    3    3    0    0 -0.44089482639E+01 -0.33921031886E+02  0.14603351633E+02  0.37193186314E+02  0.51100000000E-03 0.  1.
         12    1    3    3    0    0  0.18281605859E+01  0.33536878717E+02 -0.25402336668E+02  0.42111080649E+02  0.00000000000E+00 0. -1.
</event>
<event>
 7    1  0.1501154E-015  0.9000800E+02  0.7816164E-02  0.1186339E+00
        -11   -1    0    0    0    0  0.00000000000E+00  0.00000000000E+00  0.45593999997E+02  0.45594000000E+02  0.51100000000E-03 0.  1.
         11   -1    0    0    0    0 -0.00000000000E+00 -0.00000000000E+00 -0.45593999997E+02  0.45594000000E+02  0.51100000000E-03 0. -1.
    9900012    2    1    2    0    0 -0.83618479263E+00 -0.82893794760E+00 -0.77757359980E-01  0.90008004519E+02  0.90000269378E+02 0.  0.
         12    1    1    2    0    0  0.83618479263E+00  0.82893794760E+00  0.77757359980E-01  0.11799954811E+01  0.00000000000E+00 0. -1.
         11    1    3    3    0    0 -0.59069144475E+00  0.76067878179E+01  0.10549525920E+01  0.77022764506E+01  0.51100000000E-03 0. -1.
        -11    1    3    3    0    0 -0.75314267220E+01 -0.38019754417E+02  0.21526717755E+02  0.44335354876E+02  0.51100000000E-03 0.  1.
         12    1    3    3    0    0  0.72859333741E+01  0.29584028651E+02 -0.22659427708E+02  0.37970373193E+02  0.00000000000E+00 0. -1.
</event>
<event>
 7    1  0.1501154E-015  0.9000777E+02  0.7816164E-02  0.1186339E+00
        -11   -1    0    0    0    0  0.00000000000E+00  0.00000000000E+00  0.45593999997E+02  0.45594000000E+02  0.51100000000E-03 0. -1.
         11   -1    0    0    0    0 -0.00000000000E+00 -0.00000000000E+00 -0.45593999997E+02  0.45594000000E+02  0.51100000000E-03 0.  1.
    9900012    2    1    2    0    0  0.69662756679E+00  0.92350212731E+00 -0.23410141431E+00  0.90007767134E+02  0.90000028860E+02 0.  0.
         12    1    1    2    0    0 -0.69662756679E+00 -0.92350212731E+00  0.23410141431E+00  0.11802328661E+01  0.00000000000E+00 0. -1.
         11    1    3    3    0    0  0.34799579887E+02  0.17878917162E+02  0.17008169199E+02  0.42660804715E+02  0.51100000000E-03 0. -1.
        -11    1    3    3    0    0 -0.62857314805E+01  0.54353936474E+01 -0.21798249584E+01  0.85910163227E+01  0.51100000000E-03 0.  1.
        -12    1    3    3    0    0 -0.27817220839E+02 -0.22390808682E+02 -0.15062445655E+02  0.38755946096E+02  0.00000000000E+00 0.  1.
</event>
<event>
 7    1  0.1501154E-015  0.9000773E+02  0.7816164E-02  0.1186339E+00
        -11   -1    0    0    0    0  0.00000000000E+00  0.00000000000E+00  0.45593999997E+02  0.45594000000E+02  0.51100000000E-03 0. -1.
         11   -1    0    0    0    0 -0.00000000000E+00 -0.00000000000E+00 -0.45593999997E+02  0.45594000000E+02  0.51100000000E-03 0.  1.
    9900012    2    1    2    0    0 -0.57503375320E-01 -0.62801265515E+00 -0.99766389993E+00  0.90007728933E+02  0.89999990155E+02 0.  0.
         12    1    1    2    0    0  0.57503375320E-01  0.62801265515E+00  0.99766389993E+00  0.11802710665E+01  0.00000000000E+00 0. -1.
         11    1    3    3    0    0 -0.61275278415E+01 -0.11053455814E+02  0.36824386003E+01  0.13163807853E+02  0.51100000000E-03 0. -1.
        -11    1    3    3    0    0 -0.11378887974E+02 -0.24645753555E+02 -0.21087904636E+02  0.34374292459E+02  0.51100000000E-03 0.  1.
         12    1    3    3    0    0  0.17448912440E+02  0.35071196714E+02  0.16407802136E+02  0.42469628622E+02  0.00000000000E+00 0. -1.
</event>
<event>
 7    1  0.1501154E-015  0.9000780E+02  0.7816164E-02  0.1186339E+00
        -11   -1    0    0    0    0  0.00000000000E+00  0.00000000000E+00  0.45593999997E+02  0.45594000000E+02  0.51100000000E-03 0.  1.
         11   -1    0    0    0    0 -0.00000000000E+00 -0.00000000000E+00 -0.45593999997E+02  0.45594000000E+02  0.51100000000E-03 0. -1.
    9900012    2    1    2    0    0 -0.72935351824E+00  0.34194545249E+00  0.86255303177E+00  0.90007796213E+02  0.90000058323E+02 0.  0.
         12    1    1    2    0    0  0.72935351824E+00 -0.34194545249E+00 -0.86255303177E+00  0.11802037873E+01  0.00000000000E+00 0. -1.
         11    1    3    3    0    0 -0.34823801412E+02  0.25772835839E+02  0.29928842371E+01  0.43426876106E+02  0.51100000000E-03 0. -1.
        -11    1    3    3    0    0  0.55541348766E+00 -0.90429190121E+01 -0.18718998740E+01  0.92513176252E+01  0.51100000000E-03 0.  1.
        -12    1    3    3    0    0  0.33539034407E+02 -0.16387971374E+02 -0.25843133130E+00  0.37329602482E+02  0.00000000000E+00 0.  1.
</event>
<event>
 7    1  0.1501154E-015  0.9000777E+02  0.7816164E-02  0.1186339E+00
        -11   -1    0    0    0    0  0.00000000000E+00  0.00000000000E+00  0.45593999997E+02  0.45594000000E+02  0.51100000000E-03 0.  1.
         11   -1    0    0    0    0 -0.00000000000E+00 -0.00000000000E+00 -0.45593999997E+02  0.45594000000E+02  0.51100000000E-03 0. -1.
    9900012    2    1    2    0    0 -0.46744184969E+00 -0.81496330106E+00  0.71433561215E+00  0.90007770178E+02  0.90000031945E+02 0.  0.
         12    1    1    2    0    0  0.46744184969E+00  0.81496330106E+00 -0.71433561215E+00  0.11802298216E+01  0.00000000000E+00 0. -1.
         11    1    3    3    0    0 -0.23461589241E+01  0.14412140503E+02 -0.39716637619E+02  0.42315783812E+02  0.51100000000E-03 0. -1.
        -11    1    3    3    0    0 -0.73885015800E+01 -0.62808287228E+01  0.72781724828E+01  0.12124791132E+02  0.51100000000E-03 0.  1.
        -12    1    3    3    0    0  0.92672186545E+01 -0.89462750812E+01  0.33152800748E+02  0.35567195235E+02  0.00000000000E+00 0.  1.
</event>
<event>
 7    1  0.1501154E-015  0.9000781E+02  0.7816164E-02  0.1186339E+00
        -11   -1    0    0    0    0  0.00000000000E+00  0.00000000000E+00  0.45593999997E+02  0.45594000000E+02  0.51100000000E-03 0.  1.
         11   -1    0    0    0    0 -0.00000000000E+00 -0.00000000000E+00 -0.45593999997E+02  0.45594000000E+02  0.51100000000E-03 0. -1.
    9900012    2    1    2    0    0  0.58366736201E+00  0.91934616921E+00  0.45494210418E+00  0.90007814724E+02  0.90000077078E+02 0.  0.
         12    1    1    2    0    0 -0.58366736201E+00 -0.91934616921E+00 -0.45494210418E+00  0.11801852763E+01  0.00000000000E+00 0. -1.
         11    1    3    3    0    0 -0.25767983449E+00  0.24012674914E+01 -0.39868276943E+02  0.39941356901E+02  0.51100000000E-03 0. -1.
        -11    1    3    3    0    0 -0.53621593409E+01  0.65599272200E+01 -0.11522045454E-01  0.84726342390E+01  0.51100000000E-03 0.  1.
        -12    1    3    3    0    0  0.62035065374E+01 -0.80418485422E+01  0.40334741092E+02  0.41593823584E+02  0.00000000000E+00 0.  1.
</event>
<event>
 7    1  0.1501154E-015  0.9000774E+02  0.7816164E-02  0.1186339E+00
        -11   -1    0    0    0    0  0.00000000000E+00  0.00000000000E+00  0.45593999997E+02  0.45594000000E+02  0.51100000000E-03 0. -1.
         11   -1    0    0    0    0 -0.00000000000E+00 -0.00000000000E+00 -0.45593999997E+02  0.45594000000E+02  0.51100000000E-03 0.  1.
    9900012    2    1    2    0    0  0.60783546298E+00  0.79512752295E+00 -0.62556229440E+00  0.90007737355E+02  0.89999998688E+02 0.  0.
         12    1    1    2    0    0 -0.60783546298E+00 -0.79512752295E+00  0.62556229440E+00  0.11802626453E+01  0.00000000000E+00 0. -1.
         11    1    3    3    0    0  0.21107651352E+02 -0.31044553097E+02 -0.31264841895E+01  0.37670573744E+02  0.51100000000E-03 0. -1.
        -11    1    3    3    0    0  0.21241621989E+01 -0.54453836664E+01  0.62584452534E+01  0.85634342160E+01  0.51100000000E-03 0.  1.
        -12    1    3    3    0    0 -0.22623978088E+02  0.37285064286E+02 -0.37575233583E+01  0.43773729395E+02  0.00000000000E+00 0.  1.
</event>
<event>
 7    1  0.1501154E-015  0.9000763E+02  0.7816164E-02  0.1186339E+00
        -11   -1    0    0    0    0  0.00000000000E+00  0.00000000000E+00  0.45593999997E+02  0.45594000000E+02  0.51100000000E-03 0.  1.
         11   -1    0    0    0    0 -0.00000000000E+00 -0.00000000000E+00 -0.45593999997E+02  0.45594000000E+02  0.51100000000E-03 0. -1.
    9900012    2    1    2    0    0 -0.11378985030E+01  0.28725510999E+00 -0.12628948753E+00  0.90007628221E+02  0.89999888114E+02 0.  0.
         12    1    1    2    0    0  0.11378985030E+01 -0.28725510999E+00  0.12628948753E+00  0.11803717787E+01  0.00000000000E+00 0. -1.
         11    1    3    3    0    0  0.58771110762E+00 -0.68054240277E+01  0.88923881574E+01  0.11213106971E+02  0.51100000000E-03 0. -1.
        -11    1    3    3    0    0 -0.13091086711E+02  0.10060756515E+02  0.32064181537E+02  0.36065317284E+02  0.51100000000E-03 0.  1.
         12    1    3    3    0    0  0.11365477101E+02 -0.29680773777E+01 -0.41082859181E+02  0.42729203966E+02  0.00000000000E+00 0. -1.
</event>
<event>
 7    1  0.1501154E-015  0.9000858E+02  0.7816164E-02  0.1186337E+00
        -11   -1    0    0    0    0  0.00000000000E+00  0.00000000000E+00  0.45593999997E+02  0.45594000000E+02  0.51100000000E-03 0. -1.
         11   -1    0    0    0    0 -0.00000000000E+00 -0.00000000000E+00 -0.45593999997E+02  0.45594000000E+02  0.51100000000E-03 0.  1.
    9900012    2    1    2    0    0 -0.32337474626E+00  0.82264411864E+00  0.78085051529E+00  0.90008575522E+02  0.90000847915E+02 0.  0.
         12    1    1    2    0    0  0.32337474626E+00 -0.82264411864E+00 -0.78085051529E+00  0.11794244782E+01  0.00000000000E+00 0. -1.
         11    1    3    3    0    0 -0.71835041723E+01  0.19354003651E+01  0.37426136552E+01  0.83280048031E+01  0.51100000000E-03 0. -1.
        -11    1    3    3    0    0  0.52181927867E+00  0.87565968441E+01 -0.40972615060E+02  0.41901139230E+02  0.51100000000E-03 0.  1.
         12    1    3    3    0    0  0.63383101474E+01 -0.98693530906E+01  0.38010851920E+02  0.39779431489E+02  0.00000000000E+00 0. -1.
</event>
<event>
 7    1  0.1501154E-015  0.9000790E+02  0.7816164E-02  0.1186339E+00
        -11   -1    0    0    0    0  0.00000000000E+00  0.00000000000E+00  0.45593999997E+02  0.45594000000E+02  0.51100000000E-03 0. -1.
         11   -1    0    0    0    0 -0.00000000000E+00 -0.00000000000E+00 -0.45593999997E+02  0.45594000000E+02  0.51100000000E-03 0.  1.
    9900012    2    1    2    0    0 -0.48252339176E+00 -0.50679047611E-01 -0.10757513133E+01  0.90007899124E+02  0.90000162592E+02 0.  0.
         12    1    1    2    0    0  0.48252339176E+00  0.50679047611E-01  0.10757513133E+01  0.11801008760E+01  0.00000000000E+00 0. -1.
         11    1    3    3    0    0 -0.87709017183E+01 -0.37947931285E+01  0.21260568280E+02  0.23309674723E+02  0.51100000000E-03 0. -1.
        -11    1    3    3    0    0 -0.25137325223E+02 -0.93165706076E+00  0.17784182380E+01  0.25217372503E+02  0.51100000000E-03 0.  1.
        -12    1    3    3    0    0  0.33425703550E+02  0.46757711417E+01 -0.24114737831E+02  0.41480851898E+02  0.00000000000E+00 0.  1.
</event>
<event>
 7    1  0.1501154E-015  0.9000777E+02  0.7816164E-02  0.1186339E+00
        -11   -1    0    0    0    0  0.00000000000E+00  0.00000000000E+00  0.45593999997E+02  0.45594000000E+02  0.51100000000E-03 0.  1.
         11   -1    0    0    0    0 -0.00000000000E+00 -0.00000000000E+00 -0.45593999997E+02  0.45594000000E+02  0.51100000000E-03 0. -1.
    9900012    2    1    2    0    0 -0.10466651659E+01 -0.52331107858E+00  0.15356777420E+00  0.90007768872E+02  0.90000030621E+02 0.  0.
         12    1    1    2    0    0  0.10466651659E+01  0.52331107858E+00 -0.15356777420E+00  0.11802311281E+01  0.00000000000E+00 0. -1.
         11    1    3    3    0    0 -0.35654848180E+02  0.14428616190E+02  0.40016777914E+01  0.38671263095E+02  0.51100000000E-03 0. -1.
        -11    1    3    3    0    0 -0.38699846841E+01 -0.33212623536E+01 -0.94620384720E+01  0.10748848189E+02  0.51100000000E-03 0.  1.
        -12    1    3    3    0    0  0.38478167699E+02 -0.11630664915E+02  0.56139284548E+01  0.40587657588E+02  0.00000000000E+00 0.  1.
</event>
<event>
 7    1  0.1501154E-015  0.9000781E+02  0.7816164E-02  0.1186339E+00
        -11   -1    0    0    0    0  0.00000000000E+00  0.00000000000E+00  0.45593999997E+02  0.45594000000E+02  0.51100000000E-03 0.  1.
         11   -1    0    0    0    0 -0.00000000000E+00 -0.00000000000E+00 -0.45593999997E+02  0.45594000000E+02  0.51100000000E-03 0. -1.
    9900012    2    1    2    0    0 -0.18119736205E+00 -0.56767543899E+00  0.10187096204E+01  0.90007806296E+02  0.90000068539E+02 0.  0.
         12    1    1    2    0    0  0.18119736205E+00  0.56767543899E+00 -0.10187096204E+01  0.11801937039E+01  0.00000000000E+00 0. -1.
         11    1    3    3    0    0  0.48835470209E+01  0.34316759547E+02  0.17070891521E+02  0.38638120489E+02  0.51100000000E-03 0. -1.
        -11    1    3    3    0    0  0.23031493727E+00  0.40018812020E+00  0.82095769119E+01  0.82225512364E+01  0.51100000000E-03 0.  1.
        -12    1    3    3    0    0 -0.52950593202E+01 -0.35284623107E+02 -0.24261758813E+02  0.43147134571E+02  0.00000000000E+00 0.  1.
</event>
<event>
 7    1  0.1501154E-015  0.9000769E+02  0.7816164E-02  0.1186339E+00
        -11   -1    0    0    0    0  0.00000000000E+00  0.00000000000E+00  0.45593999997E+02  0.45594000000E+02  0.51100000000E-03 0.  1.
         11   -1    0    0    0    0 -0.00000000000E+00 -0.00000000000E+00 -0.45593999997E+02  0.45594000000E+02  0.51100000000E-03 0. -1.
    9900012    2    1    2    0    0  0.94742212051E+00  0.39821562544E+00 -0.58047520500E+00  0.90007688252E+02  0.89999948937E+02 0.  0.
         12    1    1    2    0    0 -0.94742212051E+00 -0.39821562544E+00  0.58047520500E+00  0.11803117480E+01  0.00000000000E+00 0. -1.
         11    1    3    3    0    0 -0.26432504390E+01 -0.66824945324E+01  0.62063222217E+01  0.94953115715E+01  0.51100000000E-03 0. -1.
        -11    1    3    3    0    0 -0.26005926255E+01 -0.14179774488E+02  0.32422066456E+02  0.35482664501E+02  0.51100000000E-03 0.  1.
         12    1    3    3    0    0  0.61912651851E+01  0.21260484646E+02 -0.39208863883E+02  0.45029712179E+02  0.00000000000E+00 0. -1.
</event>
<event>
 7    1  0.1501154E-015  0.9000773E+02  0.7816164E-02  0.1186339E+00
        -11   -1    0    0    0    0  0.00000000000E+00  0.00000000000E+00  0.45593999997E+02  0.45594000000E+02  0.51100000000E-03 0.  1.
         11   -1    0    0    0    0 -0.00000000000E+00 -0.00000000000E+00 -0.45593999997E+02  0.45594000000E+02  0.51100000000E-03 0. -1.
    9900012    2    1    2    0    0  0.74192992583E+00  0.55608089427E+00  0.73030548914E+00  0.90007732198E+02  0.89999993464E+02 0.  0.
         12    1    1    2    0    0 -0.74192992583E+00 -0.55608089427E+00 -0.73030548914E+00  0.11802678015E+01  0.00000000000E+00 0. -1.
         11    1    3    3    0    0  0.33690045915E+01  0.94317160637E+01  0.23615535706E-01  0.10015389049E+02  0.51100000000E-03 0. -1.
        -11    1    3    3    0    0  0.24480155490E+02 -0.13835254893E+02  0.29071366161E+02  0.40445477145E+02  0.51100000000E-03 0.  1.
         12    1    3    3    0    0 -0.27107230155E+02  0.49596197232E+01 -0.28364676207E+02  0.39546866005E+02  0.00000000000E+00 0. -1.
</event>
<event>
 7    1  0.1501154E-015  0.9000789E+02  0.7816164E-02  0.1186339E+00
        -11   -1    0    0    0    0  0.00000000000E+00  0.00000000000E+00  0.45593999997E+02  0.45594000000E+02  0.51100000000E-03 0. -1.
         11   -1    0    0    0    0 -0.00000000000E+00 -0.00000000000E+00 -0.45593999997E+02  0.45594000000E+02  0.51100000000E-03 0.  1.
    9900012    2    1    2    0    0  0.53312363942E+00  0.60888392241E+00 -0.85889226464E+00  0.90007891374E+02  0.90000154740E+02 0.  0.
         12    1    1    2    0    0 -0.53312363942E+00 -0.60888392241E+00  0.85889226464E+00  0.11801086256E+01  0.00000000000E+00 0. -1.
         11    1    3    3    0    0  0.54367766563E+00 -0.92522801011E+01  0.39029812221E+02  0.40115165645E+02  0.51100000000E-03 0. -1.
        -11    1    3    3    0    0  0.68349657712E+01 -0.38363528666E+01 -0.76042480769E+00  0.78748083506E+01  0.51100000000E-03 0.  1.
        -12    1    3    3    0    0 -0.68455197974E+01  0.13697516890E+02 -0.39128279678E+02  0.42017917378E+02  0.00000000000E+00 0.  1.
</event>
<event>
 7    1  0.1501154E-015  0.9000769E+02  0.7816164E-02  0.1186339E+00
        -11   -1    0    0    0    0  0.00000000000E+00  0.00000000000E+00  0.45593999997E+02  0.45594000000E+02  0.51100000000E-03 0.  1.
         11   -1    0    0    0    0 -0.00000000000E+00 -0.00000000000E+00 -0.45593999997E+02  0.45594000000E+02  0.51100000000E-03 0. -1.
    9900012    2    1    2    0    0 -0.56558440509E-01 -0.98969938014E+00 -0.64063881064E+00  0.90007694190E+02  0.89999954953E+02 0.  0.
         12    1    1    2    0    0  0.56558440509E-01  0.98969938014E+00  0.64063881064E+00  0.11803058103E+01  0.00000000000E+00 0. -1.
         11    1    3    3    0    0  0.21335395719E+01 -0.30381145297E+02 -0.17430437105E+02  0.35091111675E+02  0.51100000000E-03 0. -1.
        -11    1    3    3    0    0 -0.43396894622E+01 -0.39825324056E+01 -0.10308681854E+02  0.11872758349E+02  0.51100000000E-03 0.  1.
        -12    1    3    3    0    0  0.21495914497E+01  0.33373978322E+02  0.27098480148E+02  0.43043824166E+02  0.00000000000E+00 0.  1.
</event>
<event>
 7    1  0.1501154E-015  0.9000764E+02  0.7816164E-02  0.1186339E+00
        -11   -1    0    0    0    0  0.00000000000E+00  0.00000000000E+00  0.45593999997E+02  0.45594000000E+02  0.51100000000E-03 0.  1.
         11   -1    0    0    0    0 -0.00000000000E+00 -0.00000000000E+00 -0.45593999997E+02  0.45594000000E+02  0.51100000000E-03 0. -1.
    9900012    2    1    2    0    0  0.11495503537E+01  0.24245507034E+00  0.11403733012E+00  0.90007637772E+02  0.89999897790E+02 0.  0.
         12    1    1    2    0    0 -0.11495503537E+01 -0.24245507034E+00 -0.11403733012E+00  0.11803622281E+01  0.00000000000E+00 0. -1.
         11    1    3    3    0    0  0.19685927719E+02 -0.20902343190E+02 -0.23676685329E+02  0.37215979490E+02  0.51100000000E-03 0. -1.
        -11    1    3    3    0    0  0.46123883832E+01 -0.80153146040E+01  0.14192166452E+01  0.93559377374E+01  0.51100000000E-03 0.  1.
        -12    1    3    3    0    0 -0.23148765749E+02  0.29160112864E+02  0.22371506014E+02  0.43435720545E+02  0.00000000000E+00 0.  1.
</event>
<event>
 7    1  0.1501154E-015  0.9000775E+02  0.7816164E-02  0.1186339E+00
        -11   -1    0    0    0    0  0.00000000000E+00  0.00000000000E+00  0.45593999997E+02  0.45594000000E+02  0.51100000000E-03 0. -1.
         11   -1    0    0    0    0 -0.00000000000E+00 -0.00000000000E+00 -0.45593999997E+02  0.45594000000E+02  0.51100000000E-03 0.  1.
    9900012    2    1    2    0    0 -0.90666961129E+00 -0.34440377221E+00  0.67254397554E+00  0.90007754627E+02  0.90000016188E+02 0.  0.
         12    1    1    2    0    0  0.90666961129E+00  0.34440377221E+00 -0.67254397554E+00  0.11802453734E+01  0.00000000000E+00 0. -1.
         11    1    3    3    0    0 -0.15916562063E+02 -0.22100740913E+02  0.50875306551E+01  0.27706725993E+02  0.51100000000E-03 0. -1.
        -11    1    3    3    0    0 -0.11624511163E+02 -0.12155185001E+02  0.61447638934E+01  0.17906309105E+02  0.51100000000E-03 0.  1.
        -12    1    3    3    0    0  0.26634403615E+02  0.33911522142E+02 -0.10559750573E+02  0.44394719529E+02  0.00000000000E+00 0.  1.
</event>
<event>
 7    1  0.1501154E-015  0.9000768E+02  0.7816164E-02  0.1186339E+00
        -11   -1    0    0    0    0  0.00000000000E+00  0.00000000000E+00  0.45593999997E+02  0.45594000000E+02  0.51100000000E-03 0.  1.
         11   -1    0    0    0    0 -0.00000000000E+00 -0.00000000000E+00 -0.45593999997E+02  0.45594000000E+02  0.51100000000E-03 0. -1.
    9900012    2    1    2    0    0  0.22772837661E+00  0.44807221125E+00  0.10679596571E+01  0.90007675151E+02  0.89999935663E+02 0.  0.
         12    1    1    2    0    0 -0.22772837661E+00 -0.44807221125E+00 -0.10679596571E+01  0.11803248490E+01  0.00000000000E+00 0. -1.
         11    1    3    3    0    0 -0.17089199142E+02 -0.19349963198E+02  0.20391312547E+02  0.32897833222E+02  0.51100000000E-03 0. -1.
        -11    1    3    3    0    0  0.28660306732E+01  0.23286049151E+02  0.89947587170E+01  0.25126876079E+02  0.51100000000E-03 0.  1.
         12    1    3    3    0    0  0.14450896845E+02 -0.34880137420E+01 -0.28318111607E+02  0.31982965849E+02  0.00000000000E+00 0. -1.
</event>
<event>
 7    1  0.1501154E-015  0.9000764E+02  0.7816164E-02  0.1186339E+00
        -11   -1    0    0    0    0  0.00000000000E+00  0.00000000000E+00  0.45593999997E+02  0.45594000000E+02  0.51100000000E-03 0.  1.
         11   -1    0    0    0    0 -0.00000000000E+00 -0.00000000000E+00 -0.45593999997E+02  0.45594000000E+02  0.51100000000E-03 0. -1.
    9900012    2    1    2    0    0 -0.10558637036E+01 -0.35179327718E+00  0.39325486532E+00  0.90007637319E+02  0.89999897331E+02 0.  0.
         12    1    1    2    0    0  0.10558637036E+01  0.35179327718E+00 -0.39325486532E+00  0.11803626814E+01  0.00000000000E+00 0. -1.
         11    1    3    3    0    0 -0.35975827115E+02 -0.76154362117E+01 -0.69096894053E+01  0.37416558009E+02  0.51100000000E-03 0. -1.
        -11    1    3    3    0    0 -0.52691869266E+01 -0.75188261470E+01  0.19392626917E+00  0.91833918110E+01  0.51100000000E-03 0.  1.
        -12    1    3    3    0    0  0.40189150338E+02  0.14782469081E+02  0.71090180015E+01  0.43407687499E+02  0.00000000000E+00 0.  1.
</event>
<event>
 7    1  0.1501154E-015  0.9000770E+02  0.7816164E-02  0.1186339E+00
        -11   -1    0    0    0    0  0.00000000000E+00  0.00000000000E+00  0.45593999997E+02  0.45594000000E+02  0.51100000000E-03 0.  1.
         11   -1    0    0    0    0 -0.00000000000E+00 -0.00000000000E+00 -0.45593999997E+02  0.45594000000E+02  0.51100000000E-03 0. -1.
    9900012    2    1    2    0    0 -0.37145743800E+00 -0.13987755610E+00  0.11115602116E+01  0.90007698148E+02  0.89999958963E+02 0.  0.
         12    1    1    2    0    0  0.37145743800E+00  0.13987755610E+00 -0.11115602116E+01  0.11803018525E+01  0.00000000000E+00 0. -1.
         11    1    3    3    0    0  0.22582012199E+01 -0.80141453285E+01 -0.48128638556E+01  0.96171543010E+01  0.51100000000E-03 0. -1.
        -11    1    3    3    0    0 -0.20973950898E+01 -0.31723944585E+02 -0.15494108881E+02  0.35367713193E+02  0.51100000000E-03 0.  1.
         12    1    3    3    0    0 -0.53226356810E+00  0.39598212358E+02  0.21418532948E+02  0.45022830654E+02  0.00000000000E+00 0. -1.
</event>
<event>
 7    1  0.1501154E-015  0.9000772E+02  0.7816164E-02  0.1186339E+00
        -11   -1    0    0    0    0  0.00000000000E+00  0.00000000000E+00  0.45593999997E+02  0.45594000000E+02  0.51100000000E-03 0. -1.
         11   -1    0    0    0    0 -0.00000000000E+00 -0.00000000000E+00 -0.45593999997E+02  0.45594000000E+02  0.51100000000E-03 0.  1.
    9900012    2    1    2    0    0  0.36339577988E-01  0.56748131302E+00 -0.10342615229E+01  0.90007723548E+02  0.89999984699E+02 0.  0.
         12    1    1    2    0    0 -0.36339577988E-01 -0.56748131302E+00  0.10342615229E+01  0.11802764521E+01  0.00000000000E+00 0. -1.
         11    1    3    3    0    0  0.89795374492E+01 -0.45044803932E+01 -0.70400903237E+01  0.12267245349E+02  0.51100000000E-03 0. -1.
        -11    1    3    3    0    0 -0.16056611832E+02  0.24833346790E+02 -0.26054975346E+02  0.39412835940E+02  0.51100000000E-03 0.  1.
         12    1    3    3    0    0  0.71134139610E+01 -0.19761385084E+02  0.32060804146E+02  0.38327642259E+02  0.00000000000E+00 0. -1.
</event>
<event>
 7    1  0.1501154E-015  0.9000754E+02  0.7816164E-02  0.1186339E+00
        -11   -1    0    0    0    0  0.00000000000E+00  0.00000000000E+00  0.45593999997E+02  0.45594000000E+02  0.51100000000E-03 0.  1.
         11   -1    0    0    0    0 -0.00000000000E+00 -0.00000000000E+00 -0.45593999997E+02  0.45594000000E+02  0.51100000000E-03 0. -1.
    9900012    2    1    2    0    0 -0.68663796420E+00  0.89073554172E+00  0.35859870134E+00  0.90007544779E+02  0.89999803570E+02 0.  0.
         12    1    1    2    0    0  0.68663796420E+00 -0.89073554172E+00 -0.35859870134E+00  0.11804552206E+01  0.00000000000E+00 0. -1.
         11    1    3    3    0    0 -0.38206526836E+01  0.94634334206E+01 -0.50774249339E+00  0.10218207364E+02  0.51100000000E-03 0. -1.
        -11    1    3    3    0    0 -0.17520881051E+02 -0.36661234815E+02  0.13329578349E+02  0.42763361306E+02  0.51100000000E-03 0.  1.
         12    1    3    3    0    0  0.20654895770E+02  0.28088536936E+02 -0.12463237154E+02  0.37025976109E+02  0.00000000000E+00 0. -1.
</event>
<event>
 7    1  0.1501154E-015  0.9000843E+02  0.7816164E-02  0.1186338E+00
        -11   -1    0    0    0    0  0.00000000000E+00  0.00000000000E+00  0.45593999997E+02  0.45594000000E+02  0.51100000000E-03 0.  1.
         11   -1    0    0    0    0 -0.00000000000E+00 -0.00000000000E+00 -0.45593999997E+02  0.45594000000E+02  0.51100000000E-03 0. -1.
    9900012    2    1    2    0    0  0.56105091929E+00 -0.10181854013E+01 -0.19973949610E+00  0.90008434185E+02  0.90000704714E+02 0.  0.
         12    1    1    2    0    0 -0.56105091929E+00  0.10181854013E+01  0.19973949610E+00  0.11795658149E+01  0.00000000000E+00 0. -1.
         11    1    3    3    0    0 -0.41881827767E+01  0.28347666045E+02 -0.19243677348E+02  0.34517389288E+02  0.51100000000E-03 0. -1.
        -11    1    3    3    0    0 -0.18041659510E+01  0.10972052077E+02  0.57382943120E+01  0.12512752033E+02  0.51100000000E-03 0.  1.
        -12    1    3    3    0    0  0.65533996470E+01 -0.40337903523E+02  0.13305643539E+02  0.42978292864E+02  0.00000000000E+00 0.  1.
</event>
<event>
 7    1  0.1501154E-015  0.9000776E+02  0.7816164E-02  0.1186339E+00
        -11   -1    0    0    0    0  0.00000000000E+00  0.00000000000E+00  0.45593999997E+02  0.45594000000E+02  0.51100000000E-03 0.  1.
         11   -1    0    0    0    0 -0.00000000000E+00 -0.00000000000E+00 -0.45593999997E+02  0.45594000000E+02  0.51100000000E-03 0. -1.
    9900012    2    1    2    0    0  0.82888082375E+00  0.61554250485E+00  0.57186639248E+00  0.90007759700E+02  0.90000021328E+02 0.  0.
         12    1    1    2    0    0 -0.82888082375E+00 -0.61554250485E+00 -0.57186639248E+00  0.11802403002E+01  0.00000000000E+00 0. -1.
         11    1    3    3    0    0 -0.59210083221E-01 -0.62351228107E+01 -0.68680244871E+01  0.92763151583E+01  0.51100000000E-03 0. -1.
        -11    1    3    3    0    0 -0.14531673035E+02  0.36820245936E+02 -0.12574043776E+02  0.41533198879E+02  0.51100000000E-03 0.  1.
         12    1    3    3    0    0  0.15419763942E+02 -0.29969580620E+02  0.20013934656E+02  0.39198245662E+02  0.00000000000E+00 0. -1.
</event>
<event>
 7    1  0.1501154E-015  0.9000773E+02  0.7816164E-02  0.1186339E+00
        -11   -1    0    0    0    0  0.00000000000E+00  0.00000000000E+00  0.45593999997E+02  0.45594000000E+02  0.51100000000E-03 0. -1.
         11   -1    0    0    0    0 -0.00000000000E+00 -0.00000000000E+00 -0.45593999997E+02  0.45594000000E+02  0.51100000000E-03 0.  1.
    9900012    2    1    2    0    0 -0.64289032867E+00  0.47790114708E+00 -0.86680062354E+00  0.90007728505E+02  0.89999989721E+02 0.  0.
         12    1    1    2    0    0  0.64289032867E+00 -0.47790114708E+00  0.86680062354E+00  0.11802714951E+01  0.00000000000E+00 0. -1.
         11    1    3    3    0    0 -0.51254344072E+01  0.61377049326E+01 -0.87233969458E+01  0.11833814019E+02  0.51100000000E-03 0. -1.
        -11    1    3    3    0    0  0.13495648174E+02 -0.30943441662E+02 -0.20203842331E+02  0.39342398843E+02  0.51100000000E-03 0.  1.
         12    1    3    3    0    0 -0.90131040956E+01  0.25283637877E+02  0.28060438653E+02  0.38831515643E+02  0.00000000000E+00 0. -1.
</event>
<event>
 7    1  0.1501154E-015  0.9000753E+02  0.7816164E-02  0.1186339E+00
        -11   -1    0    0    0    0  0.00000000000E+00  0.00000000000E+00  0.45593999997E+02  0.45594000000E+02  0.51100000000E-03 0. -1.
         11   -1    0    0    0    0 -0.00000000000E+00 -0.00000000000E+00 -0.45593999997E+02  0.45594000000E+02  0.51100000000E-03 0.  1.
    9900012    2    1    2    0    0  0.36151074419E+00 -0.30262370323E+00 -0.10822380647E+01  0.90007529605E+02  0.89999788196E+02 0.  0.
         12    1    1    2    0    0 -0.36151074419E+00  0.30262370323E+00  0.10822380647E+01  0.11804703947E+01  0.00000000000E+00 0. -1.
         11    1    3    3    0    0 -0.15698108560E+01  0.95588156545E+01  0.12653988390E+01  0.97691605229E+01  0.51100000000E-03 0. -1.
        -11    1    3    3    0    0  0.17821799263E+02  0.30210346718E+02 -0.99640924249E+01  0.36463196732E+02  0.51100000000E-03 0.  1.
         12    1    3    3    0    0 -0.15890477663E+02 -0.40071786075E+02  0.76164555211E+01  0.43775172351E+02  0.00000000000E+00 0. -1.
</event>
<event>
 7    1  0.1501154E-015  0.9000778E+02  0.7816164E-02  0.1186339E+00
        -11   -1    0    0    0    0  0.00000000000E+00  0.00000000000E+00  0.45593999997E+02  0.45594000000E+02  0.51100000000E-03 0.  1.
         11   -1    0    0    0    0 -0.00000000000E+00 -0.00000000000E+00 -0.45593999997E+02  0.45594000000E+02  0.51100000000E-03 0. -1.
    9900012    2    1    2    0    0 -0.21191558991E+00 -0.10422888324E+01 -0.51151363634E+00  0.90007779500E+02  0.90000041390E+02 0.  0.
         12    1    1    2    0    0  0.21191558991E+00  0.10422888324E+01  0.51151363634E+00  0.11802204995E+01  0.00000000000E+00 0. -1.
         11    1    3    3    0    0  0.35651109495E+01  0.60818704448E+00  0.11908769213E+01  0.38076364934E+01  0.51100000000E-03 0. -1.
        -11    1    3    3    0    0  0.38613565030E+02  0.12141793647E+02 -0.77534626414E+01  0.41213429128E+02  0.51100000000E-03 0.  1.
         12    1    3    3    0    0 -0.42390591570E+02 -0.13792269524E+02  0.60510720837E+01  0.44986713879E+02  0.00000000000E+00 0. -1.
</event>
<event>
 7    1  0.1501154E-015  0.9000766E+02  0.7816164E-02  0.1186339E+00
        -11   -1    0    0    0    0  0.00000000000E+00  0.00000000000E+00  0.45593999997E+02  0.45594000000E+02  0.51100000000E-03 0.  1.
         11   -1    0    0    0    0 -0.00000000000E+00 -0.00000000000E+00 -0.45593999997E+02  0.45594000000E+02  0.51100000000E-03 0. -1.
    9900012    2    1    2    0    0 -0.37611851910E+00 -0.18489865379E-03  0.11188074065E+01  0.90007663104E+02  0.89999923457E+02 0.  0.
         12    1    1    2    0    0  0.37611851910E+00  0.18489865378E-03 -0.11188074065E+01  0.11803368957E+01  0.00000000000E+00 0. -1.
         11    1    3    3    0    0 -0.93296093537E+01  0.17158816851E+01  0.43470187456E+01  0.10434674546E+02  0.51100000000E-03 0. -1.
        -11    1    3    3    0    0 -0.19076769226E+01  0.34143402996E+02  0.15661527408E+02  0.37612426675E+02  0.51100000000E-03 0.  1.
         12    1    3    3    0    0  0.10861167757E+02 -0.35859469580E+02 -0.18889738747E+02  0.41960561883E+02  0.00000000000E+00 0. -1.
</event>
<event>
 7    1  0.1501154E-015  0.9000778E+02  0.7816164E-02  0.1186339E+00
        -11   -1    0    0    0    0  0.00000000000E+00  0.00000000000E+00  0.45593999997E+02  0.45594000000E+02  0.51100000000E-03 0. -1.
         11   -1    0    0    0    0 -0.00000000000E+00 -0.00000000000E+00 -0.45593999997E+02  0.45594000000E+02  0.51100000000E-03 0.  1.
    9900012    2    1    2    0    0 -0.62290852359E+00 -0.53676559716E-01 -0.10010052434E+01  0.90007784893E+02  0.90000046853E+02 0.  0.
         12    1    1    2    0    0  0.62290852359E+00  0.53676559716E-01  0.10010052434E+01  0.11802151072E+01  0.00000000000E+00 0. -1.
         11    1    3    3    0    0 -0.28541388038E+01  0.12383447336E+00 -0.96482235869E+01  0.10062289100E+02  0.51100000000E-03 0. -1.
        -11    1    3    3    0    0 -0.57919572321E+01 -0.26349951857E+02 -0.24854063061E+02  0.36682300669E+02  0.51100000000E-03 0.  1.
         12    1    3    3    0    0  0.80231875123E+01  0.26172440824E+02  0.33501281405E+02  0.43263195124E+02  0.00000000000E+00 0. -1.
</event>
<event>
 7    1  0.1501154E-015  0.9000772E+02  0.7816164E-02  0.1186339E+00
        -11   -1    0    0    0    0  0.00000000000E+00  0.00000000000E+00  0.45593999997E+02  0.45594000000E+02  0.51100000000E-03 0.  1.
         11   -1    0    0    0    0 -0.00000000000E+00 -0.00000000000E+00 -0.45593999997E+02  0.45594000000E+02  0.51100000000E-03 0. -1.
    9900012    2    1    2    0    0  0.75169092501E-01 -0.64518284815E+00  0.98546744357E+00  0.90007721481E+02  0.89999982605E+02 0.  0.
         12    1    1    2    0    0 -0.75169092501E-01  0.64518284815E+00 -0.98546744357E+00  0.11802785190E+01  0.00000000000E+00 0. -1.
         11    1    3    3    0    0  0.56855677813E+01  0.98709026330E+01 -0.48775777738E+01  0.12391576372E+02  0.51100000000E-03 0. -1.
        -11    1    3    3    0    0  0.26730795954E+02 -0.21448359590E+02 -0.15211691303E+02  0.37496174925E+02  0.51100000000E-03 0.  1.
         12    1    3    3    0    0 -0.32341194643E+02  0.10932274109E+02  0.21074736521E+02  0.40119970184E+02  0.00000000000E+00 0. -1.
</event>
<event>
 7    1  0.1501154E-015  0.9000764E+02  0.7816164E-02  0.1186339E+00
        -11   -1    0    0    0    0  0.00000000000E+00  0.00000000000E+00  0.45593999997E+02  0.45594000000E+02  0.51100000000E-03 0.  1.
         11   -1    0    0    0    0 -0.00000000000E+00 -0.00000000000E+00 -0.45593999997E+02  0.45594000000E+02  0.51100000000E-03 0. -1.
    9900012    2    1    2    0    0  0.66355441124E+00  0.57248150577E+00  0.79070330213E+00  0.90007639359E+02  0.89999899398E+02 0.  0.
         12    1    1    2    0    0 -0.66355441124E+00 -0.57248150577E+00 -0.79070330213E+00  0.11803606411E+01  0.00000000000E+00 0. -1.
         11    1    3    3    0    0 -0.35365437820E+02  0.31782165748E+01 -0.50104811318E+00  0.35511495354E+02  0.51100000000E-03 0. -1.
        -11    1    3    3    0    0 -0.53691105440E+01  0.23690847542E+01  0.10284873378E+02  0.11841390597E+02  0.51100000000E-03 0.  1.
        -12    1    3    3    0    0  0.41398102775E+02 -0.49748198232E+01 -0.89931219632E+01  0.42654753408E+02  0.00000000000E+00 0.  1.
</event>
<event>
 7    1  0.1501154E-015  0.9000765E+02  0.7816164E-02  0.1186339E+00
        -11   -1    0    0    0    0  0.00000000000E+00  0.00000000000E+00  0.45593999997E+02  0.45594000000E+02  0.51100000000E-03 0.  1.
         11   -1    0    0    0    0 -0.00000000000E+00 -0.00000000000E+00 -0.45593999997E+02  0.45594000000E+02  0.51100000000E-03 0. -1.
    9900012    2    1    2    0    0 -0.31017310363E+00 -0.57356162816E+00  0.98388792779E+00  0.90007654394E+02  0.89999914632E+02 0.  0.
         12    1    1    2    0    0  0.31017310363E+00  0.57356162816E+00 -0.98388792779E+00  0.11803456062E+01  0.00000000000E+00 0. -1.
         11    1    3    3    0    0  0.15907074907E+02  0.29123505421E+02 -0.14810883894E+02  0.36339728701E+02  0.51100000000E-03 0. -1.
        -11    1    3    3    0    0 -0.80722324819E+00  0.80195885561E+01 -0.32532666041E+01  0.86919016239E+01  0.51100000000E-03 0.  1.
        -12    1    3    3    0    0 -0.15410024762E+02 -0.37716655605E+02  0.19048038426E+02  0.44976024069E+02  0.00000000000E+00 0.  1.
</event>
<event>
 7    1  0.1501154E-015  0.9000776E+02  0.7816164E-02  0.1186339E+00
        -11   -1    0    0    0    0  0.00000000000E+00  0.00000000000E+00  0.45593999997E+02  0.45594000000E+02  0.51100000000E-03 0.  1.
         11   -1    0    0    0    0 -0.00000000000E+00 -0.00000000000E+00 -0.45593999997E+02  0.45594000000E+02  0.51100000000E-03 0. -1.
    9900012    2    1    2    0    0 -0.25383099906E+00 -0.97485499826E+00  0.61497414622E+00  0.90007760345E+02  0.90000021981E+02 0.  0.
         12    1    1    2    0    0  0.25383099906E+00  0.97485499826E+00 -0.61497414622E+00  0.11802396554E+01  0.00000000000E+00 0. -1.
         11    1    3    3    0    0 -0.24472096959E+01  0.55918720958E+01 -0.16402918781E+02  0.17501817438E+02  0.51100000000E-03 0. -1.
        -11    1    3    3    0    0  0.81837559361E+01  0.30723136216E+02  0.19855852701E+01  0.31856357439E+02  0.51100000000E-03 0.  1.
        -12    1    3    3    0    0 -0.59903772392E+01 -0.37289863310E+02  0.15032307657E+02  0.40649585467E+02  0.00000000000E+00 0.  1.
</event>
<event>
 7    1  0.1501154E-015  0.9000768E+02  0.7816164E-02  0.1186339E+00
        -11   -1    0    0    0    0  0.00000000000E+00  0.00000000000E+00  0.45593999997E+02  0.45594000000E+02  0.51100000000E-03 0. -1.
         11   -1    0    0    0    0 -0.00000000000E+00 -0.00000000000E+00 -0.45593999997E+02  0.45594000000E+02  0.51100000000E-03 0.  1.
    9900012    2    1    2    0    0 -0.11296972300E+01  0.91392547732E-01 -0.32952347249E+00  0.90007680489E+02  0.89999941071E+02 0.  0.
         12    1    1    2    0    0  0.11296972300E+01 -0.91392547732E-01  0.32952347249E+00  0.11803195111E+01  0.00000000000E+00 0. -1.
         11    1    3    3    0    0 -0.10412733603E+02  0.32575192046E+02  0.16442020109E+02  0.37946122113E+02  0.51100000000E-03 0. -1.
        -11    1    3    3    0    0  0.62308617692E+01  0.18257703501E+01  0.75030095717E+01  0.99223096430E+01  0.51100000000E-03 0.  1.
        -12    1    3    3    0    0  0.30521746041E+01 -0.34309569848E+02 -0.24274553153E+02  0.42139248733E+02  0.00000000000E+00 0.  1.
</event>
<event>
 7    1  0.1501154E-015  0.9000779E+02  0.7816164E-02  0.1186339E+00
        -11   -1    0    0    0    0  0.00000000000E+00  0.00000000000E+00  0.45593999997E+02  0.45594000000E+02  0.51100000000E-03 0. -1.
         11   -1    0    0    0    0 -0.00000000000E+00 -0.00000000000E+00 -0.45593999997E+02  0.45594000000E+02  0.51100000000E-03 0.  1.
    9900012    2    1    2    0    0 -0.28040896914E+00 -0.80044047381E+00 -0.82070862843E+00  0.90007789512E+02  0.90000051534E+02 0.  0.
         12    1    1    2    0    0  0.28040896914E+00  0.80044047381E+00  0.82070862843E+00  0.11802104875E+01  0.00000000000E+00 0. -1.
         11    1    3    3    0    0 -0.43141763494E+01  0.40572569990E+02  0.58784640674E+01  0.41222589599E+02  0.51100000000E-03 0. -1.
        -11    1    3    3    0    0 -0.74131138287E+01 -0.38774319081E+01  0.20574550165E+01  0.86152107488E+01  0.51100000000E-03 0.  1.
        -12    1    3    3    0    0  0.11446881209E+02 -0.37495578556E+02 -0.87566277124E+01  0.40169989165E+02  0.00000000000E+00 0.  1.
</event>
<event>
 7    1  0.1501154E-015  0.9000797E+02  0.7816164E-02  0.1186339E+00
        -11   -1    0    0    0    0  0.00000000000E+00  0.00000000000E+00  0.45593999997E+02  0.45594000000E+02  0.51100000000E-03 0.  1.
         11   -1    0    0    0    0 -0.00000000000E+00 -0.00000000000E+00 -0.45593999997E+02  0.45594000000E+02  0.51100000000E-03 0. -1.
    9900012    2    1    2    0    0 -0.84513868371E+00  0.64148655596E+00  0.51643333547E+00  0.90007971277E+02  0.90000235698E+02 0.  0.
         12    1    1    2    0    0  0.84513868371E+00 -0.64148655596E+00 -0.51643333547E+00  0.11800287226E+01  0.00000000000E+00 0. -1.
         11    1    3    3    0    0  0.78079393544E+01  0.41692871305E+01 -0.34091838266E+02  0.35222156504E+02  0.51100000000E-03 0. -1.
        -11    1    3    3    0    0  0.13483240380E+01  0.49351620767E-01 -0.94089194113E+01  0.95051658609E+01  0.51100000000E-03 0.  1.
        -12    1    3    3    0    0 -0.10001402076E+02 -0.35771521953E+01  0.44017191013E+02  0.45280648913E+02  0.00000000000E+00 0.  1.
</event>
<event>
 7    1  0.1501154E-015  0.9000763E+02  0.7816164E-02  0.1186339E+00
        -11   -1    0    0    0    0  0.00000000000E+00  0.00000000000E+00  0.45593999997E+02  0.45594000000E+02  0.51100000000E-03 0.  1.
         11   -1    0    0    0    0 -0.00000000000E+00 -0.00000000000E+00 -0.45593999997E+02  0.45594000000E+02  0.51100000000E-03 0. -1.
    9900012    2    1    2    0    0  0.10454699101E+01  0.17491876436E-01  0.54767605426E+00  0.90007634650E+02  0.89999894627E+02 0.  0.
         12    1    1    2    0    0 -0.10454699101E+01 -0.17491876436E-01 -0.54767605426E+00  0.11803653499E+01  0.00000000000E+00 0. -1.
         11    1    3    3    0    0 -0.88673260295E+01  0.51419599670E+01 -0.12515970662E+02  0.16177723730E+02  0.51100000000E-03 0. -1.
        -11    1    3    3    0    0 -0.76465471282E+01  0.18228629041E+02 -0.21075158794E+02  0.28894894327E+02  0.51100000000E-03 0.  1.
        -12    1    3    3    0    0  0.17559343068E+02 -0.23353097131E+02  0.34138805510E+02  0.44935016594E+02  0.00000000000E+00 0.  1.
</event>
<event>
 7    1  0.1501154E-015  0.9000746E+02  0.7816164E-02  0.1186340E+00
        -11   -1    0    0    0    0  0.00000000000E+00  0.00000000000E+00  0.45593999997E+02  0.45594000000E+02  0.51100000000E-03 0. -1.
         11   -1    0    0    0    0 -0.00000000000E+00 -0.00000000000E+00 -0.45593999997E+02  0.45594000000E+02  0.51100000000E-03 0.  1.
    9900012    2    1    2    0    0 -0.15636523341E+00  0.10374211753E+01 -0.54127512624E+00  0.90007461333E+02  0.89999719023E+02 0.  0.
         12    1    1    2    0    0  0.15636523341E+00 -0.10374211753E+01  0.54127512624E+00  0.11805386666E+01  0.00000000000E+00 0. -1.
         11    1    3    3    0    0  0.10535985943E+02  0.14958031689E+02  0.26271300511E+02  0.32014542673E+02  0.51100000000E-03 0. -1.
        -11    1    3    3    0    0 -0.35478518698E+01  0.16622125537E+02 -0.42379974738E+00  0.17001820983E+02  0.51100000000E-03 0.  1.
         12    1    3    3    0    0 -0.71444993066E+01 -0.30542736050E+02 -0.26388775890E+02  0.40991097677E+02  0.00000000000E+00 0. -1.
</event>
<event>
 7    1  0.1607233E-015  0.9000777E+02  0.7816164E-02  0.1186339E+00
        -11   -1    0    0    0    0  0.00000000000E+00  0.00000000000E+00  0.45593999997E+02  0.45594000000E+02  0.51100000000E-03 0. -1.
         11   -1    0    0    0    0 -0.00000000000E+00 -0.00000000000E+00 -0.45593999997E+02  0.45594000000E+02  0.51100000000E-03 0.  1.
    9900012    2    1    2    0    0 -0.11367825315E+01 -0.21453037377E+00 -0.23378743464E+00  0.90007765121E+02  0.90000026821E+02 0.  0.
         12    1    1    2    0    0  0.11367825315E+01  0.21453037377E+00  0.23378743464E+00  0.11802348791E+01  0.00000000000E+00 0. -1.
         11    1    3    3    0    0 -0.36424272095E+02  0.14351410713E+02  0.71169940438E-01  0.39149657118E+02  0.51100000000E-03 0. -1.
        -11    1    3    3    0    0 -0.36655339285E+01 -0.31730477508E+01 -0.81870783002E+01  0.95148632341E+01  0.51100000000E-03 0.  1.
        -12    1    3    3    0    0  0.38953023492E+02 -0.11392893336E+02  0.78821209251E+01  0.41343244768E+02  0.00000000000E+00 0.  1.
</event>
<event>
 7    1  0.1501154E-015  0.9000755E+02  0.7816164E-02  0.1186339E+00
        -11   -1    0    0    0    0  0.00000000000E+00  0.00000000000E+00  0.45593999997E+02  0.45594000000E+02  0.51100000000E-03 0.  1.
         11   -1    0    0    0    0 -0.00000000000E+00 -0.00000000000E+00 -0.45593999997E+02  0.45594000000E+02  0.51100000000E-03 0. -1.
    9900012    2    1    2    0    0  0.99676046249E-01  0.10047087564E+01  0.61162690301E+00  0.90007549888E+02  0.89999808746E+02 0.  0.
         12    1    1    2    0    0 -0.99676046249E-01 -0.10047087564E+01 -0.61162690301E+00  0.11804501124E+01  0.00000000000E+00 0. -1.
         11    1    3    3    0    0 -0.62454904183E+01  0.62195566751E+01  0.49784665275E+01  0.10122952387E+02  0.51100000000E-03 0. -1.
        -11    1    3    3    0    0 -0.12831273377E+02  0.30004965596E+02  0.14326486221E+02  0.35639693385E+02  0.51100000000E-03 0.  1.
         12    1    3    3    0    0  0.19176439842E+02 -0.35219813515E+02 -0.18693325845E+02  0.44244904115E+02  0.00000000000E+00 0. -1.
</event>
<event>
 8    1  0.1501154E-015  0.9000775E+02  0.7816164E-02  0.1186339E+00
        -11   -1    0    0    0    0  0.00000000000E+00  0.00000000000E+00  0.45593999997E+02  0.45594000000E+02  0.51100000000E-03 0. -1.
         11   -1    0    0    0    0 -0.00000000000E+00 -0.00000000000E+00 -0.45593999997E+02  0.45594000000E+02  0.51100000000E-03 0.  1.
    9900012    2    1    2    0    0 -0.21023994314E+00  0.94399360354E+00 -0.67650628483E+00  0.90007751928E+02  0.90000013454E+02 0.  0.
         23    2    3    3    0    0  0.82070718062E+01 -0.40072457034E+01  0.23475177924E+02  0.63956461022E+02  0.58787165964E+02 0.  0.
         12    1    1    2    0    0  0.21023994314E+00 -0.94399360354E+00  0.67650628483E+00  0.11802480717E+01  0.00000000000E+00 0. -1.
         11    1    4    4    0    0  0.70276709144E+01 -0.27084687826E+02 -0.37669786563E+01  0.28233997265E+02  0.51100000000E-03 0. -1.
        -11    1    4    4    0    0  0.11794008918E+01  0.23077442123E+02  0.27242156581E+02  0.35722463756E+02  0.51100000000E-03 0.  1.
         12    1    3    3    0    0 -0.84173117493E+01  0.49512393070E+01 -0.24151684209E+02  0.26051290907E+02  0.00000000000E+00 0. -1.
</event>
<event>
 7    1  0.1501154E-015  0.9000778E+02  0.7816164E-02  0.1186339E+00
        -11   -1    0    0    0    0  0.00000000000E+00  0.00000000000E+00  0.45593999997E+02  0.45594000000E+02  0.51100000000E-03 0.  1.
         11   -1    0    0    0    0 -0.00000000000E+00 -0.00000000000E+00 -0.45593999997E+02  0.45594000000E+02  0.51100000000E-03 0. -1.
    9900012    2    1    2    0    0 -0.11172102165E+01  0.33357625694E+00  0.18298891878E+00  0.90007781066E+02  0.90000042976E+02 0.  0.
         12    1    1    2    0    0  0.11172102165E+01 -0.33357625694E+00 -0.18298891878E+00  0.11802189337E+01  0.00000000000E+00 0. -1.
         11    1    3    3    0    0  0.32701423077E+02  0.14259327843E+02 -0.12509035401E+02  0.37804595868E+02  0.51100000000E-03 0. -1.
        -11    1    3    3    0    0 -0.17519122523E+01  0.95767464318E+01 -0.17738199953E+01  0.98959439365E+01  0.51100000000E-03 0.  1.
        -12    1    3    3    0    0 -0.32066721041E+02 -0.23502498018E+02  0.14465844315E+02  0.42307241262E+02  0.00000000000E+00 0.  1.
</event>
<event>
 7    1  0.1501154E-015  0.9000767E+02  0.7816164E-02  0.1186339E+00
        -11   -1    0    0    0    0  0.00000000000E+00  0.00000000000E+00  0.45593999997E+02  0.45594000000E+02  0.51100000000E-03 0. -1.
         11   -1    0    0    0    0 -0.00000000000E+00 -0.00000000000E+00 -0.45593999997E+02  0.45594000000E+02  0.51100000000E-03 0.  1.
    9900012    2    1    2    0    0 -0.75725430604E-02 -0.10204537810E+01 -0.59313210777E+00  0.90007665742E+02  0.89999926130E+02 0.  0.
         12    1    1    2    0    0  0.75725430604E-02  0.10204537810E+01  0.59313210777E+00  0.11803342576E+01  0.00000000000E+00 0. -1.
         11    1    3    3    0    0 -0.87356365601E+01 -0.14344456619E+02 -0.12639377997E+02  0.21019720698E+02  0.51100000000E-03 0. -1.
        -11    1    3    3    0    0 -0.47193948878E+01  0.12908633229E+02 -0.25574554021E+02  0.29033830502E+02  0.51100000000E-03 0.  1.
         12    1    3    3    0    0  0.13447458905E+02  0.41536960892E+00  0.37620799911E+02  0.39954114542E+02  0.00000000000E+00 0. -1.
</event>
<event>
 7    1  0.1501154E-015  0.9000766E+02  0.7816164E-02  0.1186339E+00
        -11   -1    0    0    0    0  0.00000000000E+00  0.00000000000E+00  0.45593999997E+02  0.45594000000E+02  0.51100000000E-03 0.  1.
         11   -1    0    0    0    0 -0.00000000000E+00 -0.00000000000E+00 -0.45593999997E+02  0.45594000000E+02  0.51100000000E-03 0. -1.
    9900012    2    1    2    0    0 -0.21545931145E+00  0.38267427279E+00  0.10956040386E+01  0.90007656608E+02  0.89999916875E+02 0.  0.
         12    1    1    2    0    0  0.21545931145E+00 -0.38267427279E+00 -0.10956040386E+01  0.11803433922E+01  0.00000000000E+00 0. -1.
         11    1    3    3    0    0 -0.13720083039E+02  0.23702358393E+02 -0.23496553927E+02  0.36085045638E+02  0.51100000000E-03 0. -1.
        -11    1    3    3    0    0 -0.25031888800E+01  0.43398410891E+01 -0.72477287721E+01  0.88107745325E+01  0.51100000000E-03 0.  1.
        -12    1    3    3    0    0  0.16007812608E+02 -0.27659525209E+02  0.31839886738E+02  0.45111836437E+02  0.00000000000E+00 0.  1.
</event>
<event>
 7    1  0.1501154E-015  0.9000786E+02  0.7816164E-02  0.1186339E+00
        -11   -1    0    0    0    0  0.00000000000E+00  0.00000000000E+00  0.45593999997E+02  0.45594000000E+02  0.51100000000E-03 0.  1.
         11   -1    0    0    0    0 -0.00000000000E+00 -0.00000000000E+00 -0.45593999997E+02  0.45594000000E+02  0.51100000000E-03 0. -1.
    9900012    2    1    2    0    0 -0.77354426298E+00  0.16168121025E+00 -0.87647452606E+00  0.90007864781E+02  0.90000127796E+02 0.  0.
         12    1    1    2    0    0  0.77354426298E+00 -0.16168121025E+00  0.87647452606E+00  0.11801352191E+01  0.00000000000E+00 0. -1.
         11    1    3    3    0    0  0.14626164498E+01  0.10374575468E+02 -0.48723924736E+01  0.11554707772E+02  0.51100000000E-03 0. -1.
        -11    1    3    3    0    0 -0.11109958254E+02  0.32677419651E+02  0.54450877098E+00  0.34518711122E+02  0.51100000000E-03 0.  1.
         12    1    3    3    0    0  0.88737975414E+01 -0.42890313909E+02  0.34514091765E+01  0.43934445886E+02  0.00000000000E+00 0. -1.
</event>
<event>
 7    1  0.1501154E-015  0.9000776E+02  0.7816164E-02  0.1186339E+00
        -11   -1    0    0    0    0  0.00000000000E+00  0.00000000000E+00  0.45593999997E+02  0.45594000000E+02  0.51100000000E-03 0. -1.
         11   -1    0    0    0    0 -0.00000000000E+00 -0.00000000000E+00 -0.45593999997E+02  0.45594000000E+02  0.51100000000E-03 0.  1.
    9900012    2    1    2    0    0 -0.30370287467E+00 -0.24676236652E+00 -0.11134817342E+01  0.90007759061E+02  0.90000020681E+02 0.  0.
         12    1    1    2    0    0  0.30370287467E+00  0.24676236652E+00  0.11134817342E+01  0.11802409390E+01  0.00000000000E+00 0. -1.
         11    1    3    3    0    0 -0.10093589357E+02  0.31537418859E+02  0.15823649393E+02  0.36699825814E+02  0.51100000000E-03 0. -1.
        -11    1    3    3    0    0 -0.25253933438E+01  0.56917971970E+01 -0.12043375934E+02  0.13557915438E+02  0.51100000000E-03 0.  1.
        -12    1    3    3    0    0  0.12315279826E+02 -0.37475978423E+02 -0.48937551928E+01  0.39750017809E+02  0.00000000000E+00 0.  1.
</event>
<event>
 7    1  0.1501154E-015  0.9000774E+02  0.7816164E-02  0.1186339E+00
        -11   -1    0    0    0    0  0.00000000000E+00  0.00000000000E+00  0.45593999997E+02  0.45594000000E+02  0.51100000000E-03 0. -1.
         11   -1    0    0    0    0 -0.00000000000E+00 -0.00000000000E+00 -0.45593999997E+02  0.45594000000E+02  0.51100000000E-03 0.  1.
    9900012    2    1    2    0    0  0.95064942720E+00  0.69888345848E+00  0.29003430459E-01  0.90007740020E+02  0.90000001388E+02 0.  0.
         12    1    1    2    0    0 -0.95064942720E+00 -0.69888345848E+00 -0.29003430459E-01  0.11802599802E+01  0.00000000000E+00 0. -1.
         11    1    3    3    0    0  0.56719580324E+01 -0.17966635790E+02  0.35223775656E+02  0.39946032109E+02  0.51100000000E-03 0. -1.
        -11    1    3    3    0    0  0.63634921439E+01 -0.54326965518E+01 -0.45240006789E+01  0.95118245617E+01  0.51100000000E-03 0.  1.
        -12    1    3    3    0    0 -0.11084800749E+02  0.24098215800E+02 -0.30670771546E+02  0.40549883349E+02  0.00000000000E+00 0.  1.
</event>
<event>
 7    1  0.1501154E-015  0.9000774E+02  0.7816164E-02  0.1186339E+00
        -11   -1    0    0    0    0  0.00000000000E+00  0.00000000000E+00  0.45593999997E+02  0.45594000000E+02  0.51100000000E-03 0. -1.
         11   -1    0    0    0    0 -0.00000000000E+00 -0.00000000000E+00 -0.45593999997E+02  0.45594000000E+02  0.51100000000E-03 0.  1.
    9900012    2    1    2    0    0 -0.11262970654E+00  0.11740090757E+01 -0.44952710700E-01  0.90007744304E+02  0.90000005729E+02 0.  0.
         12    1    1    2    0    0  0.11262970654E+00 -0.11740090757E+01  0.44952710700E-01  0.11802556955E+01  0.00000000000E+00 0. -1.
         11    1    3    3    0    0  0.63638752356E+01 -0.15947002192E+01  0.64873764720E+01  0.92264852763E+01  0.51100000000E-03 0. -1.
        -11    1    3    3    0    0  0.19276778472E+02 -0.12187492709E+02 -0.33552179711E+02  0.40569421125E+02  0.51100000000E-03 0.  1.
         12    1    3    3    0    0 -0.25753283415E+02  0.14956202003E+02  0.27019850528E+02  0.40211837903E+02  0.00000000000E+00 0. -1.
</event>
<event>
 7    1  0.1501154E-015  0.9000769E+02  0.7816164E-02  0.1186339E+00
        -11   -1    0    0    0    0  0.00000000000E+00  0.00000000000E+00  0.45593999997E+02  0.45594000000E+02  0.51100000000E-03 0.  1.
         11   -1    0    0    0    0 -0.00000000000E+00 -0.00000000000E+00 -0.45593999997E+02  0.45594000000E+02  0.51100000000E-03 0. -1.
    9900012    2    1    2    0    0  0.49408097980E+00 -0.91940973281E+00  0.55109957578E+00  0.90007686053E+02  0.89999946709E+02 0.  0.
         12    1    1    2    0    0 -0.49408097980E+00  0.91940973281E+00 -0.55109957578E+00  0.11803139471E+01  0.00000000000E+00 0. -1.
         11    1    3    3    0    0 -0.20235699463E+02  0.13036562020E+02 -0.15338129266E+02  0.28542839587E+02  0.51100000000E-03 0. -1.
        -11    1    3    3    0    0  0.10342988637E+02  0.13363122364E+02  0.25593540101E+02  0.30668872631E+02  0.51100000000E-03 0.  1.
         12    1    3    3    0    0  0.10386791806E+02 -0.27319094117E+02 -0.97043112594E+01  0.30795973835E+02  0.00000000000E+00 0. -1.
</event>
<event>
 7    1  0.1501154E-015  0.9000763E+02  0.7816164E-02  0.1186339E+00
        -11   -1    0    0    0    0  0.00000000000E+00  0.00000000000E+00  0.45593999997E+02  0.45594000000E+02  0.51100000000E-03 0.  1.
         11   -1    0    0    0    0 -0.00000000000E+00 -0.00000000000E+00 -0.45593999997E+02  0.45594000000E+02  0.51100000000E-03 0. -1.
    9900012    2    1    2    0    0  0.81251836039E+00  0.55612210156E+00  0.65101148511E+00  0.90007629790E+02  0.89999889704E+02 0.  0.
         12    1    1    2    0    0 -0.81251836039E+00 -0.55612210156E+00 -0.65101148511E+00  0.11803702095E+01  0.00000000000E+00 0. -1.
         11    1    3    3    0    0  0.30054431646E+00 -0.85231803360E+01 -0.40175831395E+02  0.41071064735E+02  0.51100000000E-03 0. -1.
        -11    1    3    3    0    0  0.81269562231E+01 -0.13390001591E+01  0.26729020698E+01  0.86593732229E+01  0.51100000000E-03 0.  1.
        -12    1    3    3    0    0 -0.76149821791E+01  0.10418302597E+02  0.38153940810E+02  0.40277191833E+02  0.00000000000E+00 0.  1.
</event>
<event>
 7    1  0.1501154E-015  0.9000792E+02  0.7816164E-02  0.1186339E+00
        -11   -1    0    0    0    0  0.00000000000E+00  0.00000000000E+00  0.45593999997E+02  0.45594000000E+02  0.51100000000E-03 0.  1.
         11   -1    0    0    0    0 -0.00000000000E+00 -0.00000000000E+00 -0.45593999997E+02  0.45594000000E+02  0.51100000000E-03 0. -1.
    9900012    2    1    2    0    0 -0.51249132764E+00 -0.81936710027E+00 -0.67719084137E+00  0.90007916426E+02  0.90000180123E+02 0.  0.
         12    1    1    2    0    0  0.51249132764E+00  0.81936710027E+00  0.67719084137E+00  0.11800835740E+01  0.00000000000E+00 0. -1.
         11    1    3    3    0    0 -0.25796640960E+00  0.68831092673E+00 -0.11990247916E+02  0.12012758383E+02  0.51100000000E-03 0. -1.
        -11    1    3    3    0    0  0.31480703120E+02  0.93377999355E+01  0.25505622181E+02  0.41578431184E+02  0.51100000000E-03 0.  1.
         12    1    3    3    0    0 -0.31735228038E+02 -0.10845477962E+02 -0.14192565106E+02  0.36416726860E+02  0.00000000000E+00 0. -1.
</event>
<event>
 7    1  0.1501154E-015  0.9000772E+02  0.7816164E-02  0.1186339E+00
        -11   -1    0    0    0    0  0.00000000000E+00  0.00000000000E+00  0.45593999997E+02  0.45594000000E+02  0.51100000000E-03 0.  1.
         11   -1    0    0    0    0 -0.00000000000E+00 -0.00000000000E+00 -0.45593999997E+02  0.45594000000E+02  0.51100000000E-03 0. -1.
    9900012    2    1    2    0    0  0.37912283784E-01 -0.76680954743E+00  0.89644786083E+00  0.90007723342E+02  0.89999984490E+02 0.  0.
         12    1    1    2    0    0 -0.37912283784E-01  0.76680954743E+00 -0.89644786083E+00  0.11802766584E+01  0.00000000000E+00 0. -1.
         11    1    3    3    0    0  0.12616782046E+02  0.74610698851E+01  0.12650930574E+02  0.19362251875E+02  0.51100000000E-03 0. -1.
        -11    1    3    3    0    0  0.10354672479E+01 -0.19666811341E+02  0.23800329833E+02  0.30891930357E+02  0.51100000000E-03 0.  1.
         12    1    3    3    0    0 -0.13614337011E+02  0.11438931909E+02 -0.35554812547E+02  0.39753541109E+02  0.00000000000E+00 0. -1.
</event>
<event>
 7    1  0.1501154E-015  0.9000770E+02  0.7816164E-02  0.1186339E+00
        -11   -1    0    0    0    0  0.00000000000E+00  0.00000000000E+00  0.45593999997E+02  0.45594000000E+02  0.51100000000E-03 0.  1.
         11   -1    0    0    0    0 -0.00000000000E+00 -0.00000000000E+00 -0.45593999997E+02  0.45594000000E+02  0.51100000000E-03 0. -1.
    9900012    2    1    2    0    0 -0.10932498299E+01  0.26118893066E+00  0.36012955591E+00  0.90007699977E+02  0.89999960816E+02 0.  0.
         12    1    1    2    0    0  0.10932498299E+01 -0.26118893066E+00 -0.36012955591E+00  0.11803000233E+01  0.00000000000E+00 0. -1.
         11    1    3    3    0    0 -0.28934576263E+01 -0.41002534177E+01 -0.82902508630E+01  0.96908428301E+01  0.51100000000E-03 0. -1.
        -11    1    3    3    0    0  0.35031642511E+02 -0.17458558359E+02  0.10480989947E+02  0.40519975167E+02  0.51100000000E-03 0.  1.
         12    1    3    3    0    0 -0.33231434714E+02  0.21820000708E+02 -0.18306095282E+01  0.39796881980E+02  0.00000000000E+00 0. -1.
</event>
<event>
 7    1  0.1501154E-015  0.9000776E+02  0.7816164E-02  0.1186339E+00
        -11   -1    0    0    0    0  0.00000000000E+00  0.00000000000E+00  0.45593999997E+02  0.45594000000E+02  0.51100000000E-03 0.  1.
         11   -1    0    0    0    0 -0.00000000000E+00 -0.00000000000E+00 -0.45593999997E+02  0.45594000000E+02  0.51100000000E-03 0. -1.
    9900012    2    1    2    0    0 -0.66188014192E+00 -0.57990975900E+00  0.78649628010E+00  0.90007763986E+02  0.90000025670E+02 0.  0.
         12    1    1    2    0    0  0.66188014192E+00  0.57990975900E+00 -0.78649628010E+00  0.11802360143E+01  0.00000000000E+00 0. -1.
         11    1    3    3    0    0 -0.27004125712E+01 -0.74337848884E+01 -0.35099935902E+02  0.35979978966E+02  0.51100000000E-03 0. -1.
        -11    1    3    3    0    0 -0.38545679213E+01 -0.72242118933E+00 -0.81036585196E+01  0.90027144739E+01  0.51100000000E-03 0.  1.
        -12    1    3    3    0    0  0.58931003506E+01  0.75762963188E+01  0.43990090702E+02  0.45025070545E+02  0.00000000000E+00 0.  1.
</event>
<event>
 7    1  0.1501154E-015  0.9000765E+02  0.7816164E-02  0.1186339E+00
        -11   -1    0    0    0    0  0.00000000000E+00  0.00000000000E+00  0.45593999997E+02  0.45594000000E+02  0.51100000000E-03 0. -1.
         11   -1    0    0    0    0 -0.00000000000E+00 -0.00000000000E+00 -0.45593999997E+02  0.45594000000E+02  0.51100000000E-03 0.  1.
    9900012    2    1    2    0    0 -0.34915325571E+00 -0.96344007495E+00 -0.58573910812E+00  0.90007654679E+02  0.89999914921E+02 0.  0.
         12    1    1    2    0    0  0.34915325571E+00  0.96344007495E+00  0.58573910812E+00  0.11803453210E+01  0.00000000000E+00 0. -1.
         11    1    3    3    0    0  0.71059632568E+00  0.69492889692E+01 -0.42533796610E+01  0.81785575206E+01  0.51100000000E-03 0. -1.
        -11    1    3    3    0    0  0.20113033452E+02  0.27228282898E+02 -0.14666837756E+02  0.36892135127E+02  0.51100000000E-03 0.  1.
         12    1    3    3    0    0 -0.21172783033E+02 -0.35141011942E+02  0.18334478309E+02  0.44936962031E+02  0.00000000000E+00 0. -1.
</event>
<event>
 7    1  0.1501154E-015  0.9000772E+02  0.7816164E-02  0.1186339E+00
        -11   -1    0    0    0    0  0.00000000000E+00  0.00000000000E+00  0.45593999997E+02  0.45594000000E+02  0.51100000000E-03 0.  1.
         11   -1    0    0    0    0 -0.00000000000E+00 -0.00000000000E+00 -0.45593999997E+02  0.45594000000E+02  0.51100000000E-03 0. -1.
    9900012    2    1    2    0    0  0.53349179239E+00  0.40277487822E+00  0.97273225574E+00  0.90007724974E+02  0.89999986144E+02 0.  0.
         12    1    1    2    0    0 -0.53349179239E+00 -0.40277487822E+00 -0.97273225574E+00  0.11802750258E+01  0.00000000000E+00 0. -1.
         11    1    3    3    0    0  0.52520685563E+01 -0.28193413737E+02 -0.25476368682E+02  0.38360111624E+02  0.51100000000E-03 0. -1.
        -11    1    3    3    0    0  0.40907211427E+00 -0.76920909970E+01  0.50029552457E+01  0.91850511894E+01  0.51100000000E-03 0.  1.
        -12    1    3    3    0    0 -0.51276488782E+01  0.36288279612E+02  0.21446145693E+02  0.42462562161E+02  0.00000000000E+00 0.  1.
</event>
<event>
 7    1  0.1501154E-015  0.9000769E+02  0.7816164E-02  0.1186339E+00
        -11   -1    0    0    0    0  0.00000000000E+00  0.00000000000E+00  0.45593999997E+02  0.45594000000E+02  0.51100000000E-03 0.  1.
         11   -1    0    0    0    0 -0.00000000000E+00 -0.00000000000E+00 -0.45593999997E+02  0.45594000000E+02  0.51100000000E-03 0. -1.
    9900012    2    1    2    0    0 -0.92299903730E-02 -0.11019971056E+01 -0.42268221454E+00  0.90007685183E+02  0.89999945827E+02 0.  0.
         12    1    1    2    0    0  0.92299903730E-02  0.11019971056E+01  0.42268221454E+00  0.11803148173E+01  0.00000000000E+00 0. -1.
         11    1    3    3    0    0 -0.42296624707E+01  0.22805218145E+01 -0.59195531518E+01  0.76244300863E+01  0.51100000000E-03 0. -1.
        -11    1    3    3    0    0 -0.13478986009E+01 -0.32526147214E+02  0.29720227626E+02  0.44080143076E+02  0.51100000000E-03 0.  1.
         12    1    3    3    0    0  0.55683310812E+01  0.29143628294E+02 -0.24223356689E+02  0.38303112020E+02  0.00000000000E+00 0. -1.
</event>
<event>
 7    1  0.1501154E-015  0.9000784E+02  0.7816164E-02  0.1186339E+00
        -11   -1    0    0    0    0  0.00000000000E+00  0.00000000000E+00  0.45593999997E+02  0.45594000000E+02  0.51100000000E-03 0.  1.
         11   -1    0    0    0    0 -0.00000000000E+00 -0.00000000000E+00 -0.45593999997E+02  0.45594000000E+02  0.51100000000E-03 0. -1.
    9900012    2    1    2    0    0  0.59517639966E+00  0.97108376799E+00  0.30909068306E+00  0.90007840824E+02  0.90000103522E+02 0.  0.
         12    1    1    2    0    0 -0.59517639966E+00 -0.97108376799E+00 -0.30909068306E+00  0.11801591764E+01  0.00000000000E+00 0. -1.
         11    1    3    3    0    0  0.18566121569E+00 -0.20337962806E+02 -0.33934125011E+02  0.39562508031E+02  0.51100000000E-03 0. -1.
        -11    1    3    3    0    0 -0.50969121993E+01 -0.63104204437E+01  0.37505794847E+01  0.89368208484E+01  0.51100000000E-03 0.  1.
        -12    1    3    3    0    0  0.55064273833E+01  0.27619467017E+02  0.30492636209E+02  0.41508511944E+02  0.00000000000E+00 0.  1.
</event>
<event>
 7    1  0.1501154E-015  0.9000769E+02  0.7816164E-02  0.1186339E+00
        -11   -1    0    0    0    0  0.00000000000E+00  0.00000000000E+00  0.45593999997E+02  0.45594000000E+02  0.51100000000E-03 0.  1.
         11   -1    0    0    0    0 -0.00000000000E+00 -0.00000000000E+00 -0.45593999997E+02  0.45594000000E+02  0.51100000000E-03 0. -1.
    9900012    2    1    2    0    0  0.28688196706E-01 -0.11074309657E+01  0.40730687387E+00  0.90007692732E+02  0.89999953476E+02 0.  0.
         12    1    1    2    0    0 -0.28688196706E-01  0.11074309657E+01 -0.40730687387E+00  0.11803072676E+01  0.00000000000E+00 0. -1.
         11    1    3    3    0    0  0.37117492180E+00 -0.56077362536E+01 -0.75938533550E+01  0.94472792777E+01  0.51100000000E-03 0. -1.
        -11    1    3    3    0    0 -0.11731792517E+02 -0.31046453478E+02 -0.15312454188E+02  0.36551176216E+02  0.51100000000E-03 0.  1.
         12    1    3    3    0    0  0.11389305792E+02  0.35546758766E+02  0.23313614416E+02  0.44009237239E+02  0.00000000000E+00 0. -1.
</event>
<event>
 7    1  0.1501154E-015  0.9000775E+02  0.7816164E-02  0.1186339E+00
        -11   -1    0    0    0    0  0.00000000000E+00  0.00000000000E+00  0.45593999997E+02  0.45594000000E+02  0.51100000000E-03 0.  1.
         11   -1    0    0    0    0 -0.00000000000E+00 -0.00000000000E+00 -0.45593999997E+02  0.45594000000E+02  0.51100000000E-03 0. -1.
    9900012    2    1    2    0    0  0.43532201734E+00 -0.14413979281E+00  0.10875291665E+01  0.90007745270E+02  0.90000006708E+02 0.  0.
         12    1    1    2    0    0 -0.43532201734E+00  0.14413979281E+00 -0.10875291665E+01  0.11802547296E+01  0.00000000000E+00 0. -1.
         11    1    3    3    0    0 -0.25942383871E+00  0.87446880562E+01  0.27486259623E+01  0.91701589337E+01  0.51100000000E-03 0. -1.
        -11    1    3    3    0    0  0.54831642565E+01  0.13283423929E+02  0.34938623172E+02  0.37778589584E+02  0.51100000000E-03 0.  1.
         12    1    3    3    0    0 -0.47884184004E+01 -0.22172251778E+02 -0.36599719968E+02  0.43058996753E+02  0.00000000000E+00 0. -1.
</event>
<event>
 7    1  0.1501154E-015  0.9000778E+02  0.7816164E-02  0.1186339E+00
        -11   -1    0    0    0    0  0.00000000000E+00  0.00000000000E+00  0.45593999997E+02  0.45594000000E+02  0.51100000000E-03 0. -1.
         11   -1    0    0    0    0 -0.00000000000E+00 -0.00000000000E+00 -0.45593999997E+02  0.45594000000E+02  0.51100000000E-03 0.  1.
    9900012    2    1    2    0    0  0.99427052861E+00 -0.21875274455E-01 -0.63551250284E+00  0.90007776058E+02  0.90000037902E+02 0.  0.
         12    1    1    2    0    0 -0.99427052861E+00  0.21875274455E-01  0.63551250284E+00  0.11802239419E+01  0.00000000000E+00 0. -1.
         11    1    3    3    0    0  0.76311012190E+01  0.46529077810E+01 -0.49546787096E+01  0.10219202416E+02  0.51100000000E-03 0. -1.
        -11    1    3    3    0    0  0.13880859095E+02  0.23692124060E+02  0.26648791510E+02  0.38264253304E+02  0.51100000000E-03 0.  1.
         12    1    3    3    0    0 -0.20517689785E+02 -0.28366907115E+02 -0.22329625303E+02  0.41524320339E+02  0.00000000000E+00 0. -1.
</event>
<event>
 7    1  0.1501154E-015  0.9000773E+02  0.7816164E-02  0.1186339E+00
        -11   -1    0    0    0    0  0.00000000000E+00  0.00000000000E+00  0.45593999997E+02  0.45594000000E+02  0.51100000000E-03 0.  1.
         11   -1    0    0    0    0 -0.00000000000E+00 -0.00000000000E+00 -0.45593999997E+02  0.45594000000E+02  0.51100000000E-03 0. -1.
    9900012    2    1    2    0    0 -0.71888750386E+00 -0.93562565687E+00 -0.28947561143E-01  0.90007731990E+02  0.89999993253E+02 0.  0.
         12    1    1    2    0    0  0.71888750386E+00  0.93562565687E+00  0.28947561143E-01  0.11802680095E+01  0.00000000000E+00 0. -1.
         11    1    3    3    0    0  0.55176139942E+01  0.26442021102E+02 -0.26790311642E+02  0.38043992197E+02  0.51100000000E-03 0. -1.
        -11    1    3    3    0    0  0.88486808951E+01 -0.96319390226E+00 -0.30144039466E+01  0.93975277330E+01  0.51100000000E-03 0.  1.
        -12    1    3    3    0    0 -0.15085182393E+02 -0.26414452857E+02  0.29775768028E+02  0.42566212060E+02  0.00000000000E+00 0.  1.
</event>
<event>
 7    1  0.1501154E-015  0.9000773E+02  0.7816164E-02  0.1186339E+00
        -11   -1    0    0    0    0  0.00000000000E+00  0.00000000000E+00  0.45593999997E+02  0.45594000000E+02  0.51100000000E-03 0.  1.
         11   -1    0    0    0    0 -0.00000000000E+00 -0.00000000000E+00 -0.45593999997E+02  0.45594000000E+02  0.51100000000E-03 0. -1.
    9900012    2    1    2    0    0 -0.63758099017E+00 -0.38838000118E+00  0.91415421647E+00  0.90007734574E+02  0.89999995870E+02 0.  0.
         12    1    1    2    0    0  0.63758099017E+00  0.38838000118E+00 -0.91415421647E+00  0.11802654260E+01  0.00000000000E+00 0. -1.
         11    1    3    3    0    0  0.65310874886E+01  0.45657181901E+01 -0.39734043251E+01  0.89044274699E+01  0.51100000000E-03 0. -1.
        -11    1    3    3    0    0  0.54751076139E+01 -0.41714980825E+02  0.19483121154E+01  0.42117838845E+02  0.51100000000E-03 0.  1.
         12    1    3    3    0    0 -0.12643776093E+02  0.36760882633E+02  0.29392464262E+01  0.38985468260E+02  0.00000000000E+00 0. -1.
</event>
<event>
 7    1  0.1501154E-015  0.9000774E+02  0.7816164E-02  0.1186339E+00
        -11   -1    0    0    0    0  0.00000000000E+00  0.00000000000E+00  0.45593999997E+02  0.45594000000E+02  0.51100000000E-03 0. -1.
         11   -1    0    0    0    0 -0.00000000000E+00 -0.00000000000E+00 -0.45593999997E+02  0.45594000000E+02  0.51100000000E-03 0.  1.
    9900012    2    1    2    0    0  0.82977031229E+00 -0.31395230648E+00 -0.77842099762E+00  0.90007735593E+02  0.89999996902E+02 0.  0.
         12    1    1    2    0    0 -0.82977031229E+00  0.31395230648E+00  0.77842099762E+00  0.11802644074E+01  0.00000000000E+00 0. -1.
         11    1    3    3    0    0 -0.93047734367E+01 -0.16207303855E+01  0.32299335118E+01  0.99818859161E+01  0.51100000000E-03 0. -1.
        -11    1    3    3    0    0 -0.83639838592E+01 -0.35062999996E+02  0.90826126013E+01  0.37173431999E+02  0.51100000000E-03 0.  1.
         12    1    3    3    0    0  0.18498527608E+02  0.36369778075E+02 -0.13090967111E+02  0.42852417677E+02  0.00000000000E+00 0. -1.
</event>
<event>
 7    1  0.1501154E-015  0.9000762E+02  0.7816164E-02  0.1186339E+00
        -11   -1    0    0    0    0  0.00000000000E+00  0.00000000000E+00  0.45593999997E+02  0.45594000000E+02  0.51100000000E-03 0.  1.
         11   -1    0    0    0    0 -0.00000000000E+00 -0.00000000000E+00 -0.45593999997E+02  0.45594000000E+02  0.51100000000E-03 0. -1.
    9900012    2    1    2    0    0 -0.11666235400E+01  0.16936585408E+00 -0.59987659247E-01  0.90007621334E+02  0.89999881135E+02 0.  0.
         12    1    1    2    0    0  0.11666235400E+01 -0.16936585408E+00  0.59987659247E-01  0.11803786663E+01  0.00000000000E+00 0. -1.
         11    1    3    3    0    0 -0.23031416285E+02 -0.19533980942E+02 -0.16115295584E+02  0.34230473260E+02  0.51100000000E-03 0. -1.
        -11    1    3    3    0    0 -0.11409112467E+02  0.17018450307E+00 -0.42505892406E+01  0.12176383667E+02  0.51100000000E-03 0.  1.
        -12    1    3    3    0    0  0.33273905212E+02  0.19533162293E+02  0.20305897166E+02  0.43600764407E+02  0.00000000000E+00 0.  1.
</event>
<event>
 7    1  0.1501154E-015  0.9000767E+02  0.7816164E-02  0.1186339E+00
        -11   -1    0    0    0    0  0.00000000000E+00  0.00000000000E+00  0.45593999997E+02  0.45594000000E+02  0.51100000000E-03 0.  1.
         11   -1    0    0    0    0 -0.00000000000E+00 -0.00000000000E+00 -0.45593999997E+02  0.45594000000E+02  0.51100000000E-03 0. -1.
    9900012    2    1    2    0    0 -0.40741227202E+00 -0.53849636686E+00  0.96810073378E+00  0.90007668637E+02  0.89999929063E+02 0.  0.
         12    1    1    2    0    0  0.40741227202E+00  0.53849636686E+00 -0.96810073378E+00  0.11803313633E+01  0.00000000000E+00 0. -1.
         11    1    3    3    0    0 -0.21331669971E+02 -0.19371308188E+02 -0.85969230473E+01  0.30069832237E+02  0.51100000000E-03 0. -1.
        -11    1    3    3    0    0 -0.99010879000E+01 -0.11991963025E+02  0.17448808764E+01  0.15648748459E+02  0.51100000000E-03 0.  1.
        -12    1    3    3    0    0  0.30825345599E+02  0.30824774846E+02  0.78201429047E+01  0.44289087941E+02  0.00000000000E+00 0.  1.
</event>
<event>
 7    1  0.1501154E-015  0.9000774E+02  0.7816164E-02  0.1186339E+00
        -11   -1    0    0    0    0  0.00000000000E+00  0.00000000000E+00  0.45593999997E+02  0.45594000000E+02  0.51100000000E-03 0. -1.
         11   -1    0    0    0    0 -0.00000000000E+00 -0.00000000000E+00 -0.45593999997E+02  0.45594000000E+02  0.51100000000E-03 0.  1.
    9900012    2    1    2    0    0 -0.57271748643E+00 -0.10265286806E+01 -0.10608743060E+00  0.90007736896E+02  0.89999998223E+02 0.  0.
         12    1    1    2    0    0  0.57271748643E+00  0.10265286806E+01  0.10608743060E+00  0.11802631039E+01  0.00000000000E+00 0. -1.
         11    1    3    3    0    0  0.28139304435E+01  0.40375611368E+02  0.11223899160E+01  0.40489109119E+02  0.51100000000E-03 0. -1.
        -11    1    3    3    0    0  0.10367708387E+02 -0.10042592092E+02 -0.45002878676E+01  0.15119379097E+02  0.51100000000E-03 0.  1.
        -12    1    3    3    0    0 -0.13754356317E+02 -0.31359547956E+02  0.32718105210E+01  0.34399248680E+02  0.00000000000E+00 0.  1.
</event>
<event>
 7    1  0.1764451E-015  0.9000755E+02  0.7816164E-02  0.1186339E+00
        -11   -1    0    0    0    0  0.00000000000E+00  0.00000000000E+00  0.45593999997E+02  0.45594000000E+02  0.51100000000E-03 0.  1.
         11   -1    0    0    0    0 -0.00000000000E+00 -0.00000000000E+00 -0.45593999997E+02  0.45594000000E+02  0.51100000000E-03 0. -1.
    9900012    2    1    2    0    0 -0.11741246904E+01 -0.10505120926E+00 -0.62105414030E-01  0.90007550243E+02  0.89999809106E+02 0.  0.
         12    1    1    2    0    0  0.11741246904E+01  0.10505120926E+00  0.62105414030E-01  0.11804497565E+01  0.00000000000E+00 0. -1.
         11    1    3    3    0    0 -0.42365628592E+00 -0.16801269540E+02 -0.32884041368E+02  0.36929965065E+02  0.51100000000E-03 0. -1.
        -11    1    3    3    0    0 -0.34710436138E+01  0.30277242691E+01 -0.83909763744E+01  0.95720291890E+01  0.51100000000E-03 0.  1.
        -12    1    3    3    0    0  0.27205752093E+01  0.13668494061E+02  0.41212912328E+02  0.43505555989E+02  0.00000000000E+00 0.  1.
</event>
<event>
 7    1  0.1501154E-015  0.9000773E+02  0.7816164E-02  0.1186339E+00
        -11   -1    0    0    0    0  0.00000000000E+00  0.00000000000E+00  0.45593999997E+02  0.45594000000E+02  0.51100000000E-03 0.  1.
         11   -1    0    0    0    0 -0.00000000000E+00 -0.00000000000E+00 -0.45593999997E+02  0.45594000000E+02  0.51100000000E-03 0. -1.
    9900012    2    1    2    0    0 -0.22637117696E+00  0.11030626914E+01  0.35360638097E+00  0.90007733639E+02  0.89999994923E+02 0.  0.
         12    1    1    2    0    0  0.22637117696E+00 -0.11030626914E+01 -0.35360638097E+00  0.11802663613E+01  0.00000000000E+00 0. -1.
         11    1    3    3    0    0 -0.97337881871E+00  0.25164074129E+02 -0.28881231151E+02  0.38318449944E+02  0.51100000000E-03 0. -1.
        -11    1    3    3    0    0  0.88348880050E+00  0.61312808960E+01 -0.35338277310E+01  0.71316966130E+01  0.51100000000E-03 0.  1.
        -12    1    3    3    0    0 -0.13648115874E+00 -0.30192292333E+02  0.32768665263E+02  0.44557587082E+02  0.00000000000E+00 0.  1.
</event>
<event>
 7    1  0.1501154E-015  0.9000756E+02  0.7816164E-02  0.1186339E+00
        -11   -1    0    0    0    0  0.00000000000E+00  0.00000000000E+00  0.45593999997E+02  0.45594000000E+02  0.51100000000E-03 0.  1.
         11   -1    0    0    0    0 -0.00000000000E+00 -0.00000000000E+00 -0.45593999997E+02  0.45594000000E+02  0.51100000000E-03 0. -1.
    9900012    2    1    2    0    0 -0.79018896585E+00 -0.16852328784E+00  0.86060029442E+00  0.90007562976E+02  0.89999822007E+02 0.  0.
         12    1    1    2    0    0  0.79018896585E+00  0.16852328784E+00 -0.86060029442E+00  0.11804370238E+01  0.00000000000E+00 0. -1.
         11    1    3    3    0    0 -0.13725270147E+02  0.30601572268E+02 -0.21650516724E+02  0.39919721198E+02  0.51100000000E-03 0. -1.
        -11    1    3    3    0    0  0.58447892420E+01  0.26522732485E+01 -0.33478895981E+01  0.72390938445E+01  0.51100000000E-03 0.  1.
        -12    1    3    3    0    0  0.70902919387E+01 -0.33422368804E+02  0.25859006617E+02  0.42848747933E+02  0.00000000000E+00 0.  1.
</event>
<event>
 7    1  0.1501154E-015  0.9000769E+02  0.7816164E-02  0.1186339E+00
        -11   -1    0    0    0    0  0.00000000000E+00  0.00000000000E+00  0.45593999997E+02  0.45594000000E+02  0.51100000000E-03 0. -1.
         11   -1    0    0    0    0 -0.00000000000E+00 -0.00000000000E+00 -0.45593999997E+02  0.45594000000E+02  0.51100000000E-03 0.  1.
    9900012    2    1    2    0    0  0.56217735158E+00  0.89430568674E+00 -0.52659965114E+00  0.90007689351E+02  0.89999950050E+02 0.  0.
         12    1    1    2    0    0 -0.56217735158E+00 -0.89430568674E+00  0.52659965114E+00  0.11803106492E+01  0.00000000000E+00 0. -1.
         11    1    3    3    0    0  0.63109084069E+01  0.16167345165E+02  0.30019527250E+02  0.34675389417E+02  0.51100000000E-03 0. -1.
        -11    1    3    3    0    0  0.43440601451E+01 -0.18799402374E+02  0.35329806942E+01  0.19615563745E+02  0.51100000000E-03 0.  1.
        -12    1    3    3    0    0 -0.10092791200E+02  0.35263628957E+01 -0.34079107596E+02  0.35716736189E+02  0.00000000000E+00 0.  1.
</event>
<event>
 7    1  0.1501154E-015  0.9000758E+02  0.7816164E-02  0.1186339E+00
        -11   -1    0    0    0    0  0.00000000000E+00  0.00000000000E+00  0.45593999997E+02  0.45594000000E+02  0.51100000000E-03 0. -1.
         11   -1    0    0    0    0 -0.00000000000E+00 -0.00000000000E+00 -0.45593999997E+02  0.45594000000E+02  0.51100000000E-03 0.  1.
    9900012    2    1    2    0    0  0.40944920316E-01 -0.32237819167E+00 -0.11348038681E+01  0.90007583123E+02  0.89999842420E+02 0.  0.
         12    1    1    2    0    0 -0.40944920316E-01  0.32237819167E+00  0.11348038681E+01  0.11804168772E+01  0.00000000000E+00 0. -1.
         11    1    3    3    0    0 -0.14764763889E+01  0.81780085191E+01  0.31081370561E+01  0.88724473560E+01  0.51100000000E-03 0. -1.
        -11    1    3    3    0    0 -0.18393131650E+02  0.30754233929E+02  0.49351817478E+01  0.36173003961E+02  0.51100000000E-03 0.  1.
         12    1    3    3    0    0  0.19910552959E+02 -0.39254620640E+02 -0.91781226719E+01  0.44962131805E+02  0.00000000000E+00 0. -1.
</event>
<event>
 7    1  0.1501154E-015  0.9000768E+02  0.7816164E-02  0.1186339E+00
        -11   -1    0    0    0    0  0.00000000000E+00  0.00000000000E+00  0.45593999997E+02  0.45594000000E+02  0.51100000000E-03 0. -1.
         11   -1    0    0    0    0 -0.00000000000E+00 -0.00000000000E+00 -0.45593999997E+02  0.45594000000E+02  0.51100000000E-03 0.  1.
    9900012    2    1    2    0    0  0.43522839812E+00 -0.30401142529E+00 -0.10541829029E+01  0.90007682967E+02  0.89999943582E+02 0.  0.
         12    1    1    2    0    0 -0.43522839812E+00  0.30401142529E+00  0.10541829029E+01  0.11803170329E+01  0.00000000000E+00 0. -1.
         11    1    3    3    0    0  0.19875075523E+01  0.35760840901E+02 -0.23721006425E+02  0.42958981299E+02  0.51100000000E-03 0. -1.
        -11    1    3    3    0    0  0.70163674246E+01 -0.41377714963E+01  0.51562512535E+01  0.96404093296E+01  0.51100000000E-03 0.  1.
        -12    1    3    3    0    0 -0.85686465788E+01 -0.31927080830E+02  0.17510572269E+02  0.37408292338E+02  0.00000000000E+00 0.  1.
</event>
<event>
 7    1  0.1501154E-015  0.9000747E+02  0.7816164E-02  0.1186340E+00
        -11   -1    0    0    0    0  0.00000000000E+00  0.00000000000E+00  0.45593999997E+02  0.45594000000E+02  0.51100000000E-03 0.  1.
         11   -1    0    0    0    0 -0.00000000000E+00 -0.00000000000E+00 -0.45593999997E+02  0.45594000000E+02  0.51100000000E-03 0. -1.
    9900012    2    1    2    0    0 -0.60350786592E+00 -0.50485906166E+00  0.88007987079E+00  0.90007472577E+02  0.89999730415E+02 0.  0.
         12    1    1    2    0    0  0.60350786592E+00  0.50485906166E+00 -0.88007987079E+00  0.11805274225E+01  0.00000000000E+00 0. -1.
         11    1    3    3    0    0 -0.16454866874E+02 -0.87059482227E+01 -0.34195079121E+02  0.38934041848E+02  0.51100000000E-03 0. -1.
        -11    1    3    3    0    0  0.91452388005E+01  0.30985909590E+01 -0.44700436968E+01  0.10640392359E+02  0.51100000000E-03 0.  1.
        -12    1    3    3    0    0  0.67061202074E+01  0.51024982020E+01  0.39545202688E+02  0.40433038370E+02  0.00000000000E+00 0.  1.
</event>
<event>
 7    1  0.1881280E-015  0.9000777E+02  0.7816164E-02  0.1186339E+00
        -11   -1    0    0    0    0  0.00000000000E+00  0.00000000000E+00  0.45593999997E+02  0.45594000000E+02  0.51100000000E-03 0. -1.
         11   -1    0    0    0    0 -0.00000000000E+00 -0.00000000000E+00 -0.45593999997E+02  0.45594000000E+02  0.51100000000E-03 0.  1.
    9900012    2    1    2    0    0 -0.97631878146E+00 -0.12509302936E+00 -0.65123544069E+00  0.90007765181E+02  0.90000026881E+02 0.  0.
         12    1    1    2    0    0  0.97631878146E+00  0.12509302936E+00  0.65123544069E+00  0.11802348191E+01  0.00000000000E+00 0. -1.
         11    1    3    3    0    0  0.10300999606E+02  0.38285490610E+02  0.38662391297E+01  0.39835125071E+02  0.51100000000E-03 0. -1.
        -11    1    3    3    0    0 -0.76101040253E+01  0.18477332667E+01 -0.57714809454E+01  0.97281958279E+01  0.51100000000E-03 0.  1.
        -12    1    3    3    0    0 -0.36672143622E+01 -0.40258316906E+02  0.12540063750E+01  0.40444444282E+02  0.00000000000E+00 0.  1.
</event>
<event>
 7    1  0.1501154E-015  0.9000769E+02  0.7816164E-02  0.1186339E+00
        -11   -1    0    0    0    0  0.00000000000E+00  0.00000000000E+00  0.45593999997E+02  0.45594000000E+02  0.51100000000E-03 0.  1.
         11   -1    0    0    0    0 -0.00000000000E+00 -0.00000000000E+00 -0.45593999997E+02  0.45594000000E+02  0.51100000000E-03 0. -1.
    9900012    2    1    2    0    0 -0.11276314089E+01 -0.31458193977E+00  0.15041014578E+00  0.90007687498E+02  0.89999948173E+02 0.  0.
         12    1    1    2    0    0  0.11276314089E+01  0.31458193977E+00 -0.15041014578E+00  0.11803125023E+01  0.00000000000E+00 0. -1.
         11    1    3    3    0    0  0.36036697776E+02  0.67335728622E+01  0.10898877117E+02  0.38246177753E+02  0.51100000000E-03 0. -1.
        -11    1    3    3    0    0  0.46622215918E+01 -0.69870226837E+01 -0.43144488225E+01  0.94429479007E+01  0.51100000000E-03 0.  1.
        -12    1    3    3    0    0 -0.41826550776E+02 -0.61132118253E-01 -0.64340181487E+01  0.42318561844E+02  0.00000000000E+00 0.  1.
</event>
<event>
 7    1  0.1524354E-015  0.9000778E+02  0.7816164E-02  0.1186339E+00
        -11   -1    0    0    0    0  0.00000000000E+00  0.00000000000E+00  0.45593999997E+02  0.45594000000E+02  0.51100000000E-03 0. -1.
         11   -1    0    0    0    0 -0.00000000000E+00 -0.00000000000E+00 -0.45593999997E+02  0.45594000000E+02  0.51100000000E-03 0.  1.
    9900012    2    1    2    0    0  0.10421449664E+01  0.24502838449E+00 -0.49681475330E+00  0.90007775471E+02  0.90000037307E+02 0.  0.
         12    1    1    2    0    0 -0.10421449664E+01 -0.24502838449E+00  0.49681475330E+00  0.11802245292E+01  0.00000000000E+00 0. -1.
         11    1    3    3    0    0 -0.32455013633E+02  0.12018011619E+02  0.10275230040E+02  0.36101812501E+02  0.51100000000E-03 0. -1.
        -11    1    3    3    0    0 -0.56420519234E+01  0.70592443080E+01 -0.42442569306E+01  0.99839569941E+01  0.51100000000E-03 0.  1.
        -12    1    3    3    0    0  0.39139210523E+02 -0.18832227543E+02 -0.65277878624E+01  0.43922005976E+02  0.00000000000E+00 0.  1.
</event>
<event>
 7    1  0.1501154E-015  0.9000787E+02  0.7816164E-02  0.1186339E+00
        -11   -1    0    0    0    0  0.00000000000E+00  0.00000000000E+00  0.45593999997E+02  0.45594000000E+02  0.51100000000E-03 0.  1.
         11   -1    0    0    0    0 -0.00000000000E+00 -0.00000000000E+00 -0.45593999997E+02  0.45594000000E+02  0.51100000000E-03 0. -1.
    9900012    2    1    2    0    0 -0.10046934515E+01 -0.22582800885E+00 -0.57644559013E+00  0.90007874270E+02  0.90000137410E+02 0.  0.
         12    1    1    2    0    0  0.10046934515E+01  0.22582800885E+00  0.57644559013E+00  0.11801257304E+01  0.00000000000E+00 0. -1.
         11    1    3    3    0    0 -0.60585270533E+01 -0.59937826757E+01  0.24375996903E+01  0.88641453807E+01  0.51100000000E-03 0. -1.
        -11    1    3    3    0    0  0.29406188855E+02  0.37174545170E+01  0.28597642593E+02  0.41186995195E+02  0.51100000000E-03 0.  1.
         12    1    3    3    0    0 -0.24352355254E+02  0.20505001498E+01 -0.31611687873E+02  0.39956733694E+02  0.00000000000E+00 0. -1.
</event>
<event>
 7    1  0.1501154E-015  0.9000760E+02  0.7816164E-02  0.1186339E+00
        -11   -1    0    0    0    0  0.00000000000E+00  0.00000000000E+00  0.45593999997E+02  0.45594000000E+02  0.51100000000E-03 0.  1.
         11   -1    0    0    0    0 -0.00000000000E+00 -0.00000000000E+00 -0.45593999997E+02  0.45594000000E+02  0.51100000000E-03 0. -1.
    9900012    2    1    2    0    0  0.78293076692E+00  0.42131209149E+00  0.77644161979E+00  0.90007599198E+02  0.89999858707E+02 0.  0.
         12    1    1    2    0    0 -0.78293076692E+00 -0.42131209149E+00 -0.77644161979E+00  0.11804008019E+01  0.00000000000E+00 0. -1.
         11    1    3    3    0    0 -0.15601510154E+01  0.27351207405E+02 -0.33547026352E+02  0.43311956721E+02  0.51100000000E-03 0. -1.
        -11    1    3    3    0    0  0.29460562871E+00 -0.93725359831E+01  0.16134343150E+01  0.95149563205E+01  0.51100000000E-03 0.  1.
        -12    1    3    3    0    0  0.20484761536E+01 -0.17557359331E+02  0.32710033657E+02  0.37180686156E+02  0.00000000000E+00 0.  1.
</event>
<event>
 7    1  0.1501154E-015  0.9000776E+02  0.7816164E-02  0.1186339E+00
        -11   -1    0    0    0    0  0.00000000000E+00  0.00000000000E+00  0.45593999997E+02  0.45594000000E+02  0.51100000000E-03 0. -1.
         11   -1    0    0    0    0 -0.00000000000E+00 -0.00000000000E+00 -0.45593999997E+02  0.45594000000E+02  0.51100000000E-03 0.  1.
    9900012    2    1    2    0    0 -0.69367332647E+00  0.89749877968E+00 -0.32600802462E+00  0.90007759357E+02  0.90000020980E+02 0.  0.
         12    1    1    2    0    0  0.69367332647E+00 -0.89749877968E+00  0.32600802462E+00  0.11802406430E+01  0.00000000000E+00 0. -1.
         11    1    3    3    0    0 -0.13801981566E+02 -0.75198708307E+01 -0.88245930659E+01  0.18025443004E+02  0.51100000000E-03 0. -1.
        -11    1    3    3    0    0  0.18277990826E+02  0.35683143318E+02 -0.62160111052E+01  0.40571054460E+02  0.51100000000E-03 0.  1.
         12    1    3    3    0    0 -0.51696825861E+01 -0.27265773708E+02  0.14714596147E+02  0.31411261892E+02  0.00000000000E+00 0. -1.
</event>
<event>
 7    1  0.1501154E-015  0.9000779E+02  0.7816164E-02  0.1186339E+00
        -11   -1    0    0    0    0  0.00000000000E+00  0.00000000000E+00  0.45593999997E+02  0.45594000000E+02  0.51100000000E-03 0.  1.
         11   -1    0    0    0    0 -0.00000000000E+00 -0.00000000000E+00 -0.45593999997E+02  0.45594000000E+02  0.51100000000E-03 0. -1.
    9900012    2    1    2    0    0 -0.10649778365E+01  0.16597239474E+00  0.48080175991E+00  0.90007790290E+02  0.90000052321E+02 0.  0.
         12    1    1    2    0    0  0.10649778365E+01 -0.16597239474E+00 -0.48080175991E+00  0.11802097104E+01  0.00000000000E+00 0. -1.
         11    1    3    3    0    0  0.10999642134E+02 -0.44028990684E+01 -0.31129243907E+01  0.12250222276E+02  0.51100000000E-03 0. -1.
        -11    1    3    3    0    0  0.31817180827E+02 -0.62275862061E+01  0.30474419996E+01  0.32563825462E+02  0.51100000000E-03 0.  1.
         12    1    3    3    0    0 -0.43881800798E+02  0.10796457669E+02  0.54628415104E+00  0.45193742552E+02  0.00000000000E+00 0. -1.
</event>
<event>
 7    1  0.1501154E-015  0.9000763E+02  0.7816164E-02  0.1186339E+00
        -11   -1    0    0    0    0  0.00000000000E+00  0.00000000000E+00  0.45593999997E+02  0.45594000000E+02  0.51100000000E-03 0.  1.
         11   -1    0    0    0    0 -0.00000000000E+00 -0.00000000000E+00 -0.45593999997E+02  0.45594000000E+02  0.51100000000E-03 0. -1.
    9900012    2    1    2    0    0  0.41102280356E+00 -0.56687242180E+00  0.95025397517E+00  0.90007632809E+02  0.89999892762E+02 0.  0.
         12    1    1    2    0    0 -0.41102280356E+00  0.56687242180E+00 -0.95025397517E+00  0.11803671907E+01  0.00000000000E+00 0. -1.
         11    1    3    3    0    0 -0.35111144958E+02 -0.92675666456E+01 -0.10220870750E+02  0.37724613860E+02  0.51100000000E-03 0. -1.
        -11    1    3    3    0    0 -0.56623145703E+01  0.80795535279E+01  0.15792222350E+01  0.99917433230E+01  0.51100000000E-03 0.  1.
        -12    1    3    3    0    0  0.41184482331E+02  0.62114069592E+00  0.95919024904E+01  0.42291275626E+02  0.00000000000E+00 0.  1.
</event>
<event>
 7    1  0.1501154E-015  0.9000773E+02  0.7816164E-02  0.1186339E+00
        -11   -1    0    0    0    0  0.00000000000E+00  0.00000000000E+00  0.45593999997E+02  0.45594000000E+02  0.51100000000E-03 0.  1.
         11   -1    0    0    0    0 -0.00000000000E+00 -0.00000000000E+00 -0.45593999997E+02  0.45594000000E+02  0.51100000000E-03 0. -1.
    9900012    2    1    2    0    0  0.95132361619E+00  0.27220856268E+00  0.64337050883E+00  0.90007728957E+02  0.89999990179E+02 0.  0.
         12    1    1    2    0    0 -0.95132361619E+00 -0.27220856268E+00 -0.64337050883E+00  0.11802710434E+01  0.00000000000E+00 0. -1.
         11    1    3    3    0    0  0.73540836021E+01  0.53075072960E+01  0.96270544618E+00  0.91202511676E+01  0.51100000000E-03 0. -1.
        -11    1    3    3    0    0  0.33063929974E+01  0.18077927278E+02  0.33844520499E+02  0.38512274113E+02  0.51100000000E-03 0.  1.
         12    1    3    3    0    0 -0.97091529833E+01 -0.23113226011E+02 -0.34163855436E+02  0.42375203676E+02  0.00000000000E+00 0. -1.
</event>
<event>
 7    1  0.1501154E-015  0.9000764E+02  0.7816164E-02  0.1186339E+00
        -11   -1    0    0    0    0  0.00000000000E+00  0.00000000000E+00  0.45593999997E+02  0.45594000000E+02  0.51100000000E-03 0. -1.
         11   -1    0    0    0    0 -0.00000000000E+00 -0.00000000000E+00 -0.45593999997E+02  0.45594000000E+02  0.51100000000E-03 0.  1.
    9900012    2    1    2    0    0  0.87259977880E+00 -0.76969225531E+00 -0.19845700048E+00  0.90007643392E+02  0.89999903484E+02 0.  0.
         12    1    1    2    0    0 -0.87259977880E+00  0.76969225531E+00  0.19845700048E+00  0.11803566084E+01  0.00000000000E+00 0. -1.
         11    1    3    3    0    0  0.27346869297E+01 -0.83830237656E+01 -0.58490828952E+01  0.10581369053E+02  0.51100000000E-03 0. -1.
        -11    1    3    3    0    0  0.41051291811E+01 -0.34941930732E+02 -0.39255928542E+01  0.35400577515E+02  0.51100000000E-03 0.  1.
         12    1    3    3    0    0 -0.59672163320E+01  0.42555262242E+02  0.95762187488E+01  0.44025696824E+02  0.00000000000E+00 0. -1.
</event>
<event>
 7    1  0.1501154E-015  0.9000763E+02  0.7816164E-02  0.1186339E+00
        -11   -1    0    0    0    0  0.00000000000E+00  0.00000000000E+00  0.45593999997E+02  0.45594000000E+02  0.51100000000E-03 0.  1.
         11   -1    0    0    0    0 -0.00000000000E+00 -0.00000000000E+00 -0.45593999997E+02  0.45594000000E+02  0.51100000000E-03 0. -1.
    9900012    2    1    2    0    0  0.12223624043E+00  0.11093999007E+01  0.38413418042E+00  0.90007631877E+02  0.89999891817E+02 0.  0.
         12    1    1    2    0    0 -0.12223624043E+00 -0.11093999007E+01 -0.38413418042E+00  0.11803681234E+01  0.00000000000E+00 0. -1.
         11    1    3    3    0    0  0.48216366285E+01  0.63139772947E+01  0.53061700357E+01  0.95535297019E+01  0.51100000000E-03 0. -1.
        -11    1    3    3    0    0  0.10719976266E+02 -0.36015928620E+02  0.15221694403E+02  0.40543371669E+02  0.51100000000E-03 0.  1.
         12    1    3    3    0    0 -0.15419376654E+02  0.30811351226E+02 -0.20143730258E+02  0.39910730506E+02  0.00000000000E+00 0. -1.
</event>
<event>
 7    1  0.1501154E-015  0.9000773E+02  0.7816164E-02  0.1186339E+00
        -11   -1    0    0    0    0  0.00000000000E+00  0.00000000000E+00  0.45593999997E+02  0.45594000000E+02  0.51100000000E-03 0.  1.
         11   -1    0    0    0    0 -0.00000000000E+00 -0.00000000000E+00 -0.45593999997E+02  0.45594000000E+02  0.51100000000E-03 0. -1.
    9900012    2    1    2    0    0 -0.52329427488E+00  0.17896375549E+00  0.10426708607E+01  0.90007734162E+02  0.89999995453E+02 0.  0.
         12    1    1    2    0    0  0.52329427488E+00 -0.17896375549E+00 -0.10426708607E+01  0.11802658377E+01  0.00000000000E+00 0. -1.
         11    1    3    3    0    0  0.49169670137E+01  0.37762228673E+01  0.69838431150E+01  0.93386556139E+01  0.51100000000E-03 0. -1.
        -11    1    3    3    0    0  0.11086409923E+02  0.35527160542E+01  0.34494006509E+02  0.36405586957E+02  0.51100000000E-03 0.  1.
         12    1    3    3    0    0 -0.16526671212E+02 -0.71499751660E+01 -0.40435178764E+02  0.44263491591E+02  0.00000000000E+00 0. -1.
</event>
<event>
 7    1  0.1501154E-015  0.9000769E+02  0.7816164E-02  0.1186339E+00
        -11   -1    0    0    0    0  0.00000000000E+00  0.00000000000E+00  0.45593999997E+02  0.45594000000E+02  0.51100000000E-03 0. -1.
         11   -1    0    0    0    0 -0.00000000000E+00 -0.00000000000E+00 -0.45593999997E+02  0.45594000000E+02  0.51100000000E-03 0.  1.
    9900012    2    1    2    0    0 -0.49087600380E+00  0.98936491599E+00 -0.41633821642E+00  0.90007686610E+02  0.89999947273E+02 0.  0.
         12    1    1    2    0    0  0.49087600380E+00 -0.98936491599E+00  0.41633821642E+00  0.11803133900E+01  0.00000000000E+00 0. -1.
         11    1    3    3    0    0 -0.11264564827E+02 -0.83461382370E+01 -0.20514132566E+01  0.14168865192E+02  0.51100000000E-03 0. -1.
        -11    1    3    3    0    0  0.22528852247E+01 -0.29141559726E+02 -0.15246456338E+02  0.32966049600E+02  0.51100000000E-03 0.  1.
         12    1    3    3    0    0  0.85208035988E+01  0.38477062879E+02  0.16881531378E+02  0.42872771818E+02  0.00000000000E+00 0. -1.
</event>
<event>
 7    1  0.1501154E-015  0.9000766E+02  0.7816164E-02  0.1186339E+00
        -11   -1    0    0    0    0  0.00000000000E+00  0.00000000000E+00  0.45593999997E+02  0.45594000000E+02  0.51100000000E-03 0.  1.
         11   -1    0    0    0    0 -0.00000000000E+00 -0.00000000000E+00 -0.45593999997E+02  0.45594000000E+02  0.51100000000E-03 0. -1.
    9900012    2    1    2    0    0 -0.10722460720E+01  0.45187610396E+00 -0.19824418923E+00  0.90007659197E+02  0.89999919498E+02 0.  0.
         12    1    1    2    0    0  0.10722460720E+01 -0.45187610396E+00  0.19824418923E+00  0.11803408029E+01  0.00000000000E+00 0. -1.
         11    1    3    3    0    0  0.23982101848E+02 -0.16914614098E+01 -0.27432301789E+02  0.36476477797E+02  0.51100000000E-03 0. -1.
        -11    1    3    3    0    0 -0.19389467608E+01 -0.55039677765E+01 -0.84881925815E+01  0.10300611117E+02  0.51100000000E-03 0.  1.
        -12    1    3    3    0    0 -0.23115401159E+02  0.76473052902E+01  0.35722250182E+02  0.43230570283E+02  0.00000000000E+00 0.  1.
</event>
<event>
 7    1  0.1501154E-015  0.9000766E+02  0.7816164E-02  0.1186339E+00
        -11   -1    0    0    0    0  0.00000000000E+00  0.00000000000E+00  0.45593999997E+02  0.45594000000E+02  0.51100000000E-03 0. -1.
         11   -1    0    0    0    0 -0.00000000000E+00 -0.00000000000E+00 -0.45593999997E+02  0.45594000000E+02  0.51100000000E-03 0.  1.
    9900012    2    1    2    0    0  0.52371342837E+00  0.95008379024E+00  0.46505335453E+00  0.90007657005E+02  0.89999917277E+02 0.  0.
         12    1    1    2    0    0 -0.52371342837E+00 -0.95008379024E+00 -0.46505335453E+00  0.11803429951E+01  0.00000000000E+00 0. -1.
         11    1    3    3    0    0  0.82833096018E+00 -0.14543566194E+02  0.31529532112E+02  0.34732014703E+02  0.51100000000E-03 0. -1.
        -11    1    3    3    0    0  0.22406957675E+01 -0.10692350512E+02  0.38280018239E+01  0.11575866068E+02  0.51100000000E-03 0.  1.
        -12    1    3    3    0    0 -0.25453132993E+01  0.26186000496E+02 -0.34892480582E+02  0.43699776234E+02  0.00000000000E+00 0.  1.
</event>
<event>
 7    1  0.1501154E-015  0.9000766E+02  0.7816164E-02  0.1186339E+00
        -11   -1    0    0    0    0  0.00000000000E+00  0.00000000000E+00  0.45593999997E+02  0.45594000000E+02  0.51100000000E-03 0. -1.
         11   -1    0    0    0    0 -0.00000000000E+00 -0.00000000000E+00 -0.45593999997E+02  0.45594000000E+02  0.51100000000E-03 0.  1.
    9900012    2    1    2    0    0 -0.82342181291E+00 -0.83749461525E+00 -0.11736716179E+00  0.90007662860E+02  0.89999923210E+02 0.  0.
         12    1    1    2    0    0  0.82342181291E+00  0.83749461525E+00  0.11736716179E+00  0.11803371396E+01  0.00000000000E+00 0. -1.
         11    1    3    3    0    0 -0.21012095572E+02 -0.13006867058E+02  0.79050741246E+01  0.25945653743E+02  0.51100000000E-03 0. -1.
        -11    1    3    3    0    0  0.28571085950E+02 -0.16644189705E+02 -0.26197229032E+00  0.33066669519E+02  0.51100000000E-03 0.  1.
         12    1    3    3    0    0 -0.83824121911E+01  0.28813562148E+02 -0.77604689961E+01  0.30995339599E+02  0.00000000000E+00 0. -1.
</event>
<event>
 7    1  0.1501154E-015  0.9000778E+02  0.7816164E-02  0.1186339E+00
        -11   -1    0    0    0    0  0.00000000000E+00  0.00000000000E+00  0.45593999997E+02  0.45594000000E+02  0.51100000000E-03 0. -1.
         11   -1    0    0    0    0 -0.00000000000E+00 -0.00000000000E+00 -0.45593999997E+02  0.45594000000E+02  0.51100000000E-03 0.  1.
    9900012    2    1    2    0    0 -0.10303028211E+01  0.21849970084E-01 -0.57526491453E+00  0.90007775002E+02  0.90000036832E+02 0.  0.
         12    1    1    2    0    0  0.10303028211E+01 -0.21849970084E-01  0.57526491453E+00  0.11802249982E+01  0.00000000000E+00 0. -1.
         11    1    3    3    0    0  0.33665065841E+01 -0.55777976306E+01 -0.63318758960E+01  0.90850341558E+01  0.51100000000E-03 0. -1.
        -11    1    3    3    0    0 -0.22248298018E+01 -0.18888238403E+02 -0.31197877098E+02  0.36537965916E+02  0.51100000000E-03 0.  1.
         12    1    3    3    0    0 -0.21719796034E+01  0.24487886003E+02  0.36954488080E+02  0.44384774930E+02  0.00000000000E+00 0. -1.
</event>
<event>
 7    1  0.1501154E-015  0.9000772E+02  0.7816164E-02  0.1186339E+00
        -11   -1    0    0    0    0  0.00000000000E+00  0.00000000000E+00  0.45593999997E+02  0.45594000000E+02  0.51100000000E-03 0.  1.
         11   -1    0    0    0    0 -0.00000000000E+00 -0.00000000000E+00 -0.45593999997E+02  0.45594000000E+02  0.51100000000E-03 0. -1.
    9900012    2    1    2    0    0  0.10114259254E+01 -0.15321658366E+00  0.58872409166E+00  0.90007723007E+02  0.89999984151E+02 0.  0.
         12    1    1    2    0    0 -0.10114259254E+01  0.15321658366E+00 -0.58872409166E+00  0.11802769930E+01  0.00000000000E+00 0. -1.
         11    1    3    3    0    0 -0.34135523964E+02 -0.20450944604E+02 -0.17127574982E+01  0.39829746045E+02  0.51100000000E-03 0. -1.
        -11    1    3    3    0    0 -0.41722140807E+01  0.78173139677E+01 -0.78094668567E-02  0.88610286792E+01  0.51100000000E-03 0.  1.
        -12    1    3    3    0    0  0.39319163970E+02  0.12480414053E+02  0.23092910567E+01  0.41316948283E+02  0.00000000000E+00 0.  1.
</event>
<event>
 7    1  0.1501154E-015  0.9000772E+02  0.7816164E-02  0.1186339E+00
        -11   -1    0    0    0    0  0.00000000000E+00  0.00000000000E+00  0.45593999997E+02  0.45594000000E+02  0.51100000000E-03 0.  1.
         11   -1    0    0    0    0 -0.00000000000E+00 -0.00000000000E+00 -0.45593999997E+02  0.45594000000E+02  0.51100000000E-03 0. -1.
    9900012    2    1    2    0    0  0.24132157017E+00 -0.61003837959E-01  0.11537378174E+01  0.90007716763E+02  0.89999977824E+02 0.  0.
         12    1    1    2    0    0 -0.24132157017E+00  0.61003837959E-01 -0.11537378174E+01  0.11802832371E+01  0.00000000000E+00 0. -1.
         11    1    3    3    0    0  0.86859270356E+00  0.11590886553E+02  0.41919285839E+01  0.12356187514E+02  0.51100000000E-03 0. -1.
        -11    1    3    3    0    0 -0.37690439312E+02 -0.32327717910E+01 -0.97286692726E+01  0.39059787955E+02  0.51100000000E-03 0.  1.
         12    1    3    3    0    0  0.37063168179E+02 -0.84191185999E+01  0.66904785060E+01  0.38591741294E+02  0.00000000000E+00 0. -1.
</event>
<event>
 7    1  0.1501154E-015  0.9000771E+02  0.7816164E-02  0.1186339E+00
        -11   -1    0    0    0    0  0.00000000000E+00  0.00000000000E+00  0.45593999997E+02  0.45594000000E+02  0.51100000000E-03 0.  1.
         11   -1    0    0    0    0 -0.00000000000E+00 -0.00000000000E+00 -0.45593999997E+02  0.45594000000E+02  0.51100000000E-03 0. -1.
    9900012    2    1    2    0    0  0.33588794438E-01 -0.53147338120E+00  0.10533261507E+01  0.90007708450E+02  0.89999969402E+02 0.  0.
         12    1    1    2    0    0 -0.33588794438E-01  0.53147338120E+00 -0.10533261507E+01  0.11802915495E+01  0.00000000000E+00 0. -1.
         11    1    3    3    0    0 -0.16983978325E+01 -0.81104011317E+01 -0.42588810004E+01  0.93167177348E+01  0.51100000000E-03 0. -1.
        -11    1    3    3    0    0  0.17994281927E+02 -0.30052948957E+02  0.15721812173E+02  0.38394651989E+02  0.51100000000E-03 0.  1.
         12    1    3    3    0    0 -0.16262295301E+02  0.37631876708E+02 -0.10409605022E+02  0.42296338727E+02  0.00000000000E+00 0. -1.
</event>
<event>
 7    1  0.1501154E-015  0.9000765E+02  0.7816164E-02  0.1186339E+00
        -11   -1    0    0    0    0  0.00000000000E+00  0.00000000000E+00  0.45593999997E+02  0.45594000000E+02  0.51100000000E-03 0.  1.
         11   -1    0    0    0    0 -0.00000000000E+00 -0.00000000000E+00 -0.45593999997E+02  0.45594000000E+02  0.51100000000E-03 0. -1.
    9900012    2    1    2    0    0 -0.52334139474E+00 -0.96697040792E+00  0.42931586012E+00  0.90007648318E+02  0.89999908476E+02 0.  0.
         12    1    1    2    0    0  0.52334139474E+00  0.96697040792E+00 -0.42931586012E+00  0.11803516819E+01  0.00000000000E+00 0. -1.
         11    1    3    3    0    0 -0.12145551904E+02  0.21000602183E+02 -0.35960866509E+02  0.43378838660E+02  0.51100000000E-03 0. -1.
        -11    1    3    3    0    0  0.36277915779E+01 -0.85381341735E+00 -0.89658416085E-01  0.37279898037E+01  0.51100000000E-03 0.  1.
        -12    1    3    3    0    0  0.79944189310E+01 -0.21113759173E+02  0.36479840786E+02  0.42900819855E+02  0.00000000000E+00 0.  1.
</event>
<event>
 7    1  0.1501154E-015  0.9000777E+02  0.7816164E-02  0.1186339E+00
        -11   -1    0    0    0    0  0.00000000000E+00  0.00000000000E+00  0.45593999997E+02  0.45594000000E+02  0.51100000000E-03 0.  1.
         11   -1    0    0    0    0 -0.00000000000E+00 -0.00000000000E+00 -0.45593999997E+02  0.45594000000E+02  0.51100000000E-03 0. -1.
    9900012    2    1    2    0    0  0.52291621468E+00 -0.76577297253E+00  0.73013027902E+00  0.90007771278E+02  0.90000033058E+02 0.  0.
         12    1    1    2    0    0 -0.52291621468E+00  0.76577297253E+00 -0.73013027902E+00  0.11802287225E+01  0.00000000000E+00 0. -1.
         11    1    3    3    0    0 -0.20171837960E+02 -0.22422354437E+01 -0.22792506037E+02  0.30519321719E+02  0.51100000000E-03 0. -1.
        -11    1    3    3    0    0 -0.32577083314E+01  0.19358710299E+02 -0.25856381548E+01  0.19800450827E+02  0.51100000000E-03 0.  1.
         12    1    3    3    0    0  0.23952462506E+02 -0.17882247828E+02  0.26108274471E+02  0.39687998732E+02  0.00000000000E+00 0. -1.
</event>
<event>
 7    1  0.1501154E-015  0.9000776E+02  0.7816164E-02  0.1186339E+00
        -11   -1    0    0    0    0  0.00000000000E+00  0.00000000000E+00  0.45593999997E+02  0.45594000000E+02  0.51100000000E-03 0. -1.
         11   -1    0    0    0    0 -0.00000000000E+00 -0.00000000000E+00 -0.45593999997E+02  0.45594000000E+02  0.51100000000E-03 0.  1.
    9900012    2    1    2    0    0 -0.35972494176E+00  0.98553569171E+00 -0.54063900496E+00  0.90007757158E+02  0.90000018752E+02 0.  0.
         12    1    1    2    0    0  0.35972494176E+00 -0.98553569171E+00  0.54063900496E+00  0.11802428424E+01  0.00000000000E+00 0. -1.
         11    1    3    3    0    0 -0.82544622896E+00  0.57510892748E+01  0.83289564239E+01  0.10155191022E+02  0.51100000000E-03 0. -1.
        -11    1    3    3    0    0  0.19696276344E+01  0.19711121732E+02 -0.37344684523E+02  0.42273315641E+02  0.51100000000E-03 0.  1.
         12    1    3    3    0    0 -0.15039063472E+01 -0.24476675315E+02  0.28475089094E+02  0.37579250494E+02  0.00000000000E+00 0. -1.
</event>
<event>
 7    1  0.1501154E-015  0.9000775E+02  0.7816164E-02  0.1186339E+00
        -11   -1    0    0    0    0  0.00000000000E+00  0.00000000000E+00  0.45593999997E+02  0.45594000000E+02  0.51100000000E-03 0. -1.
         11   -1    0    0    0    0 -0.00000000000E+00 -0.00000000000E+00 -0.45593999997E+02  0.45594000000E+02  0.51100000000E-03 0.  1.
    9900012    2    1    2    0    0  0.77402261046E+00 -0.81244213295E+00 -0.36581716858E+00  0.90007747730E+02  0.90000009200E+02 0.  0.
         12    1    1    2    0    0 -0.77402261046E+00  0.81244213295E+00  0.36581716858E+00  0.11802522704E+01  0.00000000000E+00 0. -1.
         11    1    3    3    0    0 -0.33030383615E+01 -0.71699853957E+01  0.59176344506E+01  0.98659591902E+01  0.51100000000E-03 0. -1.
        -11    1    3    3    0    0 -0.32208117464E+02 -0.14579969688E+02 -0.13089691097E+02  0.37699845623E+02  0.51100000000E-03 0.  1.
         12    1    3    3    0    0  0.36285178436E+02  0.20937512951E+02  0.68062394782E+01  0.42441942917E+02  0.00000000000E+00 0. -1.
</event>
<event>
 7    1  0.1501154E-015  0.9000680E+02  0.7816164E-02  0.1186341E+00
        -11   -1    0    0    0    0  0.00000000000E+00  0.00000000000E+00  0.45593999997E+02  0.45594000000E+02  0.51100000000E-03 0. -1.
         11   -1    0    0    0    0 -0.00000000000E+00 -0.00000000000E+00 -0.45593999997E+02  0.45594000000E+02  0.51100000000E-03 0.  1.
    9900012    2    1    2    0    0  0.16739708268E+00 -0.11186864492E+01 -0.34022618695E+00  0.90006799334E+02  0.89999048280E+02 0.  0.
         12    1    1    2    0    0 -0.16739708268E+00  0.11186864492E+01  0.34022618695E+00  0.11812006660E+01  0.00000000000E+00 0. -1.
         11    1    3    3    0    0  0.31623275390E+02 -0.15314706125E+02  0.24267771803E+02  0.42702418182E+02  0.51100000000E-03 0. -1.
        -11    1    3    3    0    0  0.47032318133E+00  0.52244557261E+01 -0.95223734930E+01  0.10871602399E+02  0.51100000000E-03 0.  1.
        -12    1    3    3    0    0 -0.31926201489E+02  0.89715639494E+01 -0.15085624496E+02  0.36432778753E+02  0.00000000000E+00 0.  1.
</event>
<event>
 7    1  0.1501154E-015  0.9000777E+02  0.7816164E-02  0.1186339E+00
        -11   -1    0    0    0    0  0.00000000000E+00  0.00000000000E+00  0.45593999997E+02  0.45594000000E+02  0.51100000000E-03 0.  1.
         11   -1    0    0    0    0 -0.00000000000E+00 -0.00000000000E+00 -0.45593999997E+02  0.45594000000E+02  0.51100000000E-03 0. -1.
    9900012    2    1    2    0    0  0.95512217997E+00  0.69033832970E+00 -0.64140975765E-01  0.90007771440E+02  0.90000033223E+02 0.  0.
         12    1    1    2    0    0 -0.95512217997E+00 -0.69033832970E+00  0.64140975765E-01  0.11802285596E+01  0.00000000000E+00 0. -1.
         11    1    3    3    0    0 -0.60047330710E+01 -0.71048544590E+01 -0.44008213800E+01  0.10290918580E+02  0.51100000000E-03 0. -1.
        -11    1    3    3    0    0  0.41639452480E+02 -0.61484264972E+01  0.22756062853E-01  0.42090945218E+02  0.51100000000E-03 0.  1.
         12    1    3    3    0    0 -0.34679597229E+02  0.13943619286E+02  0.43139243413E+01  0.37625907643E+02  0.00000000000E+00 0. -1.
</event>
<event>
 7    1  0.1501154E-015  0.9000774E+02  0.7816164E-02  0.1186339E+00
        -11   -1    0    0    0    0  0.00000000000E+00  0.00000000000E+00  0.45593999997E+02  0.45594000000E+02  0.51100000000E-03 0.  1.
         11   -1    0    0    0    0 -0.00000000000E+00 -0.00000000000E+00 -0.45593999997E+02  0.45594000000E+02  0.51100000000E-03 0. -1.
    9900012    2    1    2    0    0 -0.81050118197E+00  0.39984725598E+00 -0.75909153221E+00  0.90007741576E+02  0.90000002964E+02 0.  0.
         12    1    1    2    0    0  0.81050118197E+00 -0.39984725598E+00  0.75909153221E+00  0.11802584244E+01  0.00000000000E+00 0. -1.
         11    1    3    3    0    0 -0.57240202456E+01  0.17900233994E+01 -0.77203112539E+01  0.97760829406E+01  0.51100000000E-03 0. -1.
        -11    1    3    3    0    0 -0.28454422240E+02  0.21293323505E+02  0.15853810462E+02  0.38915332162E+02  0.51100000000E-03 0.  1.
         12    1    3    3    0    0  0.33367941303E+02 -0.22683499648E+02 -0.88925907401E+01  0.41316326473E+02  0.00000000000E+00 0. -1.
</event>
<event>
 7    1  0.1501154E-015  0.9000822E+02  0.7816164E-02  0.1186338E+00
        -11   -1    0    0    0    0  0.00000000000E+00  0.00000000000E+00  0.45593999997E+02  0.45594000000E+02  0.51100000000E-03 0.  1.
         11   -1    0    0    0    0 -0.00000000000E+00 -0.00000000000E+00 -0.45593999997E+02  0.45594000000E+02  0.51100000000E-03 0. -1.
    9900012    2    1    2    0    0 -0.10552418010E+01  0.51612763258E+00  0.10940292036E+00  0.90008215278E+02  0.90000482918E+02 0.  0.
         12    1    1    2    0    0  0.10552418010E+01 -0.51612763258E+00 -0.10940292036E+00  0.11797847222E+01  0.00000000000E+00 0. -1.
         11    1    3    3    0    0 -0.26937720365E+01 -0.57374901283E+01  0.10030989926E+02  0.11865747339E+02  0.51100000000E-03 0. -1.
        -11    1    3    3    0    0 -0.10277423563E+02  0.37986236206E+02  0.74548926528E+01  0.40051903837E+02  0.51100000000E-03 0.  1.
         12    1    3    3    0    0  0.11915953798E+02 -0.31732618446E+02 -0.17376479658E+02  0.38090564102E+02  0.00000000000E+00 0. -1.
</event>
<event>
 7    1  0.1501154E-015  0.9000773E+02  0.7816164E-02  0.1186339E+00
        -11   -1    0    0    0    0  0.00000000000E+00  0.00000000000E+00  0.45593999997E+02  0.45594000000E+02  0.51100000000E-03 0. -1.
         11   -1    0    0    0    0 -0.00000000000E+00 -0.00000000000E+00 -0.45593999997E+02  0.45594000000E+02  0.51100000000E-03 0.  1.
    9900012    2    1    2    0    0 -0.17076748182E+00  0.56677264898E+00 -0.10211014394E+01  0.90007728456E+02  0.89999989671E+02 0.  0.
         12    1    1    2    0    0  0.17076748182E+00 -0.56677264898E+00  0.10211014394E+01  0.11802715442E+01  0.00000000000E+00 0. -1.
         11    1    3    3    0    0 -0.31643130940E+02  0.10267117058E+02 -0.22871978857E+02  0.40371138768E+02  0.51100000000E-03 0. -1.
        -11    1    3    3    0    0  0.23117340648E+01  0.88828601732E+01  0.93962688987E+00  0.92267122095E+01  0.51100000000E-03 0.  1.
        -12    1    3    3    0    0  0.29160629393E+02 -0.18583204582E+02  0.20911250527E+02  0.40409877478E+02  0.00000000000E+00 0.  1.
</event>
<event>
 7    1  0.1501154E-015  0.9000776E+02  0.7816164E-02  0.1186339E+00
        -11   -1    0    0    0    0  0.00000000000E+00  0.00000000000E+00  0.45593999997E+02  0.45594000000E+02  0.51100000000E-03 0. -1.
         11   -1    0    0    0    0 -0.00000000000E+00 -0.00000000000E+00 -0.45593999997E+02  0.45594000000E+02  0.51100000000E-03 0.  1.
    9900012    2    1    2    0    0  0.12111775599E+00 -0.10867253824E+01  0.44420865059E+00  0.90007761510E+02  0.90000023162E+02 0.  0.
         12    1    1    2    0    0 -0.12111775599E+00  0.10867253824E+01 -0.44420865059E+00  0.11802384898E+01  0.00000000000E+00 0. -1.
         11    1    3    3    0    0 -0.74606247678E+01 -0.56771343520E+00  0.40713911053E+02  0.41395721686E+02  0.51100000000E-03 0. -1.
        -11    1    3    3    0    0  0.65940150153E+01  0.41224407302E+01  0.28385829070E+00  0.77817817617E+01  0.51100000000E-03 0.  1.
        -12    1    3    3    0    0  0.98772750847E+00 -0.46414526773E+01 -0.40553560693E+02  0.40830258062E+02  0.00000000000E+00 0.  1.
</event>
<event>
 7    1  0.1501154E-015  0.9000775E+02  0.7816164E-02  0.1186339E+00
        -11   -1    0    0    0    0  0.00000000000E+00  0.00000000000E+00  0.45593999997E+02  0.45594000000E+02  0.51100000000E-03 0. -1.
         11   -1    0    0    0    0 -0.00000000000E+00 -0.00000000000E+00 -0.45593999997E+02  0.45594000000E+02  0.51100000000E-03 0.  1.
    9900012    2    1    2    0    0  0.11726950340E+01  0.10809575871E+00 -0.77988043183E-01  0.90007754063E+02  0.90000015617E+02 0.  0.
         12    1    1    2    0    0 -0.11726950340E+01 -0.10809575871E+00  0.77988043183E-01  0.11802459366E+01  0.00000000000E+00 0. -1.
         11    1    3    3    0    0 -0.52104164494E+01  0.30588294951E+01 -0.59592904992E+01  0.84863432037E+01  0.51100000000E-03 0. -1.
        -11    1    3    3    0    0  0.10389761603E+01  0.14679728203E+02 -0.34296914021E+02  0.37320935186E+02  0.51100000000E-03 0.  1.
         12    1    3    3    0    0  0.53441353232E+01 -0.17630461939E+02  0.40178216476E+02  0.44200475674E+02  0.00000000000E+00 0. -1.
</event>
<event>
 7    1  0.1501154E-015  0.9000782E+02  0.7816164E-02  0.1186339E+00
        -11   -1    0    0    0    0  0.00000000000E+00  0.00000000000E+00  0.45593999997E+02  0.45594000000E+02  0.51100000000E-03 0. -1.
         11   -1    0    0    0    0 -0.00000000000E+00 -0.00000000000E+00 -0.45593999997E+02  0.45594000000E+02  0.51100000000E-03 0.  1.
    9900012    2    1    2    0    0 -0.10382305520E+01  0.53895046201E+00  0.15630155175E+00  0.90007821855E+02  0.90000084303E+02 0.  0.
         12    1    1    2    0    0  0.10382305520E+01 -0.53895046201E+00 -0.15630155175E+00  0.11801781453E+01  0.00000000000E+00 0. -1.
         11    1    3    3    0    0 -0.10749407004E+01 -0.22163703720E+01  0.98060698494E+01  0.10110727041E+02  0.51100000000E-03 0. -1.
        -11    1    3    3    0    0 -0.28643882229E+02 -0.22339831473E+02  0.90661015952E+01  0.37439741690E+02  0.51100000000E-03 0.  1.
         12    1    3    3    0    0  0.28680592378E+02  0.25095152307E+02 -0.18715869893E+02  0.42457353124E+02  0.00000000000E+00 0. -1.
</event>
<event>
 7    1  0.1501154E-015  0.9000769E+02  0.7816164E-02  0.1186339E+00
        -11   -1    0    0    0    0  0.00000000000E+00  0.00000000000E+00  0.45593999997E+02  0.45594000000E+02  0.51100000000E-03 0.  1.
         11   -1    0    0    0    0 -0.00000000000E+00 -0.00000000000E+00 -0.45593999997E+02  0.45594000000E+02  0.51100000000E-03 0. -1.
    9900012    2    1    2    0    0 -0.45884881642E+00 -0.90625247044E+00  0.60108499886E+00  0.90007686926E+02  0.89999947594E+02 0.  0.
         12    1    1    2    0    0  0.45884881642E+00  0.90625247044E+00 -0.60108499886E+00  0.11803130739E+01  0.00000000000E+00 0. -1.
         11    1    3    3    0    0  0.20347978219E+02  0.23822156801E+02 -0.20872875981E+02  0.37645880574E+02  0.51100000000E-03 0. -1.
        -11    1    3    3    0    0  0.77794606895E+01 -0.56346421274E+01 -0.31130426856E+01  0.10097536113E+02  0.51100000000E-03 0.  1.
        -12    1    3    3    0    0 -0.28586287725E+02 -0.19093767144E+02  0.24587003665E+02  0.42264270239E+02  0.00000000000E+00 0.  1.
</event>
<event>
 7    1  0.1501154E-015  0.9000703E+02  0.7816164E-02  0.1186340E+00
        -11   -1    0    0    0    0  0.00000000000E+00  0.00000000000E+00  0.45593999997E+02  0.45594000000E+02  0.51100000000E-03 0.  1.
         11   -1    0    0    0    0 -0.00000000000E+00 -0.00000000000E+00 -0.45593999997E+02  0.45594000000E+02  0.51100000000E-03 0. -1.
    9900012    2    1    2    0    0  0.29964725520E+00 -0.60676325762E+00  0.96784944600E+00  0.90007033159E+02  0.89999285194E+02 0.  0.
         12    1    1    2    0    0 -0.29964725520E+00  0.60676325762E+00 -0.96784944600E+00  0.11809668405E+01  0.00000000000E+00 0. -1.
         11    1    3    3    0    0 -0.14482351972E+02  0.37063793905E+02 -0.77652099925E+01  0.40543332667E+02  0.51100000000E-03 0. -1.
        -11    1    3    3    0    0  0.18279964567E+01 -0.14450565305E+01  0.10690939741E+02  0.10941935488E+02  0.51100000000E-03 0.  1.
        -12    1    3    3    0    0  0.12954002771E+02 -0.36225500632E+02 -0.19578803022E+01  0.38521765005E+02  0.00000000000E+00 0.  1.
</event>
<event>
 7    1  0.1501154E-015  0.9000774E+02  0.7816164E-02  0.1186339E+00
        -11   -1    0    0    0    0  0.00000000000E+00  0.00000000000E+00  0.45593999997E+02  0.45594000000E+02  0.51100000000E-03 0.  1.
         11   -1    0    0    0    0 -0.00000000000E+00 -0.00000000000E+00 -0.45593999997E+02  0.45594000000E+02  0.51100000000E-03 0. -1.
    9900012    2    1    2    0    0  0.60792904084E+00  0.69159075231E+00  0.73833664756E+00  0.90007738803E+02  0.90000000155E+02 0.  0.
         12    1    1    2    0    0 -0.60792904084E+00 -0.69159075231E+00 -0.73833664756E+00  0.11802611967E+01  0.00000000000E+00 0. -1.
         11    1    3    3    0    0 -0.17366796231E+02 -0.26241265397E+01 -0.33963224325E+02  0.38236007352E+02  0.51100000000E-03 0. -1.
        -11    1    3    3    0    0  0.67593864934E+00  0.11167228382E+02 -0.11005584254E+01  0.11241668555E+02  0.51100000000E-03 0.  1.
        -12    1    3    3    0    0  0.17298786622E+02 -0.78515110898E+01  0.35802119398E+02  0.40530062896E+02  0.00000000000E+00 0.  1.
</event>
<event>
 7    1  0.1501154E-015  0.9000769E+02  0.7816164E-02  0.1186339E+00
        -11   -1    0    0    0    0  0.00000000000E+00  0.00000000000E+00  0.45593999997E+02  0.45594000000E+02  0.51100000000E-03 0.  1.
         11   -1    0    0    0    0 -0.00000000000E+00 -0.00000000000E+00 -0.45593999997E+02  0.45594000000E+02  0.51100000000E-03 0. -1.
    9900012    2    1    2    0    0 -0.46977464054E+00 -0.36253301603E+00  0.10202973093E+01  0.90007692837E+02  0.89999953582E+02 0.  0.
         12    1    1    2    0    0  0.46977464054E+00  0.36253301603E+00 -0.10202973093E+01  0.11803071634E+01  0.00000000000E+00 0. -1.
         11    1    3    3    0    0  0.42840902186E+01  0.27003805006E+02 -0.21376066737E+02  0.34705837308E+02  0.51100000000E-03 0. -1.
        -11    1    3    3    0    0 -0.76240407461E+01  0.90733293436E+01 -0.10151941691E+01  0.11894617360E+02  0.51100000000E-03 0.  1.
        -12    1    3    3    0    0  0.28701758870E+01 -0.36439667366E+02  0.23411558216E+02  0.43407238169E+02  0.00000000000E+00 0.  1.
</event>
<event>
 7    1  0.1501154E-015  0.9000783E+02  0.7816164E-02  0.1186339E+00
        -11   -1    0    0    0    0  0.00000000000E+00  0.00000000000E+00  0.45593999997E+02  0.45594000000E+02  0.51100000000E-03 0.  1.
         11   -1    0    0    0    0 -0.00000000000E+00 -0.00000000000E+00 -0.45593999997E+02  0.45594000000E+02  0.51100000000E-03 0. -1.
    9900012    2    1    2    0    0  0.38731537934E+00  0.50415257283E+00  0.99428941253E+00  0.90007832870E+02  0.90000095463E+02 0.  0.
         12    1    1    2    0    0 -0.38731537934E+00 -0.50415257283E+00 -0.99428941253E+00  0.11801671304E+01  0.00000000000E+00 0. -1.
         11    1    3    3    0    0 -0.31995339712E+01 -0.34342368870E+02 -0.17445513840E+02  0.38652053899E+02  0.51100000000E-03 0. -1.
        -11    1    3    3    0    0  0.35169156060E+01 -0.43887957766E+01  0.96167975261E+01  0.11140602258E+02  0.51100000000E-03 0.  1.
        -12    1    3    3    0    0  0.69933744608E-01  0.39235317219E+02  0.88230057260E+01  0.40215176713E+02  0.00000000000E+00 0.  1.
</event>
<event>
 7    1  0.1501154E-015  0.9000787E+02  0.7816164E-02  0.1186339E+00
        -11   -1    0    0    0    0  0.00000000000E+00  0.00000000000E+00  0.45593999997E+02  0.45594000000E+02  0.51100000000E-03 0.  1.
         11   -1    0    0    0    0 -0.00000000000E+00 -0.00000000000E+00 -0.45593999997E+02  0.45594000000E+02  0.51100000000E-03 0. -1.
    9900012    2    1    2    0    0  0.16318535263E+00 -0.54122516345E+00  0.10359318605E+01  0.90007869094E+02  0.90000132165E+02 0.  0.
         12    1    1    2    0    0 -0.16318535263E+00  0.54122516345E+00 -0.10359318605E+01  0.11801309065E+01  0.00000000000E+00 0. -1.
         11    1    3    3    0    0  0.53251888540E-01  0.18843313440E+01  0.93239271125E+01  0.95125789058E+01  0.51100000000E-03 0. -1.
        -11    1    3    3    0    0 -0.20349388097E+02 -0.33972409844E+02  0.64253847118E+01  0.40118671407E+02  0.51100000000E-03 0.  1.
         12    1    3    3    0    0  0.20459321561E+02  0.31546853337E+02 -0.14713379964E+02  0.40376618780E+02  0.00000000000E+00 0. -1.
</event>
<event>
 7    1  0.1501154E-015  0.9000777E+02  0.7816164E-02  0.1186339E+00
        -11   -1    0    0    0    0  0.00000000000E+00  0.00000000000E+00  0.45593999997E+02  0.45594000000E+02  0.51100000000E-03 0. -1.
         11   -1    0    0    0    0 -0.00000000000E+00 -0.00000000000E+00 -0.45593999997E+02  0.45594000000E+02  0.51100000000E-03 0.  1.
    9900012    2    1    2    0    0 -0.67511144300E+00  0.96708759249E+00 -0.43741431289E-01  0.90007768165E+02  0.90000029905E+02 0.  0.
         12    1    1    2    0    0  0.67511144300E+00 -0.96708759249E+00  0.43741431289E-01  0.11802318352E+01  0.00000000000E+00 0. -1.
         11    1    3    3    0    0 -0.17375879014E+02  0.20157184831E+02 -0.38297404037E+01  0.26886803150E+02  0.51100000000E-03 0. -1.
        -11    1    3    3    0    0 -0.18431599628E+02 -0.20480911925E+02  0.47082203091E+01  0.27952798731E+02  0.51100000000E-03 0.  1.
        -12    1    3    3    0    0  0.35132367199E+02  0.12908146870E+01 -0.92222133668E+00  0.35168166284E+02  0.00000000000E+00 0.  1.
</event>
<event>
 7    1  0.1501154E-015  0.9000788E+02  0.7816164E-02  0.1186339E+00
        -11   -1    0    0    0    0  0.00000000000E+00  0.00000000000E+00  0.45593999997E+02  0.45594000000E+02  0.51100000000E-03 0.  1.
         11   -1    0    0    0    0 -0.00000000000E+00 -0.00000000000E+00 -0.45593999997E+02  0.45594000000E+02  0.51100000000E-03 0. -1.
    9900012    2    1    2    0    0  0.89750854742E+00  0.60275506113E-01  0.76389303544E+00  0.90007878269E+02  0.90000141462E+02 0.  0.
         12    1    1    2    0    0 -0.89750854742E+00 -0.60275506113E-01 -0.76389303544E+00  0.11801217305E+01  0.00000000000E+00 0. -1.
         11    1    3    3    0    0 -0.84485268277E+01 -0.42886320232E+01 -0.27902480358E+01  0.98770164802E+01  0.51100000000E-03 0. -1.
        -11    1    3    3    0    0 -0.32299200096E+02 -0.27494803089E+01 -0.12770197197E+02  0.34840721943E+02  0.51100000000E-03 0.  1.
         12    1    3    3    0    0  0.41645235471E+02  0.70983878382E+01  0.16324338268E+02  0.45290139846E+02  0.00000000000E+00 0. -1.
</event>
<event>
 7    1  0.1501154E-015  0.9000778E+02  0.7816164E-02  0.1186339E+00
        -11   -1    0    0    0    0  0.00000000000E+00  0.00000000000E+00  0.45593999997E+02  0.45594000000E+02  0.51100000000E-03 0. -1.
         11   -1    0    0    0    0 -0.00000000000E+00 -0.00000000000E+00 -0.45593999997E+02  0.45594000000E+02  0.51100000000E-03 0.  1.
    9900012    2    1    2    0    0  0.62755009906E+00 -0.98213494020E+00  0.18576982243E+00  0.90007780277E+02  0.90000042177E+02 0.  0.
         12    1    1    2    0    0 -0.62755009906E+00  0.98213494020E+00 -0.18576982243E+00  0.11802197230E+01  0.00000000000E+00 0. -1.
         11    1    3    3    0    0 -0.33110205582E+02 -0.45278633980E+01 -0.17406003986E+02  0.37679652807E+02  0.51100000000E-03 0. -1.
        -11    1    3    3    0    0 -0.63010441848E+01 -0.11681983750E+01  0.90969309617E+01  0.11127533350E+02  0.51100000000E-03 0.  1.
        -12    1    3    3    0    0  0.40038799866E+02  0.47139268329E+01  0.84948428469E+01  0.41200594120E+02  0.00000000000E+00 0.  1.
</event>
<event>
 7    1  0.1501154E-015  0.9000775E+02  0.7816164E-02  0.1186339E+00
        -11   -1    0    0    0    0  0.00000000000E+00  0.00000000000E+00  0.45593999997E+02  0.45594000000E+02  0.51100000000E-03 0. -1.
         11   -1    0    0    0    0 -0.00000000000E+00 -0.00000000000E+00 -0.45593999997E+02  0.45594000000E+02  0.51100000000E-03 0.  1.
    9900012    2    1    2    0    0 -0.53005207238E+00  0.42330129380E+00 -0.96583886609E+00  0.90007752611E+02  0.90000014145E+02 0.  0.
         12    1    1    2    0    0  0.53005207238E+00 -0.42330129380E+00  0.96583886609E+00  0.11802473893E+01  0.00000000000E+00 0. -1.
         11    1    3    3    0    0 -0.78191208016E+00 -0.78916618952E+01  0.32000622189E+01  0.85516146098E+01  0.51100000000E-03 0. -1.
        -11    1    3    3    0    0  0.21513022728E+02  0.24480752652E+02 -0.30001183127E+02  0.44296595655E+02  0.51100000000E-03 0.  1.
         12    1    3    3    0    0 -0.21261162720E+02 -0.16165789463E+02  0.25835282042E+02  0.37159542346E+02  0.00000000000E+00 0. -1.
</event>
<event>
 7    1  0.1501154E-015  0.9000787E+02  0.7816164E-02  0.1186339E+00
        -11   -1    0    0    0    0  0.00000000000E+00  0.00000000000E+00  0.45593999997E+02  0.45594000000E+02  0.51100000000E-03 0.  1.
         11   -1    0    0    0    0 -0.00000000000E+00 -0.00000000000E+00 -0.45593999997E+02  0.45594000000E+02  0.51100000000E-03 0. -1.
    9900012    2    1    2    0    0 -0.81306410581E-02  0.11629259958E+01  0.20060157055E+00  0.90007871207E+02  0.90000134306E+02 0.  0.
         12    1    1    2    0    0  0.81306410581E-02 -0.11629259958E+01 -0.20060157055E+00  0.11801287934E+01  0.00000000000E+00 0. -1.
         11    1    3    3    0    0 -0.10033398459E+02  0.41489823106E+01 -0.34820244580E-01  0.10857456035E+02  0.51100000000E-03 0. -1.
        -11    1    3    3    0    0 -0.29059251798E+02  0.13038113316E+02  0.13903186023E+02  0.34752425753E+02  0.51100000000E-03 0.  1.
         12    1    3    3    0    0  0.39084519616E+02 -0.16024169631E+02 -0.13667764208E+02  0.44397989418E+02  0.00000000000E+00 0. -1.
</event>
<event>
 7    1  0.1501154E-015  0.9000787E+02  0.7816164E-02  0.1186339E+00
        -11   -1    0    0    0    0  0.00000000000E+00  0.00000000000E+00  0.45593999997E+02  0.45594000000E+02  0.51100000000E-03 0. -1.
         11   -1    0    0    0    0 -0.00000000000E+00 -0.00000000000E+00 -0.45593999997E+02  0.45594000000E+02  0.51100000000E-03 0.  1.
    9900012    2    1    2    0    0 -0.82756977763E+00  0.44353663441E+00 -0.71491691327E+00  0.90007871755E+02  0.90000134862E+02 0.  0.
         12    1    1    2    0    0  0.82756977763E+00 -0.44353663441E+00  0.71491691327E+00  0.11801282455E+01  0.00000000000E+00 0. -1.
         11    1    3    3    0    0  0.14562683022E+02 -0.55561330519E+01 -0.45553178872E+01  0.16238635183E+02  0.51100000000E-03 0. -1.
        -11    1    3    3    0    0  0.12659862522E+02 -0.25453635818E+01 -0.27786500109E+02  0.30640505600E+02  0.51100000000E-03 0.  1.
         12    1    3    3    0    0 -0.28050115322E+02  0.85450332681E+01  0.31626901083E+02  0.43128730972E+02  0.00000000000E+00 0. -1.
</event>
<event>
 7    1  0.1501154E-015  0.9000765E+02  0.7816164E-02  0.1186339E+00
        -11   -1    0    0    0    0  0.00000000000E+00  0.00000000000E+00  0.45593999997E+02  0.45594000000E+02  0.51100000000E-03 0. -1.
         11   -1    0    0    0    0 -0.00000000000E+00 -0.00000000000E+00 -0.45593999997E+02  0.45594000000E+02  0.51100000000E-03 0.  1.
    9900012    2    1    2    0    0  0.18038421232E+00  0.18374239266E+00 -0.11519238386E+01  0.90007649094E+02  0.89999909262E+02 0.  0.
         12    1    1    2    0    0 -0.18038421232E+00 -0.18374239266E+00  0.11519238386E+01  0.11803509058E+01  0.00000000000E+00 0. -1.
         11    1    3    3    0    0  0.41769748608E+01  0.29443395458E+01 -0.13324467727E+02  0.14270868748E+02  0.51100000000E-03 0. -1.
        -11    1    3    3    0    0  0.22240293895E+02  0.21905721738E+02 -0.10788292408E+02  0.33028450929E+02  0.51100000000E-03 0.  1.
         12    1    3    3    0    0 -0.26236884543E+02 -0.24666318892E+02  0.22960836297E+02  0.42708329418E+02  0.00000000000E+00 0. -1.
</event>
<event>
 7    1  0.1501154E-015  0.9000779E+02  0.7816164E-02  0.1186339E+00
        -11   -1    0    0    0    0  0.00000000000E+00  0.00000000000E+00  0.45593999997E+02  0.45594000000E+02  0.51100000000E-03 0.  1.
         11   -1    0    0    0    0 -0.00000000000E+00 -0.00000000000E+00 -0.45593999997E+02  0.45594000000E+02  0.51100000000E-03 0. -1.
    9900012    2    1    2    0    0  0.52365860737E+00  0.28564432793E-02  0.10576684363E+01  0.90007792807E+02  0.90000054872E+02 0.  0.
         12    1    1    2    0    0 -0.52365860737E+00 -0.28564432793E-02 -0.10576684363E+01  0.11802071926E+01  0.00000000000E+00 0. -1.
         11    1    3    3    0    0  0.69010323327E+01  0.97663345685E+01 -0.23030869320E+01  0.12178248964E+02  0.51100000000E-03 0. -1.
        -11    1    3    3    0    0 -0.31017936778E+02  0.17159063022E+02  0.16421329981E+02  0.39066685607E+02  0.51100000000E-03 0.  1.
         12    1    3    3    0    0  0.24640563053E+02 -0.26922541147E+02 -0.13060574612E+02  0.38762858236E+02  0.00000000000E+00 0. -1.
</event>
<event>
 7    1  0.1501154E-015  0.9000771E+02  0.7816164E-02  0.1186339E+00
        -11   -1    0    0    0    0  0.00000000000E+00  0.00000000000E+00  0.45593999997E+02  0.45594000000E+02  0.51100000000E-03 0. -1.
         11   -1    0    0    0    0 -0.00000000000E+00 -0.00000000000E+00 -0.45593999997E+02  0.45594000000E+02  0.51100000000E-03 0.  1.
    9900012    2    1    2    0    0 -0.72683965568E+00  0.90447754801E+00 -0.21611018555E+00  0.90007712267E+02  0.89999973269E+02 0.  0.
         12    1    1    2    0    0  0.72683965568E+00 -0.90447754801E+00  0.21611018555E+00  0.11802877328E+01  0.00000000000E+00 0. -1.
         11    1    3    3    0    0  0.19782009886E+02  0.16085254187E+02 -0.21742573058E+02  0.33508249744E+02  0.51100000000E-03 0. -1.
        -11    1    3    3    0    0  0.11776345199E+02  0.56441293135E+01  0.14164935169E+01  0.13135636875E+02  0.51100000000E-03 0.  1.
        -12    1    3    3    0    0 -0.32285194741E+02 -0.20824905953E+02  0.20109969356E+02  0.43363825649E+02  0.00000000000E+00 0.  1.
</event>
<event>
 7    1  0.1501154E-015  0.9000768E+02  0.7816164E-02  0.1186339E+00
        -11   -1    0    0    0    0  0.00000000000E+00  0.00000000000E+00  0.45593999997E+02  0.45594000000E+02  0.51100000000E-03 0.  1.
         11   -1    0    0    0    0 -0.00000000000E+00 -0.00000000000E+00 -0.45593999997E+02  0.45594000000E+02  0.51100000000E-03 0. -1.
    9900012    2    1    2    0    0 -0.61213875305E+00  0.59399194458E+00  0.81584875520E+00  0.90007682469E+02  0.89999943077E+02 0.  0.
         12    1    1    2    0    0  0.61213875305E+00 -0.59399194458E+00 -0.81584875520E+00  0.11803175313E+01  0.00000000000E+00 0. -1.
         11    1    3    3    0    0 -0.10547494001E+02  0.89592891509E+01  0.15971077833E+02  0.21132766482E+02  0.51100000000E-03 0. -1.
        -11    1    3    3    0    0 -0.19026910646E+02 -0.14601959397E+02  0.13614049126E+02  0.27578667133E+02  0.51100000000E-03 0.  1.
         12    1    3    3    0    0  0.28962265894E+02  0.62366621910E+01 -0.28769278204E+02  0.41296248853E+02  0.00000000000E+00 0. -1.
</event>
<event>
 7    1  0.1501154E-015  0.9000787E+02  0.7816164E-02  0.1186339E+00
        -11   -1    0    0    0    0  0.00000000000E+00  0.00000000000E+00  0.45593999997E+02  0.45594000000E+02  0.51100000000E-03 0.  1.
         11   -1    0    0    0    0 -0.00000000000E+00 -0.00000000000E+00 -0.45593999997E+02  0.45594000000E+02  0.51100000000E-03 0. -1.
    9900012    2    1    2    0    0  0.11365970985E+01  0.28357018100E+00 -0.14300875250E+00  0.90007865891E+02  0.90000128921E+02 0.  0.
         12    1    1    2    0    0 -0.11365970985E+01 -0.28357018100E+00  0.14300875250E+00  0.11801341090E+01  0.00000000000E+00 0. -1.
         11    1    3    3    0    0  0.78352937476E+00 -0.19356164899E+01 -0.14770287270E+02  0.14917168490E+02  0.51100000000E-03 0. -1.
        -11    1    3    3    0    0 -0.18032303131E+02 -0.29817284860E+02 -0.12902459000E+01  0.34869745731E+02  0.51100000000E-03 0.  1.
         12    1    3    3    0    0  0.18385370855E+02  0.32036471531E+02  0.15917524417E+02  0.40220951669E+02  0.00000000000E+00 0. -1.
</event>
<event>
 7    1  0.1501154E-015  0.9000779E+02  0.7816164E-02  0.1186339E+00
        -11   -1    0    0    0    0  0.00000000000E+00  0.00000000000E+00  0.45593999997E+02  0.45594000000E+02  0.51100000000E-03 0. -1.
         11   -1    0    0    0    0 -0.00000000000E+00 -0.00000000000E+00 -0.45593999997E+02  0.45594000000E+02  0.51100000000E-03 0.  1.
    9900012    2    1    2    0    0 -0.83181094098E+00 -0.66386173562E+00 -0.51016404352E+00  0.90007792731E+02  0.90000054795E+02 0.  0.
         12    1    1    2    0    0  0.83181094098E+00  0.66386173562E+00  0.51016404352E+00  0.11802072686E+01  0.00000000000E+00 0. -1.
         11    1    3    3    0    0 -0.28572105224E+02 -0.67701675623E+01  0.19485124937E+02  0.35240182461E+02  0.51100000000E-03 0. -1.
        -11    1    3    3    0    0 -0.82581471117E+01 -0.16270295772E+01  0.54353268617E+01  0.10019331181E+02  0.51100000000E-03 0.  1.
        -12    1    3    3    0    0  0.35998441395E+02  0.77333354040E+01 -0.25430615842E+02  0.44748279090E+02  0.00000000000E+00 0.  1.
</event>
<event>
 7    1  0.1501154E-015  0.9000771E+02  0.7816164E-02  0.1186339E+00
        -11   -1    0    0    0    0  0.00000000000E+00  0.00000000000E+00  0.45593999997E+02  0.45594000000E+02  0.51100000000E-03 0. -1.
         11   -1    0    0    0    0 -0.00000000000E+00 -0.00000000000E+00 -0.45593999997E+02  0.45594000000E+02  0.51100000000E-03 0.  1.
    9900012    2    1    2    0    0 -0.82699384648E+00 -0.80684171007E+00 -0.24119007117E+00  0.90007709774E+02  0.89999970743E+02 0.  0.
         12    1    1    2    0    0  0.82699384648E+00  0.80684171007E+00  0.24119007117E+00  0.11802902260E+01  0.00000000000E+00 0. -1.
         11    1    3    3    0    0  0.14116631560E+02  0.27054387978E+02  0.20342004572E+02  0.36674464492E+02  0.51100000000E-03 0. -1.
        -11    1    3    3    0    0 -0.13483865003E+01  0.91098242570E+01 -0.77447623751E+00  0.92415830815E+01  0.51100000000E-03 0.  1.
        -12    1    3    3    0    0 -0.13595238907E+02 -0.36971053945E+02 -0.19808718406E+02  0.44091662201E+02  0.00000000000E+00 0.  1.
</event>
<event>
 7    1  0.1501154E-015  0.9000686E+02  0.7816164E-02  0.1186341E+00
        -11   -1    0    0    0    0  0.00000000000E+00  0.00000000000E+00  0.45593999997E+02  0.45594000000E+02  0.51100000000E-03 0.  1.
         11   -1    0    0    0    0 -0.00000000000E+00 -0.00000000000E+00 -0.45593999997E+02  0.45594000000E+02  0.51100000000E-03 0. -1.
    9900012    2    1    2    0    0  0.41937146504E+00  0.85711079930E-01 -0.11008465232E+01  0.90006864156E+02  0.89999113958E+02 0.  0.
         12    1    1    2    0    0 -0.41937146504E+00 -0.85711079930E-01  0.11008465232E+01  0.11811358443E+01  0.00000000000E+00 0. -1.
         11    1    3    3    0    0 -0.36081780080E+01 -0.56632119564E+01  0.97060536481E+01  0.11802474142E+02  0.51100000000E-03 0. -1.
        -11    1    3    3    0    0  0.38419838368E+02  0.14179909866E+02 -0.12306098344E+02  0.42762061231E+02  0.51100000000E-03 0.  1.
         12    1    3    3    0    0 -0.34392288895E+02 -0.84309868296E+01  0.14991981732E+01  0.35442328782E+02  0.00000000000E+00 0. -1.
</event>
<event>
 7    1  0.1501154E-015  0.9000779E+02  0.7816164E-02  0.1186339E+00
        -11   -1    0    0    0    0  0.00000000000E+00  0.00000000000E+00  0.45593999997E+02  0.45594000000E+02  0.51100000000E-03 0.  1.
         11   -1    0    0    0    0 -0.00000000000E+00 -0.00000000000E+00 -0.45593999997E+02  0.45594000000E+02  0.51100000000E-03 0. -1.
    9900012    2    1    2    0    0  0.63044529185E+00  0.54869991213E+00 -0.83328976500E+00  0.90007786167E+02  0.90000048144E+02 0.  0.
         12    1    1    2    0    0 -0.63044529185E+00 -0.54869991213E+00  0.83328976500E+00  0.11802138332E+01  0.00000000000E+00 0. -1.
         11    1    3    3    0    0 -0.76557077522E+01  0.52238203233E+01 -0.30084142258E+01  0.97441631951E+01  0.51100000000E-03 0. -1.
        -11    1    3    3    0    0 -0.22869809655E+02  0.23580767827E+02  0.15251536573E+02  0.36217263468E+02  0.51100000000E-03 0.  1.
         12    1    3    3    0    0  0.31155962699E+02 -0.28255888238E+02 -0.13076412112E+02  0.44046359504E+02  0.00000000000E+00 0. -1.
</event>
<event>
 7    1  0.1501154E-015  0.9000788E+02  0.7816164E-02  0.1186339E+00
        -11   -1    0    0    0    0  0.00000000000E+00  0.00000000000E+00  0.45593999997E+02  0.45594000000E+02  0.51100000000E-03 0.  1.
         11   -1    0    0    0    0 -0.00000000000E+00 -0.00000000000E+00 -0.45593999997E+02  0.45594000000E+02  0.51100000000E-03 0. -1.
    9900012    2    1    2    0    0  0.62061078194E+00  0.70502150148E-01  0.10012820495E+01  0.90007875414E+02  0.90000138569E+02 0.  0.
         12    1    1    2    0    0 -0.62061078194E+00 -0.70502150148E-01 -0.10012820495E+01  0.11801245860E+01  0.00000000000E+00 0. -1.
         11    1    3    3    0    0  0.31193562657E+01 -0.50664206104E+01  0.25214469906E+01  0.64619421617E+01  0.51100000000E-03 0. -1.
        -11    1    3    3    0    0  0.14239066820E+02 -0.22094534505E+02  0.29147438560E+02  0.39249110229E+02  0.51100000000E-03 0.  1.
         12    1    3    3    0    0 -0.16737812304E+02  0.27231457265E+02 -0.30667603501E+02  0.44296823024E+02  0.00000000000E+00 0. -1.
</event>
<event>
 7    1  0.1501154E-015  0.9000765E+02  0.7816164E-02  0.1186339E+00
        -11   -1    0    0    0    0  0.00000000000E+00  0.00000000000E+00  0.45593999997E+02  0.45594000000E+02  0.51100000000E-03 0.  1.
         11   -1    0    0    0    0 -0.00000000000E+00 -0.00000000000E+00 -0.45593999997E+02  0.45594000000E+02  0.51100000000E-03 0. -1.
    9900012    2    1    2    0    0  0.62428908048E+00 -0.86611361645E+00 -0.50332634585E+00  0.90007649602E+02  0.89999909776E+02 0.  0.
         12    1    1    2    0    0 -0.62428908048E+00  0.86611361645E+00  0.50332634585E+00  0.11803503984E+01  0.00000000000E+00 0. -1.
         11    1    3    3    0    0 -0.18439643532E+01 -0.36827166014E+02  0.63665428148E+00  0.36878797297E+02  0.51100000000E-03 0. -1.
        -11    1    3    3    0    0 -0.74535617609E+01 -0.57309132021E+01 -0.39109855678E+01  0.10183062281E+02  0.51100000000E-03 0.  1.
        -12    1    3    3    0    0  0.99218151945E+01  0.41691965600E+02  0.27710049405E+01  0.42945790023E+02  0.00000000000E+00 0.  1.
</event>
<event>
 7    1  0.1501154E-015  0.9000775E+02  0.7816164E-02  0.1186339E+00
        -11   -1    0    0    0    0  0.00000000000E+00  0.00000000000E+00  0.45593999997E+02  0.45594000000E+02  0.51100000000E-03 0. -1.
         11   -1    0    0    0    0 -0.00000000000E+00 -0.00000000000E+00 -0.45593999997E+02  0.45594000000E+02  0.51100000000E-03 0.  1.
    9900012    2    1    2    0    0  0.27292041416E+00  0.11328363603E+01  0.18755093904E+00  0.90007754633E+02  0.90000016194E+02 0.  0.
         12    1    1    2    0    0 -0.27292041416E+00 -0.11328363603E+01 -0.18755093904E+00  0.11802453670E+01  0.00000000000E+00 0. -1.
         11    1    3    3    0    0 -0.28797876466E+01 -0.90162366761E+01  0.50772865591E+01  0.10740788600E+02  0.51100000000E-03 0. -1.
        -11    1    3    3    0    0  0.14263612212E+02  0.10197583665E+02 -0.39339269380E+02  0.43069936865E+02  0.51100000000E-03 0.  1.
         12    1    3    3    0    0 -0.11110904151E+02 -0.48510628666E-01  0.34449533760E+02  0.36197029168E+02  0.00000000000E+00 0. -1.
</event>
<event>
 7    1  0.1501154E-015  0.9000772E+02  0.7816164E-02  0.1186339E+00
        -11   -1    0    0    0    0  0.00000000000E+00  0.00000000000E+00  0.45593999997E+02  0.45594000000E+02  0.51100000000E-03 0. -1.
         11   -1    0    0    0    0 -0.00000000000E+00 -0.00000000000E+00 -0.45593999997E+02  0.45594000000E+02  0.51100000000E-03 0.  1.
    9900012    2    1    2    0    0  0.17308405997E+00  0.77959791760E+00 -0.86910324373E+00  0.90007715520E+02  0.89999976565E+02 0.  0.
         12    1    1    2    0    0 -0.17308405997E+00 -0.77959791760E+00  0.86910324373E+00  0.11802844798E+01  0.00000000000E+00 0. -1.
         11    1    3    3    0    0  0.85758223770E+01  0.22578343563E+02  0.14306352495E+02  0.28071302953E+02  0.51100000000E-03 0. -1.
        -11    1    3    3    0    0  0.86142776062E+01  0.14598082476E+02  0.40013548912E+01  0.17416102661E+02  0.51100000000E-03 0.  1.
        -12    1    3    3    0    0 -0.17017015923E+02 -0.36396828122E+02 -0.19176810630E+02  0.44520309907E+02  0.00000000000E+00 0.  1.
</event>
<event>
 7    1  0.1501154E-015  0.9000782E+02  0.7816164E-02  0.1186339E+00
        -11   -1    0    0    0    0  0.00000000000E+00  0.00000000000E+00  0.45593999997E+02  0.45594000000E+02  0.51100000000E-03 0. -1.
         11   -1    0    0    0    0 -0.00000000000E+00 -0.00000000000E+00 -0.45593999997E+02  0.45594000000E+02  0.51100000000E-03 0.  1.
    9900012    2    1    2    0    0 -0.89819525405E+00  0.75837369644E+00  0.10456038002E+00  0.90007822788E+02  0.90000085249E+02 0.  0.
         12    1    1    2    0    0  0.89819525405E+00 -0.75837369644E+00 -0.10456038002E+00  0.11801772117E+01  0.00000000000E+00 0. -1.
         11    1    3    3    0    0  0.19610933876E+02 -0.29119859001E+02  0.17550935673E+02  0.39250353616E+02  0.51100000000E-03 0. -1.
        -11    1    3    3    0    0 -0.53239259031E+01 -0.29128263284E+00  0.71901522286E+01  0.89513865923E+01  0.51100000000E-03 0.  1.
        -12    1    3    3    0    0 -0.15185203227E+02  0.30169515331E+02 -0.24636527522E+02  0.41806082580E+02  0.00000000000E+00 0.  1.
</event>
<event>
 7    1  0.1501154E-015  0.9000776E+02  0.7816164E-02  0.1186339E+00
        -11   -1    0    0    0    0  0.00000000000E+00  0.00000000000E+00  0.45593999997E+02  0.45594000000E+02  0.51100000000E-03 0.  1.
         11   -1    0    0    0    0 -0.00000000000E+00 -0.00000000000E+00 -0.45593999997E+02  0.45594000000E+02  0.51100000000E-03 0. -1.
    9900012    2    1    2    0    0  0.12257515634E+00 -0.11538939028E+01  0.21555899515E+00  0.90007762105E+02  0.90000023765E+02 0.  0.
         12    1    1    2    0    0 -0.12257515634E+00  0.11538939028E+01 -0.21555899515E+00  0.11802378948E+01  0.00000000000E+00 0. -1.
         11    1    3    3    0    0  0.23372229385E+02 -0.28883037994E+01  0.28920942223E+02  0.37296438229E+02  0.51100000000E-03 0. -1.
        -11    1    3    3    0    0  0.92389099035E+01  0.99310608569E+00  0.89280374683E-01  0.92925608499E+01  0.51100000000E-03 0.  1.
        -12    1    3    3    0    0 -0.32488564132E+02  0.74130381089E+00 -0.28794663602E+02  0.43418763026E+02  0.00000000000E+00 0.  1.
</event>
<event>
 7    1  0.1501154E-015  0.9000768E+02  0.7816164E-02  0.1186339E+00
        -11   -1    0    0    0    0  0.00000000000E+00  0.00000000000E+00  0.45593999997E+02  0.45594000000E+02  0.51100000000E-03 0.  1.
         11   -1    0    0    0    0 -0.00000000000E+00 -0.00000000000E+00 -0.45593999997E+02  0.45594000000E+02  0.51100000000E-03 0. -1.
    9900012    2    1    2    0    0 -0.60670468138E+00 -0.93049150419E+00  0.39906311193E+00  0.90007679545E+02  0.89999940115E+02 0.  0.
         12    1    1    2    0    0  0.60670468138E+00  0.93049150419E+00 -0.39906311193E+00  0.11803204553E+01  0.00000000000E+00 0. -1.
         11    1    3    3    0    0 -0.41362679488E+01  0.54340684433E+01 -0.71118063260E+01  0.98597972530E+01  0.51100000000E-03 0. -1.
        -11    1    3    3    0    0 -0.19802153622E+02  0.29287344615E+02  0.11928382499E+02  0.37311662412E+02  0.51100000000E-03 0.  1.
         12    1    3    3    0    0  0.23331716889E+02 -0.35651904562E+02 -0.44175130611E+01  0.42836219880E+02  0.00000000000E+00 0. -1.
</event>
<event>
 7    1  0.1501154E-015  0.9000770E+02  0.7816164E-02  0.1186339E+00
        -11   -1    0    0    0    0  0.00000000000E+00  0.00000000000E+00  0.45593999997E+02  0.45594000000E+02  0.51100000000E-03 0. -1.
         11   -1    0    0    0    0 -0.00000000000E+00 -0.00000000000E+00 -0.45593999997E+02  0.45594000000E+02  0.51100000000E-03 0.  1.
    9900012    2    1    2    0    0  0.25072817347E-01 -0.10979457368E+01 -0.43244100901E+00  0.90007695500E+02  0.89999956280E+02 0.  0.
         12    1    1    2    0    0 -0.25072817347E-01  0.10979457368E+01  0.43244100901E+00  0.11803045002E+01  0.00000000000E+00 0. -1.
         11    1    3    3    0    0 -0.15467092748E+01  0.80819024970E+01  0.90678501303E+01  0.12244809668E+02  0.51100000000E-03 0. -1.
        -11    1    3    3    0    0  0.31978310690E+02  0.11504418790E+02 -0.20108893545E+02  0.39488373050E+02  0.51100000000E-03 0.  1.
         12    1    3    3    0    0 -0.30406528598E+02 -0.20684267023E+02  0.10608602406E+02  0.38274512782E+02  0.00000000000E+00 0. -1.
</event>
<event>
 7    1  0.1501154E-015  0.9000784E+02  0.7816164E-02  0.1186339E+00
        -11   -1    0    0    0    0  0.00000000000E+00  0.00000000000E+00  0.45593999997E+02  0.45594000000E+02  0.51100000000E-03 0.  1.
         11   -1    0    0    0    0 -0.00000000000E+00 -0.00000000000E+00 -0.45593999997E+02  0.45594000000E+02  0.51100000000E-03 0. -1.
    9900012    2    1    2    0    0 -0.61030386725E+00 -0.86524479316E+00  0.52120057912E+00  0.90007843482E+02  0.90000106216E+02 0.  0.
         12    1    1    2    0    0  0.61030386725E+00  0.86524479316E+00 -0.52120057912E+00  0.11801565176E+01  0.00000000000E+00 0. -1.
         11    1    3    3    0    0  0.65239311128E+01 -0.14135787845E+01  0.81482326730E+01  0.10533450437E+02  0.51100000000E-03 0. -1.
        -11    1    3    3    0    0  0.17784107224E+02 -0.21766810138E+02  0.21287724135E+02  0.35259547536E+02  0.51100000000E-03 0.  1.
         12    1    3    3    0    0 -0.24918342204E+02  0.22315144129E+02 -0.28914756229E+02  0.44214845510E+02  0.00000000000E+00 0. -1.
</event>
<event>
 7    1  0.1501154E-015  0.9000773E+02  0.7816164E-02  0.1186339E+00
        -11   -1    0    0    0    0  0.00000000000E+00  0.00000000000E+00  0.45593999997E+02  0.45594000000E+02  0.51100000000E-03 0. -1.
         11   -1    0    0    0    0 -0.00000000000E+00 -0.00000000000E+00 -0.45593999997E+02  0.45594000000E+02  0.51100000000E-03 0.  1.
    9900012    2    1    2    0    0  0.78095581889E+00 -0.86972034613E+00  0.16352604867E+00  0.90007726201E+02  0.89999987387E+02 0.  0.
         12    1    1    2    0    0 -0.78095581889E+00  0.86972034613E+00 -0.16352604867E+00  0.11802737988E+01  0.00000000000E+00 0. -1.
         11    1    3    3    0    0 -0.85293428687E+01 -0.29282722152E+01  0.60741334933E+00  0.90384411917E+01  0.51100000000E-03 0. -1.
        -11    1    3    3    0    0 -0.28310798183E+02 -0.16709438892E+02 -0.15456807575E+02  0.36326567998E+02  0.51100000000E-03 0.  1.
         12    1    3    3    0    0  0.37621096871E+02  0.18767990761E+02  0.15012920275E+02  0.44642717011E+02  0.00000000000E+00 0. -1.
</event>
<event>
 7    1  0.1501154E-015  0.9000771E+02  0.7816164E-02  0.1186339E+00
        -11   -1    0    0    0    0  0.00000000000E+00  0.00000000000E+00  0.45593999997E+02  0.45594000000E+02  0.51100000000E-03 0. -1.
         11   -1    0    0    0    0 -0.00000000000E+00 -0.00000000000E+00 -0.45593999997E+02  0.45594000000E+02  0.51100000000E-03 0.  1.
    9900012    2    1    2    0    0  0.41798556364E+00 -0.66364555875E+00 -0.88201765388E+00  0.90007706604E+02  0.89999967531E+02 0.  0.
         12    1    1    2    0    0 -0.41798556364E+00  0.66364555875E+00  0.88201765388E+00  0.11802933961E+01  0.00000000000E+00 0. -1.
         11    1    3    3    0    0  0.50362038762E+01 -0.42755929393E+01  0.84206849940E+01  0.10702895893E+02  0.51100000000E-03 0. -1.
        -11    1    3    3    0    0  0.62355008601E+01  0.19429178713E+02 -0.38962349157E+02  0.43982259020E+02  0.51100000000E-03 0.  1.
         12    1    3    3    0    0 -0.10853719173E+02 -0.15817231332E+02  0.29659646509E+02  0.35322551691E+02  0.00000000000E+00 0. -1.
</event>
<event>
 7    1  0.1501154E-015  0.9000779E+02  0.7816164E-02  0.1186339E+00
        -11   -1    0    0    0    0  0.00000000000E+00  0.00000000000E+00  0.45593999997E+02  0.45594000000E+02  0.51100000000E-03 0.  1.
         11   -1    0    0    0    0 -0.00000000000E+00 -0.00000000000E+00 -0.45593999997E+02  0.45594000000E+02  0.51100000000E-03 0. -1.
    9900012    2    1    2    0    0 -0.95548856540E+00  0.50709439297E+00 -0.47202139739E+00  0.90007785053E+02  0.90000047015E+02 0.  0.
         12    1    1    2    0    0  0.95548856540E+00 -0.50709439297E+00  0.47202139739E+00  0.11802149472E+01  0.00000000000E+00 0. -1.
         11    1    3    3    0    0  0.33026734852E+02 -0.73654264483E+01 -0.10215165431E+02  0.35346348140E+02  0.51100000000E-03 0. -1.
        -11    1    3    3    0    0  0.93678905809E+01 -0.49275004335E+00  0.37670674672E+01  0.10108955144E+02  0.51100000000E-03 0.  1.
        -12    1    3    3    0    0 -0.43350113999E+02  0.83652708846E+01  0.59760765665E+01  0.44552481769E+02  0.00000000000E+00 0.  1.
</event>
<event>
 7    1  0.1501154E-015  0.9000776E+02  0.7816164E-02  0.1186339E+00
        -11   -1    0    0    0    0  0.00000000000E+00  0.00000000000E+00  0.45593999997E+02  0.45594000000E+02  0.51100000000E-03 0. -1.
         11   -1    0    0    0    0 -0.00000000000E+00 -0.00000000000E+00 -0.45593999997E+02  0.45594000000E+02  0.51100000000E-03 0.  1.
    9900012    2    1    2    0    0  0.11250533504E+01  0.33887529460E+00 -0.11127043468E+00  0.90007761627E+02  0.90000023281E+02 0.  0.
         12    1    1    2    0    0 -0.11250533504E+01 -0.33887529460E+00  0.11127043468E+00  0.11802383726E+01  0.00000000000E+00 0. -1.
         11    1    3    3    0    0  0.20189448452E+02  0.16277154057E+02  0.26454263440E+02  0.37045750464E+02  0.51100000000E-03 0. -1.
        -11    1    3    3    0    0  0.50570410392E+01  0.76629224178E+01 -0.14422377629E+02  0.17096754686E+02  0.51100000000E-03 0.  1.
        -12    1    3    3    0    0 -0.24121436140E+02 -0.23601201180E+02 -0.12143156246E+02  0.35865256478E+02  0.00000000000E+00 0.  1.
</event>
<event>
 7    1  0.1501154E-015  0.9000872E+02  0.7816164E-02  0.1186337E+00
        -11   -1    0    0    0    0  0.00000000000E+00  0.00000000000E+00  0.45593999997E+02  0.45594000000E+02  0.51100000000E-03 0.  1.
         11   -1    0    0    0    0 -0.00000000000E+00 -0.00000000000E+00 -0.45593999997E+02  0.45594000000E+02  0.51100000000E-03 0. -1.
    9900012    2    1    2    0    0 -0.31702324664E+00 -0.68523232175E+00  0.90589700446E+00  0.90008722061E+02  0.90000996387E+02 0.  0.
         12    1    1    2    0    0  0.31702324664E+00  0.68523232175E+00 -0.90589700446E+00  0.11792779386E+01  0.00000000000E+00 0. -1.
         11    1    3    3    0    0  0.34204407958E+02 -0.58198179931E+01  0.10715472701E+02  0.36312988871E+02  0.51100000000E-03 0. -1.
        -11    1    3    3    0    0  0.38514413993E+01 -0.87711340583E+01  0.43144292116E+01  0.10506221643E+02  0.51100000000E-03 0.  1.
        -12    1    3    3    0    0 -0.38372872604E+02  0.13905719730E+02 -0.14124004908E+02  0.43189511548E+02  0.00000000000E+00 0.  1.
</event>
<event>
 7    1  0.1501154E-015  0.9000773E+02  0.7816164E-02  0.1186339E+00
        -11   -1    0    0    0    0  0.00000000000E+00  0.00000000000E+00  0.45593999997E+02  0.45594000000E+02  0.51100000000E-03 0.  1.
         11   -1    0    0    0    0 -0.00000000000E+00 -0.00000000000E+00 -0.45593999997E+02  0.45594000000E+02  0.51100000000E-03 0. -1.
    9900012    2    1    2    0    0 -0.62070056431E+00 -0.51945720676E+00  0.85902886965E+00  0.90007730718E+02  0.89999991963E+02 0.  0.
         12    1    1    2    0    0  0.62070056431E+00  0.51945720676E+00 -0.85902886965E+00  0.11802692824E+01  0.00000000000E+00 0. -1.
         11    1    3    3    0    0 -0.72949471953E+01 -0.36906924794E+01 -0.69551467642E+01  0.10733663509E+02  0.51100000000E-03 0. -1.
        -11    1    3    3    0    0 -0.93765125521E+01 -0.19060669737E+02  0.34819822505E+02  0.40787843262E+02  0.51100000000E-03 0.  1.
         12    1    3    3    0    0  0.16050759183E+02  0.22231905009E+02 -0.27005646871E+02  0.38486223946E+02  0.00000000000E+00 0. -1.
</event>
<event>
 7    1  0.1501154E-015  0.9000762E+02  0.7816164E-02  0.1186339E+00
        -11   -1    0    0    0    0  0.00000000000E+00  0.00000000000E+00  0.45593999997E+02  0.45594000000E+02  0.51100000000E-03 0. -1.
         11   -1    0    0    0    0 -0.00000000000E+00 -0.00000000000E+00 -0.45593999997E+02  0.45594000000E+02  0.51100000000E-03 0.  1.
    9900012    2    1    2    0    0  0.11423588558E+01 -0.26096006678E+00 -0.14214469133E+00  0.90007623355E+02  0.89999883183E+02 0.  0.
         12    1    1    2    0    0 -0.11423588558E+01  0.26096006678E+00  0.14214469133E+00  0.11803766454E+01  0.00000000000E+00 0. -1.
         11    1    3    3    0    0  0.91672027860E+01 -0.25998919660E+01 -0.47945472767E+01  0.10666992500E+02  0.51100000000E-03 0. -1.
        -11    1    3    3    0    0  0.27640306983E+02 -0.10991149993E+02 -0.18260331375E+02  0.34903175364E+02  0.51100000000E-03 0.  1.
         12    1    3    3    0    0 -0.35665150913E+02  0.13330081892E+02  0.22912733961E+02  0.44437455490E+02  0.00000000000E+00 0. -1.
</event>
<event>
 7    1  0.1501154E-015  0.9000775E+02  0.7816164E-02  0.1186339E+00
        -11   -1    0    0    0    0  0.00000000000E+00  0.00000000000E+00  0.45593999997E+02  0.45594000000E+02  0.51100000000E-03 0.  1.
         11   -1    0    0    0    0 -0.00000000000E+00 -0.00000000000E+00 -0.45593999997E+02  0.45594000000E+02  0.51100000000E-03 0. -1.
    9900012    2    1    2    0    0  0.98722553541E+00 -0.63247567367E+00  0.13547322610E+00  0.90007748870E+02  0.90000010355E+02 0.  0.
         12    1    1    2    0    0 -0.98722553541E+00  0.63247567367E+00 -0.13547322610E+00  0.11802511303E+01  0.00000000000E+00 0. -1.
         11    1    3    3    0    0  0.16167174532E+02  0.38274526956E+02 -0.49837419218E+01  0.41846799517E+02  0.51100000000E-03 0. -1.
        -11    1    3    3    0    0 -0.56510666420E+01 -0.14032937234E+01  0.73790594058E+01  0.93996970931E+01  0.51100000000E-03 0.  1.
        -12    1    3    3    0    0 -0.95288823545E+01 -0.37503708906E+02 -0.22598442580E+01  0.38761252259E+02  0.00000000000E+00 0.  1.
</event>
<event>
 7    1  0.1501154E-015  0.9000769E+02  0.7816164E-02  0.1186339E+00
        -11   -1    0    0    0    0  0.00000000000E+00  0.00000000000E+00  0.45593999997E+02  0.45594000000E+02  0.51100000000E-03 0. -1.
         11   -1    0    0    0    0 -0.00000000000E+00 -0.00000000000E+00 -0.45593999997E+02  0.45594000000E+02  0.51100000000E-03 0.  1.
    9900012    2    1    2    0    0  0.70286517504E+00  0.89965002498E+00 -0.29958829737E+00  0.90007685309E+02  0.89999945955E+02 0.  0.
         12    1    1    2    0    0 -0.70286517504E+00 -0.89965002498E+00  0.29958829737E+00  0.11803146909E+01  0.00000000000E+00 0. -1.
         11    1    3    3    0    0  0.35370908582E+02  0.20566834318E+02 -0.42492023478E+00  0.40917922788E+02  0.51100000000E-03 0. -1.
        -11    1    3    3    0    0  0.38687083926E+01 -0.65689494440E+01  0.32086449768E+01  0.82712395850E+01  0.51100000000E-03 0.  1.
        -12    1    3    3    0    0 -0.38536751800E+02 -0.13098234849E+02 -0.30833130394E+01  0.40818522937E+02  0.00000000000E+00 0.  1.
</event>
<event>
 7    1  0.1501154E-015  0.9000774E+02  0.7816164E-02  0.1186339E+00
        -11   -1    0    0    0    0  0.00000000000E+00  0.00000000000E+00  0.45593999997E+02  0.45594000000E+02  0.51100000000E-03 0. -1.
         11   -1    0    0    0    0 -0.00000000000E+00 -0.00000000000E+00 -0.45593999997E+02  0.45594000000E+02  0.51100000000E-03 0.  1.
    9900012    2    1    2    0    0 -0.33371877122E-01  0.10504000137E+01 -0.53717203023E+00  0.90007742545E+02  0.90000003946E+02 0.  0.
         12    1    1    2    0    0  0.33371877122E-01 -0.10504000137E+01  0.53717203023E+00  0.11802574554E+01  0.00000000000E+00 0. -1.
         11    1    3    3    0    0 -0.11377855599E+02  0.32536210015E+02  0.18108719535E+02  0.38935668526E+02  0.51100000000E-03 0. -1.
        -11    1    3    3    0    0 -0.11868117110E+02 -0.97631880292E+01 -0.91814854063E+01  0.17901723905E+02  0.51100000000E-03 0.  1.
        -12    1    3    3    0    0  0.23212600832E+02 -0.21722621972E+02 -0.94644061590E+01  0.33170350113E+02  0.00000000000E+00 0.  1.
</event>
<event>
 7    1  0.1501154E-015  0.9000744E+02  0.7816164E-02  0.1186340E+00
        -11   -1    0    0    0    0  0.00000000000E+00  0.00000000000E+00  0.45593999997E+02  0.45594000000E+02  0.51100000000E-03 0.  1.
         11   -1    0    0    0    0 -0.00000000000E+00 -0.00000000000E+00 -0.45593999997E+02  0.45594000000E+02  0.51100000000E-03 0. -1.
    9900012    2    1    2    0    0  0.44035995520E-01  0.10049530514E+01  0.61793274912E+00  0.90007444755E+02  0.89999702225E+02 0.  0.
         12    1    1    2    0    0 -0.44035995520E-01 -0.10049530514E+01 -0.61793274912E+00  0.11805552451E+01  0.00000000000E+00 0. -1.
         11    1    3    3    0    0  0.24568402749E+01  0.40647315278E+02 -0.10470617230E+02  0.42046095287E+02  0.51100000000E-03 0. -1.
        -11    1    3    3    0    0  0.36142385750E-01  0.92355605130E+00  0.70624088265E+01  0.71226315885E+01  0.51100000000E-03 0.  1.
        -12    1    3    3    0    0 -0.24489466651E+01 -0.40565918278E+02  0.40261411527E+01  0.40838717880E+02  0.00000000000E+00 0.  1.
</event>
<event>
 7    1  0.1501154E-015  0.9000791E+02  0.7816164E-02  0.1186339E+00
        -11   -1    0    0    0    0  0.00000000000E+00  0.00000000000E+00  0.45593999997E+02  0.45594000000E+02  0.51100000000E-03 0.  1.
         11   -1    0    0    0    0 -0.00000000000E+00 -0.00000000000E+00 -0.45593999997E+02  0.45594000000E+02  0.51100000000E-03 0. -1.
    9900012    2    1    2    0    0  0.42681180045E+00 -0.10355907200E+01  0.37146421028E+00  0.90007914362E+02  0.90000178032E+02 0.  0.
         12    1    1    2    0    0 -0.42681180045E+00  0.10355907200E+01 -0.37146421028E+00  0.11800856376E+01  0.00000000000E+00 0. -1.
         11    1    3    3    0    0 -0.74321018682E+01 -0.35802921592E+02 -0.19265875813E+01  0.36616896000E+02  0.51100000000E-03 0. -1.
        -11    1    3    3    0    0 -0.88736821816E+01  0.17101333690E+01  0.12065351971E+02  0.15074465498E+02  0.51100000000E-03 0.  1.
        -12    1    3    3    0    0  0.16732595850E+02  0.33057197503E+02 -0.97673001795E+01  0.38316552865E+02  0.00000000000E+00 0.  1.
</event>
<event>
 7    1  0.1501154E-015  0.9000796E+02  0.7816164E-02  0.1186339E+00
        -11   -1    0    0    0    0  0.00000000000E+00  0.00000000000E+00  0.45593999997E+02  0.45594000000E+02  0.51100000000E-03 0.  1.
         11   -1    0    0    0    0 -0.00000000000E+00 -0.00000000000E+00 -0.45593999997E+02  0.45594000000E+02  0.51100000000E-03 0. -1.
    9900012    2    1    2    0    0  0.92511831732E+00  0.22683809082E+00  0.69655796063E+00  0.90007960843E+02  0.90000225125E+02 0.  0.
         12    1    1    2    0    0 -0.92511831732E+00 -0.22683809082E+00 -0.69655796063E+00  0.11800391574E+01  0.00000000000E+00 0. -1.
         11    1    3    3    0    0  0.41249668407E+01 -0.24538767816E+01  0.91783104953E+01  0.10357521253E+02  0.51100000000E-03 0. -1.
        -11    1    3    3    0    0 -0.16718187253E+01  0.37831495284E+02  0.10998939690E+02  0.39433408270E+02  0.51100000000E-03 0.  1.
         12    1    3    3    0    0 -0.15280297981E+01 -0.35150780411E+02 -0.19480692225E+02  0.40217031319E+02  0.00000000000E+00 0. -1.
</event>
<event>
 7    1  0.1501154E-015  0.9000781E+02  0.7816164E-02  0.1186339E+00
        -11   -1    0    0    0    0  0.00000000000E+00  0.00000000000E+00  0.45593999997E+02  0.45594000000E+02  0.51100000000E-03 0. -1.
         11   -1    0    0    0    0 -0.00000000000E+00 -0.00000000000E+00 -0.45593999997E+02  0.45594000000E+02  0.51100000000E-03 0.  1.
    9900012    2    1    2    0    0  0.31717945345E+00 -0.74194565190E+00 -0.86126057446E+00  0.90007806824E+02  0.90000069074E+02 0.  0.
         12    1    1    2    0    0 -0.31717945345E+00  0.74194565190E+00  0.86126057446E+00  0.11801931762E+01  0.00000000000E+00 0. -1.
         11    1    3    3    0    0  0.25284418572E+01  0.76812053638E+01 -0.23239394496E+00  0.80899901899E+01  0.51100000000E-03 0. -1.
        -11    1    3    3    0    0  0.10929902538E+02  0.97780430932E+01 -0.36649175971E+02  0.39474485378E+02  0.51100000000E-03 0.  1.
         12    1    3    3    0    0 -0.13141164942E+02 -0.18201194109E+02  0.36020309342E+02  0.42443331256E+02  0.00000000000E+00 0. -1.
</event>
<event>
 7    1  0.1501154E-015  0.9000772E+02  0.7816164E-02  0.1186339E+00
        -11   -1    0    0    0    0  0.00000000000E+00  0.00000000000E+00  0.45593999997E+02  0.45594000000E+02  0.51100000000E-03 0. -1.
         11   -1    0    0    0    0 -0.00000000000E+00 -0.00000000000E+00 -0.45593999997E+02  0.45594000000E+02  0.51100000000E-03 0.  1.
    9900012    2    1    2    0    0 -0.22947275178E+00  0.11552253470E+01 -0.76578103685E-01  0.90007717173E+02  0.89999978240E+02 0.  0.
         12    1    1    2    0    0  0.22947275178E+00 -0.11552253470E+01  0.76578103685E-01  0.11802828271E+01  0.00000000000E+00 0. -1.
         11    1    3    3    0    0  0.99244208839E+01 -0.27656575008E+01  0.34272757009E+02  0.35787775351E+02  0.51100000000E-03 0. -1.
        -11    1    3    3    0    0 -0.34126346456E+01 -0.39599564815E+01  0.85847243125E+01  0.10051110503E+02  0.51100000000E-03 0.  1.
        -12    1    3    3    0    0 -0.67412589900E+01  0.78808393293E+01 -0.42934059426E+02  0.44168831319E+02  0.00000000000E+00 0.  1.
</event>
<event>
 7    1  0.1501154E-015  0.9000770E+02  0.7816164E-02  0.1186339E+00
        -11   -1    0    0    0    0  0.00000000000E+00  0.00000000000E+00  0.45593999997E+02  0.45594000000E+02  0.51100000000E-03 0.  1.
         11   -1    0    0    0    0 -0.00000000000E+00 -0.00000000000E+00 -0.45593999997E+02  0.45594000000E+02  0.51100000000E-03 0. -1.
    9900012    2    1    2    0    0  0.33120042790E+00 -0.10621985099E+01  0.39390185609E+00  0.90007695772E+02  0.89999956556E+02 0.  0.
         12    1    1    2    0    0 -0.33120042790E+00  0.10621985099E+01 -0.39390185609E+00  0.11803042278E+01  0.00000000000E+00 0. -1.
         11    1    3    3    0    0  0.83677811334E+01  0.13543875732E+01 -0.12041458113E+02  0.14725856190E+02  0.51100000000E-03 0. -1.
        -11    1    3    3    0    0  0.15468237273E+01  0.42418394418E+01  0.42651914887E+02  0.42890228599E+02  0.51100000000E-03 0.  1.
         12    1    3    3    0    0 -0.95834044328E+01 -0.66584255250E+01 -0.30216554917E+02  0.32391610983E+02  0.00000000000E+00 0. -1.
</event>
<event>
 7    1  0.1501154E-015  0.9000781E+02  0.7816164E-02  0.1186339E+00
        -11   -1    0    0    0    0  0.00000000000E+00  0.00000000000E+00  0.45593999997E+02  0.45594000000E+02  0.51100000000E-03 0. -1.
         11   -1    0    0    0    0 -0.00000000000E+00 -0.00000000000E+00 -0.45593999997E+02  0.45594000000E+02  0.51100000000E-03 0.  1.
    9900012    2    1    2    0    0 -0.23612800673E+00 -0.43248485562E+00 -0.10724047808E+01  0.90007808660E+02  0.90000070934E+02 0.  0.
         12    1    1    2    0    0  0.23612800673E+00  0.43248485562E+00  0.10724047808E+01  0.11801913404E+01  0.00000000000E+00 0. -1.
         11    1    3    3    0    0  0.34114785595E+02 -0.40801615749E+01 -0.14716955709E+02  0.37377200273E+02  0.51100000000E-03 0. -1.
        -11    1    3    3    0    0  0.38862157673E+01  0.89299483515E+01 -0.35607858233E+01  0.10369467030E+02  0.51100000000E-03 0.  1.
        -12    1    3    3    0    0 -0.38237129369E+02 -0.52822716322E+01  0.17205336752E+02  0.42261141356E+02  0.00000000000E+00 0.  1.
</event>
<event>
 7    1  0.1501154E-015  0.9000770E+02  0.7816164E-02  0.1186339E+00
        -11   -1    0    0    0    0  0.00000000000E+00  0.00000000000E+00  0.45593999997E+02  0.45594000000E+02  0.51100000000E-03 0. -1.
         11   -1    0    0    0    0 -0.00000000000E+00 -0.00000000000E+00 -0.45593999997E+02  0.45594000000E+02  0.51100000000E-03 0.  1.
    9900012    2    1    2    0    0 -0.42065458114E+00 -0.83861147465E+00  0.71616127349E+00  0.90007700694E+02  0.89999961543E+02 0.  0.
         12    1    1    2    0    0  0.42065458114E+00  0.83861147465E+00 -0.71616127349E+00  0.11802993060E+01  0.00000000000E+00 0. -1.
         11    1    3    3    0    0 -0.22203028307E+02  0.86667712693E+01 -0.26099242120E+02  0.35344841628E+02  0.51100000000E-03 0. -1.
        -11    1    3    3    0    0 -0.18675713455E+01  0.83583540300E+01 -0.59902842846E+01  0.10451478885E+02  0.51100000000E-03 0.  1.
        -12    1    3    3    0    0  0.23649945071E+02 -0.17863736774E+02  0.32805687678E+02  0.44211380180E+02  0.00000000000E+00 0.  1.
</event>
<event>
 7    1  0.1501154E-015  0.9000766E+02  0.7816164E-02  0.1186339E+00
        -11   -1    0    0    0    0  0.00000000000E+00  0.00000000000E+00  0.45593999997E+02  0.45594000000E+02  0.51100000000E-03 0. -1.
         11   -1    0    0    0    0 -0.00000000000E+00 -0.00000000000E+00 -0.45593999997E+02  0.45594000000E+02  0.51100000000E-03 0.  1.
    9900012    2    1    2    0    0 -0.19842581560E-01  0.16808079346E+00 -0.11681438100E+01  0.90007659014E+02  0.89999919313E+02 0.  0.
         12    1    1    2    0    0  0.19842581560E-01 -0.16808079346E+00  0.11681438100E+01  0.11803409855E+01  0.00000000000E+00 0. -1.
         11    1    3    3    0    0  0.19343486002E+02 -0.12825738968E+02  0.36484545029E+02  0.43241092227E+02  0.51100000000E-03 0. -1.
        -11    1    3    3    0    0 -0.36040858326E+01  0.69886328728E+01 -0.33593997448E+01  0.85507889125E+01  0.51100000000E-03 0.  1.
        -12    1    3    3    0    0 -0.15759242751E+02  0.60051868882E+01 -0.34293289094E+02  0.38215777875E+02  0.00000000000E+00 0.  1.
</event>
<event>
 7    1  0.1501154E-015  0.9000774E+02  0.7816164E-02  0.1186339E+00
        -11   -1    0    0    0    0  0.00000000000E+00  0.00000000000E+00  0.45593999997E+02  0.45594000000E+02  0.51100000000E-03 0. -1.
         11   -1    0    0    0    0 -0.00000000000E+00 -0.00000000000E+00 -0.45593999997E+02  0.45594000000E+02  0.51100000000E-03 0.  1.
    9900012    2    1    2    0    0 -0.96667685030E+00 -0.67111034429E+00 -0.90323475916E-01  0.90007740894E+02  0.90000002274E+02 0.  0.
         12    1    1    2    0    0  0.96667685030E+00  0.67111034429E+00  0.90323475916E-01  0.11802591061E+01  0.00000000000E+00 0. -1.
         11    1    3    3    0    0 -0.20715209974E+00 -0.35954260767E+02  0.22041480857E+02  0.42173198336E+02  0.51100000000E-03 0. -1.
        -11    1    3    3    0    0 -0.67293852494E-01 -0.34092089894E+01 -0.34924896045E+01  0.48810570878E+01  0.51100000000E-03 0.  1.
        -12    1    3    3    0    0 -0.69223089806E+00  0.38692359412E+02 -0.18639314728E+02  0.42953485470E+02  0.00000000000E+00 0.  1.
</event>
<event>
 7    1  0.1934804E-015  0.9000757E+02  0.7816164E-02  0.1186339E+00
        -11   -1    0    0    0    0  0.00000000000E+00  0.00000000000E+00  0.45593999997E+02  0.45594000000E+02  0.51100000000E-03 0. -1.
         11   -1    0    0    0    0 -0.00000000000E+00 -0.00000000000E+00 -0.45593999997E+02  0.45594000000E+02  0.51100000000E-03 0.  1.
    9900012    2    1    2    0    0  0.16998671438E+00  0.34878025109E+00 -0.11148392842E+01  0.90007572206E+02  0.89999831359E+02 0.  0.
         12    1    1    2    0    0 -0.16998671438E+00 -0.34878025109E+00  0.11148392842E+01  0.11804277937E+01  0.00000000000E+00 0. -1.
         11    1    3    3    0    0  0.30940246230E+02 -0.14404638051E+02  0.14815749744E+02  0.37206167161E+02  0.51100000000E-03 0. -1.
        -11    1    3    3    0    0  0.86160447082E+01  0.24824168418E+01 -0.42710834334E+01  0.99318061674E+01  0.51100000000E-03 0.  1.
        -12    1    3    3    0    0 -0.39386304223E+02  0.12271001460E+02 -0.11659505595E+02  0.42869598877E+02  0.00000000000E+00 0.  1.
</event>
<event>
 7    1  0.1501154E-015  0.9000769E+02  0.7816164E-02  0.1186339E+00
        -11   -1    0    0    0    0  0.00000000000E+00  0.00000000000E+00  0.45593999997E+02  0.45594000000E+02  0.51100000000E-03 0.  1.
         11   -1    0    0    0    0 -0.00000000000E+00 -0.00000000000E+00 -0.45593999997E+02  0.45594000000E+02  0.51100000000E-03 0. -1.
    9900012    2    1    2    0    0 -0.18189977206E+00 -0.52793167450E-01  0.11650161806E+01  0.90007687606E+02  0.89999948283E+02 0.  0.
         12    1    1    2    0    0  0.18189977206E+00  0.52793167450E-01 -0.11650161806E+01  0.11803123936E+01  0.00000000000E+00 0. -1.
         11    1    3    3    0    0  0.42736679628E+01 -0.57355160816E+01 -0.76140340932E+01  0.10446717093E+02  0.51100000000E-03 0. -1.
        -11    1    3    3    0    0  0.31194498180E+02 -0.18018054787E+02  0.71083494364E+01  0.36718873172E+02  0.51100000000E-03 0.  1.
         12    1    3    3    0    0 -0.35650065915E+02  0.23700777701E+02  0.16707008374E+01  0.42842097342E+02  0.00000000000E+00 0. -1.
</event>
<event>
 7    1  0.1501154E-015  0.9000771E+02  0.7816164E-02  0.1186339E+00
        -11   -1    0    0    0    0  0.00000000000E+00  0.00000000000E+00  0.45593999997E+02  0.45594000000E+02  0.51100000000E-03 0. -1.
         11   -1    0    0    0    0 -0.00000000000E+00 -0.00000000000E+00 -0.45593999997E+02  0.45594000000E+02  0.51100000000E-03 0.  1.
    9900012    2    1    2    0    0  0.11774854866E+01  0.63349669738E-01 -0.51072177337E-01  0.90007706130E+02  0.89999967051E+02 0.  0.
         12    1    1    2    0    0 -0.11774854866E+01 -0.63349669738E-01  0.51072177337E-01  0.11802938698E+01  0.00000000000E+00 0. -1.
         11    1    3    3    0    0 -0.14284196201E+02  0.23385249733E+02  0.35301374567E+02  0.44688871241E+02  0.51100000000E-03 0. -1.
        -11    1    3    3    0    0  0.47621359548E+01 -0.39961260255E+01 -0.88932651125E+01  0.10850674020E+02  0.51100000000E-03 0.  1.
        -12    1    3    3    0    0  0.10699545732E+02 -0.19325774038E+02 -0.26459181632E+02  0.34468160869E+02  0.00000000000E+00 0.  1.
</event>
<event>
 7    1  0.1501154E-015  0.9000773E+02  0.7816164E-02  0.1186339E+00
        -11   -1    0    0    0    0  0.00000000000E+00  0.00000000000E+00  0.45593999997E+02  0.45594000000E+02  0.51100000000E-03 0.  1.
         11   -1    0    0    0    0 -0.00000000000E+00 -0.00000000000E+00 -0.45593999997E+02  0.45594000000E+02  0.51100000000E-03 0. -1.
    9900012    2    1    2    0    0  0.71657192473E+00  0.16758449798E+00  0.92275504197E+00  0.90007730219E+02  0.89999991458E+02 0.  0.
         12    1    1    2    0    0 -0.71657192473E+00 -0.16758449798E+00 -0.92275504197E+00  0.11802697805E+01  0.00000000000E+00 0. -1.
         11    1    3    3    0    0 -0.11324727821E+02  0.76001694004E+01 -0.26564517058E+02  0.29861105169E+02  0.51100000000E-03 0. -1.
        -11    1    3    3    0    0 -0.99369044656E+01  0.55271873072E+01 -0.97691358333E+01  0.14990926758E+02  0.51100000000E-03 0.  1.
        -12    1    3    3    0    0  0.21978204211E+02 -0.12959772210E+02  0.37256407934E+02  0.45155698292E+02  0.00000000000E+00 0.  1.
</event>
<event>
 7    1  0.1522370E-015  0.9000776E+02  0.7816164E-02  0.1186339E+00
        -11   -1    0    0    0    0  0.00000000000E+00  0.00000000000E+00  0.45593999997E+02  0.45594000000E+02  0.51100000000E-03 0. -1.
         11   -1    0    0    0    0 -0.00000000000E+00 -0.00000000000E+00 -0.45593999997E+02  0.45594000000E+02  0.51100000000E-03 0.  1.
    9900012    2    1    2    0    0 -0.10761254573E+01  0.22154348750E+00  0.43110342796E+00  0.90007755245E+02  0.90000016814E+02 0.  0.
         12    1    1    2    0    0  0.10761254573E+01 -0.22154348750E+00 -0.43110342796E+00  0.11802447553E+01  0.00000000000E+00 0. -1.
         11    1    3    3    0    0  0.36255993925E+02 -0.14201271087E+02  0.99007402345E+01  0.40177081196E+02  0.51100000000E-03 0. -1.
        -11    1    3    3    0    0  0.13185941385E+01  0.98663829614E+01 -0.10255528110E+01  0.10006795795E+02  0.51100000000E-03 0.  1.
        -12    1    3    3    0    0 -0.38650713521E+02  0.45564316133E+01 -0.84440839955E+01  0.39823878254E+02  0.00000000000E+00 0.  1.
</event>
<event>
 7    1  0.1501154E-015  0.9000774E+02  0.7816164E-02  0.1186339E+00
        -11   -1    0    0    0    0  0.00000000000E+00  0.00000000000E+00  0.45593999997E+02  0.45594000000E+02  0.51100000000E-03 0.  1.
         11   -1    0    0    0    0 -0.00000000000E+00 -0.00000000000E+00 -0.45593999997E+02  0.45594000000E+02  0.51100000000E-03 0. -1.
    9900012    2    1    2    0    0 -0.54396003690E+00 -0.10069838030E+01  0.28828869033E+00  0.90007737627E+02  0.89999998963E+02 0.  0.
         12    1    1    2    0    0  0.54396003690E+00  0.10069838030E+01 -0.28828869033E+00  0.11802623735E+01  0.00000000000E+00 0. -1.
         11    1    3    3    0    0 -0.53480470697E+00  0.55316250125E+01  0.83931101952E+01  0.10066240130E+02  0.51100000000E-03 0. -1.
        -11    1    3    3    0    0 -0.39073863932E+02 -0.42201876641E+01 -0.10670903372E+02  0.40724010185E+02  0.51100000000E-03 0.  1.
         12    1    3    3    0    0  0.39064708603E+02 -0.23184211513E+01  0.25660818670E+01  0.39217487311E+02  0.00000000000E+00 0. -1.
</event>
<event>
 7    1  0.1501154E-015  0.9000773E+02  0.7816164E-02  0.1186339E+00
        -11   -1    0    0    0    0  0.00000000000E+00  0.00000000000E+00  0.45593999997E+02  0.45594000000E+02  0.51100000000E-03 0.  1.
         11   -1    0    0    0    0 -0.00000000000E+00 -0.00000000000E+00 -0.45593999997E+02  0.45594000000E+02  0.51100000000E-03 0. -1.
    9900012    2    1    2    0    0  0.10279879670E+01 -0.10426054478E+00  0.57045114684E+00  0.90007727136E+02  0.89999988335E+02 0.  0.
         12    1    1    2    0    0 -0.10279879670E+01  0.10426054478E+00 -0.57045114684E+00  0.11802728635E+01  0.00000000000E+00 0. -1.
         11    1    3    3    0    0 -0.25296664566E+02  0.15612213279E+01 -0.11533918493E+02  0.27845824216E+02  0.51100000000E-03 0. -1.
        -11    1    3    3    0    0  0.15090122032E+02  0.26217427866E+02  0.15071057867E+01  0.30287566343E+02  0.51100000000E-03 0.  1.
        -12    1    3    3    0    0  0.11234530500E+02 -0.27882909739E+02  0.10597263853E+02  0.31874336578E+02  0.00000000000E+00 0.  1.
</event>
<event>
 7    1  0.1501154E-015  0.9000773E+02  0.7816164E-02  0.1186339E+00
        -11   -1    0    0    0    0  0.00000000000E+00  0.00000000000E+00  0.45593999997E+02  0.45594000000E+02  0.51100000000E-03 0.  1.
         11   -1    0    0    0    0 -0.00000000000E+00 -0.00000000000E+00 -0.45593999997E+02  0.45594000000E+02  0.51100000000E-03 0. -1.
    9900012    2    1    2    0    0 -0.11152309935E+01  0.19084897016E+00  0.33598100596E+00  0.90007725992E+02  0.89999987175E+02 0.  0.
         12    1    1    2    0    0  0.11152309935E+01 -0.19084897016E+00 -0.33598100596E+00  0.11802740083E+01  0.00000000000E+00 0. -1.
         11    1    3    3    0    0  0.28242016566E+02  0.14056185321E+02 -0.22065839288E+02  0.38497910453E+02  0.51100000000E-03 0. -1.
        -11    1    3    3    0    0  0.19654810988E+01  0.49453609461E+01 -0.38083562396E+01  0.65439505152E+01  0.51100000000E-03 0.  1.
        -12    1    3    3    0    0 -0.31322728658E+02 -0.18810697297E+02  0.26210176534E+02  0.44965865024E+02  0.00000000000E+00 0.  1.
</event>
<event>
 7    1  0.1501154E-015  0.9000790E+02  0.7816164E-02  0.1186339E+00
        -11   -1    0    0    0    0  0.00000000000E+00  0.00000000000E+00  0.45593999997E+02  0.45594000000E+02  0.51100000000E-03 0.  1.
         11   -1    0    0    0    0 -0.00000000000E+00 -0.00000000000E+00 -0.45593999997E+02  0.45594000000E+02  0.51100000000E-03 0. -1.
    9900012    2    1    2    0    0 -0.69585367560E-01 -0.10564690981E+01 -0.52121811173E+00  0.90007899412E+02  0.90000162884E+02 0.  0.
         12    1    1    2    0    0  0.69585367560E-01  0.10564690981E+01  0.52121811173E+00  0.11801005884E+01  0.00000000000E+00 0. -1.
         11    1    3    3    0    0  0.49923064690E+01  0.61769629516E+01  0.56664448004E+01  0.97563616232E+01  0.51100000000E-03 0. -1.
        -11    1    3    3    0    0  0.96440811323E+01  0.15414832222E+02  0.30011273327E+02  0.35089911375E+02  0.51100000000E-03 0.  1.
         12    1    3    3    0    0 -0.14705972969E+02 -0.22648264272E+02 -0.36198936239E+02  0.45161626414E+02  0.00000000000E+00 0. -1.
</event>
<event>
 7    1  0.1501154E-015  0.9000839E+02  0.7816164E-02  0.1186338E+00
        -11   -1    0    0    0    0  0.00000000000E+00  0.00000000000E+00  0.45593999997E+02  0.45594000000E+02  0.51100000000E-03 0.  1.
         11   -1    0    0    0    0 -0.00000000000E+00 -0.00000000000E+00 -0.45593999997E+02  0.45594000000E+02  0.51100000000E-03 0. -1.
    9900012    2    1    2    0    0  0.80975859247E+00 -0.71152178118E+00  0.47907310690E+00  0.90008388511E+02  0.90000658437E+02 0.  0.
         12    1    1    2    0    0 -0.80975859247E+00  0.71152178118E+00 -0.47907310690E+00  0.11796114890E+01  0.00000000000E+00 0. -1.
         11    1    3    3    0    0 -0.66873111257E-01 -0.35172274249E+01  0.56331759447E+01  0.66413878260E+01  0.51100000000E-03 0. -1.
        -11    1    3    3    0    0 -0.22497281184E+02 -0.30735814950E+02  0.10627237547E+02  0.39544356860E+02  0.51100000000E-03 0.  1.
         12    1    3    3    0    0  0.23373912888E+02  0.33541520594E+02 -0.15781340385E+02  0.43822643825E+02  0.00000000000E+00 0. -1.
</event>
<event>
 7    1  0.1501154E-015  0.9000784E+02  0.7816164E-02  0.1186339E+00
        -11   -1    0    0    0    0  0.00000000000E+00  0.00000000000E+00  0.45593999997E+02  0.45594000000E+02  0.51100000000E-03 0. -1.
         11   -1    0    0    0    0 -0.00000000000E+00 -0.00000000000E+00 -0.45593999997E+02  0.45594000000E+02  0.51100000000E-03 0.  1.
    9900012    2    1    2    0    0 -0.76254290144E+00  0.12763390779E+00 -0.89164186725E+00  0.90007835897E+02  0.90000098531E+02 0.  0.
         12    1    1    2    0    0  0.76254290144E+00 -0.12763390779E+00  0.89164186725E+00  0.11801641032E+01  0.00000000000E+00 0. -1.
         11    1    3    3    0    0 -0.17962883814E+01  0.43821230970E+01 -0.20897463850E+01  0.51765524242E+01  0.51100000000E-03 0. -1.
        -11    1    3    3    0    0  0.16994264571E+02 -0.12704439370E+02 -0.36958827214E+02  0.42616460638E+02  0.51100000000E-03 0.  1.
         12    1    3    3    0    0 -0.15960519091E+02  0.84499501805E+01  0.38156931732E+02  0.42214822834E+02  0.00000000000E+00 0. -1.
</event>
<event>
 7    1  0.1501154E-015  0.9000767E+02  0.7816164E-02  0.1186339E+00
        -11   -1    0    0    0    0  0.00000000000E+00  0.00000000000E+00  0.45593999997E+02  0.45594000000E+02  0.51100000000E-03 0.  1.
         11   -1    0    0    0    0 -0.00000000000E+00 -0.00000000000E+00 -0.45593999997E+02  0.45594000000E+02  0.51100000000E-03 0. -1.
    9900012    2    1    2    0    0 -0.17178831915E+00  0.32551720473E+00  0.11214713402E+01  0.90007673501E+02  0.89999933991E+02 0.  0.
         12    1    1    2    0    0  0.17178831915E+00 -0.32551720473E+00 -0.11214713402E+01  0.11803264989E+01  0.00000000000E+00 0. -1.
         11    1    3    3    0    0 -0.16317528438E+01  0.20722385691E+02 -0.30232792488E+02  0.36689257664E+02  0.51100000000E-03 0. -1.
        -11    1    3    3    0    0 -0.83847455203E+00 -0.37851340900E+01 -0.89015732230E+01  0.97091856383E+01  0.51100000000E-03 0.  1.
        -12    1    3    3    0    0  0.22984390767E+01 -0.16611734396E+02  0.40255837051E+02  0.43609230199E+02  0.00000000000E+00 0.  1.
</event>
<event>
 7    1  0.1501154E-015  0.9000742E+02  0.7816164E-02  0.1186340E+00
        -11   -1    0    0    0    0  0.00000000000E+00  0.00000000000E+00  0.45593999997E+02  0.45594000000E+02  0.51100000000E-03 0. -1.
         11   -1    0    0    0    0 -0.00000000000E+00 -0.00000000000E+00 -0.45593999997E+02  0.45594000000E+02  0.51100000000E-03 0.  1.
    9900012    2    1    2    0    0 -0.98681347057E+00 -0.14414265008E+00 -0.63180852969E+00  0.90007423892E+02  0.89999681087E+02 0.  0.
         12    1    1    2    0    0  0.98681347057E+00  0.14414265008E+00  0.63180852969E+00  0.11805761083E+01  0.00000000000E+00 0. -1.
         11    1    3    3    0    0  0.67928428149E+00 -0.19164712311E+02  0.36219506811E+02  0.40982926921E+02  0.51100000000E-03 0. -1.
        -11    1    3    3    0    0  0.49361749180E+01 -0.52342591273E+01 -0.81073895588E+01  0.10839421440E+02  0.51100000000E-03 0.  1.
        -12    1    3    3    0    0 -0.66022726700E+01  0.24254828789E+02 -0.28743925782E+02  0.38185075531E+02  0.00000000000E+00 0.  1.
</event>
<event>
 7    1  0.1501154E-015  0.9000774E+02  0.7816164E-02  0.1186339E+00
        -11   -1    0    0    0    0  0.00000000000E+00  0.00000000000E+00  0.45593999997E+02  0.45594000000E+02  0.51100000000E-03 0. -1.
         11   -1    0    0    0    0 -0.00000000000E+00 -0.00000000000E+00 -0.45593999997E+02  0.45594000000E+02  0.51100000000E-03 0.  1.
    9900012    2    1    2    0    0 -0.22012730927E+00 -0.11527916248E+01 -0.12502532467E+00  0.90007739057E+02  0.90000000412E+02 0.  0.
         12    1    1    2    0    0  0.22012730927E+00  0.11527916248E+01  0.12502532467E+00  0.11802609433E+01  0.00000000000E+00 0. -1.
         11    1    3    3    0    0  0.16624124841E+02 -0.16000453234E+02  0.25954681506E+02  0.34727820587E+02  0.51100000000E-03 0. -1.
        -11    1    3    3    0    0  0.49974060720E+01 -0.64506941875E+01  0.66578118609E+01  0.10531475774E+02  0.51100000000E-03 0.  1.
        -12    1    3    3    0    0 -0.21841658222E+02  0.21298355796E+02 -0.32737518692E+02  0.44748442695E+02  0.00000000000E+00 0.  1.
</event>
<event>
 7    1  0.1501154E-015  0.9000772E+02  0.7816164E-02  0.1186339E+00
        -11   -1    0    0    0    0  0.00000000000E+00  0.00000000000E+00  0.45593999997E+02  0.45594000000E+02  0.51100000000E-03 0. -1.
         11   -1    0    0    0    0 -0.00000000000E+00 -0.00000000000E+00 -0.45593999997E+02  0.45594000000E+02  0.51100000000E-03 0.  1.
    9900012    2    1    2    0    0 -0.21100257546E-01  0.15744855742E+00 -0.11695392653E+01  0.90007721490E+02  0.89999982613E+02 0.  0.
         12    1    1    2    0    0  0.21100257546E-01 -0.15744855742E+00  0.11695392653E+01  0.11802785105E+01  0.00000000000E+00 0. -1.
         11    1    3    3    0    0  0.11786802502E+00  0.41231348690E+02  0.89042566787E+01  0.42182031659E+02  0.51100000000E-03 0. -1.
        -11    1    3    3    0    0 -0.46267964068E+01 -0.22232913332E+01 -0.68835604570E+01  0.85868314394E+01  0.51100000000E-03 0.  1.
        -12    1    3    3    0    0  0.44878281242E+01 -0.38850608799E+02 -0.31902354870E+01  0.39238858391E+02  0.00000000000E+00 0.  1.
</event>
<event>
 7    1  0.1501154E-015  0.9000785E+02  0.7816164E-02  0.1186339E+00
        -11   -1    0    0    0    0  0.00000000000E+00  0.00000000000E+00  0.45593999997E+02  0.45594000000E+02  0.51100000000E-03 0. -1.
         11   -1    0    0    0    0 -0.00000000000E+00 -0.00000000000E+00 -0.45593999997E+02  0.45594000000E+02  0.51100000000E-03 0.  1.
    9900012    2    1    2    0    0  0.48607986203E+00  0.10751966804E+01  0.20788930260E-01  0.90007850131E+02  0.90000112953E+02 0.  0.
         12    1    1    2    0    0 -0.48607986203E+00 -0.10751966804E+01 -0.20788930260E-01  0.11801498691E+01  0.00000000000E+00 0. -1.
         11    1    3    3    0    0  0.11012719952E+02  0.19343138721E+02 -0.29802161069E+02  0.37196852299E+02  0.51100000000E-03 0. -1.
        -11    1    3    3    0    0  0.31060068122E+01  0.10772211180E+02  0.51383443839E+01  0.12332493474E+02  0.51100000000E-03 0.  1.
         12    1    3    3    0    0 -0.13632646902E+02 -0.29040153221E+02  0.24684605615E+02  0.40478504358E+02  0.00000000000E+00 0. -1.
</event>
<event>
 7    1  0.1595131E-015  0.9000780E+02  0.7816164E-02  0.1186339E+00
        -11   -1    0    0    0    0  0.00000000000E+00  0.00000000000E+00  0.45593999997E+02  0.45594000000E+02  0.51100000000E-03 0. -1.
         11   -1    0    0    0    0 -0.00000000000E+00 -0.00000000000E+00 -0.45593999997E+02  0.45594000000E+02  0.51100000000E-03 0.  1.
    9900012    2    1    2    0    0  0.76274251709E+00 -0.35049336369E+00 -0.82960248665E+00  0.90007804240E+02  0.90000066456E+02 0.  0.
         12    1    1    2    0    0 -0.76274251709E+00  0.35049336369E+00  0.82960248665E+00  0.11801957597E+01  0.00000000000E+00 0. -1.
         11    1    3    3    0    0  0.33053149571E+02 -0.32762768582E+01  0.17097201497E+02  0.37357181182E+02  0.51100000000E-03 0. -1.
        -11    1    3    3    0    0  0.83413888019E+01 -0.30701223621E+00 -0.56581960030E+01  0.10084057017E+02  0.51100000000E-03 0.  1.
        -12    1    3    3    0    0 -0.40631795856E+02  0.32327957307E+01 -0.12268607981E+02  0.42566566041E+02  0.00000000000E+00 0.  1.
</event>
<event>
 7    1  0.1501154E-015  0.9000752E+02  0.7816164E-02  0.1186339E+00
        -11   -1    0    0    0    0  0.00000000000E+00  0.00000000000E+00  0.45593999997E+02  0.45594000000E+02  0.51100000000E-03 0.  1.
         11   -1    0    0    0    0 -0.00000000000E+00 -0.00000000000E+00 -0.45593999997E+02  0.45594000000E+02  0.51100000000E-03 0. -1.
    9900012    2    1    2    0    0 -0.10719879314E+00 -0.96947042261E+00 -0.66495776751E+00  0.90007519880E+02  0.89999778342E+02 0.  0.
         12    1    1    2    0    0  0.10719879314E+00  0.96947042261E+00  0.66495776751E+00  0.11804801202E+01  0.00000000000E+00 0. -1.
         11    1    3    3    0    0  0.27342706050E+02  0.24800855169E+02 -0.80884793404E+01  0.37790600545E+02  0.51100000000E-03 0. -1.
        -11    1    3    3    0    0  0.67078639493E+01 -0.30604897218E+01 -0.55139496884E+01  0.92068277668E+01  0.51100000000E-03 0.  1.
        -12    1    3    3    0    0 -0.34157768792E+02 -0.22709835870E+02  0.12937471261E+02  0.43010091568E+02  0.00000000000E+00 0.  1.
</event>
<event>
 7    1  0.1501154E-015  0.9000772E+02  0.7816164E-02  0.1186339E+00
        -11   -1    0    0    0    0  0.00000000000E+00  0.00000000000E+00  0.45593999997E+02  0.45594000000E+02  0.51100000000E-03 0.  1.
         11   -1    0    0    0    0 -0.00000000000E+00 -0.00000000000E+00 -0.45593999997E+02  0.45594000000E+02  0.51100000000E-03 0. -1.
    9900012    2    1    2    0    0 -0.84932360094E+00 -0.32534422282E+00 -0.75224268793E+00  0.90007716770E+02  0.89999977831E+02 0.  0.
         12    1    1    2    0    0  0.84932360094E+00  0.32534422282E+00  0.75224268793E+00  0.11802832304E+01  0.00000000000E+00 0. -1.
         11    1    3    3    0    0  0.32054103658E+02  0.16202652441E+02  0.90294287871E+01  0.37034066641E+02  0.51100000000E-03 0. -1.
        -11    1    3    3    0    0  0.10223694071E+01 -0.42857320799E+01  0.10647191436E+02  0.11522821894E+02  0.51100000000E-03 0.  1.
        -12    1    3    3    0    0 -0.33925796666E+02 -0.12242264584E+02 -0.20428862911E+02  0.41450828235E+02  0.00000000000E+00 0.  1.
</event>
<event>
 7    1  0.1501154E-015  0.9000773E+02  0.7816164E-02  0.1186339E+00
        -11   -1    0    0    0    0  0.00000000000E+00  0.00000000000E+00  0.45593999997E+02  0.45594000000E+02  0.51100000000E-03 0.  1.
         11   -1    0    0    0    0 -0.00000000000E+00 -0.00000000000E+00 -0.45593999997E+02  0.45594000000E+02  0.51100000000E-03 0. -1.
    9900012    2    1    2    0    0  0.66268167973E-01  0.10181054362E+01 -0.59338712333E+00  0.90007729511E+02  0.89999990740E+02 0.  0.
         12    1    1    2    0    0 -0.66268167973E-01 -0.10181054362E+01  0.59338712333E+00  0.11802704891E+01  0.00000000000E+00 0. -1.
         11    1    3    3    0    0  0.65585642488E+01  0.12388695842E+02 -0.33926889892E+01  0.14422374579E+02  0.51100000000E-03 0. -1.
        -11    1    3    3    0    0  0.66498434496E+01  0.26465803722E+02  0.18059322406E+02  0.32723054726E+02  0.51100000000E-03 0.  1.
         12    1    3    3    0    0 -0.13142139530E+02 -0.37836394128E+02 -0.15260020540E+02  0.42862300206E+02  0.00000000000E+00 0. -1.
</event>
<event>
 7    1  0.1501154E-015  0.9000768E+02  0.7816164E-02  0.1186339E+00
        -11   -1    0    0    0    0  0.00000000000E+00  0.00000000000E+00  0.45593999997E+02  0.45594000000E+02  0.51100000000E-03 0.  1.
         11   -1    0    0    0    0 -0.00000000000E+00 -0.00000000000E+00 -0.45593999997E+02  0.45594000000E+02  0.51100000000E-03 0. -1.
    9900012    2    1    2    0    0  0.18524150368E+00  0.45921588347E+00  0.10714273528E+01  0.90007682155E+02  0.89999942760E+02 0.  0.
         12    1    1    2    0    0 -0.18524150368E+00 -0.45921588347E+00 -0.10714273528E+01  0.11803178447E+01  0.00000000000E+00 0. -1.
         11    1    3    3    0    0 -0.18544709567E+02 -0.37744901779E+02 -0.99166585178E+01  0.43207915706E+02  0.51100000000E-03 0. -1.
        -11    1    3    3    0    0  0.22704648045E+01  0.26989708300E+01 -0.35949724028E+01  0.50361970581E+01  0.51100000000E-03 0.  1.
        -12    1    3    3    0    0  0.16459486266E+02  0.35505146832E+02  0.14583058273E+02  0.41763569392E+02  0.00000000000E+00 0.  1.
</event>
<event>
 7    1  0.1501154E-015  0.9000771E+02  0.7816164E-02  0.1186339E+00
        -11   -1    0    0    0    0  0.00000000000E+00  0.00000000000E+00  0.45593999997E+02  0.45594000000E+02  0.51100000000E-03 0. -1.
         11   -1    0    0    0    0 -0.00000000000E+00 -0.00000000000E+00 -0.45593999997E+02  0.45594000000E+02  0.51100000000E-03 0.  1.
    9900012    2    1    2    0    0 -0.81253943745E+00  0.43894590428E+00 -0.73497428050E+00  0.90007711460E+02  0.89999972451E+02 0.  0.
         12    1    1    2    0    0  0.81253943745E+00 -0.43894590428E+00  0.73497428050E+00  0.11802885398E+01  0.00000000000E+00 0. -1.
         11    1    3    3    0    0 -0.16408051719E+01 -0.69258163335E+00 -0.91149604642E+01  0.92873255276E+01  0.51100000000E-03 0. -1.
        -11    1    3    3    0    0 -0.72915766525E+01 -0.75879957505E+01 -0.34576311588E+02  0.36142303370E+02  0.51100000000E-03 0.  1.
         12    1    3    3    0    0  0.81198423870E+01  0.87195232881E+01  0.42956297771E+02  0.44578082563E+02  0.00000000000E+00 0. -1.
</event>
<event>
 7    1  0.1501154E-015  0.9000774E+02  0.7816164E-02  0.1186339E+00
        -11   -1    0    0    0    0  0.00000000000E+00  0.00000000000E+00  0.45593999997E+02  0.45594000000E+02  0.51100000000E-03 0.  1.
         11   -1    0    0    0    0 -0.00000000000E+00 -0.00000000000E+00 -0.45593999997E+02  0.45594000000E+02  0.51100000000E-03 0. -1.
    9900012    2    1    2    0    0  0.14205364465E+00 -0.11037029597E+01  0.39329749164E+00  0.90007736310E+02  0.89999997629E+02 0.  0.
         12    1    1    2    0    0 -0.14205364465E+00  0.11037029597E+01 -0.39329749164E+00  0.11802636901E+01  0.00000000000E+00 0. -1.
         11    1    3    3    0    0 -0.12271345799E+02 -0.26576692993E+02 -0.26342653505E+02  0.39380730467E+02  0.51100000000E-03 0. -1.
        -11    1    3    3    0    0  0.57742103150E+01 -0.22311623077E+01 -0.50164660999E+01  0.79677175149E+01  0.51100000000E-03 0.  1.
        -12    1    3    3    0    0  0.66391891284E+01  0.27704152341E+02  0.31752417097E+02  0.42659288328E+02  0.00000000000E+00 0.  1.
</event>
<event>
 7    1  0.1501154E-015  0.9000774E+02  0.7816164E-02  0.1186339E+00
        -11   -1    0    0    0    0  0.00000000000E+00  0.00000000000E+00  0.45593999997E+02  0.45594000000E+02  0.51100000000E-03 0.  1.
         11   -1    0    0    0    0 -0.00000000000E+00 -0.00000000000E+00 -0.45593999997E+02  0.45594000000E+02  0.51100000000E-03 0. -1.
    9900012    2    1    2    0    0 -0.52790040682E+00 -0.93535570624E+00  0.48932465390E+00  0.90007742505E+02  0.90000003906E+02 0.  0.
         12    1    1    2    0    0  0.52790040682E+00  0.93535570624E+00 -0.48932465390E+00  0.11802574946E+01  0.00000000000E+00 0. -1.
         11    1    3    3    0    0  0.10606512518E+02 -0.35269695155E+02 -0.70229466048E+01  0.37493616568E+02  0.51100000000E-03 0. -1.
        -11    1    3    3    0    0  0.80037377665E+00 -0.68398107867E+01 -0.42099039673E+01  0.80713630482E+01  0.51100000000E-03 0.  1.
        -12    1    3    3    0    0 -0.11934786701E+02  0.41174150235E+02  0.11722175226E+02  0.44442762889E+02  0.00000000000E+00 0.  1.
</event>
<event>
 7    1  0.1501154E-015  0.9000770E+02  0.7816164E-02  0.1186339E+00
        -11   -1    0    0    0    0  0.00000000000E+00  0.00000000000E+00  0.45593999997E+02  0.45594000000E+02  0.51100000000E-03 0. -1.
         11   -1    0    0    0    0 -0.00000000000E+00 -0.00000000000E+00 -0.45593999997E+02  0.45594000000E+02  0.51100000000E-03 0.  1.
    9900012    2    1    2    0    0  0.89803292692E+00  0.73131085094E+00  0.22767134506E+00  0.90007697945E+02  0.89999958758E+02 0.  0.
         12    1    1    2    0    0 -0.89803292692E+00 -0.73131085094E+00 -0.22767134506E+00  0.11803020545E+01  0.00000000000E+00 0. -1.
         11    1    3    3    0    0 -0.15480839052E+02 -0.30935270093E+02  0.17593215697E+02  0.38809387425E+02  0.51100000000E-03 0. -1.
        -11    1    3    3    0    0 -0.37344654448E+01  0.43631845823E+01  0.72829225880E+01  0.92749433174E+01  0.51100000000E-03 0.  1.
        -12    1    3    3    0    0  0.20113337424E+02  0.27303396362E+02 -0.24648466940E+02  0.41923367203E+02  0.00000000000E+00 0.  1.
</event>
<event>
 7    1  0.1501154E-015  0.9000753E+02  0.7816164E-02  0.1186339E+00
        -11   -1    0    0    0    0  0.00000000000E+00  0.00000000000E+00  0.45593999997E+02  0.45594000000E+02  0.51100000000E-03 0.  1.
         11   -1    0    0    0    0 -0.00000000000E+00 -0.00000000000E+00 -0.45593999997E+02  0.45594000000E+02  0.51100000000E-03 0. -1.
    9900012    2    1    2    0    0  0.53293210111E+00 -0.94374057831E+00  0.46780343427E+00  0.90007532738E+02  0.89999791370E+02 0.  0.
         12    1    1    2    0    0 -0.53293210111E+00  0.94374057831E+00 -0.46780343427E+00  0.11804672620E+01  0.00000000000E+00 0. -1.
         11    1    3    3    0    0  0.89916643860E+01  0.66517843440E+01 -0.96129175917E+00  0.11225878384E+02  0.51100000000E-03 0. -1.
        -11    1    3    3    0    0 -0.58560572728E+01  0.34251252791E+02  0.96333127420E+01  0.36058874624E+02  0.51100000000E-03 0.  1.
         12    1    3    3    0    0 -0.26026750121E+01 -0.41846777713E+02 -0.82042175485E+01  0.42722779729E+02  0.00000000000E+00 0. -1.
</event>
<event>
 7    1  0.1501154E-015  0.9000745E+02  0.7816164E-02  0.1186340E+00
        -11   -1    0    0    0    0  0.00000000000E+00  0.00000000000E+00  0.45593999997E+02  0.45594000000E+02  0.51100000000E-03 0.  1.
         11   -1    0    0    0    0 -0.00000000000E+00 -0.00000000000E+00 -0.45593999997E+02  0.45594000000E+02  0.51100000000E-03 0. -1.
    9900012    2    1    2    0    0 -0.32117639680E+00  0.10998852642E+01  0.28424052643E+00  0.90007451590E+02  0.89999709150E+02 0.  0.
         12    1    1    2    0    0  0.32117639680E+00 -0.10998852642E+01 -0.28424052643E+00  0.11805484103E+01  0.00000000000E+00 0. -1.
         11    1    3    3    0    0  0.10332300574E+02 -0.93259752673E+01 -0.30052453295E+02  0.33119181740E+02  0.51100000000E-03 0. -1.
        -11    1    3    3    0    0  0.90740778215E+00  0.83445816627E+01 -0.11044486775E+02  0.13872134673E+02  0.51100000000E-03 0.  1.
        -12    1    3    3    0    0 -0.11560884753E+02  0.20812788688E+01  0.41381180596E+02  0.43016135177E+02  0.00000000000E+00 0.  1.
</event>
<event>
 7    1  0.1501154E-015  0.9000766E+02  0.7816164E-02  0.1186339E+00
        -11   -1    0    0    0    0  0.00000000000E+00  0.00000000000E+00  0.45593999997E+02  0.45594000000E+02  0.51100000000E-03 0.  1.
         11   -1    0    0    0    0 -0.00000000000E+00 -0.00000000000E+00 -0.45593999997E+02  0.45594000000E+02  0.51100000000E-03 0. -1.
    9900012    2    1    2    0    0 -0.25720165419E+00 -0.97154640415E+00  0.61898269138E+00  0.90007663320E+02  0.89999923676E+02 0.  0.
         12    1    1    2    0    0  0.25720165419E+00  0.97154640415E+00 -0.61898269138E+00  0.11803366802E+01  0.00000000000E+00 0. -1.
         11    1    3    3    0    0  0.96039324476E+01  0.31099019950E+02 -0.19822763614E+02  0.38109401961E+02  0.51100000000E-03 0. -1.
        -11    1    3    3    0    0  0.71260544579E+01  0.37309639925E+01  0.27459832723E+01  0.84994805043E+01  0.51100000000E-03 0.  1.
        -12    1    3    3    0    0 -0.16987188560E+02 -0.35801530346E+02  0.17695763033E+02  0.43398780854E+02  0.00000000000E+00 0.  1.
</event>
<event>
 7    1  0.1501154E-015  0.9000773E+02  0.7816164E-02  0.1186339E+00
        -11   -1    0    0    0    0  0.00000000000E+00  0.00000000000E+00  0.45593999997E+02  0.45594000000E+02  0.51100000000E-03 0. -1.
         11   -1    0    0    0    0 -0.00000000000E+00 -0.00000000000E+00 -0.45593999997E+02  0.45594000000E+02  0.51100000000E-03 0.  1.
    9900012    2    1    2    0    0 -0.43070359472E+00 -0.90467759213E+00 -0.62377117583E+00  0.90007729856E+02  0.89999991090E+02 0.  0.
         12    1    1    2    0    0  0.43070359472E+00  0.90467759213E+00  0.62377117583E+00  0.11802701437E+01  0.00000000000E+00 0. -1.
         11    1    3    3    0    0  0.13616108669E+02  0.23197250052E+01  0.32091852254E+02  0.34938038307E+02  0.51100000000E-03 0. -1.
        -11    1    3    3    0    0 -0.15040534881E+01 -0.64677116916E+01  0.91158789053E+01  0.11277974991E+02  0.51100000000E-03 0.  1.
        -12    1    3    3    0    0 -0.12542758776E+02  0.32433090943E+01 -0.41831502335E+02  0.43791716559E+02  0.00000000000E+00 0.  1.
</event>
<event>
 7    1  0.1501154E-015  0.9000777E+02  0.7816164E-02  0.1186339E+00
        -11   -1    0    0    0    0  0.00000000000E+00  0.00000000000E+00  0.45593999997E+02  0.45594000000E+02  0.51100000000E-03 0.  1.
         11   -1    0    0    0    0 -0.00000000000E+00 -0.00000000000E+00 -0.45593999997E+02  0.45594000000E+02  0.51100000000E-03 0. -1.
    9900012    2    1    2    0    0  0.78135390628E+00  0.72749480582E+00  0.50316289253E+00  0.90007773108E+02  0.90000034913E+02 0.  0.
         12    1    1    2    0    0 -0.78135390628E+00 -0.72749480582E+00 -0.50316289253E+00  0.11802268917E+01  0.00000000000E+00 0. -1.
         11    1    3    3    0    0 -0.26375116591E+02 -0.12441736062E+02 -0.28334034504E+02  0.40660313365E+02  0.51100000000E-03 0. -1.
        -11    1    3    3    0    0  0.20485102637E+01 -0.95839613614E+00 -0.46512515884E+01  0.51719492509E+01  0.51100000000E-03 0.  1.
        -12    1    3    3    0    0  0.25107960234E+02  0.14127627004E+02  0.33488448985E+02  0.44175510492E+02  0.00000000000E+00 0.  1.
</event>
<event>
 7    1  0.1501154E-015  0.9000770E+02  0.7816164E-02  0.1186339E+00
        -11   -1    0    0    0    0  0.00000000000E+00  0.00000000000E+00  0.45593999997E+02  0.45594000000E+02  0.51100000000E-03 0. -1.
         11   -1    0    0    0    0 -0.00000000000E+00 -0.00000000000E+00 -0.45593999997E+02  0.45594000000E+02  0.51100000000E-03 0.  1.
    9900012    2    1    2    0    0 -0.73787014335E+00 -0.74037592820E+00 -0.54816933619E+00  0.90007704069E+02  0.89999964963E+02 0.  0.
         12    1    1    2    0    0  0.73787014335E+00  0.74037592820E+00  0.54816933619E+00  0.11802959310E+01  0.00000000000E+00 0. -1.
         11    1    3    3    0    0  0.11491171480E+02  0.29360211333E+02  0.21630074248E+02  0.38235182015E+02  0.51100000000E-03 0. -1.
        -11    1    3    3    0    0  0.38056491875E+01  0.43375299038E+01  0.26919926401E+01  0.63674136068E+01  0.51100000000E-03 0.  1.
        -12    1    3    3    0    0 -0.16034690811E+02 -0.34438117165E+02 -0.24870236224E+02  0.45405108447E+02  0.00000000000E+00 0.  1.
</event>
<event>
 7    1  0.1501154E-015  0.9000779E+02  0.7816164E-02  0.1186339E+00
        -11   -1    0    0    0    0  0.00000000000E+00  0.00000000000E+00  0.45593999997E+02  0.45594000000E+02  0.51100000000E-03 0. -1.
         11   -1    0    0    0    0 -0.00000000000E+00 -0.00000000000E+00 -0.45593999997E+02  0.45594000000E+02  0.51100000000E-03 0.  1.
    9900012    2    1    2    0    0  0.94669150543E+00 -0.62094554743E+00 -0.33332781263E+00  0.90007785778E+02  0.90000047750E+02 0.  0.
         12    1    1    2    0    0 -0.94669150543E+00  0.62094554743E+00  0.33332781263E+00  0.11802142221E+01  0.00000000000E+00 0. -1.
         11    1    3    3    0    0  0.27159141367E+02 -0.30558921497E+02  0.14765787520E+02  0.43468323227E+02  0.51100000000E-03 0. -1.
        -11    1    3    3    0    0 -0.58266100939E+01  0.64273427652E+01  0.44906933528E+01  0.97686461322E+01  0.51100000000E-03 0.  1.
        -12    1    3    3    0    0 -0.20385839767E+02  0.23510633184E+02 -0.19589808686E+02  0.36770816419E+02  0.00000000000E+00 0.  1.
</event>
<event>
 7    1  0.1501154E-015  0.9000805E+02  0.7816164E-02  0.1186338E+00
        -11   -1    0    0    0    0  0.00000000000E+00  0.00000000000E+00  0.45593999997E+02  0.45594000000E+02  0.51100000000E-03 0. -1.
         11   -1    0    0    0    0 -0.00000000000E+00 -0.00000000000E+00 -0.45593999997E+02  0.45594000000E+02  0.51100000000E-03 0.  1.
    9900012    2    1    2    0    0 -0.22228700985E+00 -0.99462398071E+00 -0.59464375007E+00  0.90008046794E+02  0.90000312212E+02 0.  0.
         12    1    1    2    0    0  0.22228700985E+00  0.99462398071E+00  0.59464375007E+00  0.11799532055E+01  0.00000000000E+00 0. -1.
         11    1    3    3    0    0 -0.56934638683E+01 -0.37304861074E+01 -0.22960222760E+01  0.71835768229E+01  0.51100000000E-03 0. -1.
        -11    1    3    3    0    0  0.98015763558E+01  0.39537757149E+02  0.15067226488E+02  0.43431859893E+02  0.51100000000E-03 0.  1.
         12    1    3    3    0    0 -0.43303994974E+01 -0.36801895023E+02 -0.13365847962E+02  0.39392610079E+02  0.00000000000E+00 0. -1.
</event>
<event>
 7    1  0.1501154E-015  0.9000789E+02  0.7816164E-02  0.1186339E+00
        -11   -1    0    0    0    0  0.00000000000E+00  0.00000000000E+00  0.45593999997E+02  0.45594000000E+02  0.51100000000E-03 0.  1.
         11   -1    0    0    0    0 -0.00000000000E+00 -0.00000000000E+00 -0.45593999997E+02  0.45594000000E+02  0.51100000000E-03 0. -1.
    9900012    2    1    2    0    0 -0.10532702022E+01  0.44238031260E+00  0.29593564404E+00  0.90007891376E+02  0.90000154742E+02 0.  0.
         12    1    1    2    0    0  0.10532702022E+01 -0.44238031260E+00 -0.29593564404E+00  0.11801086244E+01  0.00000000000E+00 0. -1.
         11    1    3    3    0    0  0.14571318519E+02 -0.14082742853E+02  0.19844379739E+02  0.28362763919E+02  0.51100000000E-03 0. -1.
        -11    1    3    3    0    0  0.11653766896E+01  0.30519064514E+02  0.11492472774E+01  0.30562921510E+02  0.51100000000E-03 0.  1.
         12    1    3    3    0    0 -0.16789965411E+02 -0.15993941349E+02 -0.20697691372E+02  0.31082205947E+02  0.00000000000E+00 0. -1.
</event>
<event>
 7    1  0.1501154E-015  0.9000766E+02  0.7816164E-02  0.1186339E+00
        -11   -1    0    0    0    0  0.00000000000E+00  0.00000000000E+00  0.45593999997E+02  0.45594000000E+02  0.51100000000E-03 0.  1.
         11   -1    0    0    0    0 -0.00000000000E+00 -0.00000000000E+00 -0.45593999997E+02  0.45594000000E+02  0.51100000000E-03 0. -1.
    9900012    2    1    2    0    0  0.94813737637E+00  0.70301536067E+00 -0.38224461013E-02  0.90007656960E+02  0.89999917231E+02 0.  0.
         12    1    1    2    0    0 -0.94813737637E+00 -0.70301536067E+00  0.38224461013E-02  0.11803430403E+01  0.00000000000E+00 0. -1.
         11    1    3    3    0    0  0.44548300860E+01  0.75843537923E+01  0.38268985311E+01  0.95923451862E+01  0.51100000000E-03 0. -1.
        -11    1    3    3    0    0  0.57280811881E+01  0.27653426370E+02  0.22425013522E+02  0.36061116674E+02  0.51100000000E-03 0.  1.
         12    1    3    3    0    0 -0.92347738977E+01 -0.34534764801E+02 -0.26255734499E+02  0.44354195099E+02  0.00000000000E+00 0. -1.
</event>
<event>
 7    1  0.1501154E-015  0.9000771E+02  0.7816164E-02  0.1186339E+00
        -11   -1    0    0    0    0  0.00000000000E+00  0.00000000000E+00  0.45593999997E+02  0.45594000000E+02  0.51100000000E-03 0.  1.
         11   -1    0    0    0    0 -0.00000000000E+00 -0.00000000000E+00 -0.45593999997E+02  0.45594000000E+02  0.51100000000E-03 0. -1.
    9900012    2    1    2    0    0  0.51863595356E+00 -0.55098072255E+00  0.90582391697E+00  0.90007711909E+02  0.89999972906E+02 0.  0.
         12    1    1    2    0    0 -0.51863595356E+00  0.55098072255E+00 -0.90582391697E+00  0.11802880909E+01  0.00000000000E+00 0. -1.
         11    1    3    3    0    0  0.33710470496E+02 -0.43517846803E+01  0.44539427667E+01  0.34280773874E+02  0.51100000000E-03 0. -1.
        -11    1    3    3    0    0 -0.65148567373E+01 -0.16760725018E+02 -0.11202988273E+02  0.21186604446E+02  0.51100000000E-03 0.  1.
        -12    1    3    3    0    0 -0.26676977805E+02  0.20561528976E+02  0.76548694232E+01  0.34540333590E+02  0.00000000000E+00 0.  1.
</event>
<event>
 7    1  0.1501154E-015  0.9000769E+02  0.7816164E-02  0.1186339E+00
        -11   -1    0    0    0    0  0.00000000000E+00  0.00000000000E+00  0.45593999997E+02  0.45594000000E+02  0.51100000000E-03 0. -1.
         11   -1    0    0    0    0 -0.00000000000E+00 -0.00000000000E+00 -0.45593999997E+02  0.45594000000E+02  0.51100000000E-03 0.  1.
    9900012    2    1    2    0    0 -0.24396724338E+00  0.11048070129E+01  0.33616010877E+00  0.90007694035E+02  0.89999954797E+02 0.  0.
         12    1    1    2    0    0  0.24396724338E+00 -0.11048070129E+01 -0.33616010877E+00  0.11803059647E+01  0.00000000000E+00 0. -1.
         11    1    3    3    0    0  0.46328588405E+01 -0.75202911571E+01  0.98862212154E+00  0.88879431864E+01  0.51100000000E-03 0. -1.
        -11    1    3    3    0    0 -0.22764527789E+02 -0.30471666868E+02 -0.21755405685E+01  0.38098283219E+02  0.51100000000E-03 0.  1.
         12    1    3    3    0    0  0.17887701705E+02  0.39096765038E+02  0.15230785557E+01  0.43021467630E+02  0.00000000000E+00 0. -1.
</event>
<event>
 7    1  0.1501154E-015  0.9000776E+02  0.7816164E-02  0.1186339E+00
        -11   -1    0    0    0    0  0.00000000000E+00  0.00000000000E+00  0.45593999997E+02  0.45594000000E+02  0.51100000000E-03 0. -1.
         11   -1    0    0    0    0 -0.00000000000E+00 -0.00000000000E+00 -0.45593999997E+02  0.45594000000E+02  0.51100000000E-03 0.  1.
    9900012    2    1    2    0    0 -0.53848785503E-01  0.11714533814E+01 -0.13330645004E+00  0.90007757090E+02  0.90000018684E+02 0.  0.
         12    1    1    2    0    0  0.53848785503E-01 -0.11714533814E+01  0.13330645004E+00  0.11802429098E+01  0.00000000000E+00 0. -1.
         11    1    3    3    0    0  0.68479119685E+01  0.15142676159E+01 -0.79585205306E+01  0.10607777997E+02  0.51100000000E-03 0. -1.
        -11    1    3    3    0    0 -0.93285240923E+01  0.43678038959E+01 -0.34879045723E+02  0.36368212816E+02  0.51100000000E-03 0.  1.
         12    1    3    3    0    0  0.24267633383E+01 -0.47106181303E+01  0.42704259804E+02  0.43031766277E+02  0.00000000000E+00 0. -1.
</event>
<event>
 7    1  0.1501154E-015  0.9000770E+02  0.7816164E-02  0.1186339E+00
        -11   -1    0    0    0    0  0.00000000000E+00  0.00000000000E+00  0.45593999997E+02  0.45594000000E+02  0.51100000000E-03 0.  1.
         11   -1    0    0    0    0 -0.00000000000E+00 -0.00000000000E+00 -0.45593999997E+02  0.45594000000E+02  0.51100000000E-03 0. -1.
    9900012    2    1    2    0    0  0.11124446612E+00  0.52770866457E+00  0.10498869740E+01  0.90007697317E+02  0.89999958121E+02 0.  0.
         12    1    1    2    0    0 -0.11124446612E+00 -0.52770866457E+00 -0.10498869740E+01  0.11803026832E+01  0.00000000000E+00 0. -1.
         11    1    3    3    0    0  0.36968974894E+01  0.43703645923E+01  0.76746237000E+01  0.95742878019E+01  0.51100000000E-03 0. -1.
        -11    1    3    3    0    0 -0.33940958307E+02  0.12299143216E+02  0.15778251167E+02  0.39398106360E+02  0.51100000000E-03 0.  1.
         12    1    3    3    0    0  0.30355305284E+02 -0.16141799144E+02 -0.22402987893E+02  0.41035303154E+02  0.00000000000E+00 0. -1.
</event>
<event>
 7    1  0.1501154E-015  0.9000773E+02  0.7816164E-02  0.1186339E+00
        -11   -1    0    0    0    0  0.00000000000E+00  0.00000000000E+00  0.45593999997E+02  0.45594000000E+02  0.51100000000E-03 0.  1.
         11   -1    0    0    0    0 -0.00000000000E+00 -0.00000000000E+00 -0.45593999997E+02  0.45594000000E+02  0.51100000000E-03 0. -1.
    9900012    2    1    2    0    0  0.37299936525E+00 -0.46746435709E-01 -0.11188075778E+01  0.90007727086E+02  0.89999988283E+02 0.  0.
         12    1    1    2    0    0 -0.37299936525E+00  0.46746435709E-01  0.11188075778E+01  0.11802729141E+01  0.00000000000E+00 0. -1.
         11    1    3    3    0    0 -0.24336432240E+02 -0.24661880212E+02  0.65746657786E+01  0.35266081440E+02  0.51100000000E-03 0. -1.
        -11    1    3    3    0    0 -0.92983895304E+01 -0.35210070736E+01 -0.27532889467E-01  0.99427509771E+01  0.51100000000E-03 0.  1.
        -12    1    3    3    0    0  0.34007821136E+02  0.28136140850E+02 -0.76659404670E+01  0.44798894669E+02  0.00000000000E+00 0.  1.
</event>
<event>
 7    1  0.1501154E-015  0.9000736E+02  0.7816164E-02  0.1186340E+00
        -11   -1    0    0    0    0  0.00000000000E+00  0.00000000000E+00  0.45593999997E+02  0.45594000000E+02  0.51100000000E-03 0.  1.
         11   -1    0    0    0    0 -0.00000000000E+00 -0.00000000000E+00 -0.45593999997E+02  0.45594000000E+02  0.51100000000E-03 0. -1.
    9900012    2    1    2    0    0 -0.33558300661E+00  0.90665722172E+00  0.67768430271E+00  0.90007364880E+02  0.89999621296E+02 0.  0.
         12    1    1    2    0    0  0.33558300661E+00 -0.90665722172E+00 -0.67768430271E+00  0.11806351198E+01  0.00000000000E+00 0. -1.
         11    1    3    3    0    0 -0.57675794865E+01  0.69221202492E+01 -0.12065075536E+01  0.90904555780E+01  0.51100000000E-03 0. -1.
        -11    1    3    3    0    0  0.55654492934E+00  0.10146784144E+02  0.38914827683E+02  0.40219781011E+02  0.51100000000E-03 0.  1.
         12    1    3    3    0    0  0.48754515505E+01 -0.16162247172E+02 -0.37030635826E+02  0.40697128291E+02  0.00000000000E+00 0. -1.
</event>
<event>
 7    1  0.1501154E-015  0.9000766E+02  0.7816164E-02  0.1186339E+00
        -11   -1    0    0    0    0  0.00000000000E+00  0.00000000000E+00  0.45593999997E+02  0.45594000000E+02  0.51100000000E-03 0.  1.
         11   -1    0    0    0    0 -0.00000000000E+00 -0.00000000000E+00 -0.45593999997E+02  0.45594000000E+02  0.51100000000E-03 0. -1.
    9900012    2    1    2    0    0  0.56514408505E+00  0.10257799959E+01  0.14695857177E+00  0.90007657144E+02  0.89999917418E+02 0.  0.
         12    1    1    2    0    0 -0.56514408505E+00 -0.10257799959E+01 -0.14695857177E+00  0.11803428564E+01  0.00000000000E+00 0. -1.
         11    1    3    3    0    0 -0.24279634062E+02  0.13514900597E+02 -0.15536269801E+02  0.31835967834E+02  0.51100000000E-03 0. -1.
        -11    1    3    3    0    0 -0.23401938224E+01  0.11624802975E+02  0.18226151870E+02  0.21744083416E+02  0.51100000000E-03 0.  1.
        -12    1    3    3    0    0  0.27184971970E+02 -0.24113923576E+02 -0.25429234970E+01  0.36427605894E+02  0.00000000000E+00 0.  1.
</event>
<event>
 7    1  0.1501154E-015  0.9000791E+02  0.7816164E-02  0.1186339E+00
        -11   -1    0    0    0    0  0.00000000000E+00  0.00000000000E+00  0.45593999997E+02  0.45594000000E+02  0.51100000000E-03 0.  1.
         11   -1    0    0    0    0 -0.00000000000E+00 -0.00000000000E+00 -0.45593999997E+02  0.45594000000E+02  0.51100000000E-03 0. -1.
    9900012    2    1    2    0    0 -0.13595076783E+00  0.10774707959E+01  0.46170953641E+00  0.90007914569E+02  0.90000178242E+02 0.  0.
         12    1    1    2    0    0  0.13595076783E+00 -0.10774707959E+01 -0.46170953641E+00  0.11800854305E+01  0.00000000000E+00 0. -1.
         11    1    3    3    0    0  0.38606274238E+01  0.69739943340E+01 -0.53788666338E+01  0.96163011393E+01  0.51100000000E-03 0. -1.
        -11    1    3    3    0    0  0.10415128983E+02 -0.35261280741E+02 -0.16988484392E+02  0.40502363307E+02  0.51100000000E-03 0.  1.
         12    1    3    3    0    0 -0.14411707175E+02  0.29364757203E+02  0.22829060562E+02  0.39889250124E+02  0.00000000000E+00 0. -1.
</event>
<event>
 7    1  0.1501154E-015  0.9000775E+02  0.7816164E-02  0.1186339E+00
        -11   -1    0    0    0    0  0.00000000000E+00  0.00000000000E+00  0.45593999997E+02  0.45594000000E+02  0.51100000000E-03 0.  1.
         11   -1    0    0    0    0 -0.00000000000E+00 -0.00000000000E+00 -0.45593999997E+02  0.45594000000E+02  0.51100000000E-03 0. -1.
    9900012    2    1    2    0    0  0.10666844121E+01  0.36205500820E+00  0.35226460369E+00  0.90007750105E+02  0.90000011606E+02 0.  0.
         12    1    1    2    0    0 -0.10666844121E+01 -0.36205500820E+00 -0.35226460369E+00  0.11802498951E+01  0.00000000000E+00 0. -1.
         11    1    3    3    0    0 -0.34552454179E+02  0.23112580214E+02  0.17306651571E+01  0.41605993030E+02  0.51100000000E-03 0. -1.
        -11    1    3    3    0    0  0.82293358992E+01  0.46351701084E+01  0.14979194961E+01  0.95629772745E+01  0.51100000000E-03 0.  1.
        -12    1    3    3    0    0  0.27389802691E+02 -0.27385695314E+02 -0.28763200495E+01  0.38838779800E+02  0.00000000000E+00 0.  1.
</event>
<event>
 7    1  0.1501154E-015  0.9000775E+02  0.7816164E-02  0.1186339E+00
        -11   -1    0    0    0    0  0.00000000000E+00  0.00000000000E+00  0.45593999997E+02  0.45594000000E+02  0.51100000000E-03 0.  1.
         11   -1    0    0    0    0 -0.00000000000E+00 -0.00000000000E+00 -0.45593999997E+02  0.45594000000E+02  0.51100000000E-03 0. -1.
    9900012    2    1    2    0    0  0.81594395165E+00 -0.28686078841E+00  0.80307355791E+00  0.90007753931E+02  0.90000015483E+02 0.  0.
         12    1    1    2    0    0 -0.81594395165E+00  0.28686078841E+00 -0.80307355791E+00  0.11802460691E+01  0.00000000000E+00 0. -1.
         11    1    3    3    0    0  0.74267738259E+01 -0.13820944884E+02 -0.36001244779E+02  0.39271683346E+02  0.51100000000E-03 0. -1.
        -11    1    3    3    0    0 -0.10162214132E+02 -0.36676896407E+01  0.99321947794E+00  0.10849379178E+02  0.51100000000E-03 0.  1.
        -12    1    3    3    0    0  0.35513842577E+01  0.17201773736E+02  0.35811098859E+02  0.39886691406E+02  0.00000000000E+00 0.  1.
</event>
<event>
 7    1  0.1501154E-015  0.9000773E+02  0.7816164E-02  0.1186339E+00
        -11   -1    0    0    0    0  0.00000000000E+00  0.00000000000E+00  0.45593999997E+02  0.45594000000E+02  0.51100000000E-03 0.  1.
         11   -1    0    0    0    0 -0.00000000000E+00 -0.00000000000E+00 -0.45593999997E+02  0.45594000000E+02  0.51100000000E-03 0. -1.
    9900012    2    1    2    0    0  0.86276159921E-02 -0.11734974370E+01  0.12595794317E+00  0.90007730508E+02  0.89999991751E+02 0.  0.
         12    1    1    2    0    0 -0.86276159921E-02  0.11734974370E+01 -0.12595794317E+00  0.11802694921E+01  0.00000000000E+00 0. -1.
         11    1    3    3    0    0  0.41229466633E+01 -0.67952589805E+01 -0.73194366342E+01  0.10805016738E+02  0.51100000000E-03 0. -1.
        -11    1    3    3    0    0 -0.64014502206E+01 -0.35634167740E+02 -0.37371661070E+01  0.36396962597E+02  0.51100000000E-03 0.  1.
         12    1    3    3    0    0  0.22871311733E+01  0.41255929284E+02  0.11182560684E+02  0.42805751174E+02  0.00000000000E+00 0. -1.
</event>
<event>
 7    1  0.1501154E-015  0.9000768E+02  0.7816164E-02  0.1186339E+00
        -11   -1    0    0    0    0  0.00000000000E+00  0.00000000000E+00  0.45593999997E+02  0.45594000000E+02  0.51100000000E-03 0. -1.
         11   -1    0    0    0    0 -0.00000000000E+00 -0.00000000000E+00 -0.45593999997E+02  0.45594000000E+02  0.51100000000E-03 0.  1.
    9900012    2    1    2    0    0  0.44120028922E+00  0.27277568882E+00 -0.10602338560E+01  0.90007677967E+02  0.89999938516E+02 0.  0.
         12    1    1    2    0    0 -0.44120028922E+00 -0.27277568882E+00  0.10602338560E+01  0.11803220327E+01  0.00000000000E+00 0. -1.
         11    1    3    3    0    0 -0.32667542262E+02  0.52771280544E+01  0.20078015024E+02  0.38705853375E+02  0.51100000000E-03 0. -1.
        -11    1    3    3    0    0  0.17041754098E+01 -0.42947715327E+01  0.74902533338E+01  0.88007483552E+01  0.51100000000E-03 0.  1.
        -12    1    3    3    0    0  0.31404567141E+02 -0.70958083279E+00 -0.28628502214E+02  0.42501076237E+02  0.00000000000E+00 0.  1.
</event>
<event>
 7    1  0.1501154E-015  0.9000856E+02  0.7816164E-02  0.1186337E+00
        -11   -1    0    0    0    0  0.00000000000E+00  0.00000000000E+00  0.45593999997E+02  0.45594000000E+02  0.51100000000E-03 0. -1.
         11   -1    0    0    0    0 -0.00000000000E+00 -0.00000000000E+00 -0.45593999997E+02  0.45594000000E+02  0.51100000000E-03 0.  1.
    9900012    2    1    2    0    0  0.82904720799E-01  0.90008954112E+00 -0.75765339633E+00  0.90008562404E+02  0.90000834623E+02 0.  0.
         12    1    1    2    0    0 -0.82904720799E-01 -0.90008954112E+00  0.75765339633E+00  0.11794375964E+01  0.00000000000E+00 0. -1.
         11    1    3    3    0    0 -0.35361067869E+01  0.35092814996E+01  0.86257295615E+01  0.99610400352E+01  0.51100000000E-03 0. -1.
        -11    1    3    3    0    0 -0.11011054561E+02 -0.10484555096E+02 -0.41330343564E+02  0.44038239264E+02  0.51100000000E-03 0.  1.
         12    1    3    3    0    0  0.14630066069E+02  0.78753631378E+01  0.31946960606E+02  0.36009283104E+02  0.00000000000E+00 0. -1.
</event>
<event>
 7    1  0.1501154E-015  0.9000780E+02  0.7816164E-02  0.1186339E+00
        -11   -1    0    0    0    0  0.00000000000E+00  0.00000000000E+00  0.45593999997E+02  0.45594000000E+02  0.51100000000E-03 0. -1.
         11   -1    0    0    0    0 -0.00000000000E+00 -0.00000000000E+00 -0.45593999997E+02  0.45594000000E+02  0.51100000000E-03 0.  1.
    9900012    2    1    2    0    0  0.74935319295E+00 -0.14686985225E+00 -0.89986873629E+00  0.90007803108E+02  0.90000065309E+02 0.  0.
         12    1    1    2    0    0 -0.74935319295E+00  0.14686985225E+00  0.89986873629E+00  0.11801968920E+01  0.00000000000E+00 0. -1.
         11    1    3    3    0    0 -0.21754259829E+02  0.21285190025E+01  0.26296968752E+02  0.34195160179E+02  0.51100000000E-03 0. -1.
        -11    1    3    3    0    0 -0.83837051136E+01  0.47299572327E+01  0.48303920165E+01  0.10769944018E+02  0.51100000000E-03 0.  1.
        -12    1    3    3    0    0  0.30887318135E+02 -0.70053460875E+01 -0.32027229505E+02  0.45042698911E+02  0.00000000000E+00 0.  1.
</event>
<event>
 7    1  0.1501154E-015  0.9000776E+02  0.7816164E-02  0.1186339E+00
        -11   -1    0    0    0    0  0.00000000000E+00  0.00000000000E+00  0.45593999997E+02  0.45594000000E+02  0.51100000000E-03 0.  1.
         11   -1    0    0    0    0 -0.00000000000E+00 -0.00000000000E+00 -0.45593999997E+02  0.45594000000E+02  0.51100000000E-03 0. -1.
    9900012    2    1    2    0    0  0.16864000077E+00 -0.11397469315E+01  0.25594709146E+00  0.90007757893E+02  0.90000019497E+02 0.  0.
         12    1    1    2    0    0 -0.16864000077E+00  0.11397469315E+01 -0.25594709146E+00  0.11802421071E+01  0.00000000000E+00 0. -1.
         11    1    3    3    0    0  0.60741203975E+01 -0.24855858688E+01 -0.33394788016E+02  0.34033585509E+02  0.51100000000E-03 0. -1.
        -11    1    3    3    0    0  0.55267230946E+01  0.14324584654E+02 -0.28195479886E+01  0.15610517121E+02  0.51100000000E-03 0.  1.
        -12    1    3    3    0    0 -0.11432203491E+02 -0.12978745717E+02  0.36470283096E+02  0.40363655263E+02  0.00000000000E+00 0.  1.
</event>
<event>
 7    1  0.1501154E-015  0.9000769E+02  0.7816164E-02  0.1186339E+00
        -11   -1    0    0    0    0  0.00000000000E+00  0.00000000000E+00  0.45593999997E+02  0.45594000000E+02  0.51100000000E-03 0.  1.
         11   -1    0    0    0    0 -0.00000000000E+00 -0.00000000000E+00 -0.45593999997E+02  0.45594000000E+02  0.51100000000E-03 0. -1.
    9900012    2    1    2    0    0  0.19280826323E+00 -0.11312949080E+01 -0.27592435581E+00  0.90007687565E+02  0.89999948240E+02 0.  0.
         12    1    1    2    0    0 -0.19280826323E+00  0.11312949080E+01  0.27592435581E+00  0.11803124354E+01  0.00000000000E+00 0. -1.
         11    1    3    3    0    0 -0.12533603874E+01  0.45815896056E+01 -0.88361385051E+01  0.10031910063E+02  0.51100000000E-03 0. -1.
        -11    1    3    3    0    0 -0.31084638938E+01  0.35719671074E+02  0.12817367333E+02  0.38076795493E+02  0.51100000000E-03 0.  1.
         12    1    3    3    0    0  0.45546325444E+01 -0.41432555587E+02 -0.42571531833E+01  0.41898982008E+02  0.00000000000E+00 0. -1.
</event>
<event>
 7    1  0.1501154E-015  0.9000777E+02  0.7816164E-02  0.1186339E+00
        -11   -1    0    0    0    0  0.00000000000E+00  0.00000000000E+00  0.45593999997E+02  0.45594000000E+02  0.51100000000E-03 0.  1.
         11   -1    0    0    0    0 -0.00000000000E+00 -0.00000000000E+00 -0.45593999997E+02  0.45594000000E+02  0.51100000000E-03 0. -1.
    9900012    2    1    2    0    0 -0.75329355643E+00 -0.89483053717E+00  0.15736411328E+00  0.90007772761E+02  0.90000034561E+02 0.  0.
         12    1    1    2    0    0  0.75329355643E+00  0.89483053717E+00 -0.15736411328E+00  0.11802272394E+01  0.00000000000E+00 0. -1.
         11    1    3    3    0    0  0.72606406563E+01  0.51537485515E+01  0.52018149557E+01  0.10311978761E+02  0.51100000000E-03 0. -1.
        -11    1    3    3    0    0 -0.32457972203E+02  0.23132630823E+02  0.54015995051E+01  0.40222081569E+02  0.51100000000E-03 0.  1.
         12    1    3    3    0    0  0.24444037990E+02 -0.29181209912E+02 -0.10446050348E+02  0.39473712430E+02  0.00000000000E+00 0. -1.
</event>
<event>
 7    1  0.1501154E-015  0.9000781E+02  0.7816164E-02  0.1186339E+00
        -11   -1    0    0    0    0  0.00000000000E+00  0.00000000000E+00  0.45593999997E+02  0.45594000000E+02  0.51100000000E-03 0.  1.
         11   -1    0    0    0    0 -0.00000000000E+00 -0.00000000000E+00 -0.45593999997E+02  0.45594000000E+02  0.51100000000E-03 0. -1.
    9900012    2    1    2    0    0  0.23405702539E+00 -0.15700339619E+00  0.11460457315E+01  0.90007807822E+02  0.90000070086E+02 0.  0.
         12    1    1    2    0    0 -0.23405702539E+00  0.15700339619E+00 -0.11460457315E+01  0.11801921777E+01  0.00000000000E+00 0. -1.
         11    1    3    3    0    0 -0.30216156399E+01  0.25468781667E+02 -0.13602937966E+02  0.29031516017E+02  0.51100000000E-03 0. -1.
        -11    1    3    3    0    0  0.12548270229E+02  0.13803979039E+02  0.45143422013E+01  0.19193441818E+02  0.51100000000E-03 0.  1.
        -12    1    3    3    0    0 -0.92925975634E+01 -0.39429764102E+02  0.10234641496E+02  0.41782849988E+02  0.00000000000E+00 0.  1.
</event>
<event>
 7    1  0.1501154E-015  0.9000776E+02  0.7816164E-02  0.1186339E+00
        -11   -1    0    0    0    0  0.00000000000E+00  0.00000000000E+00  0.45593999997E+02  0.45594000000E+02  0.51100000000E-03 0.  1.
         11   -1    0    0    0    0 -0.00000000000E+00 -0.00000000000E+00 -0.45593999997E+02  0.45594000000E+02  0.51100000000E-03 0. -1.
    9900012    2    1    2    0    0  0.69477927239E+00 -0.17475146217E+00  0.93792307476E+00  0.90007764428E+02  0.90000026119E+02 0.  0.
         12    1    1    2    0    0 -0.69477927239E+00  0.17475146217E+00 -0.93792307476E+00  0.11802355718E+01  0.00000000000E+00 0. -1.
         11    1    3    3    0    0  0.17151450471E+02  0.29055486763E+02 -0.10233403534E+02  0.35257851784E+02  0.51100000000E-03 0. -1.
        -11    1    3    3    0    0  0.49747990655E+01  0.86953351188E+01  0.26461846312E+01  0.10361456072E+02  0.51100000000E-03 0.  1.
        -12    1    3    3    0    0 -0.21431470264E+02 -0.37925573344E+02  0.85251419774E+01  0.44388456572E+02  0.00000000000E+00 0.  1.
</event>
<event>
 7    1  0.1501154E-015  0.9000773E+02  0.7816164E-02  0.1186339E+00
        -11   -1    0    0    0    0  0.00000000000E+00  0.00000000000E+00  0.45593999997E+02  0.45594000000E+02  0.51100000000E-03 0.  1.
         11   -1    0    0    0    0 -0.00000000000E+00 -0.00000000000E+00 -0.45593999997E+02  0.45594000000E+02  0.51100000000E-03 0. -1.
    9900012    2    1    2    0    0  0.29186777832E+00 -0.41685105557E+00  0.10649345334E+01  0.90007730047E+02  0.89999991283E+02 0.  0.
         12    1    1    2    0    0 -0.29186777832E+00  0.41685105557E+00 -0.10649345334E+01  0.11802699534E+01  0.00000000000E+00 0. -1.
         11    1    3    3    0    0  0.12140046882E+02 -0.15119507591E+02  0.52581276892E-02  0.19390210829E+02  0.51100000000E-03 0. -1.
        -11    1    3    3    0    0  0.25726713142E+02  0.64178875231E+01  0.14048559432E+02  0.30006917065E+02  0.51100000000E-03 0.  1.
         12    1    3    3    0    0 -0.37574892246E+02  0.82847690123E+01 -0.12988883026E+02  0.40610602152E+02  0.00000000000E+00 0. -1.
</event>
<event>
 7    1  0.1501154E-015  0.9000774E+02  0.7816164E-02  0.1186339E+00
        -11   -1    0    0    0    0  0.00000000000E+00  0.00000000000E+00  0.45593999997E+02  0.45594000000E+02  0.51100000000E-03 0. -1.
         11   -1    0    0    0    0 -0.00000000000E+00 -0.00000000000E+00 -0.45593999997E+02  0.45594000000E+02  0.51100000000E-03 0.  1.
    9900012    2    1    2    0    0 -0.10716363328E+01  0.13191535891E-01  0.49439719078E+00  0.90007742812E+02  0.90000004218E+02 0.  0.
         12    1    1    2    0    0  0.10716363328E+01 -0.13191535891E-01 -0.49439719078E+00  0.11802571875E+01  0.00000000000E+00 0. -1.
         11    1    3    3    0    0  0.76715375800E+01 -0.47455854426E+01 -0.38424463946E+01  0.98049714222E+01  0.51100000000E-03 0. -1.
        -11    1    3    3    0    0  0.18185202295E+02 -0.23974474848E+02 -0.17866133065E+02  0.34995367375E+02  0.51100000000E-03 0.  1.
         12    1    3    3    0    0 -0.26928376208E+02  0.28733251826E+02  0.22202976650E+02  0.45207404016E+02  0.00000000000E+00 0. -1.
</event>
<event>
 7    1  0.1501154E-015  0.9000785E+02  0.7816164E-02  0.1186339E+00
        -11   -1    0    0    0    0  0.00000000000E+00  0.00000000000E+00  0.45593999997E+02  0.45594000000E+02  0.51100000000E-03 0.  1.
         11   -1    0    0    0    0 -0.00000000000E+00 -0.00000000000E+00 -0.45593999997E+02  0.45594000000E+02  0.51100000000E-03 0. -1.
    9900012    2    1    2    0    0  0.24587491705E-01 -0.11267020555E+01  0.35026198759E+00  0.90007853600E+02  0.90000116467E+02 0.  0.
         12    1    1    2    0    0 -0.24587491705E-01  0.11267020555E+01 -0.35026198759E+00  0.11801464005E+01  0.00000000000E+00 0. -1.
         11    1    3    3    0    0  0.64508948984E+01  0.15435551376E+02 -0.14970115142E+01  0.16796170248E+02  0.51100000000E-03 0. -1.
        -11    1    3    3    0    0  0.20948752019E+02  0.15899325460E+01  0.25274848701E+02  0.32866336482E+02  0.51100000000E-03 0.  1.
         12    1    3    3    0    0 -0.27375059426E+02 -0.18152185977E+02 -0.23427575199E+02  0.40345346869E+02  0.00000000000E+00 0. -1.
</event>
<event>
 7    1  0.1501154E-015  0.9000780E+02  0.7816164E-02  0.1186339E+00
        -11   -1    0    0    0    0  0.00000000000E+00  0.00000000000E+00  0.45593999997E+02  0.45594000000E+02  0.51100000000E-03 0. -1.
         11   -1    0    0    0    0 -0.00000000000E+00 -0.00000000000E+00 -0.45593999997E+02  0.45594000000E+02  0.51100000000E-03 0.  1.
    9900012    2    1    2    0    0  0.22074065978E+00 -0.26851244743E+00 -0.11278501721E+01  0.90007800278E+02  0.90000062442E+02 0.  0.
         12    1    1    2    0    0 -0.22074065978E+00  0.26851244743E+00  0.11278501721E+01  0.11801997221E+01  0.00000000000E+00 0. -1.
         11    1    3    3    0    0 -0.34403350581E+02  0.11334027338E+02  0.29087665807E+01  0.36338844646E+02  0.51100000000E-03 0. -1.
        -11    1    3    3    0    0 -0.85031561682E+01  0.61567868446E+00  0.90256507205E+00  0.85730594909E+01  0.51100000000E-03 0.  1.
        -12    1    3    3    0    0  0.43127247409E+02 -0.12218218470E+02 -0.49391818249E+01  0.45095896141E+02  0.00000000000E+00 0.  1.
</event>
<event>
 7    1  0.1501154E-015  0.9000770E+02  0.7816164E-02  0.1186339E+00
        -11   -1    0    0    0    0  0.00000000000E+00  0.00000000000E+00  0.45593999997E+02  0.45594000000E+02  0.51100000000E-03 0.  1.
         11   -1    0    0    0    0 -0.00000000000E+00 -0.00000000000E+00 -0.45593999997E+02  0.45594000000E+02  0.51100000000E-03 0. -1.
    9900012    2    1    2    0    0 -0.80044010033E+00 -0.33997830871E+00  0.79801646811E+00  0.90007695002E+02  0.89999955776E+02 0.  0.
         12    1    1    2    0    0  0.80044010033E+00  0.33997830871E+00 -0.79801646811E+00  0.11803049979E+01  0.00000000000E+00 0. -1.
         11    1    3    3    0    0 -0.25763846772E+00  0.90459735471E+01  0.27553298006E+01  0.94598021949E+01  0.51100000000E-03 0. -1.
        -11    1    3    3    0    0  0.49760179086E+01  0.34736005664E+02 -0.70488274092E+01  0.35791574593E+02  0.51100000000E-03 0.  1.
         12    1    3    3    0    0 -0.55188195412E+01 -0.44121957520E+02  0.50915140768E+01  0.44756318214E+02  0.00000000000E+00 0. -1.
</event>
<event>
 7    1  0.1501154E-015  0.9000780E+02  0.7816164E-02  0.1186339E+00
        -11   -1    0    0    0    0  0.00000000000E+00  0.00000000000E+00  0.45593999997E+02  0.45594000000E+02  0.51100000000E-03 0. -1.
         11   -1    0    0    0    0 -0.00000000000E+00 -0.00000000000E+00 -0.45593999997E+02  0.45594000000E+02  0.51100000000E-03 0.  1.
    9900012    2    1    2    0    0  0.10009688404E+01  0.26550139570E+00 -0.56608510288E+00  0.90007795800E+02  0.90000057904E+02 0.  0.
         12    1    1    2    0    0 -0.10009688404E+01 -0.26550139570E+00  0.56608510288E+00  0.11802042003E+01  0.00000000000E+00 0. -1.
         11    1    3    3    0    0 -0.83645260420E+01 -0.92017059179E+01  0.77385752962E+01  0.14646577606E+02  0.51100000000E-03 0. -1.
        -11    1    3    3    0    0 -0.16707821312E+02 -0.12321393042E+02 -0.28933509637E+02  0.35610616390E+02  0.51100000000E-03 0.  1.
        -12    1    3    3    0    0  0.26073316195E+02  0.21788600356E+02  0.20628849238E+02  0.39750601803E+02  0.00000000000E+00 0.  1.
</event>
<event>
 7    1  0.1501154E-015  0.9000775E+02  0.7816164E-02  0.1186339E+00
        -11   -1    0    0    0    0  0.00000000000E+00  0.00000000000E+00  0.45593999997E+02  0.45594000000E+02  0.51100000000E-03 0.  1.
         11   -1    0    0    0    0 -0.00000000000E+00 -0.00000000000E+00 -0.45593999997E+02  0.45594000000E+02  0.51100000000E-03 0. -1.
    9900012    2    1    2    0    0 -0.11798576957E+01 -0.30568262115E-01 -0.73363488981E-03  0.90007746155E+02  0.90000007604E+02 0.  0.
         12    1    1    2    0    0  0.11798576957E+01  0.30568262115E-01  0.73363488981E-03  0.11802538452E+01  0.00000000000E+00 0. -1.
         11    1    3    3    0    0  0.20751799529E+02  0.57533572233E+01  0.14834025684E+01  0.21585615267E+02  0.51100000000E-03 0. -1.
        -11    1    3    3    0    0  0.22601035124E+02  0.53357678862E+00  0.44889415259E+01  0.23048689532E+02  0.51100000000E-03 0.  1.
         12    1    3    3    0    0 -0.44532692349E+02 -0.63175022740E+01 -0.59730777292E+01  0.45373441355E+02  0.00000000000E+00 0. -1.
</event>
<event>
 7    1  0.1501154E-015  0.9000771E+02  0.7816164E-02  0.1186339E+00
        -11   -1    0    0    0    0  0.00000000000E+00  0.00000000000E+00  0.45593999997E+02  0.45594000000E+02  0.51100000000E-03 0. -1.
         11   -1    0    0    0    0 -0.00000000000E+00 -0.00000000000E+00 -0.45593999997E+02  0.45594000000E+02  0.51100000000E-03 0.  1.
    9900012    2    1    2    0    0  0.16632409659E+00 -0.34440488906E-01 -0.11680019807E+01  0.90007712544E+02  0.89999973549E+02 0.  0.
         12    1    1    2    0    0 -0.16632409659E+00  0.34440488906E-01  0.11680019807E+01  0.11802874562E+01  0.00000000000E+00 0. -1.
         11    1    3    3    0    0 -0.52771051159E+01  0.27158267394E+01  0.39898095573E+01  0.71513728645E+01  0.51100000000E-03 0. -1.
        -11    1    3    3    0    0  0.26116152864E+01  0.15937907814E+01 -0.43780409340E+02  0.43887184299E+02  0.51100000000E-03 0.  1.
         12    1    3    3    0    0  0.28318139261E+01 -0.43440580096E+01  0.38622597802E+02  0.38969155380E+02  0.00000000000E+00 0. -1.
</event>
<event>
 7    1  0.1501154E-015  0.9000774E+02  0.7816164E-02  0.1186339E+00
        -11   -1    0    0    0    0  0.00000000000E+00  0.00000000000E+00  0.45593999997E+02  0.45594000000E+02  0.51100000000E-03 0.  1.
         11   -1    0    0    0    0 -0.00000000000E+00 -0.00000000000E+00 -0.45593999997E+02  0.45594000000E+02  0.51100000000E-03 0. -1.
    9900012    2    1    2    0    0 -0.87499857035E+00  0.78111507488E+00  0.13132671835E+00  0.90007741568E+02  0.90000002957E+02 0.  0.
         12    1    1    2    0    0  0.87499857035E+00 -0.78111507488E+00 -0.13132671835E+00  0.11802584316E+01  0.00000000000E+00 0. -1.
         11    1    3    3    0    0 -0.12743652806E+02 -0.18426325864E+01 -0.41224904881E+02  0.43188988925E+02  0.51100000000E-03 0. -1.
        -11    1    3    3    0    0  0.29202250485E+01 -0.65939912263E+01  0.66446154311E+01  0.98060873499E+01  0.51100000000E-03 0.  1.
        -12    1    3    3    0    0  0.89484291874E+01  0.92177388876E+01  0.34711616168E+02  0.37012665293E+02  0.00000000000E+00 0.  1.
</event>
<event>
 7    1  0.1501154E-015  0.9000799E+02  0.7816164E-02  0.1186339E+00
        -11   -1    0    0    0    0  0.00000000000E+00  0.00000000000E+00  0.45593999997E+02  0.45594000000E+02  0.51100000000E-03 0.  1.
         11   -1    0    0    0    0 -0.00000000000E+00 -0.00000000000E+00 -0.45593999997E+02  0.45594000000E+02  0.51100000000E-03 0. -1.
    9900012    2    1    2    0    0  0.95194866739E+00  0.64091441582E+00  0.27468424786E+00  0.90007987716E+02  0.90000252354E+02 0.  0.
         12    1    1    2    0    0 -0.95194866739E+00 -0.64091441582E+00 -0.27468424786E+00  0.11800122837E+01  0.00000000000E+00 0. -1.
         11    1    3    3    0    0  0.30404243410E+02 -0.24260923023E+01 -0.19174794301E+02  0.36027443400E+02  0.51100000000E-03 0. -1.
        -11    1    3    3    0    0 -0.39809313443E+01 -0.16250135089E+02  0.33502545103E+00  0.16734005710E+02  0.51100000000E-03 0.  1.
        -12    1    3    3    0    0 -0.25471363398E+02  0.19317141807E+02  0.19114453097E+02  0.37246538607E+02  0.00000000000E+00 0.  1.
</event>
<event>
 7    1  0.1501154E-015  0.9000772E+02  0.7816164E-02  0.1186339E+00
        -11   -1    0    0    0    0  0.00000000000E+00  0.00000000000E+00  0.45593999997E+02  0.45594000000E+02  0.51100000000E-03 0. -1.
         11   -1    0    0    0    0 -0.00000000000E+00 -0.00000000000E+00 -0.45593999997E+02  0.45594000000E+02  0.51100000000E-03 0.  1.
    9900012    2    1    2    0    0  0.98907365305E+00  0.26001861322E+00 -0.58923285886E+00  0.90007715402E+02  0.89999976445E+02 0.  0.
         12    1    1    2    0    0 -0.98907365305E+00 -0.26001861322E+00  0.58923285886E+00  0.11802845980E+01  0.00000000000E+00 0. -1.
         11    1    3    3    0    0 -0.43871127999E-01  0.16975860464E+02  0.31724841749E+02  0.35981208254E+02  0.51100000000E-03 0. -1.
        -11    1    3    3    0    0  0.12563374357E+01  0.54350324125E+01  0.69698512628E+01  0.89273057506E+01  0.51100000000E-03 0.  1.
        -12    1    3    3    0    0 -0.22339265467E+00 -0.22150874263E+02 -0.39283925870E+02  0.45099201398E+02  0.00000000000E+00 0.  1.
</event>
<event>
 7    1  0.1501154E-015  0.9000769E+02  0.7816164E-02  0.1186339E+00
        -11   -1    0    0    0    0  0.00000000000E+00  0.00000000000E+00  0.45593999997E+02  0.45594000000E+02  0.51100000000E-03 0. -1.
         11   -1    0    0    0    0 -0.00000000000E+00 -0.00000000000E+00 -0.45593999997E+02  0.45594000000E+02  0.51100000000E-03 0.  1.
    9900012    2    1    2    0    0  0.11330338559E+01  0.26372250583E+00  0.19955801561E+00  0.90007687041E+02  0.89999947710E+02 0.  0.
         12    1    1    2    0    0 -0.11330338559E+01 -0.26372250583E+00 -0.19955801561E+00  0.11803129586E+01  0.00000000000E+00 0. -1.
         11    1    3    3    0    0  0.15267700386E+01  0.60185323243E+01  0.48270217863E+01  0.78647248951E+01  0.51100000000E-03 0. -1.
        -11    1    3    3    0    0  0.59685136669E+01  0.25607348962E+02 -0.31018581359E+02  0.40663397129E+02  0.51100000000E-03 0.  1.
         12    1    3    3    0    0 -0.63622498496E+01 -0.31362158780E+02  0.26391117589E+02  0.41479565018E+02  0.00000000000E+00 0. -1.
</event>
<event>
 7    1  0.1501154E-015  0.9000796E+02  0.7816164E-02  0.1186339E+00
        -11   -1    0    0    0    0  0.00000000000E+00  0.00000000000E+00  0.45593999997E+02  0.45594000000E+02  0.51100000000E-03 0.  1.
         11   -1    0    0    0    0 -0.00000000000E+00 -0.00000000000E+00 -0.45593999997E+02  0.45594000000E+02  0.51100000000E-03 0. -1.
    9900012    2    1    2    0    0 -0.98241792688E+00  0.52283054735E+00  0.39242263512E+00  0.90007960895E+02  0.90000225179E+02 0.  0.
         12    1    1    2    0    0  0.98241792688E+00 -0.52283054735E+00 -0.39242263512E+00  0.11800391048E+01  0.00000000000E+00 0. -1.
         11    1    3    3    0    0 -0.78053997237E+01 -0.54918770396E+01 -0.50936700425E+01  0.10818061427E+02  0.51100000000E-03 0. -1.
        -11    1    3    3    0    0 -0.34155856816E+01 -0.31336024053E+02  0.20556764243E+02  0.37632342280E+02  0.51100000000E-03 0.  1.
         12    1    3    3    0    0  0.10238567478E+02  0.37350731640E+02 -0.15070671566E+02  0.41557557189E+02  0.00000000000E+00 0. -1.
</event>
<event>
 7    1  0.1501154E-015  0.9000763E+02  0.7816164E-02  0.1186339E+00
        -11   -1    0    0    0    0  0.00000000000E+00  0.00000000000E+00  0.45593999997E+02  0.45594000000E+02  0.51100000000E-03 0. -1.
         11   -1    0    0    0    0 -0.00000000000E+00 -0.00000000000E+00 -0.45593999997E+02  0.45594000000E+02  0.51100000000E-03 0.  1.
    9900012    2    1    2    0    0 -0.31764928796E+00  0.11012058989E+01 -0.28233013758E+00  0.90007633189E+02  0.89999893147E+02 0.  0.
         12    1    1    2    0    0  0.31764928796E+00 -0.11012058989E+01  0.28233013758E+00  0.11803668110E+01  0.00000000000E+00 0. -1.
         11    1    3    3    0    0 -0.22560996510E+02 -0.25804888642E+01  0.29552498173E+02  0.37269392735E+02  0.51100000000E-03 0. -1.
        -11    1    3    3    0    0 -0.94748099592E+01 -0.17236865888E+01 -0.12721410848E+01  0.97139828300E+01  0.51100000000E-03 0.  1.
        -12    1    3    3    0    0  0.31718157182E+02  0.54053813519E+01 -0.28562687226E+02  0.43024257624E+02  0.00000000000E+00 0.  1.
</event>
<event>
 7    1  0.1501154E-015  0.9000714E+02  0.7816164E-02  0.1186340E+00
        -11   -1    0    0    0    0  0.00000000000E+00  0.00000000000E+00  0.45593999997E+02  0.45594000000E+02  0.51100000000E-03 0.  1.
         11   -1    0    0    0    0 -0.00000000000E+00 -0.00000000000E+00 -0.45593999997E+02  0.45594000000E+02  0.51100000000E-03 0. -1.
    9900012    2    1    2    0    0  0.45511483463E+00  0.43662403605E+00  0.99833219718E+00  0.90007137079E+02  0.89999390487E+02 0.  0.
         12    1    1    2    0    0 -0.45511483463E+00 -0.43662403605E+00 -0.99833219718E+00  0.11808629207E+01  0.00000000000E+00 0. -1.
         11    1    3    3    0    0  0.24723551031E+02  0.29137344611E+02 -0.12032253854E+02  0.40062625471E+02  0.51100000000E-03 0. -1.
        -11    1    3    3    0    0 -0.80937306535E+01  0.56907638076E+01  0.42461329271E+00  0.99032098491E+01  0.51100000000E-03 0.  1.
        -12    1    3    3    0    0 -0.16174705543E+02 -0.34391484382E+02  0.12605972758E+02  0.40041301759E+02  0.00000000000E+00 0.  1.
</event>
<event>
 7    1  0.1501154E-015  0.9000661E+02  0.7816164E-02  0.1186341E+00
        -11   -1    0    0    0    0  0.00000000000E+00  0.00000000000E+00  0.45593999997E+02  0.45594000000E+02  0.51100000000E-03 0. -1.
         11   -1    0    0    0    0 -0.00000000000E+00 -0.00000000000E+00 -0.45593999997E+02  0.45594000000E+02  0.51100000000E-03 0.  1.
    9900012    2    1    2    0    0  0.27081631054E+00 -0.63212285811E+00 -0.96059912555E+00  0.90006614601E+02  0.89998861106E+02 0.  0.
         12    1    1    2    0    0 -0.27081631054E+00  0.63212285811E+00  0.96059912555E+00  0.11813853994E+01  0.00000000000E+00 0. -1.
         11    1    3    3    0    0 -0.82577976134E+00  0.32160325233E+02  0.15057199347E+02  0.35520243295E+02  0.51100000000E-03 0. -1.
        -11    1    3    3    0    0 -0.12460869196E+01  0.94159384224E+01 -0.52950615236E+01  0.10874295645E+02  0.51100000000E-03 0.  1.
        -12    1    3    3    0    0  0.23426829915E+01 -0.42208386514E+02 -0.10722736949E+02  0.43612075660E+02  0.00000000000E+00 0.  1.
</event>
<event>
 7    1  0.1501154E-015  0.9000774E+02  0.7816164E-02  0.1186339E+00
        -11   -1    0    0    0    0  0.00000000000E+00  0.00000000000E+00  0.45593999997E+02  0.45594000000E+02  0.51100000000E-03 0.  1.
         11   -1    0    0    0    0 -0.00000000000E+00 -0.00000000000E+00 -0.45593999997E+02  0.45594000000E+02  0.51100000000E-03 0. -1.
    9900012    2    1    2    0    0  0.90856425791E-01 -0.48029276059E+00  0.10742829439E+01  0.90007737373E+02  0.89999998706E+02 0.  0.
         12    1    1    2    0    0 -0.90856425791E-01  0.48029276059E+00 -0.10742829439E+01  0.11802626273E+01  0.00000000000E+00 0. -1.
         11    1    3    3    0    0 -0.35799777133E+02  0.76446961442E+01 -0.50616075389E+01  0.36955179516E+02  0.51100000000E-03 0. -1.
        -11    1    3    3    0    0 -0.27355744789E+01  0.80929619001E+01 -0.47418049654E+01  0.97705739155E+01  0.51100000000E-03 0.  1.
        -12    1    3    3    0    0  0.38626208037E+02 -0.16217950805E+02  0.10877695448E+02  0.43281983942E+02  0.00000000000E+00 0.  1.
</event>
<event>
 7    1  0.1501154E-015  0.9000780E+02  0.7816164E-02  0.1186339E+00
        -11   -1    0    0    0    0  0.00000000000E+00  0.00000000000E+00  0.45593999997E+02  0.45594000000E+02  0.51100000000E-03 0.  1.
         11   -1    0    0    0    0 -0.00000000000E+00 -0.00000000000E+00 -0.45593999997E+02  0.45594000000E+02  0.51100000000E-03 0. -1.
    9900012    2    1    2    0    0  0.55800951107E+00 -0.99578704271E-01  0.10351738813E+01  0.90007798535E+02  0.90000060676E+02 0.  0.
         12    1    1    2    0    0 -0.55800951107E+00  0.99578704271E-01 -0.10351738813E+01  0.11802014647E+01  0.00000000000E+00 0. -1.
         11    1    3    3    0    0  0.36190433532E+01 -0.12369808818E+01  0.45771115132E+00  0.38518951509E+01  0.51100000000E-03 0. -1.
        -11    1    3    3    0    0  0.37534423264E+01  0.31482999095E+02  0.29776378854E+02  0.43495980265E+02  0.51100000000E-03 0.  1.
         12    1    3    3    0    0 -0.68144761686E+01 -0.30345596918E+02 -0.29198916124E+02  0.42659923119E+02  0.00000000000E+00 0. -1.
</event>
<event>
 7    1  0.1501154E-015  0.9000785E+02  0.7816164E-02  0.1186339E+00
        -11   -1    0    0    0    0  0.00000000000E+00  0.00000000000E+00  0.45593999997E+02  0.45594000000E+02  0.51100000000E-03 0.  1.
         11   -1    0    0    0    0 -0.00000000000E+00 -0.00000000000E+00 -0.45593999997E+02  0.45594000000E+02  0.51100000000E-03 0. -1.
    9900012    2    1    2    0    0  0.86356445730E+00 -0.12671553111E+00  0.79433054750E+00  0.90007846867E+02  0.90000109646E+02 0.  0.
         12    1    1    2    0    0 -0.86356445730E+00  0.12671553111E+00 -0.79433054750E+00  0.11801531326E+01  0.00000000000E+00 0. -1.
         11    1    3    3    0    0 -0.29971556127E+02 -0.26094898214E+02  0.13927862123E+02  0.42109657242E+02  0.51100000000E-03 0. -1.
        -11    1    3    3    0    0 -0.29002707895E+01  0.62836275563E+01 -0.30251919042E+01  0.75529684388E+01  0.51100000000E-03 0.  1.
        -12    1    3    3    0    0  0.33735391374E+02  0.19684555126E+02 -0.10108339671E+02  0.40345221187E+02  0.00000000000E+00 0.  1.
</event>
<event>
 7    1  0.1501154E-015  0.9000771E+02  0.7816164E-02  0.1186339E+00
        -11   -1    0    0    0    0  0.00000000000E+00  0.00000000000E+00  0.45593999997E+02  0.45594000000E+02  0.51100000000E-03 0.  1.
         11   -1    0    0    0    0 -0.00000000000E+00 -0.00000000000E+00 -0.45593999997E+02  0.45594000000E+02  0.51100000000E-03 0. -1.
    9900012    2    1    2    0    0  0.54637191670E+00  0.58531688196E+00  0.86715410292E+00  0.90007714288E+02  0.89999975317E+02 0.  0.
         12    1    1    2    0    0 -0.54637191670E+00 -0.58531688196E+00 -0.86715410292E+00  0.11802857120E+01  0.00000000000E+00 0. -1.
         11    1    3    3    0    0 -0.38225487275E+01 -0.65124496371E+01 -0.55890025906E+01  0.93947234802E+01  0.51100000000E-03 0. -1.
        -11    1    3    3    0    0 -0.20684877228E+02 -0.17562279564E+02  0.28314428612E+02  0.39217402735E+02  0.51100000000E-03 0.  1.
         12    1    3    3    0    0  0.25053797872E+02  0.24660046083E+02 -0.21858271919E+02  0.41395588073E+02  0.00000000000E+00 0. -1.
</event>
<event>
 8    1  0.1501154E-015  0.9000771E+02  0.7816164E-02  0.1186339E+00
        -11   -1    0    0    0    0  0.00000000000E+00  0.00000000000E+00  0.45593999997E+02  0.45594000000E+02  0.51100000000E-03 0.  1.
         11   -1    0    0    0    0 -0.00000000000E+00 -0.00000000000E+00 -0.45593999997E+02  0.45594000000E+02  0.51100000000E-03 0. -1.
    9900012    2    1    2    0    0  0.22087256214E+00  0.94614501306E+00  0.67014809525E+00  0.90007714635E+02  0.89999975668E+02 0.  0.
         23    2    3    3    0    0  0.17316112927E+02  0.16990759219E+02 -0.14129672539E+02  0.62282066239E+02  0.55595633490E+02 0.  0.
         12    1    1    2    0    0 -0.22087256214E+00 -0.94614501306E+00 -0.67014809525E+00  0.11802853655E+01  0.00000000000E+00 0. -1.
         11    1    4    4    0    0  0.22577557842E+01  0.33847786861E+02  0.28046599361E+01  0.34038746366E+02  0.51100000000E-03 0. -1.
        -11    1    4    4    0    0  0.15058357143E+02 -0.16857027642E+02 -0.16934332475E+02  0.28243319872E+02  0.51100000000E-03 0.  1.
        -12    1    3    3    0    0 -0.17095240365E+02 -0.16044614206E+02  0.14799820634E+02  0.27725648396E+02  0.00000000000E+00 0.  1.
</event>
<event>
 7    1  0.1501154E-015  0.9000770E+02  0.7816164E-02  0.1186339E+00
        -11   -1    0    0    0    0  0.00000000000E+00  0.00000000000E+00  0.45593999997E+02  0.45594000000E+02  0.51100000000E-03 0. -1.
         11   -1    0    0    0    0 -0.00000000000E+00 -0.00000000000E+00 -0.45593999997E+02  0.45594000000E+02  0.51100000000E-03 0.  1.
    9900012    2    1    2    0    0 -0.83042085637E-01 -0.34171265888E+00 -0.11266961297E+01  0.90007700166E+02  0.89999961008E+02 0.  0.
         12    1    1    2    0    0  0.83042085637E-01  0.34171265888E+00  0.11266961297E+01  0.11802998339E+01  0.00000000000E+00 0. -1.
         11    1    3    3    0    0  0.83350794150E+01 -0.98523699918E+01 -0.30084741597E+01  0.13251175810E+02  0.51100000000E-03 0. -1.
        -11    1    3    3    0    0  0.10042673615E+02  0.16176201237E+02 -0.32211049234E+02  0.37417595765E+02  0.51100000000E-03 0.  1.
         12    1    3    3    0    0 -0.18460795116E+02 -0.66655439039E+01  0.34092827264E+02  0.39338928591E+02  0.00000000000E+00 0. -1.
</event>
<event>
 7    1  0.1501154E-015  0.9000775E+02  0.7816164E-02  0.1186339E+00
        -11   -1    0    0    0    0  0.00000000000E+00  0.00000000000E+00  0.45593999997E+02  0.45594000000E+02  0.51100000000E-03 0.  1.
         11   -1    0    0    0    0 -0.00000000000E+00 -0.00000000000E+00 -0.45593999997E+02  0.45594000000E+02  0.51100000000E-03 0. -1.
    9900012    2    1    2    0    0  0.83358419100E+00  0.80117553139E+00 -0.23716519675E+00  0.90007749109E+02  0.90000010597E+02 0.  0.
         12    1    1    2    0    0 -0.83358419100E+00 -0.80117553139E+00  0.23716519675E+00  0.11802508912E+01  0.00000000000E+00 0. -1.
         11    1    3    3    0    0  0.88400272771E+01  0.34077192823E+01  0.45537842253E+01  0.10511687971E+02  0.51100000000E-03 0. -1.
        -11    1    3    3    0    0  0.20862884032E+02  0.22632168625E+02  0.17231392391E+02  0.35275995674E+02  0.51100000000E-03 0.  1.
         12    1    3    3    0    0 -0.28869327118E+02 -0.25238712376E+02 -0.22022341813E+02  0.44220065464E+02  0.00000000000E+00 0. -1.
</event>
<event>
 7    1  0.1501154E-015  0.9000758E+02  0.7816164E-02  0.1186339E+00
        -11   -1    0    0    0    0  0.00000000000E+00  0.00000000000E+00  0.45593999997E+02  0.45594000000E+02  0.51100000000E-03 0.  1.
         11   -1    0    0    0    0 -0.00000000000E+00 -0.00000000000E+00 -0.45593999997E+02  0.45594000000E+02  0.51100000000E-03 0. -1.
    9900012    2    1    2    0    0  0.10906390846E+01 -0.44997645568E+00  0.37810065460E-01  0.90007575490E+02  0.89999834686E+02 0.  0.
         12    1    1    2    0    0 -0.10906390846E+01  0.44997645568E+00 -0.37810065460E-01  0.11804245103E+01  0.00000000000E+00 0. -1.
         11    1    3    3    0    0 -0.22269497136E+00 -0.93738721328E+01 -0.32291263336E+02  0.33625061485E+02  0.51100000000E-03 0. -1.
        -11    1    3    3    0    0  0.40550819435E+01  0.10272257298E+02 -0.94238272040E+01  0.14517970898E+02  0.51100000000E-03 0.  1.
        -12    1    3    3    0    0 -0.27417478876E+01 -0.13483616206E+01  0.41752900605E+02  0.41864543106E+02  0.00000000000E+00 0.  1.
</event>
<event>
 7    1  0.1501154E-015  0.9000771E+02  0.7816164E-02  0.1186339E+00
        -11   -1    0    0    0    0  0.00000000000E+00  0.00000000000E+00  0.45593999997E+02  0.45594000000E+02  0.51100000000E-03 0.  1.
         11   -1    0    0    0    0 -0.00000000000E+00 -0.00000000000E+00 -0.45593999997E+02  0.45594000000E+02  0.51100000000E-03 0. -1.
    9900012    2    1    2    0    0  0.60820753454E+00  0.51103968035E+00  0.87292906424E+00  0.90007710582E+02  0.89999971561E+02 0.  0.
         12    1    1    2    0    0 -0.60820753454E+00 -0.51103968035E+00 -0.87292906424E+00  0.11802894184E+01  0.00000000000E+00 0. -1.
         11    1    3    3    0    0 -0.73349767584E+01 -0.84695158765E+01  0.10980568769E+02  0.15687812912E+02  0.51100000000E-03 0. -1.
        -11    1    3    3    0    0 -0.28178933499E+02  0.19511461718E+02 -0.12826233917E+02  0.36595924750E+02  0.51100000000E-03 0.  1.
         12    1    3    3    0    0  0.36122117792E+02 -0.10530906161E+02  0.27185942127E+01  0.37723972920E+02  0.00000000000E+00 0. -1.
</event>
<event>
 7    1  0.1501154E-015  0.9000774E+02  0.7816164E-02  0.1186339E+00
        -11   -1    0    0    0    0  0.00000000000E+00  0.00000000000E+00  0.45593999997E+02  0.45594000000E+02  0.51100000000E-03 0.  1.
         11   -1    0    0    0    0 -0.00000000000E+00 -0.00000000000E+00 -0.45593999997E+02  0.45594000000E+02  0.51100000000E-03 0. -1.
    9900012    2    1    2    0    0 -0.80548311371E-01  0.96822167764E+00  0.67012087090E+00  0.90007744422E+02  0.90000005848E+02 0.  0.
         12    1    1    2    0    0  0.80548311371E-01 -0.96822167764E+00 -0.67012087090E+00  0.11802555779E+01  0.00000000000E+00 0. -1.
         11    1    3    3    0    0  0.61277875996E-01 -0.11216553414E+02 -0.23959320346E+01  0.11469756582E+02  0.51100000000E-03 0. -1.
        -11    1    3    3    0    0  0.77679570141E+01  0.86811652613E+01  0.39452950912E+02  0.41136834132E+02  0.51100000000E-03 0.  1.
         12    1    3    3    0    0 -0.79097832015E+01  0.35036098307E+01 -0.36386898007E+02  0.37401153708E+02  0.00000000000E+00 0. -1.
</event>
<event>
 7    1  0.1501154E-015  0.9000770E+02  0.7816164E-02  0.1186339E+00
        -11   -1    0    0    0    0  0.00000000000E+00  0.00000000000E+00  0.45593999997E+02  0.45594000000E+02  0.51100000000E-03 0. -1.
         11   -1    0    0    0    0 -0.00000000000E+00 -0.00000000000E+00 -0.45593999997E+02  0.45594000000E+02  0.51100000000E-03 0.  1.
    9900012    2    1    2    0    0  0.54952930717E+00 -0.67097620179E+00 -0.80057280126E+00  0.90007699897E+02  0.89999960736E+02 0.  0.
         12    1    1    2    0    0 -0.54952930717E+00  0.67097620179E+00  0.80057280126E+00  0.11803001029E+01  0.00000000000E+00 0. -1.
         11    1    3    3    0    0  0.85159919277E+01  0.20785806696E+01  0.23348504988E+01  0.90716119419E+01  0.51100000000E-03 0. -1.
        -11    1    3    3    0    0  0.26809627188E+02  0.16211894394E+02  0.17904464612E+02  0.36085336124E+02  0.51100000000E-03 0.  1.
         12    1    3    3    0    0 -0.34776089809E+02 -0.18961451266E+02 -0.21039887912E+02  0.44850751832E+02  0.00000000000E+00 0. -1.
</event>
<event>
 7    1  0.1501154E-015  0.9000788E+02  0.7816164E-02  0.1186339E+00
        -11   -1    0    0    0    0  0.00000000000E+00  0.00000000000E+00  0.45593999997E+02  0.45594000000E+02  0.51100000000E-03 0.  1.
         11   -1    0    0    0    0 -0.00000000000E+00 -0.00000000000E+00 -0.45593999997E+02  0.45594000000E+02  0.51100000000E-03 0. -1.
    9900012    2    1    2    0    0 -0.60884868898E+00 -0.35759994457E+00  0.94557421810E+00  0.90007879223E+02  0.90000142429E+02 0.  0.
         12    1    1    2    0    0  0.60884868898E+00  0.35759994457E+00 -0.94557421810E+00  0.11801207770E+01  0.00000000000E+00 0. -1.
         11    1    3    3    0    0 -0.17566692501E+01 -0.75798319407E+01 -0.65999570702E+01  0.10202900210E+02  0.51100000000E-03 0. -1.
        -11    1    3    3    0    0 -0.57802161456E+01 -0.31969995968E+02  0.19940425819E+02  0.38119707803E+02  0.51100000000E-03 0.  1.
         12    1    3    3    0    0  0.69280367067E+01  0.39192227964E+02 -0.12394894530E+02  0.41685271210E+02  0.00000000000E+00 0. -1.
</event>
<event>
 7    1  0.1501154E-015  0.9000765E+02  0.7816164E-02  0.1186339E+00
        -11   -1    0    0    0    0  0.00000000000E+00  0.00000000000E+00  0.45593999997E+02  0.45594000000E+02  0.51100000000E-03 0. -1.
         11   -1    0    0    0    0 -0.00000000000E+00 -0.00000000000E+00 -0.45593999997E+02  0.45594000000E+02  0.51100000000E-03 0.  1.
    9900012    2    1    2    0    0  0.57232198171E+00  0.10058347940E+01  0.23231715196E+00  0.90007649483E+02  0.89999909656E+02 0.  0.
         12    1    1    2    0    0 -0.57232198171E+00 -0.10058347940E+01 -0.23231715196E+00  0.11803505169E+01  0.00000000000E+00 0. -1.
         11    1    3    3    0    0 -0.15402537692E+02  0.67302074048E+01  0.33540673864E+02  0.37516805069E+02  0.51100000000E-03 0. -1.
        -11    1    3    3    0    0  0.13200628024E+01 -0.67904096494E+01  0.68460799172E+01  0.97324734525E+01  0.51100000000E-03 0.  1.
        -12    1    3    3    0    0  0.14654796871E+02  0.10660370386E+01 -0.40154436629E+02  0.42758370962E+02  0.00000000000E+00 0.  1.
</event>
<event>
 7    1  0.1501154E-015  0.9000780E+02  0.7816164E-02  0.1186339E+00
        -11   -1    0    0    0    0  0.00000000000E+00  0.00000000000E+00  0.45593999997E+02  0.45594000000E+02  0.51100000000E-03 0.  1.
         11   -1    0    0    0    0 -0.00000000000E+00 -0.00000000000E+00 -0.45593999997E+02  0.45594000000E+02  0.51100000000E-03 0. -1.
    9900012    2    1    2    0    0  0.25776239050E+00  0.11282750929E+01  0.23112562231E+00  0.90007802903E+02  0.90000065101E+02 0.  0.
         12    1    1    2    0    0 -0.25776239050E+00 -0.11282750929E+01 -0.23112562231E+00  0.11801970973E+01  0.00000000000E+00 0. -1.
         11    1    3    3    0    0  0.16135139132E+01 -0.33730558341E+01  0.78214805864E+01  0.86692843784E+01  0.51100000000E-03 0. -1.
        -11    1    3    3    0    0  0.18180554301E+02  0.14001603202E+02  0.30091741206E+02  0.37842969439E+02  0.51100000000E-03 0.  1.
         12    1    3    3    0    0 -0.19536305823E+02 -0.95002722744E+01 -0.37682096170E+02  0.43495549086E+02  0.00000000000E+00 0. -1.
</event>
<event>
 7    1  0.1501154E-015  0.9000773E+02  0.7816164E-02  0.1186339E+00
        -11   -1    0    0    0    0  0.00000000000E+00  0.00000000000E+00  0.45593999997E+02  0.45594000000E+02  0.51100000000E-03 0. -1.
         11   -1    0    0    0    0 -0.00000000000E+00 -0.00000000000E+00 -0.45593999997E+02  0.45594000000E+02  0.51100000000E-03 0.  1.
    9900012    2    1    2    0    0 -0.55240106235E+00 -0.10198042261E+01 -0.21884863681E+00  0.90007727862E+02  0.89999989070E+02 0.  0.
         12    1    1    2    0    0  0.55240106235E+00  0.10198042261E+01  0.21884863681E+00  0.11802721377E+01  0.00000000000E+00 0. -1.
         11    1    3    3    0    0  0.35073974463E+02  0.10855820470E+02  0.13840712780E+02  0.39237709582E+02  0.51100000000E-03 0. -1.
        -11    1    3    3    0    0  0.33200339106E+01  0.65275424315E+00 -0.89155257593E+01  0.95360008964E+01  0.51100000000E-03 0.  1.
        -12    1    3    3    0    0 -0.38946409436E+02 -0.12528378939E+02 -0.51440356572E+01  0.41234017384E+02  0.00000000000E+00 0.  1.
</event>
<event>
 7    1  0.1501154E-015  0.9000796E+02  0.7816164E-02  0.1186339E+00
        -11   -1    0    0    0    0  0.00000000000E+00  0.00000000000E+00  0.45593999997E+02  0.45594000000E+02  0.51100000000E-03 0.  1.
         11   -1    0    0    0    0 -0.00000000000E+00 -0.00000000000E+00 -0.45593999997E+02  0.45594000000E+02  0.51100000000E-03 0. -1.
    9900012    2    1    2    0    0 -0.51881345154E+00 -0.10201662027E+00  0.10549552014E+01  0.90007955397E+02  0.90000219608E+02 0.  0.
         12    1    1    2    0    0  0.51881345154E+00  0.10201662027E+00 -0.10549552014E+01  0.11800446030E+01  0.00000000000E+00 0. -1.
         11    1    3    3    0    0  0.81331950954E+01 -0.19495935774E+02  0.35632879324E+02  0.41423935874E+02  0.51100000000E-03 0. -1.
        -11    1    3    3    0    0  0.67755258529E+01 -0.25744258430E+01 -0.82901191931E+01  0.11011879744E+02  0.51100000000E-03 0.  1.
        -12    1    3    3    0    0 -0.15427534400E+02  0.21968344996E+02 -0.26287804929E+02  0.37572139779E+02  0.00000000000E+00 0.  1.
</event>
<event>
 7    1  0.1501154E-015  0.9000770E+02  0.7816164E-02  0.1186339E+00
        -11   -1    0    0    0    0  0.00000000000E+00  0.00000000000E+00  0.45593999997E+02  0.45594000000E+02  0.51100000000E-03 0. -1.
         11   -1    0    0    0    0 -0.00000000000E+00 -0.00000000000E+00 -0.45593999997E+02  0.45594000000E+02  0.51100000000E-03 0.  1.
    9900012    2    1    2    0    0 -0.29621916487E+00 -0.11403382283E+01 -0.70715022340E-01  0.90007695936E+02  0.89999956723E+02 0.  0.
         12    1    1    2    0    0  0.29621916487E+00  0.11403382283E+01  0.70715022340E-01  0.11803040638E+01  0.00000000000E+00 0. -1.
         11    1    3    3    0    0 -0.84332539338E+01 -0.10777709683E+00  0.19502813820E+01  0.86564996127E+01  0.51100000000E-03 0. -1.
        -11    1    3    3    0    0  0.63603038421E+01  0.39661492579E+02  0.31494986316E+01  0.40291522687E+02  0.51100000000E-03 0.  1.
         12    1    3    3    0    0  0.17767309269E+01 -0.40694053711E+02 -0.51704950359E+01  0.41059673636E+02  0.00000000000E+00 0. -1.
</event>
<event>
 7    1  0.1501154E-015  0.9000766E+02  0.7816164E-02  0.1186339E+00
        -11   -1    0    0    0    0  0.00000000000E+00  0.00000000000E+00  0.45593999997E+02  0.45594000000E+02  0.51100000000E-03 0. -1.
         11   -1    0    0    0    0 -0.00000000000E+00 -0.00000000000E+00 -0.45593999997E+02  0.45594000000E+02  0.51100000000E-03 0.  1.
    9900012    2    1    2    0    0  0.10125273465E+01 -0.10108176076E+00 -0.59814537146E+00  0.90007658085E+02  0.89999918372E+02 0.  0.
         12    1    1    2    0    0 -0.10125273465E+01  0.10108176076E+00  0.59814537146E+00  0.11803419145E+01  0.00000000000E+00 0. -1.
         11    1    3    3    0    0  0.94508248642E+01 -0.24927731588E+01  0.44193187001E+01  0.10726713694E+02  0.51100000000E-03 0. -1.
        -11    1    3    3    0    0 -0.40339310096E+02  0.15222391566E+02  0.51554550818E+01  0.43423033766E+02  0.51100000000E-03 0.  1.
         12    1    3    3    0    0  0.31901012579E+02 -0.12830700168E+02 -0.10172919153E+02  0.35857910626E+02  0.00000000000E+00 0. -1.
</event>
<event>
 7    1  0.1501154E-015  0.9000773E+02  0.7816164E-02  0.1186339E+00
        -11   -1    0    0    0    0  0.00000000000E+00  0.00000000000E+00  0.45593999997E+02  0.45594000000E+02  0.51100000000E-03 0. -1.
         11   -1    0    0    0    0 -0.00000000000E+00 -0.00000000000E+00 -0.45593999997E+02  0.45594000000E+02  0.51100000000E-03 0.  1.
    9900012    2    1    2    0    0  0.43131670618E+00 -0.10736730077E+01  0.23287823557E+00  0.90007728802E+02  0.89999990022E+02 0.  0.
         12    1    1    2    0    0 -0.43131670618E+00  0.10736730077E+01 -0.23287823557E+00  0.11802711981E+01  0.00000000000E+00 0. -1.
         11    1    3    3    0    0 -0.35733106038E+02 -0.18661789775E+01  0.13317305901E+02  0.38179682134E+02  0.51100000000E-03 0. -1.
        -11    1    3    3    0    0 -0.24001524828E+01 -0.37865838950E+01  0.68410920974E+01  0.81792108960E+01  0.51100000000E-03 0.  1.
        -12    1    3    3    0    0  0.38564575227E+02  0.45790898648E+01 -0.19925519763E+02  0.43648835772E+02  0.00000000000E+00 0.  1.
</event>
<event>
 7    1  0.1501154E-015  0.9000776E+02  0.7816164E-02  0.1186339E+00
        -11   -1    0    0    0    0  0.00000000000E+00  0.00000000000E+00  0.45593999997E+02  0.45594000000E+02  0.51100000000E-03 0. -1.
         11   -1    0    0    0    0 -0.00000000000E+00 -0.00000000000E+00 -0.45593999997E+02  0.45594000000E+02  0.51100000000E-03 0.  1.
    9900012    2    1    2    0    0  0.89629211144E+00  0.62218015658E+00  0.45003365267E+00  0.90007755117E+02  0.90000016684E+02 0.  0.
         12    1    1    2    0    0 -0.89629211144E+00 -0.62218015658E+00 -0.45003365267E+00  0.11802448834E+01  0.00000000000E+00 0. -1.
         11    1    3    3    0    0 -0.41366317878E+01  0.10931993365E+02 -0.70389177049E-01  0.11688676417E+02  0.51100000000E-03 0. -1.
        -11    1    3    3    0    0 -0.26474257744E+02 -0.23258958571E+02 -0.17972640167E+02  0.39558580254E+02  0.51100000000E-03 0.  1.
         12    1    3    3    0    0  0.31507181643E+02  0.12949145362E+02  0.18493062997E+02  0.38760498445E+02  0.00000000000E+00 0. -1.
</event>
<event>
 7    1  0.1501154E-015  0.9000773E+02  0.7816164E-02  0.1186339E+00
        -11   -1    0    0    0    0  0.00000000000E+00  0.00000000000E+00  0.45593999997E+02  0.45594000000E+02  0.51100000000E-03 0. -1.
         11   -1    0    0    0    0 -0.00000000000E+00 -0.00000000000E+00 -0.45593999997E+02  0.45594000000E+02  0.51100000000E-03 0.  1.
    9900012    2    1    2    0    0  0.68027878816E+00 -0.53168554168E+00 -0.80471459520E+00  0.90007731249E+02  0.89999992501E+02 0.  0.
         12    1    1    2    0    0 -0.68027878816E+00  0.53168554168E+00  0.80471459520E+00  0.11802687510E+01  0.00000000000E+00 0. -1.
         11    1    3    3    0    0 -0.33866740811E+01 -0.16047820444E+02  0.23731448868E+02  0.28847595532E+02  0.51100000000E-03 0. -1.
        -11    1    3    3    0    0  0.81660783060E+01 -0.18699880024E+02 -0.15238295392E+02  0.25467155211E+02  0.51100000000E-03 0.  1.
        -12    1    3    3    0    0 -0.40991254368E+01  0.34216014926E+02 -0.92978680712E+01  0.35692980507E+02  0.00000000000E+00 0.  1.
</event>
<event>
 7    1  0.1501154E-015  0.9000760E+02  0.7816164E-02  0.1186339E+00
        -11   -1    0    0    0    0  0.00000000000E+00  0.00000000000E+00  0.45593999997E+02  0.45594000000E+02  0.51100000000E-03 0. -1.
         11   -1    0    0    0    0 -0.00000000000E+00 -0.00000000000E+00 -0.45593999997E+02  0.45594000000E+02  0.51100000000E-03 0.  1.
    9900012    2    1    2    0    0  0.31264060526E+00  0.71207980912E+00 -0.88800030777E+00  0.90007599073E+02  0.89999858580E+02 0.  0.
         12    1    1    2    0    0 -0.31264060526E+00 -0.71207980912E+00  0.88800030777E+00  0.11804009273E+01  0.00000000000E+00 0. -1.
         11    1    3    3    0    0 -0.94091218257E+01 -0.23914918741E+01  0.10543642813E+01  0.97653720468E+01  0.51100000000E-03 0. -1.
        -11    1    3    3    0    0  0.13448393716E+02 -0.37271824206E+02 -0.23457314394E+01  0.39693206338E+02  0.51100000000E-03 0.  1.
         12    1    3    3    0    0 -0.37266312855E+01  0.40375395889E+02  0.40336685031E+00  0.40549020688E+02  0.00000000000E+00 0. -1.
</event>
<event>
 7    1  0.1501154E-015  0.9000771E+02  0.7816164E-02  0.1186339E+00
        -11   -1    0    0    0    0  0.00000000000E+00  0.00000000000E+00  0.45593999997E+02  0.45594000000E+02  0.51100000000E-03 0. -1.
         11   -1    0    0    0    0 -0.00000000000E+00 -0.00000000000E+00 -0.45593999997E+02  0.45594000000E+02  0.51100000000E-03 0.  1.
    9900012    2    1    2    0    0  0.18500415558E+00  0.17427487402E+00 -0.11525961175E+01  0.90007713560E+02  0.89999974579E+02 0.  0.
         12    1    1    2    0    0 -0.18500415558E+00 -0.17427487402E+00  0.11525961175E+01  0.11802864395E+01  0.00000000000E+00 0. -1.
         11    1    3    3    0    0  0.40076997557E+01 -0.80754565752E+01 -0.36223424859E+01  0.97157615026E+01  0.51100000000E-03 0. -1.
        -11    1    3    3    0    0  0.12823955478E+01 -0.25723649464E+02 -0.25310511096E+02  0.36110561506E+02  0.51100000000E-03 0.  1.
         12    1    3    3    0    0 -0.51050911480E+01  0.33973380913E+02  0.27780257464E+02  0.44181390552E+02  0.00000000000E+00 0. -1.
</event>
<event>
 7    1  0.1501154E-015  0.9000763E+02  0.7816164E-02  0.1186339E+00
        -11   -1    0    0    0    0  0.00000000000E+00  0.00000000000E+00  0.45593999997E+02  0.45594000000E+02  0.51100000000E-03 0.  1.
         11   -1    0    0    0    0 -0.00000000000E+00 -0.00000000000E+00 -0.45593999997E+02  0.45594000000E+02  0.51100000000E-03 0. -1.
    9900012    2    1    2    0    0 -0.24924872293E+00 -0.63230532009E+00  0.96506003297E+00  0.90007628952E+02  0.89999888854E+02 0.  0.
         12    1    1    2    0    0  0.24924872293E+00  0.63230532009E+00 -0.96506003297E+00  0.11803710480E+01  0.00000000000E+00 0. -1.
         11    1    3    3    0    0 -0.86103130205E+01 -0.33390396003E+01  0.51861972660E+00  0.92496293140E+01  0.51100000000E-03 0. -1.
        -11    1    3    3    0    0 -0.26435923310E+02 -0.21955447417E+02  0.12286604646E+02  0.36494662165E+02  0.51100000000E-03 0.  1.
         12    1    3    3    0    0  0.34796987608E+02  0.24662181697E+02 -0.11840164340E+02  0.44263337473E+02  0.00000000000E+00 0. -1.
</event>
<event>
 7    1  0.1501154E-015  0.9000709E+02  0.7816164E-02  0.1186340E+00
        -11   -1    0    0    0    0  0.00000000000E+00  0.00000000000E+00  0.45593999997E+02  0.45594000000E+02  0.51100000000E-03 0.  1.
         11   -1    0    0    0    0 -0.00000000000E+00 -0.00000000000E+00 -0.45593999997E+02  0.45594000000E+02  0.51100000000E-03 0. -1.
    9900012    2    1    2    0    0  0.10570194444E+01  0.50136763362E+00  0.16090699377E+00  0.90007089051E+02  0.89999341824E+02 0.  0.
         12    1    1    2    0    0 -0.10570194444E+01 -0.50136763362E+00 -0.16090699377E+00  0.11809109495E+01  0.00000000000E+00 0. -1.
         11    1    3    3    0    0 -0.20441726428E+02 -0.32817197396E+02 -0.11719519307E+02  0.40400244521E+02  0.51100000000E-03 0. -1.
        -11    1    3    3    0    0 -0.37508548402E+01  0.27259212103E+01  0.86429700104E+01  0.98081848136E+01  0.51100000000E-03 0.  1.
        -12    1    3    3    0    0  0.25249600713E+02  0.30592643819E+02  0.32374562907E+01  0.39798659716E+02  0.00000000000E+00 0.  1.
</event>
<event>
 7    1  0.1501154E-015  0.9000769E+02  0.7816164E-02  0.1186339E+00
        -11   -1    0    0    0    0  0.00000000000E+00  0.00000000000E+00  0.45593999997E+02  0.45594000000E+02  0.51100000000E-03 0. -1.
         11   -1    0    0    0    0 -0.00000000000E+00 -0.00000000000E+00 -0.45593999997E+02  0.45594000000E+02  0.51100000000E-03 0.  1.
    9900012    2    1    2    0    0  0.86755882833E+00 -0.80455090205E-01 -0.79623862853E+00  0.90007691864E+02  0.89999952597E+02 0.  0.
         12    1    1    2    0    0 -0.86755882833E+00  0.80455090205E-01  0.79623862853E+00  0.11803081359E+01  0.00000000000E+00 0. -1.
         11    1    3    3    0    0 -0.25053960220E+02 -0.16915458261E+02  0.26684252972E+02  0.40322239618E+02  0.51100000000E-03 0. -1.
        -11    1    3    3    0    0 -0.29290687477E+01  0.96557474484E+01 -0.14968236072E+01  0.10200656042E+02  0.51100000000E-03 0.  1.
        -12    1    3    3    0    0  0.28850587796E+02  0.71792557222E+01 -0.25983667993E+02  0.39484796204E+02  0.00000000000E+00 0.  1.
</event>
<event>
 7    1  0.1501154E-015  0.9000771E+02  0.7816164E-02  0.1186339E+00
        -11   -1    0    0    0    0  0.00000000000E+00  0.00000000000E+00  0.45593999997E+02  0.45594000000E+02  0.51100000000E-03 0.  1.
         11   -1    0    0    0    0 -0.00000000000E+00 -0.00000000000E+00 -0.45593999997E+02  0.45594000000E+02  0.51100000000E-03 0. -1.
    9900012    2    1    2    0    0 -0.11524903544E+01 -0.24610265366E+00  0.65541232978E-01  0.90007705043E+02  0.89999965949E+02 0.  0.
         12    1    1    2    0    0  0.11524903544E+01  0.24610265366E+00 -0.65541232978E-01  0.11802949574E+01  0.00000000000E+00 0. -1.
         11    1    3    3    0    0  0.33459560006E+02 -0.13878747479E+01 -0.20119489809E+02  0.39067406140E+02  0.51100000000E-03 0. -1.
        -11    1    3    3    0    0  0.25410658668E+01 -0.80815645082E+01  0.42068384505E+01  0.94586569157E+01  0.51100000000E-03 0.  1.
        -12    1    3    3    0    0 -0.37153116227E+02  0.92233366024E+01  0.15978192591E+02  0.41481641987E+02  0.00000000000E+00 0.  1.
</event>
<event>
 7    1  0.1630028E-015  0.9000778E+02  0.7816164E-02  0.1186339E+00
        -11   -1    0    0    0    0  0.00000000000E+00  0.00000000000E+00  0.45593999997E+02  0.45594000000E+02  0.51100000000E-03 0. -1.
         11   -1    0    0    0    0 -0.00000000000E+00 -0.00000000000E+00 -0.45593999997E+02  0.45594000000E+02  0.51100000000E-03 0.  1.
    9900012    2    1    2    0    0 -0.52751036165E+00 -0.29278350910E+00 -0.10143576251E+01  0.90007783598E+02  0.90000045541E+02 0.  0.
         12    1    1    2    0    0  0.52751036165E+00  0.29278350910E+00  0.10143576251E+01  0.11802164024E+01  0.00000000000E+00 0. -1.
         11    1    3    3    0    0  0.26938549807E+02  0.20678891499E+02  0.18440749052E+02  0.38644058343E+02  0.51100000000E-03 0. -1.
        -11    1    3    3    0    0 -0.75358041701E+01  0.40981607213E+01  0.59874120537E+01  0.10460992742E+02  0.51100000000E-03 0.  1.
        -12    1    3    3    0    0 -0.19930255998E+02 -0.25069835730E+02 -0.25442518731E+02  0.40902732513E+02  0.00000000000E+00 0.  1.
</event>
<event>
 7    1  0.1501154E-015  0.9000763E+02  0.7816164E-02  0.1186339E+00
        -11   -1    0    0    0    0  0.00000000000E+00  0.00000000000E+00  0.45593999997E+02  0.45594000000E+02  0.51100000000E-03 0. -1.
         11   -1    0    0    0    0 -0.00000000000E+00 -0.00000000000E+00 -0.45593999997E+02  0.45594000000E+02  0.51100000000E-03 0.  1.
    9900012    2    1    2    0    0 -0.94415535346E+00  0.20573057415E+00 -0.67787664591E+00  0.90007630927E+02  0.89999890856E+02 0.  0.
         12    1    1    2    0    0  0.94415535346E+00 -0.20573057415E+00  0.67787664591E+00  0.11803690727E+01  0.00000000000E+00 0. -1.
         11    1    3    3    0    0 -0.18807278221E+02 -0.33584365943E+02  0.91980345132E+01  0.39575588297E+02  0.51100000000E-03 0. -1.
        -11    1    3    3    0    0  0.37076795953E+01  0.51777166777E+00  0.89246845588E+01  0.96780664503E+01  0.51100000000E-03 0.  1.
        -12    1    3    3    0    0  0.14155443272E+02  0.33272324850E+02 -0.18800595718E+02  0.40753976180E+02  0.00000000000E+00 0.  1.
</event>
<event>
 7    1  0.1501154E-015  0.9000746E+02  0.7816164E-02  0.1186340E+00
        -11   -1    0    0    0    0  0.00000000000E+00  0.00000000000E+00  0.45593999997E+02  0.45594000000E+02  0.51100000000E-03 0.  1.
         11   -1    0    0    0    0 -0.00000000000E+00 -0.00000000000E+00 -0.45593999997E+02  0.45594000000E+02  0.51100000000E-03 0. -1.
    9900012    2    1    2    0    0  0.52175398836E+00 -0.59071052467E+00  0.87892108220E+00  0.90007462657E+02  0.89999720364E+02 0.  0.
         12    1    1    2    0    0 -0.52175398836E+00  0.59071052467E+00 -0.87892108220E+00  0.11805373425E+01  0.00000000000E+00 0. -1.
         11    1    3    3    0    0 -0.23561518983E+02 -0.26183943872E+02  0.15367329880E+02  0.38430442638E+02  0.51100000000E-03 0. -1.
        -11    1    3    3    0    0  0.13617182733E+01 -0.83519073100E+01 -0.42313166617E+01  0.94611137465E+01  0.51100000000E-03 0.  1.
        -12    1    3    3    0    0  0.22721554698E+02  0.33945140657E+02 -0.10257092136E+02  0.42115906273E+02  0.00000000000E+00 0.  1.
</event>
<event>
 7    1  0.1501154E-015  0.9000775E+02  0.7816164E-02  0.1186339E+00
        -11   -1    0    0    0    0  0.00000000000E+00  0.00000000000E+00  0.45593999997E+02  0.45594000000E+02  0.51100000000E-03 0.  1.
         11   -1    0    0    0    0 -0.00000000000E+00 -0.00000000000E+00 -0.45593999997E+02  0.45594000000E+02  0.51100000000E-03 0. -1.
    9900012    2    1    2    0    0 -0.10969264055E+01 -0.42547814441E+00  0.93342474465E-01  0.90007749176E+02  0.90000010665E+02 0.  0.
         12    1    1    2    0    0  0.10969264055E+01  0.42547814441E+00 -0.93342474465E-01  0.11802508242E+01  0.00000000000E+00 0. -1.
         11    1    3    3    0    0 -0.47090337396E+01 -0.32442647852E+02 -0.24544316101E+02  0.40952702616E+02  0.51100000000E-03 0. -1.
        -11    1    3    3    0    0 -0.36249538272E+01 -0.41270366535E+01  0.23124590701E+01  0.59598816263E+01  0.51100000000E-03 0.  1.
        -12    1    3    3    0    0  0.72370611613E+01  0.36144206361E+02  0.22325199506E+02  0.43095164934E+02  0.00000000000E+00 0.  1.
</event>
<event>
 7    1  0.1501154E-015  0.9000821E+02  0.7816164E-02  0.1186338E+00
        -11   -1    0    0    0    0  0.00000000000E+00  0.00000000000E+00  0.45593999997E+02  0.45594000000E+02  0.51100000000E-03 0.  1.
         11   -1    0    0    0    0 -0.00000000000E+00 -0.00000000000E+00 -0.45593999997E+02  0.45594000000E+02  0.51100000000E-03 0. -1.
    9900012    2    1    2    0    0 -0.52331628956E+00 -0.94141618287E+00  0.48142941192E+00  0.90008212457E+02  0.90000480060E+02 0.  0.
         12    1    1    2    0    0  0.52331628956E+00  0.94141618287E+00 -0.48142941192E+00  0.11797875431E+01  0.00000000000E+00 0. -1.
         11    1    3    3    0    0 -0.28856941192E+01  0.95440965914E+01 -0.21405991148E+01  0.10197998584E+02  0.51100000000E-03 0. -1.
        -11    1    3    3    0    0 -0.38203075559E+02 -0.73445510451E+01  0.39424356139E+01  0.39101920810E+02  0.51100000000E-03 0.  1.
         12    1    3    3    0    0  0.40565453388E+02 -0.31409617292E+01 -0.13204070871E+01  0.40708293062E+02  0.00000000000E+00 0. -1.
</event>
<event>
 7    1  0.1501154E-015  0.9000734E+02  0.7816164E-02  0.1186340E+00
        -11   -1    0    0    0    0  0.00000000000E+00  0.00000000000E+00  0.45593999997E+02  0.45594000000E+02  0.51100000000E-03 0. -1.
         11   -1    0    0    0    0 -0.00000000000E+00 -0.00000000000E+00 -0.45593999997E+02  0.45594000000E+02  0.51100000000E-03 0.  1.
    9900012    2    1    2    0    0 -0.11570132598E+01  0.21516066139E+00 -0.94829854887E-01  0.90007336418E+02  0.89999592457E+02 0.  0.
         12    1    1    2    0    0  0.11570132598E+01 -0.21516066139E+00  0.94829854887E-01  0.11806635825E+01  0.00000000000E+00 0. -1.
         11    1    3    3    0    0  0.57470031338E+01  0.35285918659E+01 -0.60464297442E+01  0.90575006756E+01  0.51100000000E-03 0. -1.
        -11    1    3    3    0    0  0.13661614573E+02  0.24737121718E+02 -0.22413368270E+02  0.36068323791E+02  0.51100000000E-03 0.  1.
         12    1    3    3    0    0 -0.20565630966E+02 -0.28050552923E+02  0.28364968159E+02  0.44881511951E+02  0.00000000000E+00 0. -1.
</event>
<event>
 7    1  0.1501154E-015  0.9000768E+02  0.7816164E-02  0.1186339E+00
        -11   -1    0    0    0    0  0.00000000000E+00  0.00000000000E+00  0.45593999997E+02  0.45594000000E+02  0.51100000000E-03 0.  1.
         11   -1    0    0    0    0 -0.00000000000E+00 -0.00000000000E+00 -0.45593999997E+02  0.45594000000E+02  0.51100000000E-03 0. -1.
    9900012    2    1    2    0    0 -0.11277518343E+01  0.33366819843E+00 -0.99972401013E-01  0.90007680913E+02  0.89999941501E+02 0.  0.
         12    1    1    2    0    0  0.11277518343E+01 -0.33366819843E+00  0.99972401013E-01  0.11803190871E+01  0.00000000000E+00 0. -1.
         11    1    3    3    0    0 -0.32634891235E+01  0.10329742094E+02 -0.13719418676E+01  0.10919531022E+02  0.51100000000E-03 0. -1.
        -11    1    3    3    0    0  0.23262858251E+02 -0.46341138353E+01  0.32971892114E+02  0.40617499368E+02  0.51100000000E-03 0.  1.
         12    1    3    3    0    0 -0.21127120962E+02 -0.53619600607E+01 -0.31699922647E+02  0.38470650523E+02  0.00000000000E+00 0. -1.
</event>
<event>
 7    1  0.1501154E-015  0.9000771E+02  0.7816164E-02  0.1186339E+00
        -11   -1    0    0    0    0  0.00000000000E+00  0.00000000000E+00  0.45593999997E+02  0.45594000000E+02  0.51100000000E-03 0. -1.
         11   -1    0    0    0    0 -0.00000000000E+00 -0.00000000000E+00 -0.45593999997E+02  0.45594000000E+02  0.51100000000E-03 0.  1.
    9900012    2    1    2    0    0 -0.95652696001E+00  0.68106127960E+00 -0.11952832122E+00  0.90007713886E+02  0.89999974909E+02 0.  0.
         12    1    1    2    0    0  0.95652696001E+00 -0.68106127960E+00  0.11952832122E+00  0.11802861142E+01  0.00000000000E+00 0. -1.
         11    1    3    3    0    0 -0.10312071061E+02 -0.10926975687E+02  0.31462489008E+02  0.34865825991E+02  0.51100000000E-03 0. -1.
        -11    1    3    3    0    0  0.44404210789E+01 -0.10310156868E+02  0.49403615499E+01  0.12264739969E+02  0.51100000000E-03 0.  1.
         12    1    3    3    0    0  0.49151230218E+01  0.21918193834E+02 -0.36522378879E+02  0.42877147926E+02  0.00000000000E+00 0. -1.
</event>
<event>
 7    1  0.1501154E-015  0.9000769E+02  0.7816164E-02  0.1186339E+00
        -11   -1    0    0    0    0  0.00000000000E+00  0.00000000000E+00  0.45593999997E+02  0.45594000000E+02  0.51100000000E-03 0.  1.
         11   -1    0    0    0    0 -0.00000000000E+00 -0.00000000000E+00 -0.45593999997E+02  0.45594000000E+02  0.51100000000E-03 0. -1.
    9900012    2    1    2    0    0  0.87359673378E+00  0.69241917398E+00  0.38795119031E+00  0.90007694238E+02  0.89999955002E+02 0.  0.
         12    1    1    2    0    0 -0.87359673378E+00 -0.69241917398E+00 -0.38795119031E+00  0.11803057620E+01  0.00000000000E+00 0. -1.
         11    1    3    3    0    0 -0.31867830988E+02 -0.22435436324E+02  0.14251020385E+02  0.41496976242E+02  0.51100000000E-03 0. -1.
        -11    1    3    3    0    0 -0.26360471374E+01  0.56238266247E+01  0.10831675376E+01  0.63047143148E+01  0.51100000000E-03 0.  1.
        -12    1    3    3    0    0  0.35377474859E+02  0.17504028874E+02 -0.14946236733E+02  0.42206003681E+02  0.00000000000E+00 0.  1.
</event>
<event>
 7    1  0.1501154E-015  0.9000775E+02  0.7816164E-02  0.1186339E+00
        -11   -1    0    0    0    0  0.00000000000E+00  0.00000000000E+00  0.45593999997E+02  0.45594000000E+02  0.51100000000E-03 0.  1.
         11   -1    0    0    0    0 -0.00000000000E+00 -0.00000000000E+00 -0.45593999997E+02  0.45594000000E+02  0.51100000000E-03 0. -1.
    9900012    2    1    2    0    0  0.55099218070E+00  0.86681809058E+00  0.58140434983E+00  0.90007747060E+02  0.90000008521E+02 0.  0.
         12    1    1    2    0    0 -0.55099218070E+00 -0.86681809058E+00 -0.58140434983E+00  0.11802529404E+01  0.00000000000E+00 0. -1.
         11    1    3    3    0    0 -0.30613587902E+02  0.45882830140E+00 -0.22876223801E+02  0.38219417882E+02  0.51100000000E-03 0. -1.
        -11    1    3    3    0    0  0.14866721937E+02  0.61123896924E+01 -0.63965431757E+01  0.17300187680E+02  0.51100000000E-03 0.  1.
        -12    1    3    3    0    0  0.16297858146E+02 -0.57043999032E+01  0.29854171326E+02  0.34488141498E+02  0.00000000000E+00 0.  1.
</event>
<event>
 7    1  0.1501154E-015  0.9000801E+02  0.7816164E-02  0.1186339E+00
        -11   -1    0    0    0    0  0.00000000000E+00  0.00000000000E+00  0.45593999997E+02  0.45594000000E+02  0.51100000000E-03 0. -1.
         11   -1    0    0    0    0 -0.00000000000E+00 -0.00000000000E+00 -0.45593999997E+02  0.45594000000E+02  0.51100000000E-03 0.  1.
    9900012    2    1    2    0    0  0.55061018143E+00  0.27100886944E+00 -0.10078519815E+01  0.90008007205E+02  0.90000272100E+02 0.  0.
         12    1    1    2    0    0 -0.55061018143E+00 -0.27100886944E+00  0.10078519815E+01  0.11799927948E+01  0.00000000000E+00 0. -1.
         11    1    3    3    0    0  0.63388541958E+01 -0.58875552473E+01  0.46880151955E+01  0.98398102644E+01  0.51100000000E-03 0. -1.
        -11    1    3    3    0    0 -0.27648480460E+02  0.28459302609E+02  0.15313255443E+02  0.42530767325E+02  0.51100000000E-03 0.  1.
         12    1    3    3    0    0  0.21860236446E+02 -0.22300738492E+02 -0.21009122620E+02  0.37637429615E+02  0.00000000000E+00 0. -1.
</event>
<event>
 7    1  0.1501154E-015  0.9000775E+02  0.7816164E-02  0.1186339E+00
        -11   -1    0    0    0    0  0.00000000000E+00  0.00000000000E+00  0.45593999997E+02  0.45594000000E+02  0.51100000000E-03 0. -1.
         11   -1    0    0    0    0 -0.00000000000E+00 -0.00000000000E+00 -0.45593999997E+02  0.45594000000E+02  0.51100000000E-03 0.  1.
    9900012    2    1    2    0    0 -0.18271311253E+00  0.92691417968E+00 -0.70740674525E+00  0.90007754991E+02  0.90000016557E+02 0.  0.
         12    1    1    2    0    0  0.18271311253E+00 -0.92691417968E+00  0.70740674525E+00  0.11802450090E+01  0.00000000000E+00 0. -1.
         11    1    3    3    0    0 -0.26520355890E+02  0.23770763871E+02 -0.11914163822E+02  0.37554304565E+02  0.51100000000E-03 0. -1.
        -11    1    3    3    0    0  0.45123720440E+01 -0.62639619923E+01 -0.13500845976E+02  0.15552220537E+02  0.51100000000E-03 0.  1.
        -12    1    3    3    0    0  0.21825270734E+02 -0.16579887699E+02  0.24707603053E+02  0.36901229889E+02  0.00000000000E+00 0.  1.
</event>
<event>
 7    1  0.1501154E-015  0.9000772E+02  0.7816164E-02  0.1186339E+00
        -11   -1    0    0    0    0  0.00000000000E+00  0.00000000000E+00  0.45593999997E+02  0.45594000000E+02  0.51100000000E-03 0. -1.
         11   -1    0    0    0    0 -0.00000000000E+00 -0.00000000000E+00 -0.45593999997E+02  0.45594000000E+02  0.51100000000E-03 0.  1.
    9900012    2    1    2    0    0  0.21136900358E+00 -0.31589507428E+00 -0.11174097782E+01  0.90007715642E+02  0.89999976688E+02 0.  0.
         12    1    1    2    0    0 -0.21136900358E+00  0.31589507428E+00  0.11174097782E+01  0.11802843581E+01  0.00000000000E+00 0. -1.
         11    1    3    3    0    0 -0.27913414601E+02  0.26181823446E+02 -0.15793937300E+02  0.41401630999E+02  0.51100000000E-03 0. -1.
        -11    1    3    3    0    0 -0.35797450115E+01 -0.74105214857E+01 -0.12380324471E+01  0.83224472145E+01  0.51100000000E-03 0.  1.
        -12    1    3    3    0    0  0.31704528616E+02 -0.19087197035E+02  0.15914559969E+02  0.40283637428E+02  0.00000000000E+00 0.  1.
</event>
<event>
 7    1  0.1501154E-015  0.9000773E+02  0.7816164E-02  0.1186339E+00
        -11   -1    0    0    0    0  0.00000000000E+00  0.00000000000E+00  0.45593999997E+02  0.45594000000E+02  0.51100000000E-03 0. -1.
         11   -1    0    0    0    0 -0.00000000000E+00 -0.00000000000E+00 -0.45593999997E+02  0.45594000000E+02  0.51100000000E-03 0.  1.
    9900012    2    1    2    0    0  0.21855478147E+00 -0.96465000710E+00 -0.64399437033E+00  0.90007726905E+02  0.89999988101E+02 0.  0.
         12    1    1    2    0    0 -0.21855478147E+00  0.96465000710E+00  0.64399437033E+00  0.11802730945E+01  0.00000000000E+00 0. -1.
         11    1    3    3    0    0  0.13050770821E+02 -0.30096953243E+02  0.18164943221E+02  0.37498191637E+02  0.51100000000E-03 0. -1.
        -11    1    3    3    0    0  0.34569795980E+01 -0.76318867044E+01 -0.69617551361E+00  0.84072030555E+01  0.51100000000E-03 0.  1.
        -12    1    3    3    0    0 -0.16289195638E+02  0.36764189941E+02 -0.18112762078E+02  0.44102332213E+02  0.00000000000E+00 0.  1.
</event>
<event>
 7    1  0.1501154E-015  0.9000772E+02  0.7816164E-02  0.1186339E+00
        -11   -1    0    0    0    0  0.00000000000E+00  0.00000000000E+00  0.45593999997E+02  0.45594000000E+02  0.51100000000E-03 0. -1.
         11   -1    0    0    0    0 -0.00000000000E+00 -0.00000000000E+00 -0.45593999997E+02  0.45594000000E+02  0.51100000000E-03 0.  1.
    9900012    2    1    2    0    0 -0.50459099359E+00 -0.47988797372E+00 -0.95297074035E+00  0.90007721317E+02  0.89999982438E+02 0.  0.
         12    1    1    2    0    0  0.50459099359E+00  0.47988797372E+00  0.95297074035E+00  0.11802786832E+01  0.00000000000E+00 0. -1.
         11    1    3    3    0    0 -0.19895953143E+01 -0.88048337073E+01  0.61108189374E+01  0.10900719906E+02  0.51100000000E-03 0. -1.
        -11    1    3    3    0    0  0.21094686259E+02  0.10100453358E+02 -0.36704322857E+02  0.43522548904E+02  0.51100000000E-03 0.  1.
         12    1    3    3    0    0 -0.19609681938E+02 -0.17755076240E+01  0.29640533180E+02  0.35584452507E+02  0.00000000000E+00 0. -1.
</event>
<event>
 7    1  0.1501154E-015  0.9000876E+02  0.7816164E-02  0.1186337E+00
        -11   -1    0    0    0    0  0.00000000000E+00  0.00000000000E+00  0.45593999997E+02  0.45594000000E+02  0.51100000000E-03 0. -1.
         11   -1    0    0    0    0 -0.00000000000E+00 -0.00000000000E+00 -0.45593999997E+02  0.45594000000E+02  0.51100000000E-03 0.  1.
    9900012    2    1    2    0    0  0.63555589998E+00  0.34179630681E+00 -0.93266347798E+00  0.90008755674E+02  0.90001030443E+02 0.  0.
         12    1    1    2    0    0 -0.63555589998E+00 -0.34179630681E+00  0.93266347798E+00  0.11792443260E+01  0.00000000000E+00 0. -1.
         11    1    3    3    0    0 -0.43488402145E+01 -0.65922535558E+01 -0.68825048332E+01  0.10475642758E+02  0.51100000000E-03 0. -1.
        -11    1    3    3    0    0 -0.92997898674E+01 -0.30599653764E+01 -0.34300098386E+02  0.35669962563E+02  0.51100000000E-03 0.  1.
         12    1    3    3    0    0  0.14284185982E+02  0.99940152390E+01  0.40249939741E+02  0.43863150353E+02  0.00000000000E+00 0. -1.
</event>
<event>
 7    1  0.1501154E-015  0.9000777E+02  0.7816164E-02  0.1186339E+00
        -11   -1    0    0    0    0  0.00000000000E+00  0.00000000000E+00  0.45593999997E+02  0.45594000000E+02  0.51100000000E-03 0.  1.
         11   -1    0    0    0    0 -0.00000000000E+00 -0.00000000000E+00 -0.45593999997E+02  0.45594000000E+02  0.51100000000E-03 0. -1.
    9900012    2    1    2    0    0 -0.47167023105E+00 -0.47477693259E+00  0.97214638711E+00  0.90007765049E+02  0.90000026747E+02 0.  0.
         12    1    1    2    0    0  0.47167023105E+00  0.47477693259E+00 -0.97214638711E+00  0.11802349514E+01  0.00000000000E+00 0. -1.
         11    1    3    3    0    0 -0.35687808822E+02 -0.30842342868E+00 -0.13984904960E+02  0.38331349970E+02  0.51100000000E-03 0. -1.
        -11    1    3    3    0    0 -0.30719883630E+01 -0.95532393107E+01  0.26742354615E+01  0.10385231312E+02  0.51100000000E-03 0.  1.
        -12    1    3    3    0    0  0.38288126954E+02  0.93868858067E+01  0.12282815885E+02  0.41291183767E+02  0.00000000000E+00 0.  1.
</event>
<event>
 7    1  0.1501154E-015  0.9000774E+02  0.7816164E-02  0.1186339E+00
        -11   -1    0    0    0    0  0.00000000000E+00  0.00000000000E+00  0.45593999997E+02  0.45594000000E+02  0.51100000000E-03 0.  1.
         11   -1    0    0    0    0 -0.00000000000E+00 -0.00000000000E+00 -0.45593999997E+02  0.45594000000E+02  0.51100000000E-03 0. -1.
    9900012    2    1    2    0    0  0.56648015179E+00  0.75401229886E+00  0.70963761924E+00  0.90007737377E+02  0.89999998710E+02 0.  0.
         12    1    1    2    0    0 -0.56648015179E+00 -0.75401229886E+00 -0.70963761924E+00  0.11802626233E+01  0.00000000000E+00 0. -1.
         11    1    3    3    0    0  0.70326145692E+01 -0.29589642201E+02 -0.19498481386E+02  0.36127487732E+02  0.51100000000E-03 0. -1.
        -11    1    3    3    0    0 -0.17353628072E+01  0.12245769168E+01 -0.10843259666E+02  0.11049314601E+02  0.51100000000E-03 0.  1.
        -12    1    3    3    0    0 -0.47307716102E+01  0.29119077583E+02  0.31051378671E+02  0.42830935043E+02  0.00000000000E+00 0.  1.
</event>
<event>
 7    1  0.1501154E-015  0.9000776E+02  0.7816164E-02  0.1186339E+00
        -11   -1    0    0    0    0  0.00000000000E+00  0.00000000000E+00  0.45593999997E+02  0.45594000000E+02  0.51100000000E-03 0. -1.
         11   -1    0    0    0    0 -0.00000000000E+00 -0.00000000000E+00 -0.45593999997E+02  0.45594000000E+02  0.51100000000E-03 0.  1.
    9900012    2    1    2    0    0 -0.50341668975E+00  0.91190225591E+00  0.55495896814E+00  0.90007756998E+02  0.90000018590E+02 0.  0.
         12    1    1    2    0    0  0.50341668975E+00 -0.91190225591E+00 -0.55495896814E+00  0.11802430022E+01  0.00000000000E+00 0. -1.
         11    1    3    3    0    0 -0.68480306146E+01 -0.17832553097E+01 -0.31390937934E+00  0.70833651719E+01  0.51100000000E-03 0. -1.
        -11    1    3    3    0    0 -0.34502895339E+02 -0.29930848564E+01 -0.16269297065E+02  0.38263538401E+02  0.51100000000E-03 0.  1.
         12    1    3    3    0    0  0.40847509264E+02  0.56882424220E+01  0.17138165412E+02  0.44660853425E+02  0.00000000000E+00 0. -1.
</event>
<event>
 7    1  0.1501154E-015  0.9000786E+02  0.7816164E-02  0.1186339E+00
        -11   -1    0    0    0    0  0.00000000000E+00  0.00000000000E+00  0.45593999997E+02  0.45594000000E+02  0.51100000000E-03 0. -1.
         11   -1    0    0    0    0 -0.00000000000E+00 -0.00000000000E+00 -0.45593999997E+02  0.45594000000E+02  0.51100000000E-03 0.  1.
    9900012    2    1    2    0    0  0.10411954482E+01 -0.70437615766E-01 -0.55107991588E+00  0.90007856580E+02  0.90000119486E+02 0.  0.
         12    1    1    2    0    0 -0.10411954482E+01  0.70437615766E-01  0.55107991588E+00  0.11801434204E+01  0.00000000000E+00 0. -1.
         11    1    3    3    0    0  0.42108953426E+01 -0.15398297702E+02  0.20938577853E+01  0.16100417771E+02  0.51100000000E-03 0. -1.
        -11    1    3    3    0    0  0.23627705669E+01 -0.94236783252E+01 -0.32971637317E+02  0.34373205634E+02  0.51100000000E-03 0.  1.
         12    1    3    3    0    0 -0.55324704613E+01  0.24751538412E+02  0.30326699616E+02  0.39534233175E+02  0.00000000000E+00 0. -1.
</event>
<event>
 7    1  0.1501154E-015  0.9000768E+02  0.7816164E-02  0.1186339E+00
        -11   -1    0    0    0    0  0.00000000000E+00  0.00000000000E+00  0.45593999997E+02  0.45594000000E+02  0.51100000000E-03 0.  1.
         11   -1    0    0    0    0 -0.00000000000E+00 -0.00000000000E+00 -0.45593999997E+02  0.45594000000E+02  0.51100000000E-03 0. -1.
    9900012    2    1    2    0    0 -0.66504741613E+00 -0.93065821557E+00  0.29110949093E+00  0.90007679062E+02  0.89999939626E+02 0.  0.
         12    1    1    2    0    0  0.66504741613E+00  0.93065821557E+00 -0.29110949093E+00  0.11803209375E+01  0.00000000000E+00 0. -1.
         11    1    3    3    0    0  0.31611829489E+02 -0.89479103664E+01  0.17421778959E+02  0.37187245742E+02  0.51100000000E-03 0. -1.
        -11    1    3    3    0    0 -0.32044349040E+01 -0.62648111298E+01  0.88433347109E+01  0.11301364104E+02  0.51100000000E-03 0.  1.
        -12    1    3    3    0    0 -0.29072442001E+02  0.14282063281E+02 -0.25974004179E+02  0.41519069216E+02  0.00000000000E+00 0.  1.
</event>
<event>
 7    1  0.1501154E-015  0.9000772E+02  0.7816164E-02  0.1186339E+00
        -11   -1    0    0    0    0  0.00000000000E+00  0.00000000000E+00  0.45593999997E+02  0.45594000000E+02  0.51100000000E-03 0.  1.
         11   -1    0    0    0    0 -0.00000000000E+00 -0.00000000000E+00 -0.45593999997E+02  0.45594000000E+02  0.51100000000E-03 0. -1.
    9900012    2    1    2    0    0 -0.35624323786E+00 -0.93401974434E+00  0.62750354965E+00  0.90007719172E+02  0.89999980265E+02 0.  0.
         12    1    1    2    0    0  0.35624323786E+00  0.93401974434E+00 -0.62750354965E+00  0.11802808277E+01  0.00000000000E+00 0. -1.
         11    1    3    3    0    0 -0.92555383230E+00 -0.10260992077E+02 -0.47229987342E+00  0.10313470596E+02  0.51100000000E-03 0. -1.
        -11    1    3    3    0    0  0.96530647231E+01 -0.30079545623E+02  0.17431872255E+02  0.36080893753E+02  0.51100000000E-03 0.  1.
         12    1    3    3    0    0 -0.90837541287E+01  0.39406517957E+02 -0.16332068832E+02  0.43613354822E+02  0.00000000000E+00 0. -1.
</event>
<event>
 7    1  0.1501154E-015  0.9000790E+02  0.7816164E-02  0.1186339E+00
        -11   -1    0    0    0    0  0.00000000000E+00  0.00000000000E+00  0.45593999997E+02  0.45594000000E+02  0.51100000000E-03 0.  1.
         11   -1    0    0    0    0 -0.00000000000E+00 -0.00000000000E+00 -0.45593999997E+02  0.45594000000E+02  0.51100000000E-03 0. -1.
    9900012    2    1    2    0    0 -0.99059025271E+00 -0.49612094514E+00  0.40649076980E+00  0.90007898400E+02  0.90000161858E+02 0.  0.
         12    1    1    2    0    0  0.99059025271E+00  0.49612094514E+00 -0.40649076980E+00  0.11801016002E+01  0.00000000000E+00 0. -1.
         11    1    3    3    0    0 -0.12114506494E+02  0.13302967200E+02 -0.31313868439E+02  0.36114935425E+02  0.51100000000E-03 0. -1.
        -11    1    3    3    0    0  0.42077174975E+00 -0.29841674377E+01 -0.94933271034E+01  0.99601989897E+01  0.51100000000E-03 0.  1.
        -12    1    3    3    0    0  0.10703144492E+02 -0.10814920708E+02  0.41213686312E+02  0.43932763985E+02  0.00000000000E+00 0.  1.
</event>
<event>
 7    1  0.1501154E-015  0.9000786E+02  0.7816164E-02  0.1186339E+00
        -11   -1    0    0    0    0  0.00000000000E+00  0.00000000000E+00  0.45593999997E+02  0.45594000000E+02  0.51100000000E-03 0. -1.
         11   -1    0    0    0    0 -0.00000000000E+00 -0.00000000000E+00 -0.45593999997E+02  0.45594000000E+02  0.51100000000E-03 0.  1.
    9900012    2    1    2    0    0 -0.99454066414E+00 -0.12747162032E+00 -0.62238854693E+00  0.90007861173E+02  0.90000124141E+02 0.  0.
         12    1    1    2    0    0  0.99454066414E+00  0.12747162032E+00  0.62238854693E+00  0.11801388266E+01  0.00000000000E+00 0. -1.
         11    1    3    3    0    0  0.23397184513E+01 -0.83841238045E+01 -0.22439168527E+01  0.89890476417E+01  0.51100000000E-03 0. -1.
        -11    1    3    3    0    0  0.93332365503E+00 -0.26802161479E+02 -0.25099583748E+02  0.36731676488E+02  0.51100000000E-03 0.  1.
         12    1    3    3    0    0 -0.42675827705E+01  0.35058813663E+02  0.26721112054E+02  0.44287137044E+02  0.00000000000E+00 0. -1.
</event>
<event>
 7    1  0.1501154E-015  0.9000776E+02  0.7816164E-02  0.1186339E+00
        -11   -1    0    0    0    0  0.00000000000E+00  0.00000000000E+00  0.45593999997E+02  0.45594000000E+02  0.51100000000E-03 0.  1.
         11   -1    0    0    0    0 -0.00000000000E+00 -0.00000000000E+00 -0.45593999997E+02  0.45594000000E+02  0.51100000000E-03 0. -1.
    9900012    2    1    2    0    0  0.66198215231E+00 -0.60715314753E+00 -0.76557286262E+00  0.90007763955E+02  0.90000025639E+02 0.  0.
         12    1    1    2    0    0 -0.66198215231E+00  0.60715314753E+00  0.76557286262E+00  0.11802360452E+01  0.00000000000E+00 0. -1.
         11    1    3    3    0    0 -0.13604521241E+01  0.82403780721E+01 -0.16171857413E+01  0.85070529994E+01  0.51100000000E-03 0. -1.
        -11    1    3    3    0    0  0.30148103755E+01  0.31256727420E+02 -0.19040145226E+02  0.36723279008E+02  0.51100000000E-03 0.  1.
         12    1    3    3    0    0 -0.99237609907E+00 -0.40104258639E+02  0.19891758105E+02  0.44777431948E+02  0.00000000000E+00 0. -1.
</event>
<event>
 7    1  0.1501154E-015  0.9000767E+02  0.7816164E-02  0.1186339E+00
        -11   -1    0    0    0    0  0.00000000000E+00  0.00000000000E+00  0.45593999997E+02  0.45594000000E+02  0.51100000000E-03 0.  1.
         11   -1    0    0    0    0 -0.00000000000E+00 -0.00000000000E+00 -0.45593999997E+02  0.45594000000E+02  0.51100000000E-03 0. -1.
    9900012    2    1    2    0    0 -0.50351533096E+00 -0.37328370956E+00  0.10001495595E+01  0.90007674808E+02  0.89999935316E+02 0.  0.
         12    1    1    2    0    0  0.50351533096E+00  0.37328370956E+00 -0.10001495595E+01  0.11803251915E+01  0.00000000000E+00 0. -1.
         11    1    3    3    0    0  0.98497750954E+01 -0.23162514033E+00 -0.37265699324E+02  0.38546129066E+02  0.51100000000E-03 0. -1.
        -11    1    3    3    0    0  0.45696588615E+01  0.93936399026E+01  0.13698111115E+01  0.10535588995E+02  0.51100000000E-03 0.  1.
        -12    1    3    3    0    0 -0.14922949288E+02 -0.95352984718E+01  0.36896037772E+02  0.40925956747E+02  0.00000000000E+00 0.  1.
</event>
<event>
 7    1  0.1501154E-015  0.9000782E+02  0.7816164E-02  0.1186339E+00
        -11   -1    0    0    0    0  0.00000000000E+00  0.00000000000E+00  0.45593999997E+02  0.45594000000E+02  0.51100000000E-03 0.  1.
         11   -1    0    0    0    0 -0.00000000000E+00 -0.00000000000E+00 -0.45593999997E+02  0.45594000000E+02  0.51100000000E-03 0. -1.
    9900012    2    1    2    0    0 -0.11801128455E+01  0.70085255572E-02  0.99229128060E-02  0.90007824627E+02  0.90000087112E+02 0.  0.
         12    1    1    2    0    0  0.11801128455E+01 -0.70085255572E-02 -0.99229128060E-02  0.11801753733E+01  0.00000000000E+00 0. -1.
         11    1    3    3    0    0  0.55725245519E+01 -0.21468200867E+01 -0.60570080220E+01  0.85058340453E+01  0.51100000000E-03 0. -1.
        -11    1    3    3    0    0  0.30015252058E+02 -0.15676977805E+02 -0.13174308792E+02  0.36335181321E+02  0.51100000000E-03 0.  1.
         12    1    3    3    0    0 -0.36767889456E+02  0.17830806417E+02  0.19241239727E+02  0.45166809260E+02  0.00000000000E+00 0. -1.
</event>
<event>
 7    1  0.1501154E-015  0.9000776E+02  0.7816164E-02  0.1186339E+00
        -11   -1    0    0    0    0  0.00000000000E+00  0.00000000000E+00  0.45593999997E+02  0.45594000000E+02  0.51100000000E-03 0. -1.
         11   -1    0    0    0    0 -0.00000000000E+00 -0.00000000000E+00 -0.45593999997E+02  0.45594000000E+02  0.51100000000E-03 0.  1.
    9900012    2    1    2    0    0  0.80540725720E+00  0.84204397802E+00  0.18773874717E+00  0.90007760724E+02  0.90000022366E+02 0.  0.
         12    1    1    2    0    0 -0.80540725720E+00 -0.84204397802E+00 -0.18773874717E+00  0.11802392758E+01  0.00000000000E+00 0. -1.
         11    1    3    3    0    0 -0.61133425923E+01 -0.52747780356E+01 -0.32289839989E+01  0.86961243610E+01  0.51100000000E-03 0. -1.
        -11    1    3    3    0    0  0.32345796733E+02 -0.25113480181E+02  0.25539909230E+01  0.41029992969E+02  0.51100000000E-03 0.  1.
         12    1    3    3    0    0 -0.25427046884E+02  0.31230302194E+02  0.86273182312E+00  0.40281643395E+02  0.00000000000E+00 0. -1.
</event>
<event>
 7    1  0.1501154E-015  0.9000773E+02  0.7816164E-02  0.1186339E+00
        -11   -1    0    0    0    0  0.00000000000E+00  0.00000000000E+00  0.45593999997E+02  0.45594000000E+02  0.51100000000E-03 0.  1.
         11   -1    0    0    0    0 -0.00000000000E+00 -0.00000000000E+00 -0.45593999997E+02  0.45594000000E+02  0.51100000000E-03 0. -1.
    9900012    2    1    2    0    0 -0.23501874929E+00 -0.31735243326E+00  0.11122463184E+01  0.90007729585E+02  0.89999990816E+02 0.  0.
         12    1    1    2    0    0  0.23501874929E+00  0.31735243326E+00 -0.11122463184E+01  0.11802704149E+01  0.00000000000E+00 0. -1.
         11    1    3    3    0    0 -0.37206850685E+02  0.27233048322E-01  0.61572637717E+01  0.37712894041E+02  0.51100000000E-03 0. -1.
        -11    1    3    3    0    0 -0.57601144417E+01  0.34960111101E+01 -0.65051770856E+01  0.93658070255E+01  0.51100000000E-03 0.  1.
        -12    1    3    3    0    0  0.42731946378E+02 -0.38405965917E+01  0.14601596323E+01  0.42929028518E+02  0.00000000000E+00 0.  1.
</event>
<event>
 7    1  0.1501154E-015  0.9000776E+02  0.7816164E-02  0.1186339E+00
        -11   -1    0    0    0    0  0.00000000000E+00  0.00000000000E+00  0.45593999997E+02  0.45594000000E+02  0.51100000000E-03 0. -1.
         11   -1    0    0    0    0 -0.00000000000E+00 -0.00000000000E+00 -0.45593999997E+02  0.45594000000E+02  0.51100000000E-03 0.  1.
    9900012    2    1    2    0    0 -0.84328921460E+00 -0.81705975893E+00 -0.11933828601E+00  0.90007760628E+02  0.90000022268E+02 0.  0.
         12    1    1    2    0    0  0.84328921460E+00  0.81705975893E+00  0.11933828601E+00  0.11802393722E+01  0.00000000000E+00 0. -1.
         11    1    3    3    0    0  0.60022929298E+00  0.11786403920E+01 -0.87619914166E+01  0.88612618867E+01  0.51100000000E-03 0. -1.
        -11    1    3    3    0    0  0.35382940642E+02  0.13252517405E+02 -0.68198262266E+01  0.38393902329E+02  0.51100000000E-03 0.  1.
         12    1    3    3    0    0 -0.36826459149E+02 -0.15248217556E+02  0.15462479357E+02  0.42752596412E+02  0.00000000000E+00 0. -1.
</event>
<event>
 7    1  0.1501154E-015  0.9000779E+02  0.7816164E-02  0.1186339E+00
        -11   -1    0    0    0    0  0.00000000000E+00  0.00000000000E+00  0.45593999997E+02  0.45594000000E+02  0.51100000000E-03 0.  1.
         11   -1    0    0    0    0 -0.00000000000E+00 -0.00000000000E+00 -0.45593999997E+02  0.45594000000E+02  0.51100000000E-03 0. -1.
    9900012    2    1    2    0    0  0.68762356723E+00 -0.27503315876E-01  0.95880946979E+00  0.90007788916E+02  0.90000050930E+02 0.  0.
         12    1    1    2    0    0 -0.68762356723E+00  0.27503315876E-01 -0.95880946979E+00  0.11802110836E+01  0.00000000000E+00 0. -1.
         11    1    3    3    0    0 -0.11656173112E+02 -0.79532640161E+01 -0.10067169409E+02  0.17334032430E+02  0.51100000000E-03 0. -1.
        -11    1    3    3    0    0 -0.28146528652E+02  0.86209476897E+01  0.12887623934E+02  0.32134695660E+02  0.51100000000E-03 0.  1.
         12    1    3    3    0    0  0.40490325331E+02 -0.69518698951E+00 -0.18616450554E+01  0.40539060826E+02  0.00000000000E+00 0. -1.
</event>
<event>
 7    1  0.1501154E-015  0.9000771E+02  0.7816164E-02  0.1186339E+00
        -11   -1    0    0    0    0  0.00000000000E+00  0.00000000000E+00  0.45593999997E+02  0.45594000000E+02  0.51100000000E-03 0.  1.
         11   -1    0    0    0    0 -0.00000000000E+00 -0.00000000000E+00 -0.45593999997E+02  0.45594000000E+02  0.51100000000E-03 0. -1.
    9900012    2    1    2    0    0  0.44442070115E+00  0.91469315781E-01  0.10895907682E+01  0.90007710020E+02  0.89999970992E+02 0.  0.
         12    1    1    2    0    0 -0.44442070115E+00 -0.91469315781E-01 -0.10895907682E+01  0.11802899803E+01  0.00000000000E+00 0. -1.
         11    1    3    3    0    0  0.19861683895E+02 -0.27046498965E+02 -0.14241602349E+02  0.36453022250E+02  0.51100000000E-03 0. -1.
        -11    1    3    3    0    0 -0.43335858516E+01 -0.10091246209E+02  0.15698107246E+01  0.11094030933E+02  0.51100000000E-03 0.  1.
        -12    1    3    3    0    0 -0.15083677342E+02  0.37229214489E+02  0.13761382393E+02  0.42460656837E+02  0.00000000000E+00 0.  1.
</event>
<event>
 7    1  0.1651087E-015  0.9000771E+02  0.7816164E-02  0.1186339E+00
        -11   -1    0    0    0    0  0.00000000000E+00  0.00000000000E+00  0.45593999997E+02  0.45594000000E+02  0.51100000000E-03 0. -1.
         11   -1    0    0    0    0 -0.00000000000E+00 -0.00000000000E+00 -0.45593999997E+02  0.45594000000E+02  0.51100000000E-03 0.  1.
    9900012    2    1    2    0    0 -0.61891612863E+00  0.50775783874E-01 -0.10037185065E+01  0.90007709275E+02  0.89999970238E+02 0.  0.
         12    1    1    2    0    0  0.61891612863E+00 -0.50775783874E-01  0.10037185065E+01  0.11802907247E+01  0.00000000000E+00 0. -1.
         11    1    3    3    0    0 -0.33544494978E+02 -0.96106677297E+00  0.19984642962E+02  0.39058196928E+02  0.51100000000E-03 0. -1.
        -11    1    3    3    0    0  0.32259408656E+01 -0.73077855603E+01  0.59804380289E+01  0.99787806641E+01  0.51100000000E-03 0.  1.
        -12    1    3    3    0    0  0.29699637984E+02  0.83196281171E+01 -0.26968799497E+02  0.40970731684E+02  0.00000000000E+00 0.  1.
</event>
<event>
 7    1  0.1501154E-015  0.9000744E+02  0.7816164E-02  0.1186340E+00
        -11   -1    0    0    0    0  0.00000000000E+00  0.00000000000E+00  0.45593999997E+02  0.45594000000E+02  0.51100000000E-03 0. -1.
         11   -1    0    0    0    0 -0.00000000000E+00 -0.00000000000E+00 -0.45593999997E+02  0.45594000000E+02  0.51100000000E-03 0.  1.
    9900012    2    1    2    0    0  0.79734420385E+00 -0.52512624059E-01 -0.86902371256E+00  0.90007441840E+02  0.89999699272E+02 0.  0.
         12    1    1    2    0    0 -0.79734420385E+00  0.52512624059E-01  0.86902371256E+00  0.11805581596E+01  0.00000000000E+00 0. -1.
         11    1    3    3    0    0  0.99951664690E+01  0.34467207701E+02 -0.19077922721E+02  0.40643066999E+02  0.51100000000E-03 0. -1.
        -11    1    3    3    0    0  0.66725882121E+01 -0.64666407192E+01 -0.41096868376E+01  0.10160236306E+02  0.51100000000E-03 0.  1.
        -12    1    3    3    0    0 -0.15870410477E+02 -0.28053079606E+02  0.22318585846E+02  0.39204138535E+02  0.00000000000E+00 0.  1.
</event>
<event>
 7    1  0.1501154E-015  0.9000776E+02  0.7816164E-02  0.1186339E+00
        -11   -1    0    0    0    0  0.00000000000E+00  0.00000000000E+00  0.45593999997E+02  0.45594000000E+02  0.51100000000E-03 0.  1.
         11   -1    0    0    0    0 -0.00000000000E+00 -0.00000000000E+00 -0.45593999997E+02  0.45594000000E+02  0.51100000000E-03 0. -1.
    9900012    2    1    2    0    0 -0.66951404094E+00 -0.31187719540E+00 -0.92056727440E+00  0.90007762506E+02  0.90000024171E+02 0.  0.
         12    1    1    2    0    0  0.66951404094E+00  0.31187719540E+00  0.92056727440E+00  0.11802374942E+01  0.00000000000E+00 0. -1.
         11    1    3    3    0    0 -0.17448517980E+02 -0.25069206181E+02 -0.17401511029E+02  0.35152929674E+02  0.51100000000E-03 0. -1.
        -11    1    3    3    0    0 -0.43705506701E+01 -0.66294111831E+01 -0.67710325909E+01  0.10435405522E+02  0.51100000000E-03 0.  1.
        -12    1    3    3    0    0  0.21149554610E+02  0.31386740169E+02  0.23251976346E+02  0.44419427311E+02  0.00000000000E+00 0.  1.
</event>
<event>
 7    1  0.1501154E-015  0.9000680E+02  0.7816164E-02  0.1186341E+00
        -11   -1    0    0    0    0  0.00000000000E+00  0.00000000000E+00  0.45593999997E+02  0.45594000000E+02  0.51100000000E-03 0. -1.
         11   -1    0    0    0    0 -0.00000000000E+00 -0.00000000000E+00 -0.45593999997E+02  0.45594000000E+02  0.51100000000E-03 0.  1.
    9900012    2    1    2    0    0  0.35319578817E+00  0.66705780681E+00 -0.90857492416E+00  0.90006804938E+02  0.89999053958E+02 0.  0.
         12    1    1    2    0    0 -0.35319578817E+00 -0.66705780681E+00  0.90857492416E+00  0.11811950623E+01  0.00000000000E+00 0. -1.
         11    1    3    3    0    0 -0.23654377316E+02 -0.22987748037E+02  0.14566211612E+02  0.36057463125E+02  0.51100000000E-03 0. -1.
        -11    1    3    3    0    0  0.29735071105E+01 -0.10385445524E+02 -0.74913457413E+01  0.13146082479E+02  0.51100000000E-03 0.  1.
        -12    1    3    3    0    0  0.21034065993E+02  0.34040251367E+02 -0.79834407951E+01  0.40803259334E+02  0.00000000000E+00 0.  1.
</event>
<event>
 7    1  0.1501154E-015  0.9000776E+02  0.7816164E-02  0.1186339E+00
        -11   -1    0    0    0    0  0.00000000000E+00  0.00000000000E+00  0.45593999997E+02  0.45594000000E+02  0.51100000000E-03 0.  1.
         11   -1    0    0    0    0 -0.00000000000E+00 -0.00000000000E+00 -0.45593999997E+02  0.45594000000E+02  0.51100000000E-03 0. -1.
    9900012    2    1    2    0    0 -0.65095844421E+00  0.73984155256E+00  0.64951077859E+00  0.90007755673E+02  0.90000017248E+02 0.  0.
         12    1    1    2    0    0  0.65095844421E+00 -0.73984155256E+00 -0.64951077859E+00  0.11802443266E+01  0.00000000000E+00 0. -1.
         11    1    3    3    0    0 -0.83455080765E+01 -0.77010493687E+00  0.95736987878E+01  0.12723846722E+02  0.51100000000E-03 0. -1.
        -11    1    3    3    0    0  0.16303340530E+02  0.17291521923E+02  0.27692677356E+02  0.36492191250E+02  0.51100000000E-03 0.  1.
         12    1    3    3    0    0 -0.86087908976E+01 -0.15781575433E+02 -0.36616865365E+02  0.40791717701E+02  0.00000000000E+00 0. -1.
</event>
<event>
 7    1  0.1501154E-015  0.9000779E+02  0.7816164E-02  0.1186339E+00
        -11   -1    0    0    0    0  0.00000000000E+00  0.00000000000E+00  0.45593999997E+02  0.45594000000E+02  0.51100000000E-03 0.  1.
         11   -1    0    0    0    0 -0.00000000000E+00 -0.00000000000E+00 -0.45593999997E+02  0.45594000000E+02  0.51100000000E-03 0. -1.
    9900012    2    1    2    0    0 -0.61569843548E+00 -0.54539691851E+00  0.84637099195E+00  0.90007793993E+02  0.90000056074E+02 0.  0.
         12    1    1    2    0    0  0.61569843548E+00  0.54539691851E+00 -0.84637099195E+00  0.11802060067E+01  0.00000000000E+00 0. -1.
         11    1    3    3    0    0 -0.24019353130E+02  0.23467093084E+01 -0.36436856433E+02  0.43704472041E+02  0.51100000000E-03 0. -1.
        -11    1    3    3    0    0 -0.52136060353E+00 -0.61281774371E+00  0.96396024580E+01  0.96731224677E+01  0.51100000000E-03 0.  1.
        -12    1    3    3    0    0  0.23925015299E+02 -0.22792884832E+01  0.27643624967E+02  0.36630199485E+02  0.00000000000E+00 0.  1.
</event>
<event>
 7    1  0.1501154E-015  0.9000773E+02  0.7816164E-02  0.1186339E+00
        -11   -1    0    0    0    0  0.00000000000E+00  0.00000000000E+00  0.45593999997E+02  0.45594000000E+02  0.51100000000E-03 0. -1.
         11   -1    0    0    0    0 -0.00000000000E+00 -0.00000000000E+00 -0.45593999997E+02  0.45594000000E+02  0.51100000000E-03 0.  1.
    9900012    2    1    2    0    0 -0.86707338237E+00 -0.31094101654E+00  0.73792926591E+00  0.90007728774E+02  0.89999989993E+02 0.  0.
         12    1    1    2    0    0  0.86707338237E+00  0.31094101654E+00 -0.73792926591E+00  0.11802712263E+01  0.00000000000E+00 0. -1.
         11    1    3    3    0    0 -0.25334775492E+02 -0.19883612301E+02  0.15687458221E+02  0.35823249895E+02  0.51100000000E-03 0. -1.
        -11    1    3    3    0    0 -0.66837285970E+01 -0.39227115050E+01  0.60887090927E+01  0.98555706170E+01  0.51100000000E-03 0.  1.
        -12    1    3    3    0    0  0.31151430707E+02  0.23495382789E+02 -0.21038238048E+02  0.44328908261E+02  0.00000000000E+00 0.  1.
</event>
<event>
 7    1  0.1501154E-015  0.9000766E+02  0.7816164E-02  0.1186339E+00
        -11   -1    0    0    0    0  0.00000000000E+00  0.00000000000E+00  0.45593999997E+02  0.45594000000E+02  0.51100000000E-03 0. -1.
         11   -1    0    0    0    0 -0.00000000000E+00 -0.00000000000E+00 -0.45593999997E+02  0.45594000000E+02  0.51100000000E-03 0.  1.
    9900012    2    1    2    0    0 -0.52769943208E-01 -0.98824757774E+00 -0.64326047385E+00  0.90007660227E+02  0.89999920542E+02 0.  0.
         12    1    1    2    0    0  0.52769943208E-01  0.98824757774E+00  0.64326047385E+00  0.11803397727E+01  0.00000000000E+00 0. -1.
         11    1    3    3    0    0  0.58328294865E+01  0.20191279579E+01  0.74148640506E+01  0.96477451603E+01  0.51100000000E-03 0. -1.
        -11    1    3    3    0    0  0.27259942514E+01 -0.25550032236E+02  0.27339590263E+02  0.37519173604E+02  0.51100000000E-03 0.  1.
         12    1    3    3    0    0 -0.86115936811E+01  0.22542656701E+02 -0.35397714788E+02  0.42840741462E+02  0.00000000000E+00 0. -1.
</event>
<event>
 7    1  0.1501154E-015  0.9000756E+02  0.7816164E-02  0.1186339E+00
        -11   -1    0    0    0    0  0.00000000000E+00  0.00000000000E+00  0.45593999997E+02  0.45594000000E+02  0.51100000000E-03 0. -1.
         11   -1    0    0    0    0 -0.00000000000E+00 -0.00000000000E+00 -0.45593999997E+02  0.45594000000E+02  0.51100000000E-03 0.  1.
    9900012    2    1    2    0    0  0.96177664851E+00 -0.47168861608E+00 -0.49591887059E+00  0.90007559405E+02  0.89999818389E+02 0.  0.
         12    1    1    2    0    0 -0.96177664851E+00  0.47168861608E+00  0.49591887059E+00  0.11804405950E+01  0.00000000000E+00 0. -1.
         11    1    3    3    0    0 -0.14026862283E+01 -0.35488557855E+02 -0.15469849328E+02  0.38739146942E+02  0.51100000000E-03 0. -1.
        -11    1    3    3    0    0 -0.13761459282E+02  0.57690000208E+01  0.67393335774E+00  0.14936977915E+02  0.51100000000E-03 0.  1.
        -12    1    3    3    0    0  0.16125922159E+02  0.29247869218E+02  0.14299997100E+02  0.36331434548E+02  0.00000000000E+00 0.  1.
</event>
<event>
 7    1  0.1588958E-015  0.9000693E+02  0.7816164E-02  0.1186341E+00
        -11   -1    0    0    0    0  0.00000000000E+00  0.00000000000E+00  0.45593999997E+02  0.45594000000E+02  0.51100000000E-03 0.  1.
         11   -1    0    0    0    0 -0.00000000000E+00 -0.00000000000E+00 -0.45593999997E+02  0.45594000000E+02  0.51100000000E-03 0. -1.
    9900012    2    1    2    0    0 -0.63548892121E+00  0.96324635336E+00 -0.25147757399E+00  0.90006928166E+02  0.89999178814E+02 0.  0.
         12    1    1    2    0    0  0.63548892121E+00 -0.96324635336E+00  0.25147757399E+00  0.11810718337E+01  0.00000000000E+00 0. -1.
         11    1    3    3    0    0 -0.23263980489E+02  0.18773406625E+02  0.26939668140E+02  0.40241760701E+02  0.51100000000E-03 0. -1.
        -11    1    3    3    0    0 -0.35340801270E+01  0.51174697488E+01 -0.76712348409E+01  0.98755285033E+01  0.51100000000E-03 0.  1.
        -12    1    3    3    0    0  0.26162571695E+02 -0.22927630021E+02 -0.19519910873E+02  0.39889638962E+02  0.00000000000E+00 0.  1.
</event>
<event>
 7    1  0.1501154E-015  0.9000774E+02  0.7816164E-02  0.1186339E+00
        -11   -1    0    0    0    0  0.00000000000E+00  0.00000000000E+00  0.45593999997E+02  0.45594000000E+02  0.51100000000E-03 0. -1.
         11   -1    0    0    0    0 -0.00000000000E+00 -0.00000000000E+00 -0.45593999997E+02  0.45594000000E+02  0.51100000000E-03 0.  1.
    9900012    2    1    2    0    0 -0.57514630251E+00  0.91132440234E+00 -0.48134966647E+00  0.90007744546E+02  0.90000005974E+02 0.  0.
         12    1    1    2    0    0  0.57514630251E+00 -0.91132440234E+00  0.48134966647E+00  0.11802554541E+01  0.00000000000E+00 0. -1.
         11    1    3    3    0    0  0.11718079583E+01  0.35874696101E+02  0.33001699758E+00  0.35895346018E+02  0.51100000000E-03 0. -1.
        -11    1    3    3    0    0 -0.96215766177E+01  0.65913972135E+01  0.14784507834E+01  0.11756150340E+02  0.51100000000E-03 0.  1.
        -12    1    3    3    0    0  0.78746223569E+01 -0.41554768912E+02 -0.22898174474E+01  0.42356248188E+02  0.00000000000E+00 0.  1.
</event>
<event>
 7    1  0.1501154E-015  0.9000775E+02  0.7816164E-02  0.1186339E+00
        -11   -1    0    0    0    0  0.00000000000E+00  0.00000000000E+00  0.45593999997E+02  0.45594000000E+02  0.51100000000E-03 0. -1.
         11   -1    0    0    0    0 -0.00000000000E+00 -0.00000000000E+00 -0.45593999997E+02  0.45594000000E+02  0.51100000000E-03 0.  1.
    9900012    2    1    2    0    0  0.73457200722E+00  0.88976503873E+00 -0.24842602807E+00  0.90007748608E+02  0.90000010089E+02 0.  0.
         12    1    1    2    0    0 -0.73457200722E+00 -0.88976503873E+00  0.24842602807E+00  0.11802513924E+01  0.00000000000E+00 0. -1.
         11    1    3    3    0    0  0.29594142156E+02 -0.20382582910E+01 -0.21945206085E+02  0.36899320010E+02  0.51100000000E-03 0. -1.
        -11    1    3    3    0    0  0.60995330599E+01  0.43858247976E+01 -0.50626314427E+01  0.90592494220E+01  0.51100000000E-03 0.  1.
        -12    1    3    3    0    0 -0.34959103208E+02 -0.14578014678E+01  0.26759411500E+02  0.44049179176E+02  0.00000000000E+00 0.  1.
</event>
<event>
 7    1  0.1501154E-015  0.9000772E+02  0.7816164E-02  0.1186339E+00
        -11   -1    0    0    0    0  0.00000000000E+00  0.00000000000E+00  0.45593999997E+02  0.45594000000E+02  0.51100000000E-03 0. -1.
         11   -1    0    0    0    0 -0.00000000000E+00 -0.00000000000E+00 -0.45593999997E+02  0.45594000000E+02  0.51100000000E-03 0.  1.
    9900012    2    1    2    0    0 -0.35019017673E+00 -0.10598622836E+01  0.38357496984E+00  0.90007715722E+02  0.89999976769E+02 0.  0.
         12    1    1    2    0    0  0.35019017673E+00  0.10598622836E+01 -0.38357496984E+00  0.11802842783E+01  0.00000000000E+00 0. -1.
         11    1    3    3    0    0 -0.39400593203E+02 -0.82098532120E+01 -0.48286173737E+00  0.40249740251E+02  0.51100000000E-03 0. -1.
        -11    1    3    3    0    0 -0.10145544728E+01  0.71373973302E+01  0.59819117677E+01  0.93677654798E+01  0.51100000000E-03 0.  1.
        -12    1    3    3    0    0  0.40064957499E+02  0.12593598229E-01 -0.51154750605E+01  0.40390209991E+02  0.00000000000E+00 0.  1.
</event>
<event>
 7    1  0.1501154E-015  0.9000780E+02  0.7816164E-02  0.1186339E+00
        -11   -1    0    0    0    0  0.00000000000E+00  0.00000000000E+00  0.45593999997E+02  0.45594000000E+02  0.51100000000E-03 0.  1.
         11   -1    0    0    0    0 -0.00000000000E+00 -0.00000000000E+00 -0.45593999997E+02  0.45594000000E+02  0.51100000000E-03 0. -1.
    9900012    2    1    2    0    0 -0.23041771592E+00 -0.10451334942E+01  0.49747783393E+00  0.90007796399E+02  0.90000058511E+02 0.  0.
         12    1    1    2    0    0  0.23041771592E+00  0.10451334942E+01 -0.49747783393E+00  0.11802036010E+01  0.00000000000E+00 0. -1.
         11    1    3    3    0    0  0.31903832966E+01 -0.39957799333E+01  0.78842394429E+01  0.93971290674E+01  0.51100000000E-03 0. -1.
        -11    1    3    3    0    0 -0.15303624399E+01 -0.27664299326E+02  0.24050198022E+02  0.36688792451E+02  0.51100000000E-03 0.  1.
         12    1    3    3    0    0 -0.18904385726E+01  0.30614945765E+02 -0.31436959631E+02  0.43921874880E+02  0.00000000000E+00 0. -1.
</event>
<event>
 7    1  0.1501154E-015  0.9000779E+02  0.7816164E-02  0.1186339E+00
        -11   -1    0    0    0    0  0.00000000000E+00  0.00000000000E+00  0.45593999997E+02  0.45594000000E+02  0.51100000000E-03 0.  1.
         11   -1    0    0    0    0 -0.00000000000E+00 -0.00000000000E+00 -0.45593999997E+02  0.45594000000E+02  0.51100000000E-03 0. -1.
    9900012    2    1    2    0    0  0.40567499127E+00 -0.26884408675E+00  0.10751946359E+01  0.90007791185E+02  0.90000053229E+02 0.  0.
         12    1    1    2    0    0 -0.40567499127E+00  0.26884408675E+00 -0.10751946359E+01  0.11802088148E+01  0.00000000000E+00 0. -1.
         11    1    3    3    0    0 -0.50540674584E+01  0.78226103823E+01 -0.30209067841E+01  0.97909503689E+01  0.51100000000E-03 0. -1.
        -11    1    3    3    0    0  0.39240497371E+02 -0.17265856459E+02 -0.71224036008E+01  0.43458659281E+02  0.51100000000E-03 0.  1.
         12    1    3    3    0    0 -0.33780754921E+02  0.91744019902E+01  0.11218505021E+02  0.36758181536E+02  0.00000000000E+00 0. -1.
</event>
<event>
 7    1  0.1778555E-015  0.9000750E+02  0.7816164E-02  0.1186340E+00
        -11   -1    0    0    0    0  0.00000000000E+00  0.00000000000E+00  0.45593999997E+02  0.45594000000E+02  0.51100000000E-03 0.  1.
         11   -1    0    0    0    0 -0.00000000000E+00 -0.00000000000E+00 -0.45593999997E+02  0.45594000000E+02  0.51100000000E-03 0. -1.
    9900012    2    1    2    0    0 -0.34060123923E+00 -0.11083493928E+01  0.22164969845E+00  0.90007501728E+02  0.89999759951E+02 0.  0.
         12    1    1    2    0    0  0.34060123923E+00  0.11083493928E+01 -0.22164969845E+00  0.11804982717E+01  0.00000000000E+00 0. -1.
         11    1    3    3    0    0  0.11699683003E+02  0.34609863607E+02  0.73392571970E+01  0.37263788558E+02  0.51100000000E-03 0. -1.
        -11    1    3    3    0    0  0.91897263636E+01  0.14971102579E+01 -0.25637355653E+01  0.96573883670E+01  0.51100000000E-03 0.  1.
        -12    1    3    3    0    0 -0.21230010606E+02 -0.37215323257E+02 -0.45538719332E+01  0.43086324803E+02  0.00000000000E+00 0.  1.
</event>
<event>
 7    1  0.1501154E-015  0.9000765E+02  0.7816164E-02  0.1186339E+00
        -11   -1    0    0    0    0  0.00000000000E+00  0.00000000000E+00  0.45593999997E+02  0.45594000000E+02  0.51100000000E-03 0. -1.
         11   -1    0    0    0    0 -0.00000000000E+00 -0.00000000000E+00 -0.45593999997E+02  0.45594000000E+02  0.51100000000E-03 0.  1.
    9900012    2    1    2    0    0  0.11599771626E+01  0.17047328664E+00 -0.13640717354E+00  0.90007654679E+02  0.89999914921E+02 0.  0.
         12    1    1    2    0    0 -0.11599771626E+01 -0.17047328664E+00  0.13640717354E+00  0.11803453208E+01  0.00000000000E+00 0. -1.
         11    1    3    3    0    0 -0.23283212558E+01  0.26127769215E+01  0.78767578783E+01  0.86192225895E+01  0.51100000000E-03 0. -1.
        -11    1    3    3    0    0  0.12979802891E+02 -0.37151282693E+02 -0.19089335566E+02  0.43738950850E+02  0.51100000000E-03 0.  1.
         12    1    3    3    0    0 -0.94915044729E+01  0.34708979058E+02  0.11076170514E+02  0.37649481240E+02  0.00000000000E+00 0. -1.
</event>
<event>
 7    1  0.1501154E-015  0.9000754E+02  0.7816164E-02  0.1186339E+00
        -11   -1    0    0    0    0  0.00000000000E+00  0.00000000000E+00  0.45593999997E+02  0.45594000000E+02  0.51100000000E-03 0.  1.
         11   -1    0    0    0    0 -0.00000000000E+00 -0.00000000000E+00 -0.45593999997E+02  0.45594000000E+02  0.51100000000E-03 0. -1.
    9900012    2    1    2    0    0  0.69941076925E+00  0.39995887898E+00  0.86275101711E+00  0.90007541679E+02  0.89999800429E+02 0.  0.
         12    1    1    2    0    0 -0.69941076925E+00 -0.39995887898E+00 -0.86275101711E+00  0.11804583205E+01  0.00000000000E+00 0. -1.
         11    1    3    3    0    0 -0.61211591133E+01  0.27434228005E+01 -0.54074301820E+01  0.86159885670E+01  0.51100000000E-03 0. -1.
        -11    1    3    3    0    0 -0.18102769105E+02  0.20120574411E+02 -0.24021154415E+02  0.36187893329E+02  0.51100000000E-03 0.  1.
        -12    1    3    3    0    0  0.24923338988E+02 -0.22464038332E+02  0.30291335614E+02  0.45203659783E+02  0.00000000000E+00 0.  1.
</event>
<event>
 7    1  0.1501154E-015  0.9000767E+02  0.7816164E-02  0.1186339E+00
        -11   -1    0    0    0    0  0.00000000000E+00  0.00000000000E+00  0.45593999997E+02  0.45594000000E+02  0.51100000000E-03 0.  1.
         11   -1    0    0    0    0 -0.00000000000E+00 -0.00000000000E+00 -0.45593999997E+02  0.45594000000E+02  0.51100000000E-03 0. -1.
    9900012    2    1    2    0    0 -0.56976845394E+00  0.95185123236E+00  0.40314027927E+00  0.90007669985E+02  0.89999930429E+02 0.  0.
         12    1    1    2    0    0  0.56976845394E+00 -0.95185123236E+00 -0.40314027927E+00  0.11803300151E+01  0.00000000000E+00 0. -1.
         11    1    3    3    0    0 -0.83817308034E+01  0.20379729092E+01  0.44995339909E+01  0.97289542725E+01  0.51100000000E-03 0. -1.
        -11    1    3    3    0    0  0.18032184370E+02  0.28652543095E+02  0.21179603470E+02  0.39933738898E+02  0.51100000000E-03 0.  1.
         12    1    3    3    0    0 -0.10220222020E+02 -0.29738664772E+02 -0.25275997182E+02  0.40344976814E+02  0.00000000000E+00 0. -1.
</event>
<event>
 7    1  0.1501154E-015  0.9000768E+02  0.7816164E-02  0.1186339E+00
        -11   -1    0    0    0    0  0.00000000000E+00  0.00000000000E+00  0.45593999997E+02  0.45594000000E+02  0.51100000000E-03 0. -1.
         11   -1    0    0    0    0 -0.00000000000E+00 -0.00000000000E+00 -0.45593999997E+02  0.45594000000E+02  0.51100000000E-03 0.  1.
    9900012    2    1    2    0    0 -0.76694581758E+00  0.84214790254E+00 -0.30942615871E+00  0.90007676517E+02  0.89999937047E+02 0.  0.
         12    1    1    2    0    0  0.76694581758E+00 -0.84214790254E+00  0.30942615871E+00  0.11803234830E+01  0.00000000000E+00 0. -1.
         11    1    3    3    0    0  0.13970988103E+01  0.73727144501E+00  0.97695713252E+01  0.98964629241E+01  0.51100000000E-03 0. -1.
        -11    1    3    3    0    0  0.60384321654E+00 -0.10972527257E+02 -0.43461902254E+02  0.44829654570E+02  0.51100000000E-03 0.  1.
         12    1    3    3    0    0 -0.27678878444E+01  0.11077403715E+02  0.33382904770E+02  0.35281559023E+02  0.00000000000E+00 0. -1.
</event>
<event>
 7    1  0.1501154E-015  0.9000777E+02  0.7816164E-02  0.1186339E+00
        -11   -1    0    0    0    0  0.00000000000E+00  0.00000000000E+00  0.45593999997E+02  0.45594000000E+02  0.51100000000E-03 0.  1.
         11   -1    0    0    0    0 -0.00000000000E+00 -0.00000000000E+00 -0.45593999997E+02  0.45594000000E+02  0.51100000000E-03 0. -1.
    9900012    2    1    2    0    0 -0.20087279730E+00 -0.63809189218E+00  0.97233208959E+00  0.90007770854E+02  0.90000032630E+02 0.  0.
         12    1    1    2    0    0  0.20087279730E+00  0.63809189218E+00 -0.97233208959E+00  0.11802291455E+01  0.00000000000E+00 0. -1.
         11    1    3    3    0    0  0.16729155017E-01 -0.71311968259E+01 -0.10170249395E+00  0.71319416495E+01  0.51100000000E-03 0. -1.
        -11    1    3    3    0    0 -0.28997726911E+01 -0.38069354099E+02 -0.88310072462E+00  0.38189845121E+02  0.51100000000E-03 0.  1.
         12    1    3    3    0    0  0.26821707388E+01  0.44562459033E+02  0.19571353082E+01  0.44685984084E+02  0.00000000000E+00 0. -1.
</event>
<event>
 7    1  0.1501154E-015  0.9000772E+02  0.7816164E-02  0.1186339E+00
        -11   -1    0    0    0    0  0.00000000000E+00  0.00000000000E+00  0.45593999997E+02  0.45594000000E+02  0.51100000000E-03 0. -1.
         11   -1    0    0    0    0 -0.00000000000E+00 -0.00000000000E+00 -0.45593999997E+02  0.45594000000E+02  0.51100000000E-03 0.  1.
    9900012    2    1    2    0    0  0.27783948562E+00  0.82051271142E+00 -0.80163752260E+00  0.90007720962E+02  0.89999982079E+02 0.  0.
         12    1    1    2    0    0 -0.27783948562E+00 -0.82051271142E+00  0.80163752260E+00  0.11802790378E+01  0.00000000000E+00 0. -1.
         11    1    3    3    0    0  0.22249992713E+02 -0.29239949116E+02 -0.11033836063E+02  0.38363815485E+02  0.51100000000E-03 0. -1.
        -11    1    3    3    0    0 -0.49928717543E+01 -0.43351875174E+01 -0.69677923290E+01  0.96058705679E+01  0.51100000000E-03 0.  1.
        -12    1    3    3    0    0 -0.16979281473E+02  0.34395649345E+02  0.17199990869E+02  0.42038034910E+02  0.00000000000E+00 0.  1.
</event>
<event>
 7    1  0.1501154E-015  0.9000766E+02  0.7816164E-02  0.1186339E+00
        -11   -1    0    0    0    0  0.00000000000E+00  0.00000000000E+00  0.45593999997E+02  0.45594000000E+02  0.51100000000E-03 0. -1.
         11   -1    0    0    0    0 -0.00000000000E+00 -0.00000000000E+00 -0.45593999997E+02  0.45594000000E+02  0.51100000000E-03 0.  1.
    9900012    2    1    2    0    0 -0.96210408350E-01  0.86519337551E+00 -0.79711370020E+00  0.90007658409E+02  0.89999918700E+02 0.  0.
         12    1    1    2    0    0  0.96210408350E-01 -0.86519337551E+00  0.79711370020E+00  0.11803415907E+01  0.00000000000E+00 0. -1.
         11    1    3    3    0    0  0.27081380125E+01  0.12181733536E+02 -0.24185717097E+01  0.12711338750E+02  0.51100000000E-03 0. -1.
        -11    1    3    3    0    0 -0.30422671528E+02  0.76805464995E+01 -0.20182702397E+02  0.37307790256E+02  0.51100000000E-03 0.  1.
         12    1    3    3    0    0  0.27618323107E+02 -0.18997086660E+02  0.21804160407E+02  0.39988529404E+02  0.00000000000E+00 0. -1.
</event>
<event>
 7    1  0.1501154E-015  0.9000800E+02  0.7816164E-02  0.1186339E+00
        -11   -1    0    0    0    0  0.00000000000E+00  0.00000000000E+00  0.45593999997E+02  0.45594000000E+02  0.51100000000E-03 0. -1.
         11   -1    0    0    0    0 -0.00000000000E+00 -0.00000000000E+00 -0.45593999997E+02  0.45594000000E+02  0.51100000000E-03 0.  1.
    9900012    2    1    2    0    0 -0.39322247125E+00  0.99918508069E+00 -0.48930162782E+00  0.90007995415E+02  0.90000260154E+02 0.  0.
         12    1    1    2    0    0  0.39322247125E+00 -0.99918508069E+00  0.48930162782E+00  0.11800045849E+01  0.00000000000E+00 0. -1.
         11    1    3    3    0    0  0.56401018961E+01 -0.79298128678E+01 -0.32795962765E+00  0.97365414442E+01  0.51100000000E-03 0. -1.
        -11    1    3    3    0    0 -0.56199759867E+01  0.41923092799E+02 -0.13907751636E+02  0.44525895788E+02  0.51100000000E-03 0.  1.
         12    1    3    3    0    0 -0.41334838071E+00 -0.32994094851E+02  0.13746409636E+02  0.35745558182E+02  0.00000000000E+00 0. -1.
</event>
<event>
 7    1  0.1501154E-015  0.9000771E+02  0.7816164E-02  0.1186339E+00
        -11   -1    0    0    0    0  0.00000000000E+00  0.00000000000E+00  0.45593999997E+02  0.45594000000E+02  0.51100000000E-03 0. -1.
         11   -1    0    0    0    0 -0.00000000000E+00 -0.00000000000E+00 -0.45593999997E+02  0.45594000000E+02  0.51100000000E-03 0.  1.
    9900012    2    1    2    0    0 -0.11530519874E+01  0.40368350881E-01 -0.24882908970E+00  0.90007714270E+02  0.89999975298E+02 0.  0.
         12    1    1    2    0    0  0.11530519874E+01 -0.40368350881E-01  0.24882908970E+00  0.11802857304E+01  0.00000000000E+00 0. -1.
         11    1    3    3    0    0  0.16898737627E+02 -0.33917420508E+02  0.14350447887E+02  0.40520292473E+02  0.51100000000E-03 0. -1.
        -11    1    3    3    0    0 -0.86827362793E+01 -0.29725999085E+01 -0.24947089502E+01  0.95105116855E+01  0.51100000000E-03 0.  1.
        -12    1    3    3    0    0 -0.93690533355E+01  0.36930388767E+02 -0.12104568027E+02  0.39976910111E+02  0.00000000000E+00 0.  1.
</event>
<event>
 7    1  0.1501154E-015  0.9000803E+02  0.7816164E-02  0.1186338E+00
        -11   -1    0    0    0    0  0.00000000000E+00  0.00000000000E+00  0.45593999997E+02  0.45594000000E+02  0.51100000000E-03 0.  1.
         11   -1    0    0    0    0 -0.00000000000E+00 -0.00000000000E+00 -0.45593999997E+02  0.45594000000E+02  0.51100000000E-03 0. -1.
    9900012    2    1    2    0    0  0.87394751250E+00 -0.76851556980E+00  0.19472324582E+00  0.90008034925E+02  0.90000300186E+02 0.  0.
         12    1    1    2    0    0 -0.87394751250E+00  0.76851556980E+00 -0.19472324582E+00  0.11799650750E+01  0.00000000000E+00 0. -1.
         11    1    3    3    0    0 -0.77330971890E+01 -0.49666794042E+01 -0.25064249129E+01  0.95263247133E+01  0.51100000000E-03 0. -1.
        -11    1    3    3    0    0  0.21707928186E+02 -0.33358489083E+02 -0.45194827023E+01  0.40055569703E+02  0.51100000000E-03 0.  1.
         12    1    3    3    0    0 -0.13100883485E+02  0.37556652917E+02  0.72206308610E+01  0.40426140509E+02  0.00000000000E+00 0. -1.
</event>
<event>
 7    1  0.1501154E-015  0.9000770E+02  0.7816164E-02  0.1186339E+00
        -11   -1    0    0    0    0  0.00000000000E+00  0.00000000000E+00  0.45593999997E+02  0.45594000000E+02  0.51100000000E-03 0.  1.
         11   -1    0    0    0    0 -0.00000000000E+00 -0.00000000000E+00 -0.45593999997E+02  0.45594000000E+02  0.51100000000E-03 0. -1.
    9900012    2    1    2    0    0 -0.31891944026E+00  0.94311403152E+00  0.63398684093E+00  0.90007697920E+02  0.89999958732E+02 0.  0.
         12    1    1    2    0    0  0.31891944026E+00 -0.94311403152E+00 -0.63398684093E+00  0.11803020801E+01  0.00000000000E+00 0. -1.
         11    1    3    3    0    0 -0.19035224762E+02 -0.19850136412E+00 -0.38115711907E+02  0.42605007675E+02  0.51100000000E-03 0. -1.
        -11    1    3    3    0    0  0.40050980816E+01 -0.55818235502E+01  0.18518195539E+01  0.71152512753E+01  0.51100000000E-03 0.  1.
        -12    1    3    3    0    0  0.14711207240E+02  0.67234389458E+01  0.36897879194E+02  0.40287438970E+02  0.00000000000E+00 0.  1.
</event>
<event>
 7    1  0.1501154E-015  0.9000669E+02  0.7816164E-02  0.1186341E+00
        -11   -1    0    0    0    0  0.00000000000E+00  0.00000000000E+00  0.45593999997E+02  0.45594000000E+02  0.51100000000E-03 0.  1.
         11   -1    0    0    0    0 -0.00000000000E+00 -0.00000000000E+00 -0.45593999997E+02  0.45594000000E+02  0.51100000000E-03 0. -1.
    9900012    2    1    2    0    0 -0.20670365591E+00 -0.64629639810E+00  0.96699196975E+00  0.90006687634E+02  0.89998935105E+02 0.  0.
         12    1    1    2    0    0  0.20670365591E+00  0.64629639810E+00 -0.96699196975E+00  0.11813123656E+01  0.00000000000E+00 0. -1.
         11    1    3    3    0    0 -0.95064817645E+01  0.41867871298E+02 -0.28843082810E+01  0.43030350651E+02  0.51100000000E-03 0. -1.
        -11    1    3    3    0    0  0.10912655912E+02 -0.11879118849E+02  0.17893450741E+01  0.16229642009E+02  0.51100000000E-03 0.  1.
        -12    1    3    3    0    0 -0.16128778037E+01 -0.30635048848E+02  0.20619551767E+01  0.30746694975E+02  0.00000000000E+00 0.  1.
</event>
<event>
 7    1  0.1501154E-015  0.9000772E+02  0.7816164E-02  0.1186339E+00
        -11   -1    0    0    0    0  0.00000000000E+00  0.00000000000E+00  0.45593999997E+02  0.45594000000E+02  0.51100000000E-03 0.  1.
         11   -1    0    0    0    0 -0.00000000000E+00 -0.00000000000E+00 -0.45593999997E+02  0.45594000000E+02  0.51100000000E-03 0. -1.
    9900012    2    1    2    0    0  0.66255045026E-01 -0.66068254103E+00  0.97579549604E+00  0.90007716983E+02  0.89999978047E+02 0.  0.
         12    1    1    2    0    0 -0.66255045026E-01  0.66068254103E+00 -0.97579549604E+00  0.11802830174E+01  0.00000000000E+00 0. -1.
         11    1    3    3    0    0  0.41452620794E+01  0.62686915880E+01 -0.44764952775E+01  0.87474969084E+01  0.51100000000E-03 0. -1.
        -11    1    3    3    0    0  0.35504088755E+02  0.62121754943E+01  0.14033401602E+02  0.38679035710E+02  0.51100000000E-03 0.  1.
         12    1    3    3    0    0 -0.39583095789E+02 -0.13141549623E+02 -0.85811108285E+01  0.42581184364E+02  0.00000000000E+00 0. -1.
</event>
<event>
 7    1  0.1501154E-015  0.9000782E+02  0.7816164E-02  0.1186339E+00
        -11   -1    0    0    0    0  0.00000000000E+00  0.00000000000E+00  0.45593999997E+02  0.45594000000E+02  0.51100000000E-03 0.  1.
         11   -1    0    0    0    0 -0.00000000000E+00 -0.00000000000E+00 -0.45593999997E+02  0.45594000000E+02  0.51100000000E-03 0. -1.
    9900012    2    1    2    0    0 -0.18372684527E+00 -0.15077676759E+00  0.11560021654E+01  0.90007817729E+02  0.90000080123E+02 0.  0.
         12    1    1    2    0    0  0.18372684527E+00  0.15077676759E+00 -0.11560021654E+01  0.11801822714E+01  0.00000000000E+00 0. -1.
         11    1    3    3    0    0 -0.10547981415E+02 -0.27846557704E+02  0.37287925781E+01  0.30009908068E+02  0.51100000000E-03 0. -1.
        -11    1    3    3    0    0 -0.12534854421E+02 -0.22497354084E+01 -0.15577119263E+02  0.20120400830E+02  0.51100000000E-03 0.  1.
        -12    1    3    3    0    0  0.22899108991E+02  0.29945516345E+02  0.13004328850E+02  0.39877508831E+02  0.00000000000E+00 0.  1.
</event>
<event>
 7    1  0.1501154E-015  0.9000773E+02  0.7816164E-02  0.1186339E+00
        -11   -1    0    0    0    0  0.00000000000E+00  0.00000000000E+00  0.45593999997E+02  0.45594000000E+02  0.51100000000E-03 0. -1.
         11   -1    0    0    0    0 -0.00000000000E+00 -0.00000000000E+00 -0.45593999997E+02  0.45594000000E+02  0.51100000000E-03 0.  1.
    9900012    2    1    2    0    0 -0.11029628030E+01  0.35138247241E+00  0.23031514086E+00  0.90007728145E+02  0.89999989357E+02 0.  0.
         12    1    1    2    0    0  0.11029628030E+01 -0.35138247241E+00 -0.23031514086E+00  0.11802718546E+01  0.00000000000E+00 0. -1.
         11    1    3    3    0    0 -0.43226371618E+01 -0.14049630162E+02 -0.29307888262E+01  0.14988889990E+02  0.51100000000E-03 0. -1.
        -11    1    3    3    0    0 -0.51072049376E+01 -0.13663938508E+02 -0.28427230125E+02  0.31951434564E+02  0.51100000000E-03 0.  1.
         12    1    3    3    0    0  0.83268792964E+01  0.28064951142E+02  0.31588334092E+02  0.43067403592E+02  0.00000000000E+00 0. -1.
</event>
<event>
 7    1  0.1501154E-015  0.9000769E+02  0.7816164E-02  0.1186339E+00
        -11   -1    0    0    0    0  0.00000000000E+00  0.00000000000E+00  0.45593999997E+02  0.45594000000E+02  0.51100000000E-03 0. -1.
         11   -1    0    0    0    0 -0.00000000000E+00 -0.00000000000E+00 -0.45593999997E+02  0.45594000000E+02  0.51100000000E-03 0.  1.
    9900012    2    1    2    0    0 -0.10678059758E+01  0.49172779485E+00 -0.10549969778E+00  0.90007688172E+02  0.89999948855E+02 0.  0.
         12    1    1    2    0    0  0.10678059758E+01 -0.49172779485E+00  0.10549969778E+00  0.11803118285E+01  0.00000000000E+00 0. -1.
         11    1    3    3    0    0  0.55296083042E+01 -0.46263603130E+01  0.34659148926E+02  0.35401078829E+02  0.51100000000E-03 0. -1.
        -11    1    3    3    0    0  0.23509078210E+01  0.35905870006E+01  0.89678435322E+01  0.99418962211E+01  0.51100000000E-03 0.  1.
        -12    1    3    3    0    0 -0.89483221010E+01  0.15275011072E+01 -0.43732492156E+02  0.44664713121E+02  0.00000000000E+00 0.  1.
</event>
<event>
 7    1  0.1501154E-015  0.9000776E+02  0.7816164E-02  0.1186339E+00
        -11   -1    0    0    0    0  0.00000000000E+00  0.00000000000E+00  0.45593999997E+02  0.45594000000E+02  0.51100000000E-03 0. -1.
         11   -1    0    0    0    0 -0.00000000000E+00 -0.00000000000E+00 -0.45593999997E+02  0.45594000000E+02  0.51100000000E-03 0.  1.
    9900012    2    1    2    0    0 -0.98942750702E+00 -0.63492243117E+00  0.10432737563E+00  0.90007755328E+02  0.90000016898E+02 0.  0.
         12    1    1    2    0    0  0.98942750702E+00  0.63492243117E+00 -0.10432737563E+00  0.11802446723E+01  0.00000000000E+00 0. -1.
         11    1    3    3    0    0 -0.64177039570E+01 -0.76782045155E+01 -0.14214608228E+02  0.17383809594E+02  0.51100000000E-03 0. -1.
        -11    1    3    3    0    0 -0.85857005198E+01 -0.10003103120E+02 -0.24585531837E+02  0.27896679039E+02  0.51100000000E-03 0.  1.
         12    1    3    3    0    0  0.14013976970E+02  0.17046385204E+02  0.38904467441E+02  0.44727266694E+02  0.00000000000E+00 0. -1.
</event>
<event>
 7    1  0.1800530E-015  0.9000771E+02  0.7816164E-02  0.1186339E+00
        -11   -1    0    0    0    0  0.00000000000E+00  0.00000000000E+00  0.45593999997E+02  0.45594000000E+02  0.51100000000E-03 0. -1.
         11   -1    0    0    0    0 -0.00000000000E+00 -0.00000000000E+00 -0.45593999997E+02  0.45594000000E+02  0.51100000000E-03 0.  1.
    9900012    2    1    2    0    0  0.64860007717E+00 -0.45739858207E+00 -0.87360996502E+00  0.90007707708E+02  0.89999968650E+02 0.  0.
         12    1    1    2    0    0 -0.64860007717E+00  0.45739858207E+00  0.87360996502E+00  0.11802922917E+01  0.00000000000E+00 0. -1.
         11    1    3    3    0    0 -0.67211430750E+01  0.84276776998E+01  0.36865536780E+02  0.38409208765E+02  0.51100000000E-03 0. -1.
        -11    1    3    3    0    0 -0.46700500096E+01 -0.92016086239E+01  0.16133317272E+01  0.10444223661E+02  0.51100000000E-03 0.  1.
        -12    1    3    3    0    0  0.12039793162E+02  0.31653234205E+00 -0.39352478472E+02  0.41154275282E+02  0.00000000000E+00 0.  1.
</event>
<event>
 7    1  0.1501154E-015  0.9000774E+02  0.7816164E-02  0.1186339E+00
        -11   -1    0    0    0    0  0.00000000000E+00  0.00000000000E+00  0.45593999997E+02  0.45594000000E+02  0.51100000000E-03 0.  1.
         11   -1    0    0    0    0 -0.00000000000E+00 -0.00000000000E+00 -0.45593999997E+02  0.45594000000E+02  0.51100000000E-03 0. -1.
    9900012    2    1    2    0    0  0.30356485006E+00 -0.11405109385E+01  0.10162996532E-01  0.90007737273E+02  0.89999998605E+02 0.  0.
         12    1    1    2    0    0 -0.30356485006E+00  0.11405109385E+01 -0.10162996532E-01  0.11802627273E+01  0.00000000000E+00 0. -1.
         11    1    3    3    0    0 -0.50462899879E+01 -0.19046516485E+01  0.74907076796E+01  0.92305710737E+01  0.51100000000E-03 0. -1.
        -11    1    3    3    0    0  0.22231605664E+02  0.34706575671E+02  0.33477366768E+01  0.41352122392E+02  0.51100000000E-03 0.  1.
         12    1    3    3    0    0 -0.16881750826E+02 -0.33942434961E+02 -0.10828281360E+02  0.39425043807E+02  0.00000000000E+00 0. -1.
</event>
<event>
 7    1  0.1501154E-015  0.9000772E+02  0.7816164E-02  0.1186339E+00
        -11   -1    0    0    0    0  0.00000000000E+00  0.00000000000E+00  0.45593999997E+02  0.45594000000E+02  0.51100000000E-03 0.  1.
         11   -1    0    0    0    0 -0.00000000000E+00 -0.00000000000E+00 -0.45593999997E+02  0.45594000000E+02  0.51100000000E-03 0. -1.
    9900012    2    1    2    0    0  0.11585164016E+01 -0.21430658591E+00  0.70600009879E-01  0.90007715320E+02  0.89999976362E+02 0.  0.
         12    1    1    2    0    0 -0.11585164016E+01  0.21430658591E+00 -0.70600009879E-01  0.11802846804E+01  0.00000000000E+00 0. -1.
         11    1    3    3    0    0 -0.10294528756E+02  0.55276891667E+01 -0.34553367403E+02  0.36475579077E+02  0.51100000000E-03 0. -1.
        -11    1    3    3    0    0 -0.55821574169E+01 -0.62731333226E+01 -0.54320163463E+01  0.10000974200E+02  0.51100000000E-03 0.  1.
        -12    1    3    3    0    0  0.17035202574E+02  0.53113757003E+00  0.40055983759E+02  0.43531162043E+02  0.00000000000E+00 0.  1.
</event>
<event>
 7    1  0.1501154E-015  0.9000774E+02  0.7816164E-02  0.1186339E+00
        -11   -1    0    0    0    0  0.00000000000E+00  0.00000000000E+00  0.45593999997E+02  0.45594000000E+02  0.51100000000E-03 0. -1.
         11   -1    0    0    0    0 -0.00000000000E+00 -0.00000000000E+00 -0.45593999997E+02  0.45594000000E+02  0.51100000000E-03 0.  1.
    9900012    2    1    2    0    0  0.15990947358E+00  0.10888383515E+01  0.42645459950E+00  0.90007744298E+02  0.90000005723E+02 0.  0.
         12    1    1    2    0    0 -0.15990947358E+00 -0.10888383515E+01 -0.42645459950E+00  0.11802557015E+01  0.00000000000E+00 0. -1.
         11    1    3    3    0    0 -0.73528810856E+01 -0.31947365784E+02  0.21906112099E+02  0.39428121796E+02  0.51100000000E-03 0. -1.
        -11    1    3    3    0    0 -0.63771271787E+01  0.40424413636E+01  0.48930860400E+01  0.89972981771E+01  0.51100000000E-03 0.  1.
        -12    1    3    3    0    0  0.13889917738E+02  0.28993762772E+02 -0.26372743540E+02  0.41582324325E+02  0.00000000000E+00 0.  1.
</event>
<event>
 7    1  0.1501154E-015  0.9000769E+02  0.7816164E-02  0.1186339E+00
        -11   -1    0    0    0    0  0.00000000000E+00  0.00000000000E+00  0.45593999997E+02  0.45594000000E+02  0.51100000000E-03 0. -1.
         11   -1    0    0    0    0 -0.00000000000E+00 -0.00000000000E+00 -0.45593999997E+02  0.45594000000E+02  0.51100000000E-03 0.  1.
    9900012    2    1    2    0    0 -0.57828039506E+00 -0.17017025808E+00 -0.10147711201E+01  0.90007692176E+02  0.89999952913E+02 0.  0.
         12    1    1    2    0    0  0.57828039506E+00  0.17017025808E+00  0.10147711201E+01  0.11803078235E+01  0.00000000000E+00 0. -1.
         11    1    3    3    0    0  0.58811661358E+01  0.76481735808E-01 -0.66726410292E+01  0.88948357567E+01  0.51100000000E-03 0. -1.
        -11    1    3    3    0    0  0.23486375784E+02  0.13125261243E+02 -0.24625931142E+02  0.36473535818E+02  0.51100000000E-03 0.  1.
         12    1    3    3    0    0 -0.29945822315E+02 -0.13371913237E+02  0.30283801051E+02  0.44639320602E+02  0.00000000000E+00 0. -1.
</event>
<event>
 7    1  0.1501154E-015  0.9000776E+02  0.7816164E-02  0.1186339E+00
        -11   -1    0    0    0    0  0.00000000000E+00  0.00000000000E+00  0.45593999997E+02  0.45594000000E+02  0.51100000000E-03 0. -1.
         11   -1    0    0    0    0 -0.00000000000E+00 -0.00000000000E+00 -0.45593999997E+02  0.45594000000E+02  0.51100000000E-03 0.  1.
    9900012    2    1    2    0    0 -0.91919441062E+00  0.72590832757E+00  0.14528586203E+00  0.90007758819E+02  0.90000020435E+02 0.  0.
         12    1    1    2    0    0  0.91919441062E+00 -0.72590832757E+00 -0.14528586203E+00  0.11802411814E+01  0.00000000000E+00 0. -1.
         11    1    3    3    0    0  0.22627783373E+02  0.13118377864E+02  0.25334116827E+02  0.36413265355E+02  0.51100000000E-03 0. -1.
        -11    1    3    3    0    0  0.38276576998E+01  0.90082021393E+01  0.13385783908E+01  0.98787884691E+01  0.51100000000E-03 0.  1.
        -12    1    3    3    0    0 -0.27374635483E+02 -0.21400671676E+02 -0.26527409356E+02  0.43715704994E+02  0.00000000000E+00 0.  1.
</event>
<event>
 7    1  0.1501154E-015  0.9000768E+02  0.7816164E-02  0.1186339E+00
        -11   -1    0    0    0    0  0.00000000000E+00  0.00000000000E+00  0.45593999997E+02  0.45594000000E+02  0.51100000000E-03 0.  1.
         11   -1    0    0    0    0 -0.00000000000E+00 -0.00000000000E+00 -0.45593999997E+02  0.45594000000E+02  0.51100000000E-03 0. -1.
    9900012    2    1    2    0    0  0.87680987622E+00  0.44657284775E+00 -0.65187062729E+00  0.90007678780E+02  0.89999939340E+02 0.  0.
         12    1    1    2    0    0 -0.87680987622E+00 -0.44657284775E+00  0.65187062729E+00  0.11803212199E+01  0.00000000000E+00 0. -1.
         11    1    3    3    0    0  0.83998293406E+01  0.11262518691E+02 -0.25060318332E+02  0.28730141235E+02  0.51100000000E-03 0. -1.
        -11    1    3    3    0    0  0.12140465698E+02 -0.34520111715E+01 -0.13163236772E+02  0.18236723693E+02  0.51100000000E-03 0.  1.
        -12    1    3    3    0    0 -0.19663485163E+02 -0.73639346718E+01  0.37571684477E+02  0.43040813852E+02  0.00000000000E+00 0.  1.
</event>
<event>
 7    1  0.1501154E-015  0.9000776E+02  0.7816164E-02  0.1186339E+00
        -11   -1    0    0    0    0  0.00000000000E+00  0.00000000000E+00  0.45593999997E+02  0.45594000000E+02  0.51100000000E-03 0.  1.
         11   -1    0    0    0    0 -0.00000000000E+00 -0.00000000000E+00 -0.45593999997E+02  0.45594000000E+02  0.51100000000E-03 0. -1.
    9900012    2    1    2    0    0  0.30897380385E+00 -0.10545404630E+01 -0.43062098998E+00  0.90007764923E+02  0.90000026620E+02 0.  0.
         12    1    1    2    0    0 -0.30897380385E+00  0.10545404630E+01  0.43062098998E+00  0.11802350769E+01  0.00000000000E+00 0. -1.
         11    1    3    3    0    0 -0.70285738415E+01 -0.56032291510E+01  0.31949541849E+01  0.95396414853E+01  0.51100000000E-03 0. -1.
        -11    1    3    3    0    0  0.81570499424E+00 -0.74276084486E+01  0.36931467415E+02  0.37679809282E+02  0.51100000000E-03 0.  1.
         12    1    3    3    0    0  0.65218426511E+01  0.11976297137E+02 -0.40557042589E+02  0.42788314155E+02  0.00000000000E+00 0. -1.
</event>
<event>
 7    1  0.1501154E-015  0.9000775E+02  0.7816164E-02  0.1186339E+00
        -11   -1    0    0    0    0  0.00000000000E+00  0.00000000000E+00  0.45593999997E+02  0.45594000000E+02  0.51100000000E-03 0.  1.
         11   -1    0    0    0    0 -0.00000000000E+00 -0.00000000000E+00 -0.45593999997E+02  0.45594000000E+02  0.51100000000E-03 0. -1.
    9900012    2    1    2    0    0 -0.79582704452E+00 -0.50225908938E+00  0.71231416002E+00  0.90007747341E+02  0.90000008805E+02 0.  0.
         12    1    1    2    0    0  0.79582704452E+00  0.50225908938E+00 -0.71231416002E+00  0.11802526595E+01  0.00000000000E+00 0. -1.
         11    1    3    3    0    0  0.98887123931E+01 -0.29124051697E+02 -0.24939333128E+02  0.39597567566E+02  0.51100000000E-03 0. -1.
        -11    1    3    3    0    0  0.39466647652E+01 -0.49262904471E+01  0.66610902017E+01  0.91768525800E+01  0.51100000000E-03 0.  1.
        -12    1    3    3    0    0 -0.14631204203E+02  0.33548083055E+02  0.18990557086E+02  0.41233327194E+02  0.00000000000E+00 0.  1.
</event>
<event>
 7    1  0.1501154E-015  0.9000801E+02  0.7816164E-02  0.1186339E+00
        -11   -1    0    0    0    0  0.00000000000E+00  0.00000000000E+00  0.45593999997E+02  0.45594000000E+02  0.51100000000E-03 0.  1.
         11   -1    0    0    0    0 -0.00000000000E+00 -0.00000000000E+00 -0.45593999997E+02  0.45594000000E+02  0.51100000000E-03 0. -1.
    9900012    2    1    2    0    0 -0.58283288441E+00 -0.14046591119E+00  0.10163429864E+01  0.90008009360E+02  0.90000274284E+02 0.  0.
         12    1    1    2    0    0  0.58283288441E+00  0.14046591119E+00 -0.10163429864E+01  0.11799906395E+01  0.00000000000E+00 0. -1.
         11    1    3    3    0    0  0.34763684124E+01 -0.10765792075E+02 -0.56897855622E+01  0.12663375393E+02  0.51100000000E-03 0. -1.
        -11    1    3    3    0    0  0.34879957200E+02  0.13047148770E+02 -0.22754577993E+01  0.37309746900E+02  0.51100000000E-03 0.  1.
         12    1    3    3    0    0 -0.38939158497E+02 -0.24218226062E+01  0.89815863478E+01  0.40034887067E+02  0.00000000000E+00 0. -1.
</event>
<event>
 7    1  0.1501154E-015  0.9000780E+02  0.7816164E-02  0.1186339E+00
        -11   -1    0    0    0    0  0.00000000000E+00  0.00000000000E+00  0.45593999997E+02  0.45594000000E+02  0.51100000000E-03 0. -1.
         11   -1    0    0    0    0 -0.00000000000E+00 -0.00000000000E+00 -0.45593999997E+02  0.45594000000E+02  0.51100000000E-03 0.  1.
    9900012    2    1    2    0    0  0.12023896450E+00 -0.98700704844E+00 -0.63579247672E+00  0.90007799849E+02  0.90000062007E+02 0.  0.
         12    1    1    2    0    0 -0.12023896450E+00  0.98700704844E+00  0.63579247672E+00  0.11802001507E+01  0.00000000000E+00 0. -1.
         11    1    3    3    0    0  0.34303551470E+01 -0.61944115264E+01  0.16740323431E+01  0.72760191822E+01  0.51100000000E-03 0. -1.
        -11    1    3    3    0    0  0.33438015023E+02 -0.19055059068E+02 -0.37847625935E+01  0.38671960810E+02  0.51100000000E-03 0.  1.
         12    1    3    3    0    0 -0.36748131205E+02  0.24262463546E+02  0.14749377736E+01  0.44059819857E+02  0.00000000000E+00 0. -1.
</event>
<event>
 8    1  0.1501154E-015  0.9000763E+02  0.7816164E-02  0.1186339E+00
        -11   -1    0    0    0    0  0.00000000000E+00  0.00000000000E+00  0.45593999997E+02  0.45594000000E+02  0.51100000000E-03 0. -1.
         11   -1    0    0    0    0 -0.00000000000E+00 -0.00000000000E+00 -0.45593999997E+02  0.45594000000E+02  0.51100000000E-03 0.  1.
    9900012    2    1    2    0    0  0.47523428482E+00 -0.14462494686E-01 -0.10803778762E+01  0.90007630081E+02  0.89999889998E+02 0.  0.
         23    2    3    3    0    0 -0.14504416542E+02  0.12410756579E+02  0.19101762550E+02  0.61970247891E+02  0.55776601842E+02 0.  0.
         12    1    1    2    0    0 -0.47523428482E+00  0.14462494686E-01  0.10803778762E+01  0.11803699186E+01  0.00000000000E+00 0. -1.
         11    1    4    4    0    0 -0.20088042578E+02 -0.13666896008E+02  0.24779792005E+02  0.34703769150E+02  0.51100000000E-03 0. -1.
        -11    1    4    4    0    0  0.55836260358E+01  0.26077652588E+02 -0.56780294555E+01  0.27266478741E+02  0.51100000000E-03 0.  1.
        -12    1    3    3    0    0  0.14979650827E+02 -0.12425219074E+02 -0.20182140426E+02  0.28037382191E+02  0.00000000000E+00 0.  1.
</event>
<event>
 7    1  0.1501154E-015  0.9000758E+02  0.7816164E-02  0.1186339E+00
        -11   -1    0    0    0    0  0.00000000000E+00  0.00000000000E+00  0.45593999997E+02  0.45594000000E+02  0.51100000000E-03 0. -1.
         11   -1    0    0    0    0 -0.00000000000E+00 -0.00000000000E+00 -0.45593999997E+02  0.45594000000E+02  0.51100000000E-03 0.  1.
    9900012    2    1    2    0    0  0.33534092464E+00 -0.46271054891E+00 -0.10328836054E+01  0.90007575021E+02  0.89999834211E+02 0.  0.
         12    1    1    2    0    0 -0.33534092464E+00  0.46271054891E+00  0.10328836054E+01  0.11804249786E+01  0.00000000000E+00 0. -1.
         11    1    3    3    0    0 -0.80539691201E+01 -0.38723478649E+01 -0.12040233652E+01  0.90172706015E+01  0.51100000000E-03 0. -1.
        -11    1    3    3    0    0  0.97015784670E+01  0.40857115139E+02  0.79032575983E+01  0.42730386883E+02  0.51100000000E-03 0.  1.
         12    1    3    3    0    0 -0.13122684222E+01 -0.37447477823E+02 -0.77321178386E+01  0.38259917537E+02  0.00000000000E+00 0. -1.
</event>
<event>
 7    1  0.1501154E-015  0.9000769E+02  0.7816164E-02  0.1186339E+00
        -11   -1    0    0    0    0  0.00000000000E+00  0.00000000000E+00  0.45593999997E+02  0.45594000000E+02  0.51100000000E-03 0.  1.
         11   -1    0    0    0    0 -0.00000000000E+00 -0.00000000000E+00 -0.45593999997E+02  0.45594000000E+02  0.51100000000E-03 0. -1.
    9900012    2    1    2    0    0  0.93403996785E+00 -0.71987692067E+00 -0.49801027061E-01  0.90007689200E+02  0.89999949897E+02 0.  0.
         12    1    1    2    0    0 -0.93403996785E+00  0.71987692067E+00  0.49801027061E-01  0.11803108001E+01  0.00000000000E+00 0. -1.
         11    1    3    3    0    0  0.66847961146E+01  0.84040640890E+01 -0.68855583221E+00  0.10760525159E+02  0.51100000000E-03 0. -1.
        -11    1    3    3    0    0 -0.18994882586E+02 -0.12472388395E+02  0.35305304823E+02  0.41986076092E+02  0.51100000000E-03 0.  1.
         12    1    3    3    0    0  0.13244126439E+02  0.33484473853E+01 -0.34666550017E+02  0.37261087949E+02  0.00000000000E+00 0. -1.
</event>
<event>
 7    1  0.1501154E-015  0.9000773E+02  0.7816164E-02  0.1186339E+00
        -11   -1    0    0    0    0  0.00000000000E+00  0.00000000000E+00  0.45593999997E+02  0.45594000000E+02  0.51100000000E-03 0.  1.
         11   -1    0    0    0    0 -0.00000000000E+00 -0.00000000000E+00 -0.45593999997E+02  0.45594000000E+02  0.51100000000E-03 0. -1.
    9900012    2    1    2    0    0 -0.24289634892E+00 -0.11069636956E+01  0.32966039281E+00  0.90007727475E+02  0.89999988677E+02 0.  0.
         12    1    1    2    0    0  0.24289634892E+00  0.11069636956E+01 -0.32966039281E+00  0.11802725255E+01  0.00000000000E+00 0. -1.
         11    1    3    3    0    0 -0.11793510723E+01 -0.92677767462E+00  0.96047017218E+01  0.97211152259E+01  0.51100000000E-03 0. -1.
        -11    1    3    3    0    0 -0.87249062560E+01  0.35901073497E+02  0.99703901913E+01  0.38267737695E+02  0.51100000000E-03 0.  1.
         12    1    3    3    0    0  0.96613609794E+01 -0.36081259518E+02 -0.19245431520E+02  0.42018874554E+02  0.00000000000E+00 0. -1.
</event>
<event>
 7    1  0.1501154E-015  0.9000773E+02  0.7816164E-02  0.1186339E+00
        -11   -1    0    0    0    0  0.00000000000E+00  0.00000000000E+00  0.45593999997E+02  0.45594000000E+02  0.51100000000E-03 0. -1.
         11   -1    0    0    0    0 -0.00000000000E+00 -0.00000000000E+00 -0.45593999997E+02  0.45594000000E+02  0.51100000000E-03 0.  1.
    9900012    2    1    2    0    0  0.15505220284E+00  0.15566004550E+00 -0.11596377542E+01  0.90007732676E+02  0.89999993947E+02 0.  0.
         12    1    1    2    0    0 -0.15505220284E+00 -0.15566004550E+00  0.11596377542E+01  0.11802673241E+01  0.00000000000E+00 0. -1.
         11    1    3    3    0    0  0.48508311737E+00 -0.92108067287E+01  0.43321261193E+01  0.10190269045E+02  0.51100000000E-03 0. -1.
        -11    1    3    3    0    0  0.28075580548E+02  0.89371524139E+01  0.24637232515E+02  0.38407084537E+02  0.51100000000E-03 0.  1.
         12    1    3    3    0    0 -0.28405611462E+02  0.42931436034E+00 -0.30128996389E+02  0.41410379094E+02  0.00000000000E+00 0. -1.
</event>
<event>
 7    1  0.1501154E-015  0.9000784E+02  0.7816164E-02  0.1186339E+00
        -11   -1    0    0    0    0  0.00000000000E+00  0.00000000000E+00  0.45593999997E+02  0.45594000000E+02  0.51100000000E-03 0. -1.
         11   -1    0    0    0    0 -0.00000000000E+00 -0.00000000000E+00 -0.45593999997E+02  0.45594000000E+02  0.51100000000E-03 0.  1.
    9900012    2    1    2    0    0 -0.11431192753E+01  0.81221995762E-01 -0.28189555993E+00  0.90007837385E+02  0.90000100039E+02 0.  0.
         12    1    1    2    0    0  0.11431192753E+01 -0.81221995762E-01  0.28189555993E+00  0.11801626146E+01  0.00000000000E+00 0. -1.
         11    1    3    3    0    0  0.15901402902E+02  0.28029324307E+02  0.26562825412E+02  0.41762199769E+02  0.51100000000E-03 0. -1.
        -11    1    3    3    0    0  0.38765033233E+01 -0.85274602495E+01 -0.46716611291E+00  0.93788645774E+01  0.51100000000E-03 0.  1.
        -12    1    3    3    0    0 -0.20921025501E+02 -0.19420642062E+02 -0.26377554859E+02  0.38866773039E+02  0.00000000000E+00 0.  1.
</event>
<event>
 7    1  0.1501154E-015  0.9000771E+02  0.7816164E-02  0.1186339E+00
        -11   -1    0    0    0    0  0.00000000000E+00  0.00000000000E+00  0.45593999997E+02  0.45594000000E+02  0.51100000000E-03 0.  1.
         11   -1    0    0    0    0 -0.00000000000E+00 -0.00000000000E+00 -0.45593999997E+02  0.45594000000E+02  0.51100000000E-03 0. -1.
    9900012    2    1    2    0    0  0.90275479066E+00  0.41247203025E+00  0.63873717674E+00  0.90007709964E+02  0.89999970936E+02 0.  0.
         12    1    1    2    0    0 -0.90275479066E+00 -0.41247203025E+00 -0.63873717674E+00  0.11802900359E+01  0.00000000000E+00 0. -1.
         11    1    3    3    0    0 -0.70946681302E+01  0.33543156434E+02  0.16276013144E+02  0.37952421050E+02  0.51100000000E-03 0. -1.
        -11    1    3    3    0    0  0.11890608996E+01  0.77777285589E+01 -0.47046182568E+01  0.91673529747E+01  0.51100000000E-03 0.  1.
        -12    1    3    3    0    0  0.68083620213E+01 -0.40908412963E+02 -0.10932657711E+02  0.42887935939E+02  0.00000000000E+00 0.  1.
</event>
<event>
 7    1  0.1501154E-015  0.9000752E+02  0.7816164E-02  0.1186339E+00
        -11   -1    0    0    0    0  0.00000000000E+00  0.00000000000E+00  0.45593999997E+02  0.45594000000E+02  0.51100000000E-03 0.  1.
         11   -1    0    0    0    0 -0.00000000000E+00 -0.00000000000E+00 -0.45593999997E+02  0.45594000000E+02  0.51100000000E-03 0. -1.
    9900012    2    1    2    0    0  0.14680186026E+00 -0.61473027832E+00  0.99703741986E+00  0.90007522250E+02  0.89999780744E+02 0.  0.
         12    1    1    2    0    0 -0.14680186026E+00  0.61473027832E+00 -0.99703741986E+00  0.11804777498E+01  0.00000000000E+00 0. -1.
         11    1    3    3    0    0 -0.99109641928E+01  0.12628438442E+02 -0.33728097962E+02  0.37353570929E+02  0.51100000000E-03 0. -1.
        -11    1    3    3    0    0  0.10736435195E+01 -0.35417425635E+01 -0.75235349176E+01  0.83845231653E+01  0.51100000000E-03 0.  1.
        -12    1    3    3    0    0  0.89841225336E+01 -0.97014261567E+01  0.42248670300E+02  0.44269428156E+02  0.00000000000E+00 0.  1.
</event>
<event>
 7    1  0.1501154E-015  0.9000775E+02  0.7816164E-02  0.1186339E+00
        -11   -1    0    0    0    0  0.00000000000E+00  0.00000000000E+00  0.45593999997E+02  0.45594000000E+02  0.51100000000E-03 0.  1.
         11   -1    0    0    0    0 -0.00000000000E+00 -0.00000000000E+00 -0.45593999997E+02  0.45594000000E+02  0.51100000000E-03 0. -1.
    9900012    2    1    2    0    0 -0.80354890919E+00  0.31561841484E+00  0.80478254771E+00  0.90007753931E+02  0.90000015483E+02 0.  0.
         12    1    1    2    0    0  0.80354890919E+00 -0.31561841484E+00 -0.80478254771E+00  0.11802460686E+01  0.00000000000E+00 0. -1.
         11    1    3    3    0    0 -0.74446964393E+01 -0.11487431344E+02  0.10735288311E+02  0.17396292689E+02  0.51100000000E-03 0. -1.
        -11    1    3    3    0    0  0.46677954749E+01  0.10055609482E+01  0.30421134490E+02  0.30793585230E+02  0.51100000000E-03 0.  1.
         12    1    3    3    0    0  0.19733520552E+01  0.10797488810E+02 -0.40351640254E+02  0.41817876012E+02  0.00000000000E+00 0. -1.
</event>
<event>
 7    1  0.1501154E-015  0.9000773E+02  0.7816164E-02  0.1186339E+00
        -11   -1    0    0    0    0  0.00000000000E+00  0.00000000000E+00  0.45593999997E+02  0.45594000000E+02  0.51100000000E-03 0.  1.
         11   -1    0    0    0    0 -0.00000000000E+00 -0.00000000000E+00 -0.45593999997E+02  0.45594000000E+02  0.51100000000E-03 0. -1.
    9900012    2    1    2    0    0  0.87569139607E+00  0.70613712418E+00 -0.35717509366E+00  0.90007729223E+02  0.89999990449E+02 0.  0.
         12    1    1    2    0    0 -0.87569139607E+00 -0.70613712418E+00  0.35717509366E+00  0.11802707769E+01  0.00000000000E+00 0. -1.
         11    1    3    3    0    0  0.31159883502E+02  0.15942070332E+02  0.15452722518E+02  0.38260613950E+02  0.51100000000E-03 0. -1.
        -11    1    3    3    0    0  0.20248044323E+01  0.84599726932E+01 -0.57789253214E+01  0.10443512297E+02  0.51100000000E-03 0.  1.
        -12    1    3    3    0    0 -0.32308996538E+02 -0.23695905901E+02 -0.10030972291E+02  0.41303602977E+02  0.00000000000E+00 0.  1.
</event>
<event>
 7    1  0.1501154E-015  0.9000770E+02  0.7816164E-02  0.1186339E+00
        -11   -1    0    0    0    0  0.00000000000E+00  0.00000000000E+00  0.45593999997E+02  0.45594000000E+02  0.51100000000E-03 0.  1.
         11   -1    0    0    0    0 -0.00000000000E+00 -0.00000000000E+00 -0.45593999997E+02  0.45594000000E+02  0.51100000000E-03 0. -1.
    9900012    2    1    2    0    0 -0.13137052053E+00  0.10043100175E+01  0.60597583494E+00  0.90007701929E+02  0.89999962794E+02 0.  0.
         12    1    1    2    0    0  0.13137052052E+00 -0.10043100175E+01 -0.60597583494E+00  0.11802980714E+01  0.00000000000E+00 0. -1.
         11    1    3    3    0    0  0.63092881561E+01  0.66973303833E+01 -0.11731930339E+01  0.92756527240E+01  0.51100000000E-03 0. -1.
        -11    1    3    3    0    0  0.31294866647E+02  0.17397499510E+02  0.59486953546E+01  0.36296399882E+02  0.51100000000E-03 0.  1.
         12    1    3    3    0    0 -0.37735525324E+02 -0.23090519876E+02 -0.41695264857E+01  0.44435649323E+02  0.00000000000E+00 0. -1.
</event>
<event>
 7    1  0.1501154E-015  0.9000766E+02  0.7816164E-02  0.1186339E+00
        -11   -1    0    0    0    0  0.00000000000E+00  0.00000000000E+00  0.45593999997E+02  0.45594000000E+02  0.51100000000E-03 0. -1.
         11   -1    0    0    0    0 -0.00000000000E+00 -0.00000000000E+00 -0.45593999997E+02  0.45594000000E+02  0.51100000000E-03 0.  1.
    9900012    2    1    2    0    0  0.93879903363E+00 -0.50545666078E+00 -0.50632962517E+00  0.90007661171E+02  0.89999921499E+02 0.  0.
         12    1    1    2    0    0 -0.93879903363E+00  0.50545666078E+00  0.50632962517E+00  0.11803388288E+01  0.00000000000E+00 0. -1.
         11    1    3    3    0    0  0.20497142447E+02 -0.72950071960E+01  0.32346338334E+02  0.38982503542E+02  0.51100000000E-03 0. -1.
        -11    1    3    3    0    0 -0.10170568917E+01 -0.72039280757E+01  0.33510092472E+01  0.80100092183E+01  0.51100000000E-03 0.  1.
        -12    1    3    3    0    0 -0.18541286522E+02  0.13993478611E+02 -0.36203677207E+02  0.43015148411E+02  0.00000000000E+00 0.  1.
</event>
<event>
 7    1  0.1501154E-015  0.9000755E+02  0.7816164E-02  0.1186339E+00
        -11   -1    0    0    0    0  0.00000000000E+00  0.00000000000E+00  0.45593999997E+02  0.45594000000E+02  0.51100000000E-03 0.  1.
         11   -1    0    0    0    0 -0.00000000000E+00 -0.00000000000E+00 -0.45593999997E+02  0.45594000000E+02  0.51100000000E-03 0. -1.
    9900012    2    1    2    0    0 -0.81073887413E+00 -0.32468477853E+00  0.79419797413E+00  0.90007547481E+02  0.89999806308E+02 0.  0.
         12    1    1    2    0    0  0.81073887413E+00  0.32468477853E+00 -0.79419797413E+00  0.11804525190E+01  0.00000000000E+00 0. -1.
         11    1    3    3    0    0 -0.18650501352E+02 -0.12664090445E+02 -0.28787926053E+02  0.36564533009E+02  0.51100000000E-03 0. -1.
        -11    1    3    3    0    0  0.22480207961E+01  0.21238506004E+01 -0.95822554124E+01  0.10068960121E+02  0.51100000000E-03 0.  1.
        -12    1    3    3    0    0  0.15591741682E+02  0.10215555066E+02  0.39164379439E+02  0.43374054351E+02  0.00000000000E+00 0.  1.
</event>
<event>
 7    1  0.1501154E-015  0.9000795E+02  0.7816164E-02  0.1186339E+00
        -11   -1    0    0    0    0  0.00000000000E+00  0.00000000000E+00  0.45593999997E+02  0.45594000000E+02  0.51100000000E-03 0. -1.
         11   -1    0    0    0    0 -0.00000000000E+00 -0.00000000000E+00 -0.45593999997E+02  0.45594000000E+02  0.51100000000E-03 0.  1.
    9900012    2    1    2    0    0  0.11313736322E+01  0.30105980546E+00 -0.14793257537E+00  0.90007946040E+02  0.90000210127E+02 0.  0.
         12    1    1    2    0    0 -0.11313736322E+01 -0.30105980546E+00  0.14793257537E+00  0.11800539602E+01  0.00000000000E+00 0. -1.
         11    1    3    3    0    0  0.34404266761E+02  0.15744213057E+01  0.81773693817E+01  0.35397764677E+02  0.51100000000E-03 0. -1.
        -11    1    3    3    0    0  0.10218735581E+02 -0.22618984363E+01 -0.18393348285E+01  0.10626471394E+02  0.51100000000E-03 0.  1.
        -12    1    3    3    0    0 -0.43491628710E+02  0.98853693599E+00 -0.64859671285E+01  0.43983709970E+02  0.00000000000E+00 0.  1.
</event>
<event>
 7    1  0.1501154E-015  0.9000789E+02  0.7816164E-02  0.1186339E+00
        -11   -1    0    0    0    0  0.00000000000E+00  0.00000000000E+00  0.45593999997E+02  0.45594000000E+02  0.51100000000E-03 0.  1.
         11   -1    0    0    0    0 -0.00000000000E+00 -0.00000000000E+00 -0.45593999997E+02  0.45594000000E+02  0.51100000000E-03 0. -1.
    9900012    2    1    2    0    0 -0.17377064100E+00  0.96739065907E-01  0.11632259394E+01  0.90007894382E+02  0.90000157788E+02 0.  0.
         12    1    1    2    0    0  0.17377064100E+00 -0.96739065907E-01 -0.11632259394E+01  0.11801056176E+01  0.00000000000E+00 0. -1.
         11    1    3    3    0    0  0.16151427561E+01 -0.22640470775E+01  0.91913874800E+01  0.96029266040E+01  0.51100000000E-03 0. -1.
        -11    1    3    3    0    0 -0.27520622231E+02 -0.22349649810E+02  0.14399771732E+02  0.38265453360E+02  0.51100000000E-03 0.  1.
         12    1    3    3    0    0  0.25731708834E+02  0.24710435953E+02 -0.22427933273E+02  0.42139514419E+02  0.00000000000E+00 0. -1.
</event>
<event>
 7    1  0.1501154E-015  0.9000773E+02  0.7816164E-02  0.1186339E+00
        -11   -1    0    0    0    0  0.00000000000E+00  0.00000000000E+00  0.45593999997E+02  0.45594000000E+02  0.51100000000E-03 0.  1.
         11   -1    0    0    0    0 -0.00000000000E+00 -0.00000000000E+00 -0.45593999997E+02  0.45594000000E+02  0.51100000000E-03 0. -1.
    9900012    2    1    2    0    0  0.10215455591E+01 -0.16504296148E+00  0.56766624152E+00  0.90007729069E+02  0.89999990293E+02 0.  0.
         12    1    1    2    0    0 -0.10215455591E+01  0.16504296148E+00 -0.56766624152E+00  0.11802709309E+01  0.00000000000E+00 0. -1.
         11    1    3    3    0    0  0.27857136505E+01  0.30227651190E+02 -0.22594925940E+02  0.37841799316E+02  0.51100000000E-03 0. -1.
        -11    1    3    3    0    0 -0.10981343649E+01  0.41797568368E+01 -0.56799957539E+01  0.71371295577E+01  0.51100000000E-03 0.  1.
        -12    1    3    3    0    0 -0.66603372651E+00 -0.34572450988E+02  0.28842587935E+02  0.45028800195E+02  0.00000000000E+00 0.  1.
</event>
<event>
 7    1  0.1501154E-015  0.9000763E+02  0.7816164E-02  0.1186339E+00
        -11   -1    0    0    0    0  0.00000000000E+00  0.00000000000E+00  0.45593999997E+02  0.45594000000E+02  0.51100000000E-03 0. -1.
         11   -1    0    0    0    0 -0.00000000000E+00 -0.00000000000E+00 -0.45593999997E+02  0.45594000000E+02  0.51100000000E-03 0.  1.
    9900012    2    1    2    0    0  0.49515158381E+00  0.97474028624E+00 -0.44495729278E+00  0.90007626877E+02  0.89999886752E+02 0.  0.
         12    1    1    2    0    0 -0.49515158381E+00 -0.97474028624E+00  0.44495729278E+00  0.11803731228E+01  0.00000000000E+00 0. -1.
         11    1    3    3    0    0 -0.41094599632E+01  0.30162328545E+02 -0.20067171519E+02  0.36460185100E+02  0.51100000000E-03 0. -1.
        -11    1    3    3    0    0 -0.41114379984E+01  0.79600288423E+01 -0.26798254366E+01  0.93513339272E+01  0.51100000000E-03 0.  1.
        -12    1    3    3    0    0  0.87160495454E+01 -0.37147617101E+02  0.22302039663E+02  0.44196107850E+02  0.00000000000E+00 0.  1.
</event>
<event>
 7    1  0.1501154E-015  0.9000776E+02  0.7816164E-02  0.1186339E+00
        -11   -1    0    0    0    0  0.00000000000E+00  0.00000000000E+00  0.45593999997E+02  0.45594000000E+02  0.51100000000E-03 0.  1.
         11   -1    0    0    0    0 -0.00000000000E+00 -0.00000000000E+00 -0.45593999997E+02  0.45594000000E+02  0.51100000000E-03 0. -1.
    9900012    2    1    2    0    0 -0.10376256831E+01 -0.47112111878E+00  0.30714401960E+00  0.90007762899E+02  0.90000024569E+02 0.  0.
         12    1    1    2    0    0  0.10376256831E+01  0.47112111878E+00 -0.30714401960E+00  0.11802371014E+01  0.00000000000E+00 0. -1.
         11    1    3    3    0    0  0.67334255193E+01  0.63895610509E+01  0.41986106497E+01  0.10187926251E+02  0.51100000000E-03 0. -1.
        -11    1    3    3    0    0  0.99311068374E+01  0.33189323926E+02 -0.88398680079E+01  0.35753340716E+02  0.51100000000E-03 0.  1.
         12    1    3    3    0    0 -0.17702158040E+02 -0.40050006096E+02  0.49484013779E+01  0.44066495932E+02  0.00000000000E+00 0. -1.
</event>
<event>
 7    1  0.1501154E-015  0.9000772E+02  0.7816164E-02  0.1186339E+00
        -11   -1    0    0    0    0  0.00000000000E+00  0.00000000000E+00  0.45593999997E+02  0.45594000000E+02  0.51100000000E-03 0. -1.
         11   -1    0    0    0    0 -0.00000000000E+00 -0.00000000000E+00 -0.45593999997E+02  0.45594000000E+02  0.51100000000E-03 0.  1.
    9900012    2    1    2    0    0 -0.31458335119E+00 -0.71985956646E+00  0.88085065606E+00  0.90007721067E+02  0.89999982186E+02 0.  0.
         12    1    1    2    0    0  0.31458335119E+00  0.71985956646E+00 -0.88085065606E+00  0.11802789325E+01  0.00000000000E+00 0. -1.
         11    1    3    3    0    0 -0.94187181321E+01  0.30811606131E+02  0.19617084320E+02  0.37721311233E+02  0.51100000000E-03 0. -1.
        -11    1    3    3    0    0  0.64790625390E+01  0.59678313611E+01  0.24408753487E+01  0.91406310103E+01  0.51100000000E-03 0.  1.
        -12    1    3    3    0    0  0.26250722420E+01 -0.37499297059E+02 -0.21177109013E+02  0.43145778824E+02  0.00000000000E+00 0.  1.
</event>
<event>
 7    1  0.1501154E-015  0.9000778E+02  0.7816164E-02  0.1186339E+00
        -11   -1    0    0    0    0  0.00000000000E+00  0.00000000000E+00  0.45593999997E+02  0.45594000000E+02  0.51100000000E-03 0.  1.
         11   -1    0    0    0    0 -0.00000000000E+00 -0.00000000000E+00 -0.45593999997E+02  0.45594000000E+02  0.51100000000E-03 0. -1.
    9900012    2    1    2    0    0  0.10973642427E+01  0.31345917879E-01  0.43327072106E+00  0.90007782069E+02  0.90000043992E+02 0.  0.
         12    1    1    2    0    0 -0.10973642427E+01 -0.31345917879E-01 -0.43327072106E+00  0.11802179313E+01  0.00000000000E+00 0. -1.
         11    1    3    3    0    0 -0.13467669107E+02  0.34575724648E+02 -0.70020228714E+00  0.37112654575E+02  0.51100000000E-03 0. -1.
        -11    1    3    3    0    0  0.28025167601E+01 -0.19156884647E+01 -0.14469963161E+02  0.14862832726E+02  0.51100000000E-03 0.  1.
        -12    1    3    3    0    0  0.11762516589E+02 -0.32628690266E+02  0.15603436169E+02  0.38032294767E+02  0.00000000000E+00 0.  1.
</event>
<event>
 7    1  0.1501154E-015  0.9000773E+02  0.7816164E-02  0.1186339E+00
        -11   -1    0    0    0    0  0.00000000000E+00  0.00000000000E+00  0.45593999997E+02  0.45594000000E+02  0.51100000000E-03 0. -1.
         11   -1    0    0    0    0 -0.00000000000E+00 -0.00000000000E+00 -0.45593999997E+02  0.45594000000E+02  0.51100000000E-03 0.  1.
    9900012    2    1    2    0    0  0.38000214498E+00  0.11164323354E+01  0.47168769330E-01  0.90007725590E+02  0.89999986768E+02 0.  0.
         12    1    1    2    0    0 -0.38000214498E+00 -0.11164323354E+01 -0.47168769330E-01  0.11802744098E+01  0.00000000000E+00 0. -1.
         11    1    3    3    0    0 -0.19932042637E+02  0.26020161105E+02  0.14392660354E+02  0.35797818089E+02  0.51100000000E-03 0. -1.
        -11    1    3    3    0    0 -0.68467911824E+01 -0.21665312334E+01  0.92051272154E+01  0.11675049224E+02  0.51100000000E-03 0.  1.
        -12    1    3    3    0    0  0.27158835964E+02 -0.22737197537E+02 -0.23550618800E+02  0.42534858277E+02  0.00000000000E+00 0.  1.
</event>
<event>
 7    1  0.1501154E-015  0.9000777E+02  0.7816164E-02  0.1186339E+00
        -11   -1    0    0    0    0  0.00000000000E+00  0.00000000000E+00  0.45593999997E+02  0.45594000000E+02  0.51100000000E-03 0.  1.
         11   -1    0    0    0    0 -0.00000000000E+00 -0.00000000000E+00 -0.45593999997E+02  0.45594000000E+02  0.51100000000E-03 0. -1.
    9900012    2    1    2    0    0  0.43967674446E+00  0.76986516069E+00  0.77906559307E+00  0.90007766462E+02  0.90000028180E+02 0.  0.
         12    1    1    2    0    0 -0.43967674446E+00 -0.76986516069E+00 -0.77906559307E+00  0.11802335377E+01  0.00000000000E+00 0. -1.
         11    1    3    3    0    0 -0.25853616522E+02  0.23295431323E+02 -0.25820645697E+01  0.34896327393E+02  0.51100000000E-03 0. -1.
        -11    1    3    3    0    0 -0.10908997938E+02 -0.80440070413E+01 -0.47726193622E+01  0.14369766217E+02  0.51100000000E-03 0.  1.
         12    1    3    3    0    0  0.37202291205E+02 -0.14481559121E+02  0.81337495249E+01  0.40741672852E+02  0.00000000000E+00 0. -1.
</event>
<event>
 7    1  0.1501154E-015  0.9000783E+02  0.7816164E-02  0.1186339E+00
        -11   -1    0    0    0    0  0.00000000000E+00  0.00000000000E+00  0.45593999997E+02  0.45594000000E+02  0.51100000000E-03 0.  1.
         11   -1    0    0    0    0 -0.00000000000E+00 -0.00000000000E+00 -0.45593999997E+02  0.45594000000E+02  0.51100000000E-03 0. -1.
    9900012    2    1    2    0    0 -0.88614536896E+00  0.45168259355E+00 -0.63524853868E+00  0.90007825654E+02  0.90000088153E+02 0.  0.
         12    1    1    2    0    0  0.88614536896E+00 -0.45168259355E+00  0.63524853868E+00  0.11801743456E+01  0.00000000000E+00 0. -1.
         11    1    3    3    0    0  0.17802987040E+02 -0.16919706325E+02 -0.32280806676E+02  0.40561968512E+02  0.51100000000E-03 0. -1.
        -11    1    3    3    0    0  0.41153604009E+01  0.93535523062E+01  0.79054089239E+00  0.10249394477E+02  0.51100000000E-03 0.  1.
        -12    1    3    3    0    0 -0.22804492810E+02  0.80178366120E+01  0.30855017245E+02  0.39196462665E+02  0.00000000000E+00 0.  1.
</event>
<event>
 7    1  0.1501154E-015  0.9000770E+02  0.7816164E-02  0.1186339E+00
        -11   -1    0    0    0    0  0.00000000000E+00  0.00000000000E+00  0.45593999997E+02  0.45594000000E+02  0.51100000000E-03 0. -1.
         11   -1    0    0    0    0 -0.00000000000E+00 -0.00000000000E+00 -0.45593999997E+02  0.45594000000E+02  0.51100000000E-03 0.  1.
    9900012    2    1    2    0    0 -0.40928265500E+00  0.76973748821E+00 -0.79567446706E+00  0.90007700907E+02  0.89999961759E+02 0.  0.
         12    1    1    2    0    0  0.40928265500E+00 -0.76973748821E+00  0.79567446706E+00  0.11802990934E+01  0.00000000000E+00 0. -1.
         11    1    3    3    0    0 -0.38155065890E+02  0.17202609885E+01 -0.34167969515E+01  0.38346353837E+02  0.51100000000E-03 0. -1.
        -11    1    3    3    0    0 -0.38751020999E+01 -0.79049446599E+01 -0.25053052641E+01  0.91532027776E+01  0.51100000000E-03 0.  1.
        -12    1    3    3    0    0  0.41620885335E+02  0.69544211597E+01  0.51264277486E+01  0.42508144292E+02  0.00000000000E+00 0.  1.
</event>
<event>
 7    1  0.1501154E-015  0.9000758E+02  0.7816164E-02  0.1186339E+00
        -11   -1    0    0    0    0  0.00000000000E+00  0.00000000000E+00  0.45593999997E+02  0.45594000000E+02  0.51100000000E-03 0. -1.
         11   -1    0    0    0    0 -0.00000000000E+00 -0.00000000000E+00 -0.45593999997E+02  0.45594000000E+02  0.51100000000E-03 0.  1.
    9900012    2    1    2    0    0 -0.37551236216E+00 -0.10995772744E+01  0.20814254102E+00  0.90007575062E+02  0.89999834253E+02 0.  0.
         12    1    1    2    0    0  0.37551236216E+00  0.10995772744E+01 -0.20814254102E+00  0.11804249378E+01  0.00000000000E+00 0. -1.
         11    1    3    3    0    0  0.53855079348E+01 -0.38035291162E+01 -0.49404340197E+01  0.82388359626E+01  0.51100000000E-03 0. -1.
        -11    1    3    3    0    0  0.93760557068E+01 -0.68987243116E+01 -0.35490988215E+02  0.37351212329E+02  0.51100000000E-03 0.  1.
         12    1    3    3    0    0 -0.15137076004E+02  0.96026761535E+01  0.40639564776E+02  0.44417526770E+02  0.00000000000E+00 0. -1.
</event>
<event>
 7    1  0.1501154E-015  0.9000772E+02  0.7816164E-02  0.1186339E+00
        -11   -1    0    0    0    0  0.00000000000E+00  0.00000000000E+00  0.45593999997E+02  0.45594000000E+02  0.51100000000E-03 0.  1.
         11   -1    0    0    0    0 -0.00000000000E+00 -0.00000000000E+00 -0.45593999997E+02  0.45594000000E+02  0.51100000000E-03 0. -1.
    9900012    2    1    2    0    0  0.10631277679E+01  0.36381962979E+00  0.36119478995E+00  0.90007717385E+02  0.89999978455E+02 0.  0.
         12    1    1    2    0    0 -0.10631277679E+01 -0.36381962979E+00 -0.36119478995E+00  0.11802826146E+01  0.00000000000E+00 0. -1.
         11    1    3    3    0    0  0.32626056048E+02  0.75021658153E+01 -0.11510262477E+02  0.35400962808E+02  0.51100000000E-03 0. -1.
        -11    1    3    3    0    0  0.74641542716E+01 -0.75966699633E+01  0.11362928603E+02  0.15573668169E+02  0.51100000000E-03 0.  1.
        -12    1    3    3    0    0 -0.39027082552E+02  0.45832377773E+00  0.50852866413E+00  0.39033086409E+02  0.00000000000E+00 0.  1.
</event>
<event>
 7    1  0.1944828E-015  0.9000784E+02  0.7816164E-02  0.1186339E+00
        -11   -1    0    0    0    0  0.00000000000E+00  0.00000000000E+00  0.45593999997E+02  0.45594000000E+02  0.51100000000E-03 0. -1.
         11   -1    0    0    0    0 -0.00000000000E+00 -0.00000000000E+00 -0.45593999997E+02  0.45594000000E+02  0.51100000000E-03 0.  1.
    9900012    2    1    2    0    0 -0.66366225335E+00  0.36340512571E+00 -0.90568262862E+00  0.90007842428E+02  0.90000105148E+02 0.  0.
         12    1    1    2    0    0  0.66366225335E+00 -0.36340512571E+00  0.90568262862E+00  0.11801575724E+01  0.00000000000E+00 0. -1.
         11    1    3    3    0    0  0.20881427645E+02  0.28323025495E+02  0.69977662721E+01  0.35877521190E+02  0.51100000000E-03 0. -1.
        -11    1    3    3    0    0  0.81494351039E+01  0.46967023020E+01 -0.10847717321E+01  0.94683174323E+01  0.51100000000E-03 0.  1.
        -12    1    3    3    0    0 -0.29694525003E+02 -0.32656322671E+02 -0.68186771686E+01  0.44662003805E+02  0.00000000000E+00 0.  1.
</event>
<event>
 7    1  0.1501154E-015  0.9000772E+02  0.7816164E-02  0.1186339E+00
        -11   -1    0    0    0    0  0.00000000000E+00  0.00000000000E+00  0.45593999997E+02  0.45594000000E+02  0.51100000000E-03 0.  1.
         11   -1    0    0    0    0 -0.00000000000E+00 -0.00000000000E+00 -0.45593999997E+02  0.45594000000E+02  0.51100000000E-03 0. -1.
    9900012    2    1    2    0    0  0.67888539889E+00  0.20074084965E+00 -0.94439442496E+00  0.90007719057E+02  0.89999980149E+02 0.  0.
         12    1    1    2    0    0 -0.67888539889E+00 -0.20074084965E+00  0.94439442496E+00  0.11802809426E+01  0.00000000000E+00 0. -1.
         11    1    3    3    0    0  0.46549092013E+01  0.39245914336E+01 -0.35156171615E+02  0.35679503927E+02  0.51100000000E-03 0. -1.
        -11    1    3    3    0    0  0.21288786680E+01 -0.20282881404E+01 -0.96105017107E+01  0.10050264701E+02  0.51100000000E-03 0.  1.
        -12    1    3    3    0    0 -0.61049024704E+01 -0.16955624435E+01  0.43822278901E+02  0.44277950429E+02  0.00000000000E+00 0.  1.
</event>
<event>
 7    1  0.1501154E-015  0.9000756E+02  0.7816164E-02  0.1186339E+00
        -11   -1    0    0    0    0  0.00000000000E+00  0.00000000000E+00  0.45593999997E+02  0.45594000000E+02  0.51100000000E-03 0. -1.
         11   -1    0    0    0    0 -0.00000000000E+00 -0.00000000000E+00 -0.45593999997E+02  0.45594000000E+02  0.51100000000E-03 0.  1.
    9900012    2    1    2    0    0 -0.23810673879E-01  0.10399903280E+01  0.55793296247E+00  0.90007561090E+02  0.89999820096E+02 0.  0.
         12    1    1    2    0    0  0.23810673879E-01 -0.10399903280E+01 -0.55793296247E+00  0.11804389104E+01  0.00000000000E+00 0. -1.
         11    1    3    3    0    0  0.41784480862E+02  0.51666174616E+01  0.97334033713E+01  0.43213145203E+02  0.51100000000E-03 0. -1.
        -11    1    3    3    0    0 -0.60001729887E+01 -0.72289506653E+01 -0.49087497406E+01  0.10599793767E+02  0.51100000000E-03 0.  1.
        -12    1    3    3    0    0 -0.35808118547E+02  0.31023235317E+01 -0.42667206682E+01  0.36194622120E+02  0.00000000000E+00 0.  1.
</event>
<event>
 7    1  0.1501154E-015  0.9000776E+02  0.7816164E-02  0.1186339E+00
        -11   -1    0    0    0    0  0.00000000000E+00  0.00000000000E+00  0.45593999997E+02  0.45594000000E+02  0.51100000000E-03 0.  1.
         11   -1    0    0    0    0 -0.00000000000E+00 -0.00000000000E+00 -0.45593999997E+02  0.45594000000E+02  0.51100000000E-03 0. -1.
    9900012    2    1    2    0    0  0.10582335452E+01 -0.32683480050E+00  0.40777530136E+00  0.90007762770E+02  0.90000024438E+02 0.  0.
         12    1    1    2    0    0 -0.10582335452E+01  0.32683480050E+00 -0.40777530136E+00  0.11802372302E+01  0.00000000000E+00 0. -1.
         11    1    3    3    0    0 -0.64221059278E+01 -0.62498574341E+01  0.35189120666E+01  0.96274038498E+01  0.51100000000E-03 0. -1.
        -11    1    3    3    0    0 -0.59789464911E+01  0.31179616633E+02  0.24890064606E+02  0.40341437888E+02  0.51100000000E-03 0.  1.
         12    1    3    3    0    0  0.13459285964E+02 -0.25256594000E+02 -0.28001201371E+02  0.40038921032E+02  0.00000000000E+00 0. -1.
</event>
<event>
 7    1  0.1652364E-015  0.9000774E+02  0.7816164E-02  0.1186339E+00
        -11   -1    0    0    0    0  0.00000000000E+00  0.00000000000E+00  0.45593999997E+02  0.45594000000E+02  0.51100000000E-03 0.  1.
         11   -1    0    0    0    0 -0.00000000000E+00 -0.00000000000E+00 -0.45593999997E+02  0.45594000000E+02  0.51100000000E-03 0. -1.
    9900012    2    1    2    0    0  0.36678353010E+00 -0.46927428800E+00  0.10189576536E+01  0.90007735955E+02  0.89999997270E+02 0.  0.
         12    1    1    2    0    0 -0.36678353010E+00  0.46927428800E+00 -0.10189576536E+01  0.11802640447E+01  0.00000000000E+00 0. -1.
         11    1    3    3    0    0  0.23109472477E+02  0.67704078188E+01 -0.26184279321E+02  0.35573903694E+02  0.51100000000E-03 0. -1.
        -11    1    3    3    0    0  0.86019546674E+01  0.19820210072E+00 -0.40856580497E+01  0.95249939702E+01  0.51100000000E-03 0.  1.
        -12    1    3    3    0    0 -0.31344643615E+02 -0.74378842075E+01  0.31288895024E+02  0.44908838291E+02  0.00000000000E+00 0.  1.
</event>
<event>
 7    1  0.1501154E-015  0.9000766E+02  0.7816164E-02  0.1186339E+00
        -11   -1    0    0    0    0  0.00000000000E+00  0.00000000000E+00  0.45593999997E+02  0.45594000000E+02  0.51100000000E-03 0. -1.
         11   -1    0    0    0    0 -0.00000000000E+00 -0.00000000000E+00 -0.45593999997E+02  0.45594000000E+02  0.51100000000E-03 0.  1.
    9900012    2    1    2    0    0 -0.49513016546E+00 -0.90030345362E+00 -0.58094787306E+00  0.90007660803E+02  0.89999921125E+02 0.  0.
         12    1    1    2    0    0  0.49513016546E+00  0.90030345362E+00  0.58094787306E+00  0.11803391972E+01  0.00000000000E+00 0. -1.
         11    1    3    3    0    0 -0.13373439333E+02  0.43974032910E+01  0.81886589785E+01  0.16286195732E+02  0.51100000000E-03 0. -1.
        -11    1    3    3    0    0  0.85159453694E+01  0.16668508899E+02 -0.34719718131E+02  0.39443875847E+02  0.51100000000E-03 0.  1.
         12    1    3    3    0    0  0.43623637982E+01 -0.21966215643E+02  0.25950111279E+02  0.34277589224E+02  0.00000000000E+00 0. -1.
</event>
<event>
 7    1  0.1501154E-015  0.9000773E+02  0.7816164E-02  0.1186339E+00
        -11   -1    0    0    0    0  0.00000000000E+00  0.00000000000E+00  0.45593999997E+02  0.45594000000E+02  0.51100000000E-03 0.  1.
         11   -1    0    0    0    0 -0.00000000000E+00 -0.00000000000E+00 -0.45593999997E+02  0.45594000000E+02  0.51100000000E-03 0. -1.
    9900012    2    1    2    0    0  0.36913450231E+00 -0.10454278830E+01  0.40479669098E+00  0.90007728802E+02  0.89999990022E+02 0.  0.
         12    1    1    2    0    0 -0.36913450231E+00  0.10454278830E+01 -0.40479669098E+00  0.11802711978E+01  0.00000000000E+00 0. -1.
         11    1    3    3    0    0 -0.30248097422E+02  0.90792819142E+00 -0.25530562820E+02  0.39592693384E+02  0.51100000000E-03 0. -1.
        -11    1    3    3    0    0  0.13154594701E+02  0.70869002986E+01 -0.31844337942E+01  0.15277700627E+02  0.51100000000E-03 0.  1.
        -12    1    3    3    0    0  0.17462637223E+02 -0.90402563730E+01  0.29119793305E+02  0.35137334791E+02  0.00000000000E+00 0.  1.
</event>
<event>
 7    1  0.1501154E-015  0.9000767E+02  0.7816164E-02  0.1186339E+00
        -11   -1    0    0    0    0  0.00000000000E+00  0.00000000000E+00  0.45593999997E+02  0.45594000000E+02  0.51100000000E-03 0. -1.
         11   -1    0    0    0    0 -0.00000000000E+00 -0.00000000000E+00 -0.45593999997E+02  0.45594000000E+02  0.51100000000E-03 0.  1.
    9900012    2    1    2    0    0  0.30192905407E+00 -0.54912496327E+00 -0.10002427534E+01  0.90007667443E+02  0.89999927853E+02 0.  0.
         12    1    1    2    0    0 -0.30192905407E+00  0.54912496327E+00  0.10002427534E+01  0.11803325568E+01  0.00000000000E+00 0. -1.
         11    1    3    3    0    0  0.28347735210E+02  0.15172733587E+02  0.15470380444E+02  0.35681067913E+02  0.51100000000E-03 0. -1.
        -11    1    3    3    0    0  0.54260219860E+00  0.92327273139E+01  0.52170855823E+01  0.10618646478E+02  0.51100000000E-03 0.  1.
        -12    1    3    3    0    0 -0.28588408355E+02 -0.24954585864E+02 -0.21687708780E+02  0.43707953052E+02  0.00000000000E+00 0.  1.
</event>
<event>
 7    1  0.1501154E-015  0.9000779E+02  0.7816164E-02  0.1186339E+00
        -11   -1    0    0    0    0  0.00000000000E+00  0.00000000000E+00  0.45593999997E+02  0.45594000000E+02  0.51100000000E-03 0. -1.
         11   -1    0    0    0    0 -0.00000000000E+00 -0.00000000000E+00 -0.45593999997E+02  0.45594000000E+02  0.51100000000E-03 0.  1.
    9900012    2    1    2    0    0  0.37093702548E+00 -0.81846658003E+00 -0.76512917445E+00  0.90007786260E+02  0.90000048238E+02 0.  0.
         12    1    1    2    0    0 -0.37093702548E+00  0.81846658003E+00  0.76512917445E+00  0.11802137404E+01  0.00000000000E+00 0. -1.
         11    1    3    3    0    0  0.59353356825E+01  0.25029605281E+01 -0.54278979186E+01  0.84234848575E+01  0.51100000000E-03 0. -1.
        -11    1    3    3    0    0  0.13249269935E+02  0.76491323683E+01 -0.33958587650E+02  0.37245644782E+02  0.51100000000E-03 0.  1.
         12    1    3    3    0    0 -0.18813668592E+02 -0.10970559476E+02  0.38621356394E+02  0.44338656620E+02  0.00000000000E+00 0. -1.
</event>
<event>
 7    1  0.1501154E-015  0.9000765E+02  0.7816164E-02  0.1186339E+00
        -11   -1    0    0    0    0  0.00000000000E+00  0.00000000000E+00  0.45593999997E+02  0.45594000000E+02  0.51100000000E-03 0.  1.
         11   -1    0    0    0    0 -0.00000000000E+00 -0.00000000000E+00 -0.45593999997E+02  0.45594000000E+02  0.51100000000E-03 0. -1.
    9900012    2    1    2    0    0 -0.27341055233E+00  0.11444110551E+01  0.93820653344E-01  0.90007647380E+02  0.89999907525E+02 0.  0.
         12    1    1    2    0    0  0.27341055233E+00 -0.11444110551E+01 -0.93820653344E-01  0.11803526203E+01  0.00000000000E+00 0. -1.
         11    1    3    3    0    0  0.82409451089E+01 -0.10443085303E+02 -0.88630225490E-01  0.13303347793E+02  0.51100000000E-03 0. -1.
        -11    1    3    3    0    0 -0.25223027378E+02 -0.22909935840E+02  0.12725923609E+02  0.36373278685E+02  0.51100000000E-03 0.  1.
         12    1    3    3    0    0  0.16708671717E+02  0.34497432198E+02 -0.12543472730E+02  0.40331020901E+02  0.00000000000E+00 0. -1.
</event>
<event>
 7    1  0.1501154E-015  0.9000762E+02  0.7816164E-02  0.1186339E+00
        -11   -1    0    0    0    0  0.00000000000E+00  0.00000000000E+00  0.45593999997E+02  0.45594000000E+02  0.51100000000E-03 0.  1.
         11   -1    0    0    0    0 -0.00000000000E+00 -0.00000000000E+00 -0.45593999997E+02  0.45594000000E+02  0.51100000000E-03 0. -1.
    9900012    2    1    2    0    0 -0.50383930369E+00  0.92506400669E+00 -0.53262541255E+00  0.90007624089E+02  0.89999883927E+02 0.  0.
         12    1    1    2    0    0  0.50383930369E+00 -0.92506400669E+00  0.53262541255E+00  0.11803759107E+01  0.00000000000E+00 0. -1.
         11    1    3    3    0    0  0.49030178514E+00  0.36367836131E+02 -0.10720226773E+02  0.37918111280E+02  0.51100000000E-03 0. -1.
        -11    1    3    3    0    0 -0.92414861585E+01  0.44845802671E+01  0.28941120755E+01  0.10672038772E+02  0.51100000000E-03 0.  1.
        -12    1    3    3    0    0  0.82473450697E+01 -0.39927352391E+02  0.72934892846E+01  0.41417474037E+02  0.00000000000E+00 0.  1.
</event>
<event>
 7    1  0.1501154E-015  0.9000762E+02  0.7816164E-02  0.1186339E+00
        -11   -1    0    0    0    0  0.00000000000E+00  0.00000000000E+00  0.45593999997E+02  0.45594000000E+02  0.51100000000E-03 0. -1.
         11   -1    0    0    0    0 -0.00000000000E+00 -0.00000000000E+00 -0.45593999997E+02  0.45594000000E+02  0.51100000000E-03 0.  1.
    9900012    2    1    2    0    0 -0.12130916472E+00  0.46884893456E+00 -0.10764608824E+01  0.90007617321E+02  0.89999877070E+02 0.  0.
         12    1    1    2    0    0  0.12130916472E+00 -0.46884893456E+00  0.10764608824E+01  0.11803826787E+01  0.00000000000E+00 0. -1.
         11    1    3    3    0    0 -0.32479382309E+02 -0.27297649898E+02 -0.28141977000E+01  0.42520485346E+02  0.51100000000E-03 0. -1.
        -11    1    3    3    0    0  0.39898031671E+01  0.11077174933E+02 -0.66496594022E+01  0.13521845445E+02  0.51100000000E-03 0.  1.
        -12    1    3    3    0    0  0.28368269977E+02  0.16689323899E+02  0.83873962198E+01  0.33965286530E+02  0.00000000000E+00 0.  1.
</event>
<event>
 7    1  0.1501154E-015  0.9000766E+02  0.7816164E-02  0.1186339E+00
        -11   -1    0    0    0    0  0.00000000000E+00  0.00000000000E+00  0.45593999997E+02  0.45594000000E+02  0.51100000000E-03 0. -1.
         11   -1    0    0    0    0 -0.00000000000E+00 -0.00000000000E+00 -0.45593999997E+02  0.45594000000E+02  0.51100000000E-03 0.  1.
    9900012    2    1    2    0    0  0.53643624406E+00  0.91761232814E+00 -0.51325296402E+00  0.90007659018E+02  0.89999919317E+02 0.  0.
         12    1    1    2    0    0 -0.53643624406E+00 -0.91761232814E+00  0.51325296402E+00  0.11803409820E+01  0.00000000000E+00 0. -1.
         11    1    3    3    0    0 -0.11130300132E+02  0.34818562488E+02  0.15838377449E+02  0.39838048085E+02  0.51100000000E-03 0. -1.
        -11    1    3    3    0    0 -0.24981565012E+01  0.37376917229E+01 -0.78784183292E+01  0.90708655018E+01  0.51100000000E-03 0.  1.
        -12    1    3    3    0    0  0.14164892877E+02 -0.37638641883E+02 -0.84732120836E+01  0.41098745431E+02  0.00000000000E+00 0.  1.
</event>
<event>
 7    1  0.1501154E-015  0.9000780E+02  0.7816164E-02  0.1186339E+00
        -11   -1    0    0    0    0  0.00000000000E+00  0.00000000000E+00  0.45593999997E+02  0.45594000000E+02  0.51100000000E-03 0. -1.
         11   -1    0    0    0    0 -0.00000000000E+00 -0.00000000000E+00 -0.45593999997E+02  0.45594000000E+02  0.51100000000E-03 0.  1.
    9900012    2    1    2    0    0  0.23935474786E+00 -0.32522782983E+00 -0.11089696286E+01  0.90007797698E+02  0.90000059828E+02 0.  0.
         12    1    1    2    0    0 -0.23935474786E+00  0.32522782983E+00  0.11089696286E+01  0.11802023020E+01  0.00000000000E+00 0. -1.
         11    1    3    3    0    0  0.31611421745E+01  0.10119049446E+02 -0.17357516741E+01  0.10742477166E+02  0.51100000000E-03 0. -1.
        -11    1    3    3    0    0  0.67822777365E+01 -0.57319875386E+01 -0.38070545521E+02  0.39092472536E+02  0.51100000000E-03 0.  1.
         12    1    3    3    0    0 -0.97040651632E+01 -0.47122897367E+01  0.38697327567E+02  0.40172847996E+02  0.00000000000E+00 0. -1.
</event>
<event>
 7    1  0.1501154E-015  0.9000760E+02  0.7816164E-02  0.1186339E+00
        -11   -1    0    0    0    0  0.00000000000E+00  0.00000000000E+00  0.45593999997E+02  0.45594000000E+02  0.51100000000E-03 0. -1.
         11   -1    0    0    0    0 -0.00000000000E+00 -0.00000000000E+00 -0.45593999997E+02  0.45594000000E+02  0.51100000000E-03 0.  1.
    9900012    2    1    2    0    0 -0.55096292130E+00  0.95475383146E+00  0.42215878003E+00  0.90007604704E+02  0.89999864286E+02 0.  0.
         12    1    1    2    0    0  0.55096292130E+00 -0.95475383146E+00 -0.42215878003E+00  0.11803952960E+01  0.00000000000E+00 0. -1.
         11    1    3    3    0    0 -0.85491429355E+01 -0.42018506477E+01 -0.26327437738E+01  0.98830528602E+01  0.51100000000E-03 0. -1.
        -11    1    3    3    0    0 -0.77229639044E+01 -0.12841015277E+02 -0.33358772519E+02  0.36569708080E+02  0.51100000000E-03 0.  1.
         12    1    3    3    0    0  0.15721143919E+02  0.17997619756E+02  0.36413675073E+02  0.43554843764E+02  0.00000000000E+00 0. -1.
</event>
<event>
 7    1  0.1501154E-015  0.9000772E+02  0.7816164E-02  0.1186339E+00
        -11   -1    0    0    0    0  0.00000000000E+00  0.00000000000E+00  0.45593999997E+02  0.45594000000E+02  0.51100000000E-03 0.  1.
         11   -1    0    0    0    0 -0.00000000000E+00 -0.00000000000E+00 -0.45593999997E+02  0.45594000000E+02  0.51100000000E-03 0. -1.
    9900012    2    1    2    0    0 -0.67277586582E+00  0.96769850946E+00  0.63242929886E-01  0.90007717221E+02  0.89999978288E+02 0.  0.
         12    1    1    2    0    0  0.67277586582E+00 -0.96769850946E+00 -0.63242929886E-01  0.11802827793E+01  0.00000000000E+00 0. -1.
         11    1    3    3    0    0 -0.44554320835E+01  0.10014441371E+02 -0.16864902765E+01  0.11089822395E+02  0.51100000000E-03 0. -1.
        -11    1    3    3    0    0 -0.51131487474E+01  0.30795347470E+02 -0.15193902840E+02  0.34718185432E+02  0.51100000000E-03 0.  1.
         12    1    3    3    0    0  0.88958049651E+01 -0.39842090332E+02  0.16943636047E+02  0.44199709394E+02  0.00000000000E+00 0. -1.
</event>
<event>
 7    1  0.1501154E-015  0.9000770E+02  0.7816164E-02  0.1186339E+00
        -11   -1    0    0    0    0  0.00000000000E+00  0.00000000000E+00  0.45593999997E+02  0.45594000000E+02  0.51100000000E-03 0.  1.
         11   -1    0    0    0    0 -0.00000000000E+00 -0.00000000000E+00 -0.45593999997E+02  0.45594000000E+02  0.51100000000E-03 0. -1.
    9900012    2    1    2    0    0 -0.46698417184E+00 -0.10830832486E+01  0.44364998334E-01  0.90007698431E+02  0.89999959251E+02 0.  0.
         12    1    1    2    0    0  0.46698417184E+00  0.10830832486E+01 -0.44364998334E-01  0.11803015687E+01  0.00000000000E+00 0. -1.
         11    1    3    3    0    0 -0.25113063823E+02 -0.59517744478E+01 -0.23717818758E+02  0.35051740621E+02  0.51100000000E-03 0. -1.
        -11    1    3    3    0    0  0.31802993680E+01 -0.96345598305E+01 -0.87408858566E+01  0.13391868168E+02  0.51100000000E-03 0.  1.
        -12    1    3    3    0    0  0.21465780283E+02  0.14503251030E+02  0.32503069613E+02  0.41564089643E+02  0.00000000000E+00 0.  1.
</event>
<event>
 7    1  0.1501154E-015  0.9000773E+02  0.7816164E-02  0.1186339E+00
        -11   -1    0    0    0    0  0.00000000000E+00  0.00000000000E+00  0.45593999997E+02  0.45594000000E+02  0.51100000000E-03 0.  1.
         11   -1    0    0    0    0 -0.00000000000E+00 -0.00000000000E+00 -0.45593999997E+02  0.45594000000E+02  0.51100000000E-03 0. -1.
    9900012    2    1    2    0    0  0.48518278971E+00 -0.10416067241E+01 -0.26960660309E+00  0.90007731121E+02  0.89999992371E+02 0.  0.
         12    1    1    2    0    0 -0.48518278971E+00  0.10416067241E+01  0.26960660309E+00  0.11802688793E+01  0.00000000000E+00 0. -1.
         11    1    3    3    0    0  0.12469362850E+02  0.30752140451E+02 -0.82249266003E+01  0.34188134931E+02  0.51100000000E-03 0. -1.
        -11    1    3    3    0    0 -0.11807897270E+01  0.10569156346E+02 -0.23751550270E+01  0.10896912035E+02  0.51100000000E-03 0.  1.
        -12    1    3    3    0    0 -0.10803390334E+02 -0.42362903521E+02  0.10330475024E+02  0.44922684154E+02  0.00000000000E+00 0.  1.
</event>
<event>
 7    1  0.1501154E-015  0.9000772E+02  0.7816164E-02  0.1186339E+00
        -11   -1    0    0    0    0  0.00000000000E+00  0.00000000000E+00  0.45593999997E+02  0.45594000000E+02  0.51100000000E-03 0. -1.
         11   -1    0    0    0    0 -0.00000000000E+00 -0.00000000000E+00 -0.45593999997E+02  0.45594000000E+02  0.51100000000E-03 0.  1.
    9900012    2    1    2    0    0  0.65617057069E+00  0.71515512376E+00 -0.67161047891E+00  0.90007717278E+02  0.89999978346E+02 0.  0.
         12    1    1    2    0    0 -0.65617057069E+00 -0.71515512376E+00  0.67161047891E+00  0.11802827222E+01  0.00000000000E+00 0. -1.
         11    1    3    3    0    0 -0.66619529241E+01 -0.73016340361E+01  0.25219648600E+01  0.10200773666E+02  0.51100000000E-03 0. -1.
        -11    1    3    3    0    0  0.13768226498E+02  0.42474276962E+02 -0.29948909789E+01  0.44750392586E+02  0.51100000000E-03 0.  1.
         12    1    3    3    0    0 -0.64501030032E+01 -0.34457487802E+02 -0.19868436007E+00  0.35056551026E+02  0.00000000000E+00 0. -1.
</event>
<event>
 7    1  0.1501154E-015  0.9000769E+02  0.7816164E-02  0.1186339E+00
        -11   -1    0    0    0    0  0.00000000000E+00  0.00000000000E+00  0.45593999997E+02  0.45594000000E+02  0.51100000000E-03 0.  1.
         11   -1    0    0    0    0 -0.00000000000E+00 -0.00000000000E+00 -0.45593999997E+02  0.45594000000E+02  0.51100000000E-03 0. -1.
    9900012    2    1    2    0    0 -0.42566910730E+00 -0.10663549641E+01  0.27355534757E+00  0.90007686640E+02  0.89999947304E+02 0.  0.
         12    1    1    2    0    0  0.42566910730E+00  0.10663549641E+01 -0.27355534757E+00  0.11803133595E+01  0.00000000000E+00 0. -1.
         11    1    3    3    0    0 -0.89502050961E+01 -0.44690801293E+01 -0.56928790428E+01  0.11510331034E+02  0.51100000000E-03 0. -1.
        -11    1    3    3    0    0 -0.24226704577E+02 -0.24945869694E+02  0.53040690116E+01  0.35176167753E+02  0.51100000000E-03 0.  1.
         12    1    3    3    0    0  0.32751240566E+02  0.28348594859E+02  0.66236537876E+00  0.43321187853E+02  0.00000000000E+00 0. -1.
</event>
<event>
 7    1  0.1501154E-015  0.9000766E+02  0.7816164E-02  0.1186339E+00
        -11   -1    0    0    0    0  0.00000000000E+00  0.00000000000E+00  0.45593999997E+02  0.45594000000E+02  0.51100000000E-03 0.  1.
         11   -1    0    0    0    0 -0.00000000000E+00 -0.00000000000E+00 -0.45593999997E+02  0.45594000000E+02  0.51100000000E-03 0. -1.
    9900012    2    1    2    0    0  0.46474240760E+00 -0.82085932583E+00  0.70951471596E+00  0.90007658240E+02  0.89999918529E+02 0.  0.
         12    1    1    2    0    0 -0.46474240760E+00  0.82085932583E+00 -0.70951471596E+00  0.11803417600E+01  0.00000000000E+00 0. -1.
         11    1    3    3    0    0  0.14963591786E+01  0.60192331144E+01  0.78131609192E+01  0.99757577099E+01  0.51100000000E-03 0. -1.
        -11    1    3    3    0    0 -0.52380595815E+01  0.30608013275E+02  0.16898837622E+02  0.35353337297E+02  0.51100000000E-03 0.  1.
         12    1    3    3    0    0  0.42064428105E+01 -0.37448105715E+02 -0.24002483825E+02  0.44678563233E+02  0.00000000000E+00 0. -1.
</event>
<event>
 7    1  0.1501154E-015  0.9000773E+02  0.7816164E-02  0.1186339E+00
        -11   -1    0    0    0    0  0.00000000000E+00  0.00000000000E+00  0.45593999997E+02  0.45594000000E+02  0.51100000000E-03 0. -1.
         11   -1    0    0    0    0 -0.00000000000E+00 -0.00000000000E+00 -0.45593999997E+02  0.45594000000E+02  0.51100000000E-03 0.  1.
    9900012    2    1    2    0    0  0.89823819230E+00 -0.68581989613E+00 -0.34038061381E+00  0.90007728954E+02  0.89999990176E+02 0.  0.
         12    1    1    2    0    0 -0.89823819230E+00  0.68581989613E+00  0.34038061381E+00  0.11802710461E+01  0.00000000000E+00 0. -1.
         11    1    3    3    0    0 -0.16603655045E+02  0.33281694377E+02  0.12791224678E+02  0.39331513707E+02  0.51100000000E-03 0. -1.
        -11    1    3    3    0    0 -0.75996056981E+00  0.29100233504E+01  0.48984949953E+01  0.57481326922E+01  0.51100000000E-03 0.  1.
        -12    1    3    3    0    0  0.18261853807E+02 -0.36877537624E+02 -0.18030100287E+02  0.44928082555E+02  0.00000000000E+00 0.  1.
</event>
<event>
 7    1  0.1501154E-015  0.9000772E+02  0.7816164E-02  0.1186339E+00
        -11   -1    0    0    0    0  0.00000000000E+00  0.00000000000E+00  0.45593999997E+02  0.45594000000E+02  0.51100000000E-03 0.  1.
         11   -1    0    0    0    0 -0.00000000000E+00 -0.00000000000E+00 -0.45593999997E+02  0.45594000000E+02  0.51100000000E-03 0. -1.
    9900012    2    1    2    0    0 -0.38585756107E+00  0.20653719346E+00  0.10961353740E+01  0.90007721885E+02  0.89999983014E+02 0.  0.
         12    1    1    2    0    0  0.38585756107E+00 -0.20653719346E+00 -0.10961353740E+01  0.11802781146E+01  0.00000000000E+00 0. -1.
         11    1    3    3    0    0  0.17780763117E+01 -0.68520578857E+00  0.80873396944E+01  0.83087981042E+01  0.51100000000E-03 0. -1.
        -11    1    3    3    0    0 -0.27388273579E+02 -0.12709566326E+01  0.27553338092E+02  0.38870545412E+02  0.51100000000E-03 0.  1.
         12    1    3    3    0    0  0.25224339706E+02  0.21626996146E+01 -0.34544542412E+02  0.42828378369E+02  0.00000000000E+00 0. -1.
</event>
<event>
 7    1  0.1501154E-015  0.9000764E+02  0.7816164E-02  0.1186339E+00
        -11   -1    0    0    0    0  0.00000000000E+00  0.00000000000E+00  0.45593999997E+02  0.45594000000E+02  0.51100000000E-03 0.  1.
         11   -1    0    0    0    0 -0.00000000000E+00 -0.00000000000E+00 -0.45593999997E+02  0.45594000000E+02  0.51100000000E-03 0. -1.
    9900012    2    1    2    0    0  0.42538973801E+00 -0.59629913917E+00  0.92559833965E+00  0.90007635065E+02  0.89999895048E+02 0.  0.
         12    1    1    2    0    0 -0.42538973801E+00  0.59629913917E+00 -0.92559833965E+00  0.11803649346E+01  0.00000000000E+00 0. -1.
         11    1    3    3    0    0  0.19715498707E+01 -0.81023767638E+01  0.57117868322E+01  0.10107424360E+02  0.51100000000E-03 0. -1.
        -11    1    3    3    0    0 -0.35775982141E+01  0.71377946647E+01  0.37106966120E+02  0.37956214992E+02  0.51100000000E-03 0.  1.
         12    1    3    3    0    0  0.20314380814E+01  0.36828295998E+00 -0.41893154612E+02  0.41943995713E+02  0.00000000000E+00 0. -1.
</event>
<event>
 7    1  0.1501154E-015  0.9000770E+02  0.7816164E-02  0.1186339E+00
        -11   -1    0    0    0    0  0.00000000000E+00  0.00000000000E+00  0.45593999997E+02  0.45594000000E+02  0.51100000000E-03 0.  1.
         11   -1    0    0    0    0 -0.00000000000E+00 -0.00000000000E+00 -0.45593999997E+02  0.45594000000E+02  0.51100000000E-03 0. -1.
    9900012    2    1    2    0    0 -0.18408856945E+00 -0.97170429926E+00  0.64422106905E+00  0.90007695534E+02  0.89999956315E+02 0.  0.
         12    1    1    2    0    0  0.18408856945E+00  0.97170429926E+00 -0.64422106905E+00  0.11803044660E+01  0.00000000000E+00 0. -1.
         11    1    3    3    0    0 -0.23362423136E+02  0.72282371752E+01 -0.14642022170E+02  0.28503316315E+02  0.51100000000E-03 0. -1.
        -11    1    3    3    0    0 -0.39899906343E+01  0.20011462596E+02  0.49533006815E+01  0.20997948671E+02  0.51100000000E-03 0.  1.
        -12    1    3    3    0    0  0.27168325200E+02 -0.28211404071E+02  0.10332942558E+02  0.40506430548E+02  0.00000000000E+00 0.  1.
</event>
<event>
 7    1  0.1501154E-015  0.9000770E+02  0.7816164E-02  0.1186339E+00
        -11   -1    0    0    0    0  0.00000000000E+00  0.00000000000E+00  0.45593999997E+02  0.45594000000E+02  0.51100000000E-03 0.  1.
         11   -1    0    0    0    0 -0.00000000000E+00 -0.00000000000E+00 -0.45593999997E+02  0.45594000000E+02  0.51100000000E-03 0. -1.
    9900012    2    1    2    0    0  0.11309567957E+00 -0.36105494339E-01  0.11743092082E+01  0.90007704971E+02  0.89999965876E+02 0.  0.
         12    1    1    2    0    0 -0.11309567957E+00  0.36105494339E-01 -0.11743092082E+01  0.11802950291E+01  0.00000000000E+00 0. -1.
         11    1    3    3    0    0  0.14943336145E+01  0.88716472814E+01  0.43884864819E+00  0.90073162948E+01  0.51100000000E-03 0. -1.
        -11    1    3    3    0    0 -0.33711656772E+02  0.16303334084E+02 -0.97241708213E+01  0.38688939026E+02  0.51100000000E-03 0.  1.
         12    1    3    3    0    0  0.32330418837E+02 -0.25211086860E+02  0.10459631381E+02  0.42311449650E+02  0.00000000000E+00 0. -1.
</event>
<event>
 7    1  0.1501154E-015  0.9000797E+02  0.7816164E-02  0.1186339E+00
        -11   -1    0    0    0    0  0.00000000000E+00  0.00000000000E+00  0.45593999997E+02  0.45594000000E+02  0.51100000000E-03 0.  1.
         11   -1    0    0    0    0 -0.00000000000E+00 -0.00000000000E+00 -0.45593999997E+02  0.45594000000E+02  0.51100000000E-03 0. -1.
    9900012    2    1    2    0    0  0.23974815900E+00 -0.10008569862E+01  0.57729345743E+00  0.90007973889E+02  0.90000238344E+02 0.  0.
         12    1    1    2    0    0 -0.23974815900E+00  0.10008569862E+01 -0.57729345743E+00  0.11800261110E+01  0.00000000000E+00 0. -1.
         11    1    3    3    0    0 -0.36426701393E+02  0.13548832413E+02  0.15522159832E+02  0.41849885069E+02  0.51100000000E-03 0. -1.
        -11    1    3    3    0    0  0.82695667429E+01  0.35253954578E+01  0.36496820621E+01  0.97022846106E+01  0.51100000000E-03 0.  1.
        -12    1    3    3    0    0  0.28396882810E+02 -0.18075084857E+02 -0.18594548436E+02  0.38455804210E+02  0.00000000000E+00 0.  1.
</event>
<event>
 7    1  0.1501154E-015  0.9000895E+02  0.7816164E-02  0.1186337E+00
        -11   -1    0    0    0    0  0.00000000000E+00  0.00000000000E+00  0.45593999997E+02  0.45594000000E+02  0.51100000000E-03 0. -1.
         11   -1    0    0    0    0 -0.00000000000E+00 -0.00000000000E+00 -0.45593999997E+02  0.45594000000E+02  0.51100000000E-03 0.  1.
    9900012    2    1    2    0    0 -0.92720674568E-01 -0.48930430405E+00 -0.10687138404E+01  0.90008947373E+02  0.90001224670E+02 0.  0.
         12    1    1    2    0    0  0.92720674568E-01  0.48930430405E+00  0.10687138404E+01  0.11790526273E+01  0.00000000000E+00 0. -1.
         11    1    3    3    0    0 -0.59128662113E+01 -0.65997612402E+01 -0.32054960861E+01  0.94230589874E+01  0.51100000000E-03 0. -1.
        -11    1    3    3    0    0 -0.11720926858E+02  0.38003346559E+01 -0.36266798033E+02  0.38302784621E+02  0.51100000000E-03 0.  1.
         12    1    3    3    0    0  0.17541072395E+02  0.23101222802E+01  0.38403580279E+02  0.42283103764E+02  0.00000000000E+00 0. -1.
</event>
<event>
 7    1  0.1501154E-015  0.9000801E+02  0.7816164E-02  0.1186339E+00
        -11   -1    0    0    0    0  0.00000000000E+00  0.00000000000E+00  0.45593999997E+02  0.45594000000E+02  0.51100000000E-03 0. -1.
         11   -1    0    0    0    0 -0.00000000000E+00 -0.00000000000E+00 -0.45593999997E+02  0.45594000000E+02  0.51100000000E-03 0.  1.
    9900012    2    1    2    0    0 -0.87959098059E+00  0.33215339186E+00 -0.71300153321E+00  0.90008009595E+02  0.90000274522E+02 0.  0.
         12    1    1    2    0    0  0.87959098059E+00 -0.33215339186E+00  0.71300153321E+00  0.11799904047E+01  0.00000000000E+00 0. -1.
         11    1    3    3    0    0  0.82218144607E+01 -0.29908109181E+02  0.22549584628E+02  0.38348102886E+02  0.51100000000E-03 0. -1.
        -11    1    3    3    0    0 -0.41406983921E+01  0.24986094641E+01  0.81385542732E+01  0.94670216197E+01  0.51100000000E-03 0.  1.
        -12    1    3    3    0    0 -0.49607070492E+01  0.27741653109E+02 -0.31401140434E+02  0.42192885090E+02  0.00000000000E+00 0.  1.
</event>
<event>
 7    1  0.1501154E-015  0.9000762E+02  0.7816164E-02  0.1186339E+00
        -11   -1    0    0    0    0  0.00000000000E+00  0.00000000000E+00  0.45593999997E+02  0.45594000000E+02  0.51100000000E-03 0.  1.
         11   -1    0    0    0    0 -0.00000000000E+00 -0.00000000000E+00 -0.45593999997E+02  0.45594000000E+02  0.51100000000E-03 0. -1.
    9900012    2    1    2    0    0  0.22368579893E+00 -0.11544808971E+01 -0.10214480672E+00  0.90007620807E+02  0.89999880601E+02 0.  0.
         12    1    1    2    0    0 -0.22368579893E+00  0.11544808971E+01  0.10214480672E+00  0.11803791933E+01  0.00000000000E+00 0. -1.
         11    1    3    3    0    0 -0.48493669865E+01 -0.15369508725E+00 -0.68314680843E+01  0.83790774431E+01  0.51100000000E-03 0. -1.
        -11    1    3    3    0    0  0.87062120106E+01  0.29789387138E+02 -0.23035106875E+02  0.38649991755E+02  0.51100000000E-03 0.  1.
         12    1    3    3    0    0 -0.36331592251E+01 -0.30790172948E+02  0.29764430152E+02  0.42978551609E+02  0.00000000000E+00 0. -1.
</event>
<event>
 7    1  0.1501154E-015  0.9000785E+02  0.7816164E-02  0.1186339E+00
        -11   -1    0    0    0    0  0.00000000000E+00  0.00000000000E+00  0.45593999997E+02  0.45594000000E+02  0.51100000000E-03 0. -1.
         11   -1    0    0    0    0 -0.00000000000E+00 -0.00000000000E+00 -0.45593999997E+02  0.45594000000E+02  0.51100000000E-03 0.  1.
    9900012    2    1    2    0    0  0.12901150566E+00 -0.10511936020E+01 -0.52068056764E+00  0.90007847378E+02  0.90000110163E+02 0.  0.
         12    1    1    2    0    0 -0.12901150566E+00  0.10511936020E+01  0.52068056764E+00  0.11801526219E+01  0.00000000000E+00 0. -1.
         11    1    3    3    0    0 -0.19816253323E+02 -0.22929695810E+02  0.20685950195E+02  0.36692824658E+02  0.51100000000E-03 0. -1.
        -11    1    3    3    0    0 -0.49302878687E+01 -0.64206365863E+01  0.28841762240E+01  0.85936479677E+01  0.51100000000E-03 0.  1.
        -12    1    3    3    0    0  0.24875552697E+02  0.28299138794E+02 -0.24090806986E+02  0.44721374752E+02  0.00000000000E+00 0.  1.
</event>
<event>
 7    1  0.1501154E-015  0.9000772E+02  0.7816164E-02  0.1186339E+00
        -11   -1    0    0    0    0  0.00000000000E+00  0.00000000000E+00  0.45593999997E+02  0.45594000000E+02  0.51100000000E-03 0.  1.
         11   -1    0    0    0    0 -0.00000000000E+00 -0.00000000000E+00 -0.45593999997E+02  0.45594000000E+02  0.51100000000E-03 0. -1.
    9900012    2    1    2    0    0  0.74474835274E+00 -0.85488127386E+00 -0.32802380980E+00  0.90007715407E+02  0.89999976450E+02 0.  0.
         12    1    1    2    0    0 -0.74474835274E+00  0.85488127386E+00  0.32802380980E+00  0.11802845933E+01  0.00000000000E+00 0. -1.
         11    1    3    3    0    0 -0.37407610323E+02  0.45978338210E+01 -0.85136515582E+01  0.38638732498E+02  0.51100000000E-03 0. -1.
        -11    1    3    3    0    0 -0.16845910720E+01  0.89446427970E+00 -0.77610348301E+01  0.79919694270E+01  0.51100000000E-03 0.  1.
        -12    1    3    3    0    0  0.39836949748E+02 -0.63471793746E+01  0.15946662578E+02  0.43377013482E+02  0.00000000000E+00 0.  1.
</event>
<event>
 7    1  0.1632263E-015  0.9000776E+02  0.7816164E-02  0.1186339E+00
        -11   -1    0    0    0    0  0.00000000000E+00  0.00000000000E+00  0.45593999997E+02  0.45594000000E+02  0.51100000000E-03 0.  1.
         11   -1    0    0    0    0 -0.00000000000E+00 -0.00000000000E+00 -0.45593999997E+02  0.45594000000E+02  0.51100000000E-03 0. -1.
    9900012    2    1    2    0    0 -0.11363770672E+00 -0.58640519250E+00  0.10179297152E+01  0.90007760413E+02  0.90000022050E+02 0.  0.
         12    1    1    2    0    0  0.11363770672E+00  0.58640519250E+00 -0.10179297152E+01  0.11802395872E+01  0.00000000000E+00 0. -1.
         11    1    3    3    0    0 -0.61092234311E+01  0.17033305134E+01 -0.36399792933E+02  0.36948191723E+02  0.51100000000E-03 0. -1.
        -11    1    3    3    0    0 -0.50493460512E+01  0.66663549791E+01 -0.39990132943E+01  0.92697514444E+01  0.51100000000E-03 0.  1.
        -12    1    3    3    0    0  0.11044931776E+02 -0.89560906849E+01  0.41416735942E+02  0.43789817246E+02  0.00000000000E+00 0.  1.
</event>
<event>
 7    1  0.1501154E-015  0.9000778E+02  0.7816164E-02  0.1186339E+00
        -11   -1    0    0    0    0  0.00000000000E+00  0.00000000000E+00  0.45593999997E+02  0.45594000000E+02  0.51100000000E-03 0. -1.
         11   -1    0    0    0    0 -0.00000000000E+00 -0.00000000000E+00 -0.45593999997E+02  0.45594000000E+02  0.51100000000E-03 0.  1.
    9900012    2    1    2    0    0  0.70286278759E+00 -0.26649232953E+00 -0.90987762148E+00  0.90007783263E+02  0.90000045202E+02 0.  0.
         12    1    1    2    0    0 -0.70286278759E+00  0.26649232953E+00  0.90987762148E+00  0.11802167369E+01  0.00000000000E+00 0. -1.
         11    1    3    3    0    0  0.10441276672E+02 -0.32336067079E+01 -0.10690967354E+01  0.10982688149E+02  0.51100000000E-03 0. -1.
        -11    1    3    3    0    0  0.13755107067E+02  0.35168779812E+02  0.74820935195E+01  0.38497113757E+02  0.51100000000E-03 0.  1.
         12    1    3    3    0    0 -0.23493520951E+02 -0.32201665434E+02 -0.73228744055E+01  0.40527981358E+02  0.00000000000E+00 0. -1.
</event>
<event>
 7    1  0.1501154E-015  0.9000781E+02  0.7816164E-02  0.1186339E+00
        -11   -1    0    0    0    0  0.00000000000E+00  0.00000000000E+00  0.45593999997E+02  0.45594000000E+02  0.51100000000E-03 0. -1.
         11   -1    0    0    0    0 -0.00000000000E+00 -0.00000000000E+00 -0.45593999997E+02  0.45594000000E+02  0.51100000000E-03 0.  1.
    9900012    2    1    2    0    0  0.56513677692E+00 -0.14700803315E+00 -0.10256037108E+01  0.90007807681E+02  0.90000069942E+02 0.  0.
         12    1    1    2    0    0 -0.56513677692E+00  0.14700803315E+00  0.10256037108E+01  0.11801923191E+01  0.00000000000E+00 0. -1.
         11    1    3    3    0    0 -0.28849201337E+02  0.25315023948E+02 -0.14217139197E+02  0.40929865654E+02  0.51100000000E-03 0. -1.
        -11    1    3    3    0    0 -0.50460377934E+01 -0.52117433076E+01  0.28309050265E+01  0.77870911929E+01  0.51100000000E-03 0.  1.
        -12    1    3    3    0    0  0.34460375907E+02 -0.20250288674E+02  0.10360630460E+02  0.41290850834E+02  0.00000000000E+00 0.  1.
</event>
<event>
 7    1  0.1693800E-015  0.9000776E+02  0.7816164E-02  0.1186339E+00
        -11   -1    0    0    0    0  0.00000000000E+00  0.00000000000E+00  0.45593999997E+02  0.45594000000E+02  0.51100000000E-03 0. -1.
         11   -1    0    0    0    0 -0.00000000000E+00 -0.00000000000E+00 -0.45593999997E+02  0.45594000000E+02  0.51100000000E-03 0.  1.
    9900012    2    1    2    0    0 -0.36564738288E+00  0.86477463423E+00 -0.71514484942E+00  0.90007760477E+02  0.90000022115E+02 0.  0.
         12    1    1    2    0    0  0.36564738288E+00 -0.86477463423E+00  0.71514484942E+00  0.11802395233E+01  0.00000000000E+00 0. -1.
         11    1    3    3    0    0 -0.22772330297E+01  0.22681160783E+01 -0.88510484408E+01  0.94165386198E+01  0.51100000000E-03 0. -1.
        -11    1    3    3    0    0 -0.22532565026E+02 -0.20773073781E+00 -0.28624279276E+02  0.36429507312E+02  0.51100000000E-03 0.  1.
         12    1    3    3    0    0  0.24444150673E+02 -0.11956107063E+01  0.36760182867E+02  0.44161714544E+02  0.00000000000E+00 0. -1.
</event>
<event>
 7    1  0.1501154E-015  0.9000772E+02  0.7816164E-02  0.1186339E+00
        -11   -1    0    0    0    0  0.00000000000E+00  0.00000000000E+00  0.45593999997E+02  0.45594000000E+02  0.51100000000E-03 0. -1.
         11   -1    0    0    0    0 -0.00000000000E+00 -0.00000000000E+00 -0.45593999997E+02  0.45594000000E+02  0.51100000000E-03 0.  1.
    9900012    2    1    2    0    0 -0.42545841024E+00 -0.52748008500E+00 -0.96633357892E+00  0.90007724318E+02  0.89999985479E+02 0.  0.
         12    1    1    2    0    0  0.42545841024E+00  0.52748008500E+00  0.96633357892E+00  0.11802756816E+01  0.00000000000E+00 0. -1.
         11    1    3    3    0    0  0.16730536790E+02  0.81987464577E+01  0.36069711832E+01  0.18977369315E+02  0.51100000000E-03 0. -1.
        -11    1    3    3    0    0 -0.18778562040E+02  0.90704362889E+01 -0.32059513179E+02  0.38245517284E+02  0.51100000000E-03 0.  1.
         12    1    3    3    0    0  0.16225668403E+01 -0.17796662832E+02  0.27486208417E+02  0.32784837719E+02  0.00000000000E+00 0. -1.
</event>
<event>
 7    1  0.1501154E-015  0.9000744E+02  0.7816164E-02  0.1186340E+00
        -11   -1    0    0    0    0  0.00000000000E+00  0.00000000000E+00  0.45593999997E+02  0.45594000000E+02  0.51100000000E-03 0.  1.
         11   -1    0    0    0    0 -0.00000000000E+00 -0.00000000000E+00 -0.45593999997E+02  0.45594000000E+02  0.51100000000E-03 0. -1.
    9900012    2    1    2    0    0  0.13577471823E+00  0.83523857132E-01  0.11697506435E+01  0.90007437602E+02  0.89999694977E+02 0.  0.
         12    1    1    2    0    0 -0.13577471823E+00 -0.83523857132E-01 -0.11697506435E+01  0.11805623985E+01  0.00000000000E+00 0. -1.
         11    1    3    3    0    0  0.10388819811E+02 -0.63518946106E+01  0.93525986811E+00  0.12212651370E+02  0.51100000000E-03 0. -1.
        -11    1    3    3    0    0  0.99150680858E+00 -0.56229658542E+00  0.37875029867E+02  0.37892177964E+02  0.51100000000E-03 0.  1.
         12    1    3    3    0    0 -0.11244551901E+02  0.69977150531E+01 -0.37640539092E+02  0.39902608267E+02  0.00000000000E+00 0. -1.
</event>
<event>
 7    1  0.1501154E-015  0.9000774E+02  0.7816164E-02  0.1186339E+00
        -11   -1    0    0    0    0  0.00000000000E+00  0.00000000000E+00  0.45593999997E+02  0.45594000000E+02  0.51100000000E-03 0.  1.
         11   -1    0    0    0    0 -0.00000000000E+00 -0.00000000000E+00 -0.45593999997E+02  0.45594000000E+02  0.51100000000E-03 0. -1.
    9900012    2    1    2    0    0  0.90746516833E+00 -0.34815296248E+00  0.66956166450E+00  0.90007738868E+02  0.90000000221E+02 0.  0.
         12    1    1    2    0    0 -0.90746516833E+00  0.34815296248E+00 -0.66956166450E+00  0.11802611319E+01  0.00000000000E+00 0. -1.
         11    1    3    3    0    0  0.27414210423E+02 -0.16767155076E+02 -0.27402039834E+02  0.42232075604E+02  0.51100000000E-03 0. -1.
        -11    1    3    3    0    0 -0.83215250415E+01 -0.36703463932E+01  0.48718225984E+00  0.91080496528E+01  0.51100000000E-03 0.  1.
        -12    1    3    3    0    0 -0.18185220214E+02  0.20089348507E+02  0.27584419239E+02  0.38667613611E+02  0.00000000000E+00 0.  1.
</event>
<event>
 7    1  0.2351705E-015  0.9000782E+02  0.7816164E-02  0.1186339E+00
        -11   -1    0    0    0    0  0.00000000000E+00  0.00000000000E+00  0.45593999997E+02  0.45594000000E+02  0.51100000000E-03 0.  1.
         11   -1    0    0    0    0 -0.00000000000E+00 -0.00000000000E+00 -0.45593999997E+02  0.45594000000E+02  0.51100000000E-03 0. -1.
    9900012    2    1    2    0    0  0.12012879720E+00  0.78011413033E+00  0.87738499540E+00  0.90007824837E+02  0.90000087325E+02 0.  0.
         12    1    1    2    0    0 -0.12012879720E+00 -0.78011413033E+00 -0.87738499540E+00  0.11801751626E+01  0.00000000000E+00 0. -1.
         11    1    3    3    0    0  0.19939354145E+02  0.57687545533E+01 -0.33275046574E+02  0.39218428036E+02  0.51100000000E-03 0. -1.
        -11    1    3    3    0    0  0.74569290617E-03 -0.89202023283E+01 -0.22100427008E+01  0.91899020198E+01  0.51100000000E-03 0.  1.
        -12    1    3    3    0    0 -0.19819971041E+02  0.39315619053E+01  0.36362474270E+02  0.41599494782E+02  0.00000000000E+00 0.  1.
</event>
<event>
 7    1  0.1501154E-015  0.9000854E+02  0.7816164E-02  0.1186337E+00
        -11   -1    0    0    0    0  0.00000000000E+00  0.00000000000E+00  0.45593999997E+02  0.45594000000E+02  0.51100000000E-03 0. -1.
         11   -1    0    0    0    0 -0.00000000000E+00 -0.00000000000E+00 -0.45593999997E+02  0.45594000000E+02  0.51100000000E-03 0.  1.
    9900012    2    1    2    0    0 -0.71836921627E-01  0.22378441441E+00  0.11558029377E+01  0.90008542312E+02  0.90000814267E+02 0.  0.
         12    1    1    2    0    0  0.71836921627E-01 -0.22378441441E+00 -0.11558029377E+01  0.11794576882E+01  0.00000000000E+00 0. -1.
         11    1    3    3    0    0  0.87965459306E+01 -0.27099931988E+01  0.34572381906E+01  0.98323842284E+01  0.51100000000E-03 0. -1.
        -11    1    3    3    0    0 -0.53906134925E+01 -0.33761355431E+01 -0.40656103806E+02  0.41150647407E+02  0.51100000000E-03 0.  1.
         12    1    3    3    0    0 -0.34777693598E+01  0.63099131563E+01  0.38354668553E+02  0.39025510677E+02  0.00000000000E+00 0. -1.
</event>
<event>
 7    1  0.1501154E-015  0.9000774E+02  0.7816164E-02  0.1186339E+00
        -11   -1    0    0    0    0  0.00000000000E+00  0.00000000000E+00  0.45593999997E+02  0.45594000000E+02  0.51100000000E-03 0.  1.
         11   -1    0    0    0    0 -0.00000000000E+00 -0.00000000000E+00 -0.45593999997E+02  0.45594000000E+02  0.51100000000E-03 0. -1.
    9900012    2    1    2    0    0  0.49227850243E+00  0.99372373870E+00  0.40396544090E+00  0.90007740253E+02  0.90000001624E+02 0.  0.
         12    1    1    2    0    0 -0.49227850243E+00 -0.99372373870E+00 -0.40396544090E+00  0.11802597469E+01  0.00000000000E+00 0. -1.
         11    1    3    3    0    0 -0.27127284310E+01 -0.81803138827E+01 -0.36892238043E+01  0.93747961738E+01  0.51100000000E-03 0. -1.
        -11    1    3    3    0    0 -0.22247740751E+02 -0.21956052058E+02  0.20308549470E+02  0.37275559987E+02  0.51100000000E-03 0.  1.
         12    1    3    3    0    0  0.25452747684E+02  0.31130089679E+02 -0.16215360225E+02  0.43357384093E+02  0.00000000000E+00 0. -1.
</event>
<event>
 7    1  0.1501154E-015  0.9000780E+02  0.7816164E-02  0.1186339E+00
        -11   -1    0    0    0    0  0.00000000000E+00  0.00000000000E+00  0.45593999997E+02  0.45594000000E+02  0.51100000000E-03 0.  1.
         11   -1    0    0    0    0 -0.00000000000E+00 -0.00000000000E+00 -0.45593999997E+02  0.45594000000E+02  0.51100000000E-03 0. -1.
    9900012    2    1    2    0    0 -0.93786137461E+00  0.69160275737E+00  0.18701575556E+00  0.90007799498E+02  0.90000061651E+02 0.  0.
         12    1    1    2    0    0  0.93786137461E+00 -0.69160275737E+00 -0.18701575556E+00  0.11802005020E+01  0.00000000000E+00 0. -1.
         11    1    3    3    0    0  0.81750785087E+01 -0.15644694951E+02 -0.31890832496E+02  0.36450152074E+02  0.51100000000E-03 0. -1.
        -11    1    3    3    0    0 -0.65051418339E+00 -0.10536531906E+00 -0.87304118427E+01  0.87552476696E+01  0.51100000000E-03 0.  1.
        -12    1    3    3    0    0 -0.84624256999E+01  0.16441663027E+02  0.40808260094E+02  0.44802399754E+02  0.00000000000E+00 0.  1.
</event>
<event>
 7    1  0.1775124E-015  0.9000791E+02  0.7816164E-02  0.1186339E+00
        -11   -1    0    0    0    0  0.00000000000E+00  0.00000000000E+00  0.45593999997E+02  0.45594000000E+02  0.51100000000E-03 0. -1.
         11   -1    0    0    0    0 -0.00000000000E+00 -0.00000000000E+00 -0.45593999997E+02  0.45594000000E+02  0.51100000000E-03 0.  1.
    9900012    2    1    2    0    0  0.75209483729E+00  0.88330643310E+00 -0.21619667280E+00  0.90007907673E+02  0.90000171254E+02 0.  0.
         12    1    1    2    0    0 -0.75209483729E+00 -0.88330643310E+00  0.21619667280E+00  0.11800923271E+01  0.00000000000E+00 0. -1.
         11    1    3    3    0    0 -0.19782478377E+02 -0.19565817578E+02  0.23458749629E+02  0.36393414276E+02  0.51100000000E-03 0. -1.
        -11    1    3    3    0    0 -0.62011581395E+00 -0.93004662058E+01  0.12614557416E+01  0.94060877158E+01  0.51100000000E-03 0.  1.
        -12    1    3    3    0    0  0.21154689029E+02  0.29749590217E+02 -0.24936402043E+02  0.44208405681E+02  0.00000000000E+00 0.  1.
</event>
<event>
 7    1  0.1501154E-015  0.9000797E+02  0.7816164E-02  0.1186339E+00
        -11   -1    0    0    0    0  0.00000000000E+00  0.00000000000E+00  0.45593999997E+02  0.45594000000E+02  0.51100000000E-03 0. -1.
         11   -1    0    0    0    0 -0.00000000000E+00 -0.00000000000E+00 -0.45593999997E+02  0.45594000000E+02  0.51100000000E-03 0.  1.
    9900012    2    1    2    0    0  0.40936666812E+00  0.21690615549E+00 -0.10852886397E+01  0.90007965771E+02  0.90000230119E+02 0.  0.
         12    1    1    2    0    0 -0.40936666812E+00 -0.21690615549E+00  0.10852886397E+01  0.11800342286E+01  0.00000000000E+00 0. -1.
         11    1    3    3    0    0  0.87835911446E+01 -0.17016771573E+02  0.20031570179E+02  0.27712556581E+02  0.51100000000E-03 0. -1.
        -11    1    3    3    0    0  0.46985632451E+01  0.46608552248E+01  0.17999992649E+02  0.19178107405E+02  0.51100000000E-03 0.  1.
        -12    1    3    3    0    0 -0.13072787721E+02  0.12572822504E+02 -0.39116851468E+02  0.43117301786E+02  0.00000000000E+00 0.  1.
</event>
<event>
 7    1  0.1501154E-015  0.9000776E+02  0.7816164E-02  0.1186339E+00
        -11   -1    0    0    0    0  0.00000000000E+00  0.00000000000E+00  0.45593999997E+02  0.45594000000E+02  0.51100000000E-03 0. -1.
         11   -1    0    0    0    0 -0.00000000000E+00 -0.00000000000E+00 -0.45593999997E+02  0.45594000000E+02  0.51100000000E-03 0.  1.
    9900012    2    1    2    0    0 -0.67546757127E+00 -0.88068149857E+00  0.40137584100E+00  0.90007763199E+02  0.90000024873E+02 0.  0.
         12    1    1    2    0    0  0.67546757127E+00  0.88068149857E+00 -0.40137584100E+00  0.11802368015E+01  0.00000000000E+00 0. -1.
         11    1    3    3    0    0  0.13026739742E+00  0.48361249087E+01 -0.99778966446E+01  0.11088890632E+02  0.51100000000E-03 0. -1.
        -11    1    3    3    0    0  0.56614114791E+00  0.22813363475E+02 -0.24735335106E+02  0.33654225171E+02  0.51100000000E-03 0.  1.
         12    1    3    3    0    0 -0.13718761166E+01 -0.28530169882E+02  0.35114607591E+02  0.45264647396E+02  0.00000000000E+00 0. -1.
</event>
<event>
 7    1  0.1501154E-015  0.9000785E+02  0.7816164E-02  0.1186339E+00
        -11   -1    0    0    0    0  0.00000000000E+00  0.00000000000E+00  0.45593999997E+02  0.45594000000E+02  0.51100000000E-03 0. -1.
         11   -1    0    0    0    0 -0.00000000000E+00 -0.00000000000E+00 -0.45593999997E+02  0.45594000000E+02  0.51100000000E-03 0.  1.
    9900012    2    1    2    0    0 -0.26693136907E+00 -0.95527386097E+00  0.63950037889E+00  0.90007846942E+02  0.90000109722E+02 0.  0.
         12    1    1    2    0    0  0.26693136907E+00  0.95527386097E+00 -0.63950037889E+00  0.11801530578E+01  0.00000000000E+00 0. -1.
         11    1    3    3    0    0 -0.14349067913E+00 -0.82662110159E+01  0.34311289174E+01  0.89511719927E+01  0.51100000000E-03 0. -1.
        -11    1    3    3    0    0 -0.19841199821E+02  0.18461768042E-01 -0.36375783575E+02  0.41435144288E+02  0.51100000000E-03 0.  1.
         12    1    3    3    0    0  0.19717759131E+02  0.72924753868E+01  0.33584155037E+02  0.39621530662E+02  0.00000000000E+00 0. -1.
</event>
<event>
 7    1  0.1780246E-015  0.9000761E+02  0.7816164E-02  0.1186339E+00
        -11   -1    0    0    0    0  0.00000000000E+00  0.00000000000E+00  0.45593999997E+02  0.45594000000E+02  0.51100000000E-03 0. -1.
         11   -1    0    0    0    0 -0.00000000000E+00 -0.00000000000E+00 -0.45593999997E+02  0.45594000000E+02  0.51100000000E-03 0.  1.
    9900012    2    1    2    0    0  0.23876964979E+00  0.88144377644E+00 -0.74791299629E+00  0.90007606876E+02  0.89999866487E+02 0.  0.
         12    1    1    2    0    0 -0.23876964979E+00 -0.88144377644E+00  0.74791299629E+00  0.11803931238E+01  0.00000000000E+00 0. -1.
         11    1    3    3    0    0  0.26107141333E+02 -0.28644358354E+02  0.15606083940E+02  0.41780760528E+02  0.51100000000E-03 0. -1.
        -11    1    3    3    0    0  0.20185372730E+01  0.38507375716E+01 -0.84534291570E+01  0.95059527320E+01  0.51100000000E-03 0.  1.
        -12    1    3    3    0    0 -0.27886908956E+02  0.25675064559E+02 -0.79005677788E+01  0.38720893616E+02  0.00000000000E+00 0.  1.
</event>
<event>
 7    1  0.1501154E-015  0.9000775E+02  0.7816164E-02  0.1186339E+00
        -11   -1    0    0    0    0  0.00000000000E+00  0.00000000000E+00  0.45593999997E+02  0.45594000000E+02  0.51100000000E-03 0.  1.
         11   -1    0    0    0    0 -0.00000000000E+00 -0.00000000000E+00 -0.45593999997E+02  0.45594000000E+02  0.51100000000E-03 0. -1.
    9900012    2    1    2    0    0  0.28972931257E+00  0.76282783778E+00  0.85272218959E+00  0.90007752349E+02  0.90000013880E+02 0.  0.
         12    1    1    2    0    0 -0.28972931257E+00 -0.76282783778E+00 -0.85272218959E+00  0.11802476508E+01  0.00000000000E+00 0. -1.
         11    1    3    3    0    0  0.29150749556E+01  0.65559970905E+01  0.81974433528E+01  0.10893889922E+02  0.51100000000E-03 0. -1.
        -11    1    3    3    0    0  0.24837889043E+02 -0.14038802106E+02  0.23526742797E+02  0.36979944883E+02  0.51100000000E-03 0.  1.
         12    1    3    3    0    0 -0.27463234686E+02  0.82456328530E+01 -0.30871463960E+02  0.42133917544E+02  0.00000000000E+00 0. -1.
</event>
<event>
 7    1  0.1501154E-015  0.9000809E+02  0.7816164E-02  0.1186338E+00
        -11   -1    0    0    0    0  0.00000000000E+00  0.00000000000E+00  0.45593999997E+02  0.45594000000E+02  0.51100000000E-03 0.  1.
         11   -1    0    0    0    0 -0.00000000000E+00 -0.00000000000E+00 -0.45593999997E+02  0.45594000000E+02  0.51100000000E-03 0. -1.
    9900012    2    1    2    0    0  0.58255455666E+00  0.10233765296E+01  0.74241962985E-01  0.90008092715E+02  0.90000358738E+02 0.  0.
         12    1    1    2    0    0 -0.58255455666E+00 -0.10233765296E+01 -0.74241962985E-01  0.11799072853E+01  0.00000000000E+00 0. -1.
         11    1    3    3    0    0 -0.73320701100E+01 -0.25581651935E+01  0.31771634706E+01  0.83903414254E+01  0.51100000000E-03 0. -1.
        -11    1    3    3    0    0  0.35543278669E+02  0.41057242627E+01  0.23862915657E+02  0.43007213048E+02  0.51100000000E-03 0.  1.
         12    1    3    3    0    0 -0.27628654002E+02 -0.52418253958E+00 -0.26965837164E+02  0.38610538241E+02  0.00000000000E+00 0. -1.
</event>
<event>
 7    1  0.1501154E-015  0.9000776E+02  0.7816164E-02  0.1186339E+00
        -11   -1    0    0    0    0  0.00000000000E+00  0.00000000000E+00  0.45593999997E+02  0.45594000000E+02  0.51100000000E-03 0. -1.
         11   -1    0    0    0    0 -0.00000000000E+00 -0.00000000000E+00 -0.45593999997E+02  0.45594000000E+02  0.51100000000E-03 0.  1.
    9900012    2    1    2    0    0 -0.82430055263E+00 -0.21101683070E+00 -0.81789728408E+00  0.90007764654E+02  0.90000026348E+02 0.  0.
         12    1    1    2    0    0  0.82430055263E+00  0.21101683070E+00  0.81789728408E+00  0.11802353457E+01  0.00000000000E+00 0. -1.
         11    1    3    3    0    0  0.13297007847E+02 -0.82746384180E+01 -0.13784428470E+02  0.20863617307E+02  0.51100000000E-03 0. -1.
        -11    1    3    3    0    0 -0.17816195360E+02 -0.19893577472E+02  0.26712482190E+02  0.37772052456E+02  0.51100000000E-03 0.  1.
         12    1    3    3    0    0  0.36948869599E+01  0.27957199059E+02 -0.13745951004E+02  0.31372094891E+02  0.00000000000E+00 0. -1.
</event>
<event>
 7    1  0.1501154E-015  0.9000754E+02  0.7816164E-02  0.1186339E+00
        -11   -1    0    0    0    0  0.00000000000E+00  0.00000000000E+00  0.45593999997E+02  0.45594000000E+02  0.51100000000E-03 0.  1.
         11   -1    0    0    0    0 -0.00000000000E+00 -0.00000000000E+00 -0.45593999997E+02  0.45594000000E+02  0.51100000000E-03 0. -1.
    9900012    2    1    2    0    0  0.73098989406E+00  0.92365962196E+00  0.77335131293E-01  0.90007544984E+02  0.89999803777E+02 0.  0.
         12    1    1    2    0    0 -0.73098989406E+00 -0.92365962196E+00 -0.77335131293E-01  0.11804550161E+01  0.00000000000E+00 0. -1.
         11    1    3    3    0    0 -0.27066855179E+02  0.73940324535E+01 -0.23823409204E+02  0.36808167457E+02  0.51100000000E-03 0. -1.
        -11    1    3    3    0    0 -0.59578709365E+01  0.42363784205E+01 -0.38001080795E+01  0.82391716753E+01  0.51100000000E-03 0.  1.
        -12    1    3    3    0    0  0.33755716010E+02 -0.10706751252E+02  0.27700852415E+02  0.44960205851E+02  0.00000000000E+00 0.  1.
</event>
<event>
 7    1  0.1501154E-015  0.9000777E+02  0.7816164E-02  0.1186339E+00
        -11   -1    0    0    0    0  0.00000000000E+00  0.00000000000E+00  0.45593999997E+02  0.45594000000E+02  0.51100000000E-03 0.  1.
         11   -1    0    0    0    0 -0.00000000000E+00 -0.00000000000E+00 -0.45593999997E+02  0.45594000000E+02  0.51100000000E-03 0. -1.
    9900012    2    1    2    0    0 -0.86308190918E+00  0.33768833076E+00  0.73074763487E+00  0.90007772947E+02  0.90000034750E+02 0.  0.
         12    1    1    2    0    0  0.86308190918E+00 -0.33768833076E+00 -0.73074763487E+00  0.11802270530E+01  0.00000000000E+00 0. -1.
         11    1    3    3    0    0 -0.28891356148E+02 -0.82049463465E+01 -0.26687809835E+02  0.40177988982E+02  0.51100000000E-03 0. -1.
        -11    1    3    3    0    0  0.41820840621E+01  0.54397266638E+01 -0.56872056198E+01  0.89120570747E+01  0.51100000000E-03 0.  1.
        -12    1    3    3    0    0  0.23846190177E+02  0.31029080134E+01  0.33105763090E+02  0.40917726890E+02  0.00000000000E+00 0.  1.
</event>
<event>
 7    1  0.1501154E-015  0.9000772E+02  0.7816164E-02  0.1186339E+00
        -11   -1    0    0    0    0  0.00000000000E+00  0.00000000000E+00  0.45593999997E+02  0.45594000000E+02  0.51100000000E-03 0. -1.
         11   -1    0    0    0    0 -0.00000000000E+00 -0.00000000000E+00 -0.45593999997E+02  0.45594000000E+02  0.51100000000E-03 0.  1.
    9900012    2    1    2    0    0  0.56864569615E-01 -0.18623157900E+00 -0.11641047831E+01  0.90007722183E+02  0.89999983315E+02 0.  0.
         12    1    1    2    0    0 -0.56864569615E-01  0.18623157900E+00  0.11641047831E+01  0.11802778174E+01  0.00000000000E+00 0. -1.
         11    1    3    3    0    0 -0.49807038959E+01  0.11933653484E+02  0.18024868913E+02  0.22183674096E+02  0.51100000000E-03 0.  1.
        -11    1    3    3    0    0 -0.28786721365E+02 -0.93248679157E+01 -0.35906732514E+01  0.30471649500E+02  0.51100000000E-03 0. -1.
        -12    1    3    3    0    0  0.33824289831E+02 -0.27950171475E+01 -0.15598300445E+02  0.37352398587E+02  0.00000000000E+00 0.  1.
</event>
<event>
 7    1  0.1501154E-015  0.9000775E+02  0.7816164E-02  0.1186339E+00
        -11   -1    0    0    0    0  0.00000000000E+00  0.00000000000E+00  0.45593999997E+02  0.45594000000E+02  0.51100000000E-03 0. -1.
         11   -1    0    0    0    0 -0.00000000000E+00 -0.00000000000E+00 -0.45593999997E+02  0.45594000000E+02  0.51100000000E-03 0.  1.
    9900012    2    1    2    0    0 -0.94791109111E+00  0.15219118188E+00 -0.68650580183E+00  0.90007750955E+02  0.90000012468E+02 0.  0.
         12    1    1    2    0    0  0.94791109111E+00 -0.15219118188E+00  0.68650580183E+00  0.11802490451E+01  0.00000000000E+00 0. -1.
         11    1    3    3    0    0 -0.40311983553E+01 -0.19795188431E+01  0.75156776731E+01  0.87552536329E+01  0.51100000000E-03 0. -1.
        -11    1    3    3    0    0 -0.28455286226E+02 -0.11325225924E+02  0.20233475769E+02  0.36706369998E+02  0.51100000000E-03 0.  1.
         12    1    3    3    0    0  0.31538573490E+02  0.13456935949E+02 -0.28435659244E+02  0.44546127324E+02  0.00000000000E+00 0. -1.
</event>
<event>
 7    1  0.1501154E-015  0.9000779E+02  0.7816164E-02  0.1186339E+00
        -11   -1    0    0    0    0  0.00000000000E+00  0.00000000000E+00  0.45593999997E+02  0.45594000000E+02  0.51100000000E-03 0.  1.
         11   -1    0    0    0    0 -0.00000000000E+00 -0.00000000000E+00 -0.45593999997E+02  0.45594000000E+02  0.51100000000E-03 0. -1.
    9900012    2    1    2    0    0  0.91135082739E+00  0.15857869426E-01  0.74972307811E+00  0.90007789639E+02  0.90000051662E+02 0.  0.
         12    1    1    2    0    0 -0.91135082739E+00 -0.15857869426E-01 -0.74972307811E+00  0.11802103611E+01  0.00000000000E+00 0. -1.
         11    1    3    3    0    0 -0.20538580311E+01 -0.75913121096E+01 -0.32054647291E+01  0.84924293785E+01  0.51100000000E-03 0. -1.
        -11    1    3    3    0    0  0.13362184798E+02 -0.29693723271E+02  0.21483280186E+02  0.39010210357E+02  0.51100000000E-03 0.  1.
         12    1    3    3    0    0 -0.10396975939E+02  0.37300893250E+02 -0.17528092379E+02  0.42505149904E+02  0.00000000000E+00 0. -1.
</event>
<event>
 7    1  0.1501154E-015  0.9000766E+02  0.7816164E-02  0.1186339E+00
        -11   -1    0    0    0    0  0.00000000000E+00  0.00000000000E+00  0.45593999997E+02  0.45594000000E+02  0.51100000000E-03 0.  1.
         11   -1    0    0    0    0 -0.00000000000E+00 -0.00000000000E+00 -0.45593999997E+02  0.45594000000E+02  0.51100000000E-03 0. -1.
    9900012    2    1    2    0    0 -0.78714393644E+00  0.74788205324E+00  0.46291206514E+00  0.90007656524E+02  0.89999916790E+02 0.  0.
         12    1    1    2    0    0  0.78714393644E+00 -0.74788205324E+00 -0.46291206514E+00  0.11803434764E+01  0.00000000000E+00 0. -1.
         11    1    3    3    0    0  0.14853687581E+01  0.27157246132E+02 -0.66642381847E+00  0.27206000419E+02  0.51100000000E-03 0. -1.
        -11    1    3    3    0    0  0.21802322239E+02 -0.77809570142E+01 -0.15745801178E+02  0.27996692699E+02  0.51100000000E-03 0.  1.
         12    1    3    3    0    0 -0.24074834933E+02 -0.18628407065E+02  0.16875137062E+02  0.34804963406E+02  0.00000000000E+00 0. -1.
</event>
<event>
 7    1  0.1501154E-015  0.9000772E+02  0.7816164E-02  0.1186339E+00
        -11   -1    0    0    0    0  0.00000000000E+00  0.00000000000E+00  0.45593999997E+02  0.45594000000E+02  0.51100000000E-03 0.  1.
         11   -1    0    0    0    0 -0.00000000000E+00 -0.00000000000E+00 -0.45593999997E+02  0.45594000000E+02  0.51100000000E-03 0. -1.
    9900012    2    1    2    0    0  0.42243921750E+00  0.10954108169E+01 -0.12114493949E+00  0.90007722132E+02  0.89999983264E+02 0.  0.
         12    1    1    2    0    0 -0.42243921750E+00 -0.10954108169E+01  0.12114493949E+00  0.11802778684E+01  0.00000000000E+00 0. -1.
         11    1    3    3    0    0 -0.32210625135E+01 -0.76241645677E+01  0.62702101061E+01  0.10383576653E+02  0.51100000000E-03 0. -1.
        -11    1    3    3    0    0  0.39651561622E+02 -0.33776445440E+01 -0.11184760405E+02  0.41337074005E+02  0.51100000000E-03 0.  1.
         12    1    3    3    0    0 -0.36008059891E+02  0.12097219929E+02  0.47934053595E+01  0.38287071474E+02  0.00000000000E+00 0. -1.
</event>
<event>
 7    1  0.1501154E-015  0.9000771E+02  0.7816164E-02  0.1186339E+00
        -11   -1    0    0    0    0  0.00000000000E+00  0.00000000000E+00  0.45593999997E+02  0.45594000000E+02  0.51100000000E-03 0.  1.
         11   -1    0    0    0    0 -0.00000000000E+00 -0.00000000000E+00 -0.45593999997E+02  0.45594000000E+02  0.51100000000E-03 0. -1.
    9900012    2    1    2    0    0 -0.48632078744E+00 -0.10718738417E+01  0.87505929402E-01  0.90007712438E+02  0.89999973442E+02 0.  0.
         12    1    1    2    0    0  0.48632078744E+00  0.10718738417E+01 -0.87505929402E-01  0.11802875617E+01  0.00000000000E+00 0. -1.
         11    1    3    3    0    0  0.71106039664E+01  0.93752768424E+01 -0.71654880296E+01  0.13776818341E+02  0.51100000000E-03 0. -1.
        -11    1    3    3    0    0  0.20388404607E+01  0.17449640692E+02  0.32791689912E+02  0.37201367693E+02  0.51100000000E-03 0.  1.
         12    1    3    3    0    0 -0.96357652145E+01 -0.27896791376E+02 -0.25538695953E+02  0.39029526404E+02  0.00000000000E+00 0. -1.
</event>
<event>
 7    1  0.1501154E-015  0.9000778E+02  0.7816164E-02  0.1186339E+00
        -11   -1    0    0    0    0  0.00000000000E+00  0.00000000000E+00  0.45593999997E+02  0.45594000000E+02  0.51100000000E-03 0.  1.
         11   -1    0    0    0    0 -0.00000000000E+00 -0.00000000000E+00 -0.45593999997E+02  0.45594000000E+02  0.51100000000E-03 0. -1.
    9900012    2    1    2    0    0 -0.23534021372E+00 -0.90995528410E+00  0.71380618367E+00  0.90007778452E+02  0.90000040327E+02 0.  0.
         12    1    1    2    0    0  0.23534021372E+00  0.90995528410E+00 -0.71380618367E+00  0.11802215483E+01  0.00000000000E+00 0. -1.
         11    1    3    3    0    0 -0.20070584045E+02  0.34822360574E+02 -0.13036548800E+02  0.42253718709E+02  0.51100000000E-03 0. -1.
        -11    1    3    3    0    0 -0.87824829150E+00 -0.85888982286E+01 -0.37189222690E+01  0.94005784900E+01  0.51100000000E-03 0.  1.
        -12    1    3    3    0    0  0.20713492123E+02 -0.27143417629E+02  0.17469277253E+02  0.38353481253E+02  0.00000000000E+00 0.  1.
</event>
<event>
 7    1  0.1501154E-015  0.9000780E+02  0.7816164E-02  0.1186339E+00
        -11   -1    0    0    0    0  0.00000000000E+00  0.00000000000E+00  0.45593999997E+02  0.45594000000E+02  0.51100000000E-03 0.  1.
         11   -1    0    0    0    0 -0.00000000000E+00 -0.00000000000E+00 -0.45593999997E+02  0.45594000000E+02  0.51100000000E-03 0. -1.
    9900012    2    1    2    0    0 -0.14687984288E+00  0.11259523219E+01  0.32174520142E+00  0.90007804129E+02  0.90000066343E+02 0.  0.
         12    1    1    2    0    0  0.14687984288E+00 -0.11259523219E+01 -0.32174520142E+00  0.11801958711E+01  0.00000000000E+00 0. -1.
         11    1    3    3    0    0  0.11694540772E+02  0.18319148517E+00 -0.72352097528E+01  0.13752967076E+02  0.51100000000E-03 0. -1.
        -11    1    3    3    0    0 -0.20747680640E+02 -0.14871073981E+02 -0.27040388124E+02  0.37185987730E+02  0.51100000000E-03 0.  1.
         12    1    3    3    0    0  0.89062600254E+01  0.15813834818E+02  0.34597343078E+02  0.39068849322E+02  0.00000000000E+00 0. -1.
</event>
<event>
 7    1  0.1501154E-015  0.9000780E+02  0.7816164E-02  0.1186339E+00
        -11   -1    0    0    0    0  0.00000000000E+00  0.00000000000E+00  0.45593999997E+02  0.45594000000E+02  0.51100000000E-03 0. -1.
         11   -1    0    0    0    0 -0.00000000000E+00 -0.00000000000E+00 -0.45593999997E+02  0.45594000000E+02  0.51100000000E-03 0.  1.
    9900012    2    1    2    0    0 -0.53750566892E+00  0.43208014406E+00 -0.95773846942E+00  0.90007801470E+02  0.90000063649E+02 0.  0.
         12    1    1    2    0    0  0.53750566892E+00 -0.43208014406E+00  0.95773846942E+00  0.11801985303E+01  0.00000000000E+00 0. -1.
         11    1    3    3    0    0 -0.54467639516E+01  0.93578824724E+01  0.76146690737E+01  0.13237083790E+02  0.51100000000E-03 0. -1.
        -11    1    3    3    0    0 -0.17358731450E+02  0.24998248842E+02  0.10147569545E+02  0.32081321211E+02  0.51100000000E-03 0.  1.
         12    1    3    3    0    0  0.22267989732E+02 -0.33924051170E+02 -0.18719977088E+02  0.44689396468E+02  0.00000000000E+00 0. -1.
</event>
<event>
 7    1  0.1501154E-015  0.9000773E+02  0.7816164E-02  0.1186339E+00
        -11   -1    0    0    0    0  0.00000000000E+00  0.00000000000E+00  0.45593999997E+02  0.45594000000E+02  0.51100000000E-03 0.  1.
         11   -1    0    0    0    0 -0.00000000000E+00 -0.00000000000E+00 -0.45593999997E+02  0.45594000000E+02  0.51100000000E-03 0. -1.
    9900012    2    1    2    0    0  0.83745862870E+00 -0.47450942992E+00 -0.68303130646E+00  0.90007733962E+02  0.89999995251E+02 0.  0.
         12    1    1    2    0    0 -0.83745862870E+00  0.47450942992E+00  0.68303130646E+00  0.11802660376E+01  0.00000000000E+00 0. -1.
         11    1    3    3    0    0  0.67867132397E+00 -0.10539366889E+02  0.22201993024E+01  0.10792040325E+02  0.51100000000E-03 0. -1.
        -11    1    3    3    0    0  0.72126625959E+01 -0.33875850785E+02 -0.30305982165E+00  0.34636506950E+02  0.51100000000E-03 0.  1.
         12    1    3    3    0    0 -0.70538752912E+01  0.43940708244E+02 -0.26001707872E+01  0.44579186688E+02  0.00000000000E+00 0. -1.
</event>
<event>
 7    1  0.1501154E-015  0.9000776E+02  0.7816164E-02  0.1186339E+00
        -11   -1    0    0    0    0  0.00000000000E+00  0.00000000000E+00  0.45593999997E+02  0.45594000000E+02  0.51100000000E-03 0.  1.
         11   -1    0    0    0    0 -0.00000000000E+00 -0.00000000000E+00 -0.45593999997E+02  0.45594000000E+02  0.51100000000E-03 0. -1.
    9900012    2    1    2    0    0  0.72964877640E-01  0.11547561446E+01  0.23278379638E+00  0.90007756837E+02  0.90000018428E+02 0.  0.
         12    1    1    2    0    0 -0.72964877640E-01 -0.11547561446E+01 -0.23278379638E+00  0.11802431626E+01  0.00000000000E+00 0. -1.
         11    1    3    3    0    0 -0.45573057619E+01 -0.83758180050E+01 -0.30406517993E+01  0.10008442770E+02  0.51100000000E-03 0. -1.
        -11    1    3    3    0    0 -0.54680949713E+01 -0.33887910605E+02 -0.49143401709E+01  0.34676235196E+02  0.51100000000E-03 0.  1.
         12    1    3    3    0    0  0.10098365611E+02  0.43418484754E+02  0.81877757666E+01  0.45323078871E+02  0.00000000000E+00 0. -1.
</event>
<event>
 7    1  0.1501154E-015  0.9000774E+02  0.7816164E-02  0.1186339E+00
        -11   -1    0    0    0    0  0.00000000000E+00  0.00000000000E+00  0.45593999997E+02  0.45594000000E+02  0.51100000000E-03 0. -1.
         11   -1    0    0    0    0 -0.00000000000E+00 -0.00000000000E+00 -0.45593999997E+02  0.45594000000E+02  0.51100000000E-03 0.  1.
    9900012    2    1    2    0    0  0.56762311738E+00 -0.67280297485E+00  0.78622828035E+00  0.90007739539E+02  0.90000000901E+02 0.  0.
         12    1    1    2    0    0 -0.56762311738E+00  0.67280297485E+00 -0.78622828035E+00  0.11802604607E+01  0.00000000000E+00 0. -1.
         11    1    3    3    0    0  0.31329425171E+01 -0.42632308054E+02  0.14441677802E+01  0.42771656967E+02  0.51100000000E-03 0. -1.
        -11    1    3    3    0    0  0.14173502873E+01  0.54253622015E+01  0.77210295499E+01  0.95424176405E+01  0.51100000000E-03 0.  1.
        -12    1    3    3    0    0 -0.39826696870E+01  0.36534142878E+02 -0.83789690497E+01  0.37693664932E+02  0.00000000000E+00 0.  1.
</event>
<event>
 7    1  0.1501154E-015  0.9000769E+02  0.7816164E-02  0.1186339E+00
        -11   -1    0    0    0    0  0.00000000000E+00  0.00000000000E+00  0.45593999997E+02  0.45594000000E+02  0.51100000000E-03 0.  1.
         11   -1    0    0    0    0 -0.00000000000E+00 -0.00000000000E+00 -0.45593999997E+02  0.45594000000E+02  0.51100000000E-03 0. -1.
    9900012    2    1    2    0    0  0.19426440319E+00  0.11629348309E+01 -0.54468997423E-01  0.90007693705E+02  0.89999954461E+02 0.  0.
         12    1    1    2    0    0 -0.19426440319E+00 -0.11629348309E+01  0.54468997423E-01  0.11803062954E+01  0.00000000000E+00 0. -1.
         11    1    3    3    0    0 -0.87644405438E+01  0.35351179058E+02  0.29055285881E+01  0.36537150621E+02  0.51100000000E-03 0. -1.
        -11    1    3    3    0    0  0.80862286347E+01  0.76150759369E+01  0.22552221957E+01  0.11334129983E+02  0.51100000000E-03 0.  1.
        -12    1    3    3    0    0  0.87247631232E+00 -0.41803320164E+02 -0.52152197812E+01  0.42136413101E+02  0.00000000000E+00 0.  1.
</event>
<event>
 7    1  0.1501154E-015  0.9000776E+02  0.7816164E-02  0.1186339E+00
        -11   -1    0    0    0    0  0.00000000000E+00  0.00000000000E+00  0.45593999997E+02  0.45594000000E+02  0.51100000000E-03 0.  1.
         11   -1    0    0    0    0 -0.00000000000E+00 -0.00000000000E+00 -0.45593999997E+02  0.45594000000E+02  0.51100000000E-03 0. -1.
    9900012    2    1    2    0    0 -0.18802961279E+00  0.10731754910E+01 -0.45377541248E+00  0.90007757273E+02  0.90000018869E+02 0.  0.
         12    1    1    2    0    0  0.18802961279E+00 -0.10731754910E+01  0.45377541248E+00  0.11802427271E+01  0.00000000000E+00 0. -1.
         11    1    3    3    0    0  0.18436267326E+02 -0.29623478340E+02 -0.24494595191E+02  0.42631345460E+02  0.51100000000E-03 0. -1.
        -11    1    3    3    0    0  0.16940009316E+01  0.95293158567E+01  0.38382296580E+00  0.96863212926E+01  0.51100000000E-03 0.  1.
        -12    1    3    3    0    0 -0.20318297871E+02  0.21167337974E+02  0.23656996813E+02  0.37690090521E+02  0.00000000000E+00 0.  1.
</event>
<event>
 7    1  0.1501154E-015  0.9000778E+02  0.7816164E-02  0.1186339E+00
        -11   -1    0    0    0    0  0.00000000000E+00  0.00000000000E+00  0.45593999997E+02  0.45594000000E+02  0.51100000000E-03 0.  1.
         11   -1    0    0    0    0 -0.00000000000E+00 -0.00000000000E+00 -0.45593999997E+02  0.45594000000E+02  0.51100000000E-03 0. -1.
    9900012    2    1    2    0    0  0.94723453304E+00 -0.60412425790E-01 -0.70144687093E+00  0.90007775176E+02  0.90000037009E+02 0.  0.
         12    1    1    2    0    0 -0.94723453304E+00  0.60412425790E-01  0.70144687093E+00  0.11802248237E+01  0.00000000000E+00 0. -1.
         11    1    3    3    0    0 -0.56221763819E+01  0.96085112565E+01  0.28078884712E+00  0.11136031541E+02  0.51100000000E-03 0. -1.
        -11    1    3    3    0    0 -0.17001832252E+02 -0.35741902427E+02  0.12068602472E+02  0.41378702915E+02  0.51100000000E-03 0.  1.
         12    1    3    3    0    0  0.23571243167E+02  0.26072978744E+02 -0.13050838190E+02  0.37493040721E+02  0.00000000000E+00 0. -1.
</event>
<event>
 7    1  0.1501154E-015  0.9000775E+02  0.7816164E-02  0.1186339E+00
        -11   -1    0    0    0    0  0.00000000000E+00  0.00000000000E+00  0.45593999997E+02  0.45594000000E+02  0.51100000000E-03 0.  1.
         11   -1    0    0    0    0 -0.00000000000E+00 -0.00000000000E+00 -0.45593999997E+02  0.45594000000E+02  0.51100000000E-03 0. -1.
    9900012    2    1    2    0    0  0.60538475879E+00 -0.44490783985E+00  0.91024538241E+00  0.90007754115E+02  0.90000015670E+02 0.  0.
         12    1    1    2    0    0 -0.60538475879E+00  0.44490783985E+00 -0.91024538241E+00  0.11802458847E+01  0.00000000000E+00 0. -1.
         11    1    3    3    0    0 -0.44677985114E+01 -0.35859372026E+01  0.71694221513E+01  0.91771882079E+01  0.51100000000E-03 0. -1.
        -11    1    3    3    0    0 -0.19249835397E+01  0.41403159348E+02 -0.63637709655E+01  0.41933575411E+02  0.51100000000E-03 0.  1.
         12    1    3    3    0    0  0.69981668099E+01 -0.38262129985E+02  0.10459419668E+00  0.38896990496E+02  0.00000000000E+00 0. -1.
</event>
<event>
 7    1  0.1501154E-015  0.9000777E+02  0.7816164E-02  0.1186339E+00
        -11   -1    0    0    0    0  0.00000000000E+00  0.00000000000E+00  0.45593999997E+02  0.45594000000E+02  0.51100000000E-03 0.  1.
         11   -1    0    0    0    0 -0.00000000000E+00 -0.00000000000E+00 -0.45593999997E+02  0.45594000000E+02  0.51100000000E-03 0. -1.
    9900012    2    1    2    0    0 -0.83690241071E+00  0.59100756540E-01  0.83008607048E+00  0.90007770603E+02  0.90000032375E+02 0.  0.
         12    1    1    2    0    0  0.83690241071E+00 -0.59100756540E-01 -0.83008607048E+00  0.11802293967E+01  0.00000000000E+00 0. -1.
         11    1    3    3    0    0 -0.10400637996E+02 -0.35791854754E+00  0.23707124714E+01  0.10673408748E+02  0.51100000000E-03 0. -1.
        -11    1    3    3    0    0  0.11226918634E+02  0.23042502492E+02  0.30648383365E+02  0.39954023906E+02  0.51100000000E-03 0.  1.
         12    1    3    3    0    0 -0.16631830490E+01 -0.22625483188E+02 -0.32189009766E+02  0.39380337950E+02  0.00000000000E+00 0. -1.
</event>
<event>
 7    1  0.1501154E-015  0.9000771E+02  0.7816164E-02  0.1186339E+00
        -11   -1    0    0    0    0  0.00000000000E+00  0.00000000000E+00  0.45593999997E+02  0.45594000000E+02  0.51100000000E-03 0. -1.
         11   -1    0    0    0    0 -0.00000000000E+00 -0.00000000000E+00 -0.45593999997E+02  0.45594000000E+02  0.51100000000E-03 0.  1.
    9900012    2    1    2    0    0 -0.85531443713E+00  0.46041164457E+00  0.67047759329E+00  0.90007711107E+02  0.89999972093E+02 0.  0.
         12    1    1    2    0    0  0.85531443713E+00 -0.46041164457E+00 -0.67047759329E+00  0.11802888934E+01  0.00000000000E+00 0. -1.
         11    1    3    3    0    0  0.25211225866E+01 -0.28852846042E+01 -0.70754715121E+01  0.80463174014E+01  0.51100000000E-03 0. -1.
        -11    1    3    3    0    0  0.21842437338E+02 -0.21174689217E+02 -0.20639554042E+02  0.36762082689E+02  0.51100000000E-03 0.  1.
         12    1    3    3    0    0 -0.25218874362E+02  0.24520385465E+02  0.28385503147E+02  0.45199311017E+02  0.00000000000E+00 0. -1.
</event>
<event>
 7    1  0.1501154E-015  0.9000799E+02  0.7816164E-02  0.1186339E+00
        -11   -1    0    0    0    0  0.00000000000E+00  0.00000000000E+00  0.45593999997E+02  0.45594000000E+02  0.51100000000E-03 0.  1.
         11   -1    0    0    0    0 -0.00000000000E+00 -0.00000000000E+00 -0.45593999997E+02  0.45594000000E+02  0.51100000000E-03 0. -1.
    9900012    2    1    2    0    0  0.31571703437E+00  0.94329614131E+00  0.63478007169E+00  0.90007987036E+02  0.90000251664E+02 0.  0.
         12    1    1    2    0    0 -0.31571703437E+00 -0.94329614131E+00 -0.63478007169E+00  0.11800129641E+01  0.00000000000E+00 0. -1.
         11    1    3    3    0    0 -0.12542478991E+01  0.51236257747E+01  0.88710383821E+01  0.10320852732E+02  0.51100000000E-03 0. -1.
        -11    1    3    3    0    0  0.17786723888E+02  0.32831162454E+02  0.37785994299E+01  0.37530395530E+02  0.51100000000E-03 0.  1.
         12    1    3    3    0    0 -0.16216758954E+02 -0.37011492088E+02 -0.12014857740E+02  0.42156738774E+02  0.00000000000E+00 0. -1.
</event>
<event>
 7    1  0.1501154E-015  0.9000771E+02  0.7816164E-02  0.1186339E+00
        -11   -1    0    0    0    0  0.00000000000E+00  0.00000000000E+00  0.45593999997E+02  0.45594000000E+02  0.51100000000E-03 0.  1.
         11   -1    0    0    0    0 -0.00000000000E+00 -0.00000000000E+00 -0.45593999997E+02  0.45594000000E+02  0.51100000000E-03 0. -1.
    9900012    2    1    2    0    0  0.54829193136E-01  0.83100003062E+00  0.83637279821E+00  0.90007709041E+02  0.89999970000E+02 0.  0.
         12    1    1    2    0    0 -0.54829193136E-01 -0.83100003062E+00 -0.83637279821E+00  0.11802909594E+01  0.00000000000E+00 0. -1.
         11    1    3    3    0    0 -0.37433264411E+02 -0.54899718576E+01 -0.37898030896E+01  0.38023041478E+02  0.51100000000E-03 0. -1.
        -11    1    3    3    0    0 -0.50147785394E+01  0.42193696974E+01 -0.51336831416E+01  0.83250097479E+01  0.51100000000E-03 0.  1.
        -12    1    3    3    0    0  0.42502872144E+02  0.21016021907E+01  0.97598590294E+01  0.43659657815E+02  0.00000000000E+00 0.  1.
</event>
<event>
 7    1  0.1501154E-015  0.9000783E+02  0.7816164E-02  0.1186339E+00
        -11   -1    0    0    0    0  0.00000000000E+00  0.00000000000E+00  0.45593999997E+02  0.45594000000E+02  0.51100000000E-03 0. -1.
         11   -1    0    0    0    0 -0.00000000000E+00 -0.00000000000E+00 -0.45593999997E+02  0.45594000000E+02  0.51100000000E-03 0.  1.
    9900012    2    1    2    0    0 -0.75674923011E+00  0.76081057687E+00 -0.49122025335E+00  0.90007830746E+02  0.90000093312E+02 0.  0.
         12    1    1    2    0    0  0.75674923011E+00 -0.76081057687E+00  0.49122025335E+00  0.11801692542E+01  0.00000000000E+00 0. -1.
         11    1    3    3    0    0 -0.23390810816E+02 -0.19009209141E+02  0.17836101293E+02  0.35022943515E+02  0.51100000000E-03 0. -1.
        -11    1    3    3    0    0 -0.12140885378E+02  0.43906840545E+01 -0.32466633687E+00  0.12914511711E+02  0.51100000000E-03 0.  1.
        -12    1    3    3    0    0  0.34774946964E+02  0.15379335664E+02 -0.18002655210E+02  0.42070375521E+02  0.00000000000E+00 0.  1.
</event>
<event>
 7    1  0.1501154E-015  0.9000775E+02  0.7816164E-02  0.1186339E+00
        -11   -1    0    0    0    0  0.00000000000E+00  0.00000000000E+00  0.45593999997E+02  0.45594000000E+02  0.51100000000E-03 0. -1.
         11   -1    0    0    0    0 -0.00000000000E+00 -0.00000000000E+00 -0.45593999997E+02  0.45594000000E+02  0.51100000000E-03 0.  1.
    9900012    2    1    2    0    0  0.30270459760E+00 -0.52271171104E+00 -0.10139714178E+01  0.90007747636E+02  0.90000009105E+02 0.  0.
         12    1    1    2    0    0 -0.30270459760E+00  0.52271171104E+00  0.10139714178E+01  0.11802523638E+01  0.00000000000E+00 0. -1.
         11    1    3    3    0    0 -0.28673581478E+01 -0.53846764357E+01 -0.74992953125E+01  0.96672598760E+01  0.51100000000E-03 0. -1.
        -11    1    3    3    0    0 -0.20635610230E+02 -0.13549117058E+02 -0.26140386846E+02  0.35954510250E+02  0.51100000000E-03 0.  1.
         12    1    3    3    0    0  0.23805672975E+02  0.18411081783E+02  0.32625710740E+02  0.44385977510E+02  0.00000000000E+00 0. -1.
</event>
<event>
 7    1  0.1501154E-015  0.9000774E+02  0.7816164E-02  0.1186339E+00
        -11   -1    0    0    0    0  0.00000000000E+00  0.00000000000E+00  0.45593999997E+02  0.45594000000E+02  0.51100000000E-03 0. -1.
         11   -1    0    0    0    0 -0.00000000000E+00 -0.00000000000E+00 -0.45593999997E+02  0.45594000000E+02  0.51100000000E-03 0.  1.
    9900012    2    1    2    0    0 -0.18432377048E+00 -0.11657766883E+01  0.49263028281E-03  0.90007741222E+02  0.90000002607E+02 0.  0.
         12    1    1    2    0    0  0.18432377048E+00  0.11657766883E+01 -0.49263028281E-03  0.11802587776E+01  0.00000000000E+00 0. -1.
         11    1    3    3    0    0  0.42099240660E+01 -0.38357514865E+01  0.39704337455E+02  0.40110732517E+02  0.51100000000E-03 0. -1.
        -11    1    3    3    0    0  0.90642341522E+01 -0.23979706645E+01 -0.20600107399E+01  0.95997004424E+01  0.51100000000E-03 0.  1.
        -12    1    3    3    0    0 -0.13458481989E+02  0.50679454627E+01 -0.37643834084E+02  0.40297308263E+02  0.00000000000E+00 0.  1.
</event>
<event>
 7    1  0.1501154E-015  0.9000793E+02  0.7816164E-02  0.1186339E+00
        -11   -1    0    0    0    0  0.00000000000E+00  0.00000000000E+00  0.45593999997E+02  0.45594000000E+02  0.51100000000E-03 0.  1.
         11   -1    0    0    0    0 -0.00000000000E+00 -0.00000000000E+00 -0.45593999997E+02  0.45594000000E+02  0.51100000000E-03 0. -1.
    9900012    2    1    2    0    0  0.10745681464E+01  0.63261723984E-01 -0.48360213775E+00  0.90007928064E+02  0.90000191914E+02 0.  0.
         12    1    1    2    0    0 -0.10745681464E+01 -0.63261723984E-01  0.48360213775E+00  0.11800719362E+01  0.00000000000E+00 0. -1.
         11    1    3    3    0    0 -0.10837594518E+02 -0.29487385111E+02 -0.17794138871E+02  0.36105272663E+02  0.51100000000E-03 0. -1.
        -11    1    3    3    0    0 -0.38093945171E+01 -0.48199191748E+01 -0.67275099379E+01  0.91105706552E+01  0.51100000000E-03 0.  1.
        -12    1    3    3    0    0  0.15721557182E+02  0.34370566010E+02  0.24038046671E+02  0.44792084746E+02  0.00000000000E+00 0.  1.
</event>
<event>
 7    1  0.1501154E-015  0.9000777E+02  0.7816164E-02  0.1186339E+00
        -11   -1    0    0    0    0  0.00000000000E+00  0.00000000000E+00  0.45593999997E+02  0.45594000000E+02  0.51100000000E-03 0. -1.
         11   -1    0    0    0    0 -0.00000000000E+00 -0.00000000000E+00 -0.45593999997E+02  0.45594000000E+02  0.51100000000E-03 0.  1.
    9900012    2    1    2    0    0 -0.51216615518E+00  0.99337177351E+00  0.37927889053E+00  0.90007765223E+02  0.90000026924E+02 0.  0.
         12    1    1    2    0    0  0.51216615518E+00 -0.99337177351E+00 -0.37927889053E+00  0.11802347765E+01  0.00000000000E+00 0. -1.
         11    1    3    3    0    0 -0.30994995733E+02  0.29228557812E+02 -0.38506341886E+01  0.42776462408E+02  0.51100000000E-03 0. -1.
        -11    1    3    3    0    0  0.78943519461E+00 -0.64180462895E+01  0.78921551995E+01  0.10202972119E+02  0.51100000000E-03 0.  1.
        -12    1    3    3    0    0  0.29693394383E+02 -0.21817139749E+02 -0.36622421204E+01  0.37028330696E+02  0.00000000000E+00 0.  1.
</event>
<event>
 7    1  0.1501154E-015  0.9000771E+02  0.7816164E-02  0.1186339E+00
        -11   -1    0    0    0    0  0.00000000000E+00  0.00000000000E+00  0.45593999997E+02  0.45594000000E+02  0.51100000000E-03 0. -1.
         11   -1    0    0    0    0 -0.00000000000E+00 -0.00000000000E+00 -0.45593999997E+02  0.45594000000E+02  0.51100000000E-03 0.  1.
    9900012    2    1    2    0    0  0.88552861643E+00 -0.77977910859E+00 -0.29585842711E-01  0.90007706939E+02  0.89999967870E+02 0.  0.
         12    1    1    2    0    0 -0.88552861643E+00  0.77977910859E+00  0.29585842711E-01  0.11802930614E+01  0.00000000000E+00 0. -1.
         11    1    3    3    0    0  0.62779213617E+01 -0.15305759244E+02  0.30950532570E+02  0.35094358938E+02  0.51100000000E-03 0. -1.
        -11    1    3    3    0    0  0.48634831759E+00 -0.28174027841E+01  0.98008916403E+01  0.10209396179E+02  0.51100000000E-03 0.  1.
        -12    1    3    3    0    0 -0.58787410629E+01  0.17343382919E+02 -0.40781010053E+02  0.44703951822E+02  0.00000000000E+00 0.  1.
</event>
<event>
 7    1  0.1501154E-015  0.9000771E+02  0.7816164E-02  0.1186339E+00
        -11   -1    0    0    0    0  0.00000000000E+00  0.00000000000E+00  0.45593999997E+02  0.45594000000E+02  0.51100000000E-03 0.  1.
         11   -1    0    0    0    0 -0.00000000000E+00 -0.00000000000E+00 -0.45593999997E+02  0.45594000000E+02  0.51100000000E-03 0. -1.
    9900012    2    1    2    0    0 -0.70458955385E+00  0.94685657604E+00 -0.10212615522E-01  0.90007708463E+02  0.89999969415E+02 0.  0.
         12    1    1    2    0    0  0.70458955385E+00 -0.94685657604E+00  0.10212615522E-01  0.11802915371E+01  0.00000000000E+00 0. -1.
         11    1    3    3    0    0 -0.19485641885E+02 -0.69033625213E+01 -0.35203001886E+02  0.40823987995E+02  0.51100000000E-03 0. -1.
        -11    1    3    3    0    0  0.25258806807E+01 -0.76954888398E+01  0.86766320380E+00  0.81457634014E+01  0.51100000000E-03 0.  1.
        -12    1    3    3    0    0  0.16255171651E+02  0.15545707937E+02  0.34325126067E+02  0.41037957066E+02  0.00000000000E+00 0.  1.
</event>
<event>
 7    1  0.1501154E-015  0.9000764E+02  0.7816164E-02  0.1186339E+00
        -11   -1    0    0    0    0  0.00000000000E+00  0.00000000000E+00  0.45593999997E+02  0.45594000000E+02  0.51100000000E-03 0.  1.
         11   -1    0    0    0    0 -0.00000000000E+00 -0.00000000000E+00 -0.45593999997E+02  0.45594000000E+02  0.51100000000E-03 0. -1.
    9900012    2    1    2    0    0 -0.41607406140E-01  0.65631710612E+00  0.98018221891E+00  0.90007643909E+02  0.89999904008E+02 0.  0.
         12    1    1    2    0    0  0.41607406140E-01 -0.65631710612E+00 -0.98018221891E+00  0.11803560913E+01  0.00000000000E+00 0. -1.
         11    1    3    3    0    0  0.33601531004E+01  0.74801579214E+01  0.20419546388E+01  0.84506195273E+01  0.51100000000E-03 0. -1.
        -11    1    3    3    0    0  0.14670160208E+02 -0.72553024364E+01  0.36428526143E+02  0.39936080569E+02  0.51100000000E-03 0.  1.
         12    1    3    3    0    0 -0.18071920715E+02  0.43146162110E+00 -0.37490298563E+02  0.41620943812E+02  0.00000000000E+00 0. -1.
</event>
<event>
 7    1  0.1501154E-015  0.9000775E+02  0.7816164E-02  0.1186339E+00
        -11   -1    0    0    0    0  0.00000000000E+00  0.00000000000E+00  0.45593999997E+02  0.45594000000E+02  0.51100000000E-03 0. -1.
         11   -1    0    0    0    0 -0.00000000000E+00 -0.00000000000E+00 -0.45593999997E+02  0.45594000000E+02  0.51100000000E-03 0.  1.
    9900012    2    1    2    0    0 -0.70439935995E-01 -0.43639443307E+00 -0.10943453484E+01  0.90007748490E+02  0.90000009970E+02 0.  0.
         12    1    1    2    0    0  0.70439935995E-01  0.43639443307E+00  0.10943453484E+01  0.11802515102E+01  0.00000000000E+00 0. -1.
         11    1    3    3    0    0 -0.56079835420E+01  0.26755727361E+01  0.35250604309E+02  0.35794039634E+02  0.51100000000E-03 0. -1.
        -11    1    3    3    0    0 -0.11439129756E+02 -0.10173936572E+02 -0.22452682803E+01  0.15472682536E+02  0.51100000000E-03 0.  1.
        -12    1    3    3    0    0  0.16976673362E+02  0.70619694028E+01 -0.34099681378E+02  0.38741026320E+02  0.00000000000E+00 0.  1.
</event>
<event>
 7    1  0.1501154E-015  0.9000775E+02  0.7816164E-02  0.1186339E+00
        -11   -1    0    0    0    0  0.00000000000E+00  0.00000000000E+00  0.45593999997E+02  0.45594000000E+02  0.51100000000E-03 0.  1.
         11   -1    0    0    0    0 -0.00000000000E+00 -0.00000000000E+00 -0.45593999997E+02  0.45594000000E+02  0.51100000000E-03 0. -1.
    9900012    2    1    2    0    0 -0.48265078356E-01 -0.28134548770E+00  0.11452061399E+01  0.90007753456E+02  0.90000015002E+02 0.  0.
         12    1    1    2    0    0  0.48265078356E-01  0.28134548770E+00 -0.11452061399E+01  0.11802465437E+01  0.00000000000E+00 0. -1.
         11    1    3    3    0    0 -0.68040975655E+01  0.96114986713E-01  0.67253956982E+01  0.95674411067E+01  0.51100000000E-03 0. -1.
        -11    1    3    3    0    0 -0.29286940005E+01 -0.19949995590E+02  0.31503912314E+02  0.37404225215E+02  0.51100000000E-03 0.  1.
         12    1    3    3    0    0  0.96845264876E+01  0.19572535115E+02 -0.37084101873E+02  0.43036087134E+02  0.00000000000E+00 0. -1.
</event>
<event>
 7    1  0.1501154E-015  0.9000696E+02  0.7816164E-02  0.1186341E+00
        -11   -1    0    0    0    0  0.00000000000E+00  0.00000000000E+00  0.45593999997E+02  0.45594000000E+02  0.51100000000E-03 0. -1.
         11   -1    0    0    0    0 -0.00000000000E+00 -0.00000000000E+00 -0.45593999997E+02  0.45594000000E+02  0.51100000000E-03 0.  1.
    9900012    2    1    2    0    0  0.11128107220E+00  0.52405281448E+00 -0.10525419462E+01  0.90006958350E+02  0.89999209397E+02 0.  0.
         12    1    1    2    0    0 -0.11128107220E+00 -0.52405281448E+00  0.10525419462E+01  0.11810416495E+01  0.00000000000E+00 0. -1.
         11    1    3    3    0    0 -0.12370413282E+01  0.24652503618E+01  0.80513101212E+01  0.85106595234E+01  0.51100000000E-03 0. -1.
        -11    1    3    3    0    0  0.27616964689E+02  0.22726457002E+02 -0.23387311176E+02  0.42733533797E+02  0.51100000000E-03 0.  1.
         12    1    3    3    0    0 -0.26268642288E+02 -0.24667654550E+02  0.14283459109E+02  0.38762765030E+02  0.00000000000E+00 0. -1.
</event>
<event>
 7    1  0.1501154E-015  0.9000774E+02  0.7816164E-02  0.1186339E+00
        -11   -1    0    0    0    0  0.00000000000E+00  0.00000000000E+00  0.45593999997E+02  0.45594000000E+02  0.51100000000E-03 0. -1.
         11   -1    0    0    0    0 -0.00000000000E+00 -0.00000000000E+00 -0.45593999997E+02  0.45594000000E+02  0.51100000000E-03 0.  1.
    9900012    2    1    2    0    0  0.10234503508E+01  0.36523330435E+00 -0.46061499957E+00  0.90007740637E+02  0.90000002013E+02 0.  0.
         12    1    1    2    0    0 -0.10234503508E+01 -0.36523330435E+00  0.46061499957E+00  0.11802593635E+01  0.00000000000E+00 0. -1.
         11    1    3    3    0    0 -0.35184038543E+01 -0.12982987954E+01 -0.59823476506E+01  0.70606819159E+01  0.51100000000E-03 0. -1.
        -11    1    3    3    0    0 -0.13474967353E+02  0.82807013255E+01 -0.34835707783E+02  0.38257957298E+02  0.51100000000E-03 0.  1.
         12    1    3    3    0    0  0.18016821558E+02 -0.66171692258E+01  0.40357440434E+02  0.44689101423E+02  0.00000000000E+00 0. -1.
</event>
<event>
 7    1  0.1501154E-015  0.9000780E+02  0.7816164E-02  0.1186339E+00
        -11   -1    0    0    0    0  0.00000000000E+00  0.00000000000E+00  0.45593999997E+02  0.45594000000E+02  0.51100000000E-03 0.  1.
         11   -1    0    0    0    0 -0.00000000000E+00 -0.00000000000E+00 -0.45593999997E+02  0.45594000000E+02  0.51100000000E-03 0. -1.
    9900012    2    1    2    0    0  0.11938238149E+00  0.11702183364E+01 -0.95991512560E-01  0.90007797696E+02  0.90000059826E+02 0.  0.
         12    1    1    2    0    0 -0.11938238149E+00 -0.11702183364E+01  0.95991512560E-01  0.11802023039E+01  0.00000000000E+00 0. -1.
         11    1    3    3    0    0 -0.72066384256E+01 -0.76861935224E+01 -0.33440141620E+02  0.35060751277E+02  0.51100000000E-03 0. -1.
        -11    1    3    3    0    0  0.45255199430E+00 -0.32761499149E+01 -0.94111131301E+01  0.99753201543E+01  0.51100000000E-03 0.  1.
        -12    1    3    3    0    0  0.68734688128E+01  0.12132561774E+02  0.42755263238E+02  0.44971726265E+02  0.00000000000E+00 0.  1.
</event>
<event>
 7    1  0.1501154E-015  0.9000772E+02  0.7816164E-02  0.1186339E+00
        -11   -1    0    0    0    0  0.00000000000E+00  0.00000000000E+00  0.45593999997E+02  0.45594000000E+02  0.51100000000E-03 0. -1.
         11   -1    0    0    0    0 -0.00000000000E+00 -0.00000000000E+00 -0.45593999997E+02  0.45594000000E+02  0.51100000000E-03 0.  1.
    9900012    2    1    2    0    0  0.40060047294E+00  0.11055719554E+01 -0.10146599816E+00  0.90007718069E+02  0.89999979148E+02 0.  0.
         12    1    1    2    0    0 -0.40060047294E+00 -0.11055719554E+01  0.10146599816E+00  0.11802819308E+01  0.00000000000E+00 0. -1.
         11    1    3    3    0    0 -0.12551408878E+02 -0.31456604762E+02 -0.14357494780E+01  0.33898631607E+02  0.51100000000E-03 0. -1.
        -11    1    3    3    0    0 -0.35361954127E+01 -0.92289798841E+01 -0.43999699529E+01  0.10818432583E+02  0.51100000000E-03 0.  1.
        -12    1    3    3    0    0  0.16488204764E+02  0.41791156602E+02  0.57342534328E+01  0.45290653880E+02  0.00000000000E+00 0.  1.
</event>
<event>
 7    1  0.1722156E-015  0.9000771E+02  0.7816164E-02  0.1186339E+00
        -11   -1    0    0    0    0  0.00000000000E+00  0.00000000000E+00  0.45593999997E+02  0.45594000000E+02  0.51100000000E-03 0. -1.
         11   -1    0    0    0    0 -0.00000000000E+00 -0.00000000000E+00 -0.45593999997E+02  0.45594000000E+02  0.51100000000E-03 0.  1.
    9900012    2    1    2    0    0 -0.94402317725E-02  0.65838964858E+00 -0.97954792594E+00  0.90007711821E+02  0.89999972817E+02 0.  0.
         12    1    1    2    0    0  0.94402317725E-02 -0.65838964858E+00  0.97954792594E+00  0.11802881794E+01  0.00000000000E+00 0. -1.
         11    1    3    3    0    0 -0.14558530388E+02  0.11898746758E-01  0.31386211082E+02  0.34598340929E+02  0.51100000000E-03 0. -1.
        -11    1    3    3    0    0 -0.53021252051E+01  0.43244152149E+01  0.78482903095E+01  0.10411952732E+02  0.51100000000E-03 0.  1.
        -12    1    3    3    0    0  0.19851215362E+02 -0.36779243131E+01 -0.40214049318E+02  0.44997418160E+02  0.00000000000E+00 0.  1.
</event>
<event>
 7    1  0.1501154E-015  0.9000785E+02  0.7816164E-02  0.1186339E+00
        -11   -1    0    0    0    0  0.00000000000E+00  0.00000000000E+00  0.45593999997E+02  0.45594000000E+02  0.51100000000E-03 0.  1.
         11   -1    0    0    0    0 -0.00000000000E+00 -0.00000000000E+00 -0.45593999997E+02  0.45594000000E+02  0.51100000000E-03 0. -1.
    9900012    2    1    2    0    0  0.82535917060E+00 -0.15459704967E+00  0.82923502165E+00  0.90007852243E+02  0.90000115092E+02 0.  0.
         12    1    1    2    0    0 -0.82535917060E+00  0.15459704967E+00 -0.82923502165E+00  0.11801477574E+01  0.00000000000E+00 0. -1.
         11    1    3    3    0    0 -0.67819714511E+01  0.62748785680E+01 -0.13350826195E+01  0.93355066102E+01  0.51100000000E-03 0. -1.
        -11    1    3    3    0    0  0.19141918448E+02  0.26861088575E+02  0.22561361948E+02  0.39961808949E+02  0.51100000000E-03 0.  1.
         12    1    3    3    0    0 -0.11534587826E+02 -0.33290564192E+02 -0.20397044307E+02  0.40710536683E+02  0.00000000000E+00 0. -1.
</event>
<event>
 7    1  0.1501154E-015  0.9000776E+02  0.7816164E-02  0.1186339E+00
        -11   -1    0    0    0    0  0.00000000000E+00  0.00000000000E+00  0.45593999997E+02  0.45594000000E+02  0.51100000000E-03 0. -1.
         11   -1    0    0    0    0 -0.00000000000E+00 -0.00000000000E+00 -0.45593999997E+02  0.45594000000E+02  0.51100000000E-03 0.  1.
    9900012    2    1    2    0    0 -0.65460917403E+00  0.87522774672E+00 -0.44545400041E+00  0.90007760174E+02  0.90000021809E+02 0.  0.
         12    1    1    2    0    0  0.65460917403E+00 -0.87522774672E+00  0.44545400041E+00  0.11802398256E+01  0.00000000000E+00 0. -1.
         11    1    3    3    0    0 -0.57063544179E+01  0.29202436318E-01  0.86174538568E+01  0.10335562140E+02  0.51100000000E-03 0. -1.
        -11    1    3    3    0    0 -0.34361297414E+01  0.26448552174E+02  0.24772941376E+02  0.36400982464E+02  0.51100000000E-03 0.  1.
         12    1    3    3    0    0  0.84878749853E+01 -0.25602526864E+02 -0.33835849233E+02  0.43271215570E+02  0.00000000000E+00 0. -1.
</event>
<event>
 7    1  0.1501154E-015  0.9000741E+02  0.7816164E-02  0.1186340E+00
        -11   -1    0    0    0    0  0.00000000000E+00  0.00000000000E+00  0.45593999997E+02  0.45594000000E+02  0.51100000000E-03 0. -1.
         11   -1    0    0    0    0 -0.00000000000E+00 -0.00000000000E+00 -0.45593999997E+02  0.45594000000E+02  0.51100000000E-03 0.  1.
    9900012    2    1    2    0    0 -0.43700847960E+00 -0.99007122649E+00  0.47177430674E+00  0.90007411824E+02  0.89999668859E+02 0.  0.
         12    1    1    2    0    0  0.43700847960E+00  0.99007122649E+00 -0.47177430674E+00  0.11805881760E+01  0.00000000000E+00 0. -1.
         11    1    3    3    0    0 -0.14182629875E+01 -0.90496393320E+01 -0.55862588096E+01  0.10729106658E+02  0.51100000000E-03 0. -1.
        -11    1    3    3    0    0  0.85386289473E+01  0.19847800503E+02 -0.32064804490E+02  0.38665165929E+02  0.51100000000E-03 0.  1.
         12    1    3    3    0    0 -0.75573744394E+01 -0.11788232398E+02  0.38122837606E+02  0.40613139236E+02  0.00000000000E+00 0. -1.
</event>
<event>
 7    1  0.1501154E-015  0.9000767E+02  0.7816164E-02  0.1186339E+00
        -11   -1    0    0    0    0  0.00000000000E+00  0.00000000000E+00  0.45593999997E+02  0.45594000000E+02  0.51100000000E-03 0. -1.
         11   -1    0    0    0    0 -0.00000000000E+00 -0.00000000000E+00 -0.45593999997E+02  0.45594000000E+02  0.51100000000E-03 0.  1.
    9900012    2    1    2    0    0 -0.14256709705E+00 -0.91181792903E+00 -0.73582132492E+00  0.90007673632E+02  0.89999934124E+02 0.  0.
         12    1    1    2    0    0  0.14256709705E+00  0.91181792903E+00  0.73582132492E+00  0.11803263680E+01  0.00000000000E+00 0. -1.
         11    1    3    3    0    0  0.18714755810E+02  0.26068580507E+02  0.18988521301E+02  0.37287758261E+02  0.51100000000E-03 0. -1.
        -11    1    3    3    0    0 -0.33362782333E+01  0.70656392393E+01  0.36266345843E+01  0.86143188343E+01  0.51100000000E-03 0.  1.
        -12    1    3    3    0    0 -0.15521044674E+02 -0.34046037676E+02 -0.23350977210E+02  0.44105596536E+02  0.00000000000E+00 0.  1.
</event>
<event>
 7    1  0.1501154E-015  0.9000772E+02  0.7816164E-02  0.1186339E+00
        -11   -1    0    0    0    0  0.00000000000E+00  0.00000000000E+00  0.45593999997E+02  0.45594000000E+02  0.51100000000E-03 0.  1.
         11   -1    0    0    0    0 -0.00000000000E+00 -0.00000000000E+00 -0.45593999997E+02  0.45594000000E+02  0.51100000000E-03 0. -1.
    9900012    2    1    2    0    0  0.25591453545E+00 -0.81932567781E+00  0.81011257071E+00  0.90007716478E+02  0.89999977535E+02 0.  0.
         12    1    1    2    0    0 -0.25591453545E+00  0.81932567781E+00 -0.81011257071E+00  0.11802835223E+01  0.00000000000E+00 0. -1.
         11    1    3    3    0    0  0.24278407496E+02 -0.11937606422E+02  0.39271513280E+01  0.27338069344E+02  0.51100000000E-03 0. -1.
        -11    1    3    3    0    0 -0.16338517632E+01 -0.18729308647E+02  0.12118426217E+02  0.22367671497E+02  0.51100000000E-03 0.  1.
         12    1    3    3    0    0 -0.22388641198E+02  0.29847589392E+02 -0.15235464974E+02  0.40301975636E+02  0.00000000000E+00 0. -1.
</event>
<event>
 7    1  0.1501154E-015  0.9000794E+02  0.7816164E-02  0.1186339E+00
        -11   -1    0    0    0    0  0.00000000000E+00  0.00000000000E+00  0.45593999997E+02  0.45594000000E+02  0.51100000000E-03 0. -1.
         11   -1    0    0    0    0 -0.00000000000E+00 -0.00000000000E+00 -0.45593999997E+02  0.45594000000E+02  0.51100000000E-03 0.  1.
    9900012    2    1    2    0    0 -0.11441906914E+00  0.18293332895E+00 -0.11601624863E+01  0.90007943509E+02  0.90000207564E+02 0.  0.
         12    1    1    2    0    0  0.11441906914E+00 -0.18293332895E+00  0.11601624863E+01  0.11800564905E+01  0.00000000000E+00 0. -1.
         11    1    3    3    0    0  0.92247324213E+01  0.28623382868E+02 -0.14339620187E+02  0.33316939271E+02  0.51100000000E-03 0. -1.
        -11    1    3    3    0    0  0.42235753851E+01  0.11184952464E+02 -0.20411976997E+01  0.12128818531E+02  0.51100000000E-03 0.  1.
        -12    1    3    3    0    0 -0.13562726876E+02 -0.39625402003E+02  0.15220655400E+02  0.44562185707E+02  0.00000000000E+00 0.  1.
</event>
<event>
 7    1  0.1501154E-015  0.9000774E+02  0.7816164E-02  0.1186339E+00
        -11   -1    0    0    0    0  0.00000000000E+00  0.00000000000E+00  0.45593999997E+02  0.45594000000E+02  0.51100000000E-03 0.  1.
         11   -1    0    0    0    0 -0.00000000000E+00 -0.00000000000E+00 -0.45593999997E+02  0.45594000000E+02  0.51100000000E-03 0. -1.
    9900012    2    1    2    0    0 -0.58837990845E+00 -0.97854768197E+00 -0.29875723883E+00  0.90007744786E+02  0.90000006217E+02 0.  0.
         12    1    1    2    0    0  0.58837990845E+00  0.97854768197E+00  0.29875723883E+00  0.11802552141E+01  0.00000000000E+00 0. -1.
         11    1    3    3    0    0  0.19518631144E+02  0.10665481627E+02 -0.33754319312E+02  0.40423799086E+02  0.51100000000E-03 0. -1.
        -11    1    3    3    0    0 -0.99167146509E+01  0.56554429002E+01  0.10520569122E+01  0.11464383449E+02  0.51100000000E-03 0.  1.
        -12    1    3    3    0    0 -0.10190296401E+02 -0.17299472209E+02  0.32403505161E+02  0.38119562251E+02  0.00000000000E+00 0.  1.
</event>
<event>
 7    1  0.1501154E-015  0.9000778E+02  0.7816164E-02  0.1186339E+00
        -11   -1    0    0    0    0  0.00000000000E+00  0.00000000000E+00  0.45593999997E+02  0.45594000000E+02  0.51100000000E-03 0. -1.
         11   -1    0    0    0    0 -0.00000000000E+00 -0.00000000000E+00 -0.45593999997E+02  0.45594000000E+02  0.51100000000E-03 0.  1.
    9900012    2    1    2    0    0  0.24753838600E+00 -0.99660911020E+00  0.58173100564E+00  0.90007781404E+02  0.90000043319E+02 0.  0.
         12    1    1    2    0    0 -0.24753838600E+00  0.99660911020E+00 -0.58173100564E+00  0.11802185959E+01  0.00000000000E+00 0. -1.
         11    1    3    3    0    0  0.12584904701E+02 -0.10981947885E+02  0.34073245647E+02  0.37946924445E+02  0.51100000000E-03 0. -1.
        -11    1    3    3    0    0  0.38741947590E+01  0.17143728138E+02 -0.46012849428E+01  0.18168341225E+02  0.51100000000E-03 0.  1.
        -12    1    3    3    0    0 -0.16211561074E+02 -0.71583893628E+01 -0.28890229699E+02  0.33892515734E+02  0.00000000000E+00 0.  1.
</event>
<event>
 7    1  0.1501154E-015  0.9000776E+02  0.7816164E-02  0.1186339E+00
        -11   -1    0    0    0    0  0.00000000000E+00  0.00000000000E+00  0.45593999997E+02  0.45594000000E+02  0.51100000000E-03 0. -1.
         11   -1    0    0    0    0 -0.00000000000E+00 -0.00000000000E+00 -0.45593999997E+02  0.45594000000E+02  0.51100000000E-03 0.  1.
    9900012    2    1    2    0    0  0.90475270782E+00 -0.29082385225E+00 -0.69985992838E+00  0.90007762780E+02  0.90000024449E+02 0.  0.
         12    1    1    2    0    0 -0.90475270782E+00  0.29082385225E+00  0.69985992838E+00  0.11802372197E+01  0.00000000000E+00 0. -1.
         11    1    3    3    0    0  0.78178098897E+01 -0.80895607961E+01 -0.23773799976E+02  0.26301192196E+02  0.51100000000E-03 0.  1.
        -11    1    3    3    0    0  0.25129657781E+02 -0.32528556318E+01  0.12093864227E+02  0.28077434394E+02  0.51100000000E-03 0. -1.
         12    1    3    3    0    0 -0.32042714963E+02  0.11051592576E+02  0.10980075821E+02  0.35629136191E+02  0.00000000000E+00 0. -1.
</event>
<event>
 7    1  0.1501154E-015  0.9000847E+02  0.7816164E-02  0.1186338E+00
        -11   -1    0    0    0    0  0.00000000000E+00  0.00000000000E+00  0.45593999997E+02  0.45594000000E+02  0.51100000000E-03 0.  1.
         11   -1    0    0    0    0 -0.00000000000E+00 -0.00000000000E+00 -0.45593999997E+02  0.45594000000E+02  0.51100000000E-03 0. -1.
    9900012    2    1    2    0    0 -0.26567617107E+00 -0.25062701356E-01  0.11489446705E+01  0.90008472203E+02  0.90000743233E+02 0.  0.
         12    1    1    2    0    0  0.26567617107E+00  0.25062701356E-01 -0.11489446705E+01  0.11795277965E+01  0.00000000000E+00 0. -1.
         11    1    3    3    0    0  0.24029452342E+02 -0.23648652982E+02 -0.25618930077E+02  0.42343865509E+02  0.51100000000E-03 0. -1.
        -11    1    3    3    0    0 -0.77243836634E+01 -0.27766166755E+01  0.45318777819E+01  0.93762263002E+01  0.51100000000E-03 0.  1.
        -12    1    3    3    0    0 -0.16570744849E+02  0.26400206956E+02  0.22235996965E+02  0.38288380394E+02  0.00000000000E+00 0.  1.
</event>
<event>
 7    1  0.1501154E-015  0.9000782E+02  0.7816164E-02  0.1186339E+00
        -11   -1    0    0    0    0  0.00000000000E+00  0.00000000000E+00  0.45593999997E+02  0.45594000000E+02  0.51100000000E-03 0. -1.
         11   -1    0    0    0    0 -0.00000000000E+00 -0.00000000000E+00 -0.45593999997E+02  0.45594000000E+02  0.51100000000E-03 0.  1.
    9900012    2    1    2    0    0 -0.95361172649E+00  0.48506194574E+00  0.49815680471E+00  0.90007821785E+02  0.90000084233E+02 0.  0.
         12    1    1    2    0    0  0.95361172649E+00 -0.48506194574E+00 -0.49815680471E+00  0.11801782146E+01  0.00000000000E+00 0. -1.
         11    1    3    3    0    0  0.18098693018E+02  0.34599622660E+02  0.36273836112E+01  0.39215487876E+02  0.51100000000E-03 0. -1.
        -11    1    3    3    0    0  0.86287711306E+01 -0.36289413848E+01  0.97006493519E+00  0.94109475101E+01  0.51100000000E-03 0.  1.
        -12    1    3    3    0    0 -0.27681075875E+02 -0.30485619330E+02 -0.40992917417E+01  0.41381386399E+02  0.00000000000E+00 0.  1.
</event>
<event>
 7    1  0.1501154E-015  0.9000779E+02  0.7816164E-02  0.1186339E+00
        -11   -1    0    0    0    0  0.00000000000E+00  0.00000000000E+00  0.45593999997E+02  0.45594000000E+02  0.51100000000E-03 0.  1.
         11   -1    0    0    0    0 -0.00000000000E+00 -0.00000000000E+00 -0.45593999997E+02  0.45594000000E+02  0.51100000000E-03 0. -1.
    9900012    2    1    2    0    0 -0.57591433973E+00 -0.94826629809E+00 -0.40251112108E+00  0.90007787519E+02  0.90000049514E+02 0.  0.
         12    1    1    2    0    0  0.57591433973E+00  0.94826629809E+00  0.40251112108E+00  0.11802124815E+01  0.00000000000E+00 0. -1.
         11    1    3    3    0    0  0.55204621064E+00  0.92380308146E+01 -0.11519309970E+01  0.93259269584E+01  0.51100000000E-03 0. -1.
        -11    1    3    3    0    0 -0.38058058529E+02  0.81049061181E+01 -0.43586011468E+01  0.39154855719E+02  0.51100000000E-03 0.  1.
         12    1    3    3    0    0  0.36930097978E+02 -0.18291203231E+02  0.51080210228E+01  0.41527004841E+02  0.00000000000E+00 0. -1.
</event>
<event>
 7    1  0.1501154E-015  0.9000777E+02  0.7816164E-02  0.1186339E+00
        -11   -1    0    0    0    0  0.00000000000E+00  0.00000000000E+00  0.45593999997E+02  0.45594000000E+02  0.51100000000E-03 0.  1.
         11   -1    0    0    0    0 -0.00000000000E+00 -0.00000000000E+00 -0.45593999997E+02  0.45594000000E+02  0.51100000000E-03 0. -1.
    9900012    2    1    2    0    0  0.10363099283E+01  0.51066034786E+00  0.24131565651E+00  0.90007768877E+02  0.90000030626E+02 0.  0.
         12    1    1    2    0    0 -0.10363099283E+01 -0.51066034786E+00 -0.24131565651E+00  0.11802311233E+01  0.00000000000E+00 0. -1.
         11    1    3    3    0    0 -0.27748911679E+01  0.25367571319E+01  0.91576127355E+01  0.98993448781E+01  0.51100000000E-03 0. -1.
        -11    1    3    3    0    0 -0.65857852806E+01  0.23402174131E+02  0.26056070341E+02  0.35636401666E+02  0.51100000000E-03 0.  1.
         12    1    3    3    0    0  0.10396986377E+02 -0.25428270915E+02 -0.34972367420E+02  0.44472022333E+02  0.00000000000E+00 0. -1.
</event>
<event>
 7    1  0.1501154E-015  0.9000783E+02  0.7816164E-02  0.1186339E+00
        -11   -1    0    0    0    0  0.00000000000E+00  0.00000000000E+00  0.45593999997E+02  0.45594000000E+02  0.51100000000E-03 0.  1.
         11   -1    0    0    0    0 -0.00000000000E+00 -0.00000000000E+00 -0.45593999997E+02  0.45594000000E+02  0.51100000000E-03 0. -1.
    9900012    2    1    2    0    0 -0.43322968273E+00 -0.10952864880E+01  0.73818248262E-01  0.90007834934E+02  0.90000097555E+02 0.  0.
         12    1    1    2    0    0  0.43322968273E+00  0.10952864880E+01 -0.73818248262E-01  0.11801650658E+01  0.00000000000E+00 0. -1.
         11    1    3    3    0    0  0.28466571972E+02 -0.21126244279E+02 -0.36020219087E+01  0.35631986743E+02  0.51100000000E-03 0. -1.
        -11    1    3    3    0    0  0.80410947358E+01 -0.41444443775E+01 -0.33997662231E+01  0.96640588979E+01  0.51100000000E-03 0.  1.
        -12    1    3    3    0    0 -0.36940896390E+02  0.24175402169E+02  0.70756063801E+01  0.44711789293E+02  0.00000000000E+00 0.  1.
</event>
<event>
 7    1  0.1501154E-015  0.9000775E+02  0.7816164E-02  0.1186339E+00
        -11   -1    0    0    0    0  0.00000000000E+00  0.00000000000E+00  0.45593999997E+02  0.45594000000E+02  0.51100000000E-03 0.  1.
         11   -1    0    0    0    0 -0.00000000000E+00 -0.00000000000E+00 -0.45593999997E+02  0.45594000000E+02  0.51100000000E-03 0. -1.
    9900012    2    1    2    0    0  0.29523527696E+00  0.64958873969E+00  0.94013914909E+00  0.90007749595E+02  0.90000011089E+02 0.  0.
         12    1    1    2    0    0 -0.29523527696E+00 -0.64958873969E+00 -0.94013914909E+00  0.11802504053E+01  0.00000000000E+00 0. -1.
         11    1    3    3    0    0 -0.90882364107E+00 -0.39464325994E+02  0.42135435713E+01  0.39699029412E+02  0.51100000000E-03 0. -1.
        -11    1    3    3    0    0  0.59564482965E+00 -0.33191753393E-01 -0.96373506188E+01  0.96557973087E+01  0.51100000000E-03 0.  1.
        -12    1    3    3    0    0  0.60841408838E+00  0.40147106487E+02  0.63639461966E+01  0.40652922874E+02  0.00000000000E+00 0.  1.
</event>
<event>
 7    1  0.1501154E-015  0.9000771E+02  0.7816164E-02  0.1186339E+00
        -11   -1    0    0    0    0  0.00000000000E+00  0.00000000000E+00  0.45593999997E+02  0.45594000000E+02  0.51100000000E-03 0. -1.
         11   -1    0    0    0    0 -0.00000000000E+00 -0.00000000000E+00 -0.45593999997E+02  0.45594000000E+02  0.51100000000E-03 0.  1.
    9900012    2    1    2    0    0 -0.87060076732E+00 -0.26836860611E+00 -0.75040688021E+00  0.90007712793E+02  0.89999973802E+02 0.  0.
         12    1    1    2    0    0  0.87060076732E+00  0.26836860611E+00  0.75040688021E+00  0.11802872069E+01  0.00000000000E+00 0. -1.
         11    1    3    3    0    0  0.12769289209E+02  0.10222863507E+02 -0.15207698989E+02  0.22334632166E+02  0.51100000000E-03 0. -1.
        -11    1    3    3    0    0 -0.15620779151E+02  0.19056218558E+02 -0.12497826068E+02  0.27628678283E+02  0.51100000000E-03 0.  1.
         12    1    3    3    0    0  0.19808891746E+01 -0.29547450671E+02  0.26955118177E+02  0.40044402343E+02  0.00000000000E+00 0. -1.
</event>
<event>
 7    1  0.1501154E-015  0.9000778E+02  0.7816164E-02  0.1186339E+00
        -11   -1    0    0    0    0  0.00000000000E+00  0.00000000000E+00  0.45593999997E+02  0.45594000000E+02  0.51100000000E-03 0. -1.
         11   -1    0    0    0    0 -0.00000000000E+00 -0.00000000000E+00 -0.45593999997E+02  0.45594000000E+02  0.51100000000E-03 0.  1.
    9900012    2    1    2    0    0  0.45663083244E+00 -0.10023854682E+01  0.42381520962E+00  0.90007784903E+02  0.90000046863E+02 0.  0.
         12    1    1    2    0    0 -0.45663083244E+00  0.10023854682E+01 -0.42381520962E+00  0.11802150973E+01  0.00000000000E+00 0. -1.
         11    1    3    3    0    0  0.10230386104E+01  0.26654363828E+02  0.29480977184E+02  0.39757134392E+02  0.51100000000E-03 0. -1.
        -11    1    3    3    0    0  0.89207455874E+01 -0.59631842333E+01  0.22843850060E+01  0.10970764930E+02  0.51100000000E-03 0.  1.
        -12    1    3    3    0    0 -0.94871533654E+01 -0.21693565063E+02 -0.31341546980E+02  0.39279885581E+02  0.00000000000E+00 0.  1.
</event>
<event>
 7    1  0.1501154E-015  0.9000771E+02  0.7816164E-02  0.1186339E+00
        -11   -1    0    0    0    0  0.00000000000E+00  0.00000000000E+00  0.45593999997E+02  0.45594000000E+02  0.51100000000E-03 0. -1.
         11   -1    0    0    0    0 -0.00000000000E+00 -0.00000000000E+00 -0.45593999997E+02  0.45594000000E+02  0.51100000000E-03 0.  1.
    9900012    2    1    2    0    0 -0.15809069605E+00  0.10163511259E+01 -0.57889612114E+00  0.90007710629E+02  0.89999971610E+02 0.  0.
         12    1    1    2    0    0  0.15809069605E+00 -0.10163511259E+01  0.57889612114E+00  0.11802893706E+01  0.00000000000E+00 0. -1.
         11    1    3    3    0    0 -0.68152030536E+01  0.76130315442E+01 -0.20724121549E+01  0.10425935659E+02  0.51100000000E-03 0. -1.
        -11    1    3    3    0    0 -0.22320325509E+02  0.24334860806E+02 -0.11949295795E+02  0.35116492585E+02  0.51100000000E-03 0.  1.
         12    1    3    3    0    0  0.28977437866E+02 -0.30931541224E+02  0.13442811829E+02  0.44465282386E+02  0.00000000000E+00 0. -1.
</event>
<event>
 7    1  0.1501154E-015  0.9000772E+02  0.7816164E-02  0.1186339E+00
        -11   -1    0    0    0    0  0.00000000000E+00  0.00000000000E+00  0.45593999997E+02  0.45594000000E+02  0.51100000000E-03 0. -1.
         11   -1    0    0    0    0 -0.00000000000E+00 -0.00000000000E+00 -0.45593999997E+02  0.45594000000E+02  0.51100000000E-03 0.  1.
    9900012    2    1    2    0    0 -0.70024350798E+00  0.29106544594E+00 -0.90443165944E+00  0.90007721774E+02  0.89999982901E+02 0.  0.
         12    1    1    2    0    0  0.70024350798E+00 -0.29106544594E+00  0.90443165944E+00  0.11802782261E+01  0.00000000000E+00 0. -1.
         11    1    3    3    0    0  0.37006793387E+01 -0.16352925925E+01 -0.84520999041E+01  0.93705497427E+01  0.51100000000E-03 0. -1.
        -11    1    3    3    0    0  0.28037934637E+02 -0.24541853873E+02  0.10362362485E+02  0.38675663237E+02  0.51100000000E-03 0.  1.
         12    1    3    3    0    0 -0.32438857484E+02  0.26468211912E+02 -0.28146942405E+01  0.41961508795E+02  0.00000000000E+00 0. -1.
</event>
<event>
 7    1  0.1501154E-015  0.9000760E+02  0.7816164E-02  0.1186339E+00
        -11   -1    0    0    0    0  0.00000000000E+00  0.00000000000E+00  0.45593999997E+02  0.45594000000E+02  0.51100000000E-03 0.  1.
         11   -1    0    0    0    0 -0.00000000000E+00 -0.00000000000E+00 -0.45593999997E+02  0.45594000000E+02  0.51100000000E-03 0. -1.
    9900012    2    1    2    0    0 -0.50761166029E+00  0.74473237069E+00  0.76226849789E+00  0.90007597880E+02  0.89999857372E+02 0.  0.
         12    1    1    2    0    0  0.50761166029E+00 -0.74473237069E+00 -0.76226849789E+00  0.11804021198E+01  0.00000000000E+00 0. -1.
         11    1    3    3    0    0 -0.18409834696E+00 -0.81094476135E+01 -0.42344065416E+02  0.43113998992E+02  0.51100000000E-03 0. -1.
        -11    1    3    3    0    0  0.36358921486E+01  0.68743577204E+01  0.68359499767E+01  0.10354067709E+02  0.51100000000E-03 0.  1.
        -12    1    3    3    0    0 -0.39594054619E+01  0.19798222637E+01  0.36270383938E+02  0.36539531179E+02  0.00000000000E+00 0.  1.
</event>
<event>
 7    1  0.1501154E-015  0.9000774E+02  0.7816164E-02  0.1186339E+00
        -11   -1    0    0    0    0  0.00000000000E+00  0.00000000000E+00  0.45593999997E+02  0.45594000000E+02  0.51100000000E-03 0. -1.
         11   -1    0    0    0    0 -0.00000000000E+00 -0.00000000000E+00 -0.45593999997E+02  0.45594000000E+02  0.51100000000E-03 0.  1.
    9900012    2    1    2    0    0 -0.57084542136E+00  0.41123825519E+00 -0.94764176170E+00  0.90007743119E+02  0.90000004528E+02 0.  0.
         12    1    1    2    0    0  0.57084542136E+00 -0.41123825519E+00  0.94764176170E+00  0.11802568814E+01  0.00000000000E+00 0. -1.
         11    1    3    3    0    0 -0.16471081325E+01  0.13599331913E+02  0.91762864249E+01  0.16488148061E+02  0.51100000000E-03 0. -1.
        -11    1    3    3    0    0  0.21875271258E+02  0.22557261416E+02 -0.55911959010E+01  0.31915811240E+02  0.51100000000E-03 0.  1.
         12    1    3    3    0    0 -0.20799008547E+02 -0.35745355074E+02 -0.45327322856E+01  0.41603783817E+02  0.00000000000E+00 0. -1.
</event>
<event>
 7    1  0.1501154E-015  0.9000769E+02  0.7816164E-02  0.1186339E+00
        -11   -1    0    0    0    0  0.00000000000E+00  0.00000000000E+00  0.45593999997E+02  0.45594000000E+02  0.51100000000E-03 0.  1.
         11   -1    0    0    0    0 -0.00000000000E+00 -0.00000000000E+00 -0.45593999997E+02  0.45594000000E+02  0.51100000000E-03 0. -1.
    9900012    2    1    2    0    0  0.80869065522E+00 -0.64745424288E+00  0.56565087611E+00  0.90007687124E+02  0.89999947794E+02 0.  0.
         12    1    1    2    0    0 -0.80869065522E+00  0.64745424288E+00 -0.56565087611E+00  0.11803128764E+01  0.00000000000E+00 0. -1.
         11    1    3    3    0    0 -0.24816972079E+02 -0.48886693557E+01 -0.22305721564E+02  0.33724270281E+02  0.51100000000E-03 0. -1.
        -11    1    3    3    0    0  0.11462301298E+02  0.34248954311E+01 -0.13025067551E+02  0.17685209773E+02  0.51100000000E-03 0.  1.
        -12    1    3    3    0    0  0.14163361436E+02  0.81631968170E+00  0.35896439990E+02  0.38598207069E+02  0.00000000000E+00 0.  1.
</event>
<event>
 7    1  0.1501154E-015  0.9000780E+02  0.7816164E-02  0.1186339E+00
        -11   -1    0    0    0    0  0.00000000000E+00  0.00000000000E+00  0.45593999997E+02  0.45594000000E+02  0.51100000000E-03 0.  1.
         11   -1    0    0    0    0 -0.00000000000E+00 -0.00000000000E+00 -0.45593999997E+02  0.45594000000E+02  0.51100000000E-03 0. -1.
    9900012    2    1    2    0    0 -0.98915217955E+00 -0.15561495727E+00  0.62468858012E+00  0.90007799224E+02  0.90000061374E+02 0.  0.
         12    1    1    2    0    0  0.98915217955E+00  0.15561495727E+00 -0.62468858012E+00  0.11802007759E+01  0.00000000000E+00 0. -1.
         11    1    3    3    0    0 -0.51365939888E+00  0.75376123767E+01  0.40454637613E+01  0.85700188813E+01  0.51100000000E-03 0. -1.
        -11    1    3    3    0    0 -0.36962777053E+02  0.65803674787E+01  0.11876329424E+02  0.39377599272E+02  0.51100000000E-03 0.  1.
         12    1    3    3    0    0  0.36487284272E+02 -0.14273594813E+02 -0.15297104605E+02  0.42060181071E+02  0.00000000000E+00 0. -1.
</event>
<event>
 7    1  0.1501154E-015  0.9000795E+02  0.7816164E-02  0.1186339E+00
        -11   -1    0    0    0    0  0.00000000000E+00  0.00000000000E+00  0.45593999997E+02  0.45594000000E+02  0.51100000000E-03 0. -1.
         11   -1    0    0    0    0 -0.00000000000E+00 -0.00000000000E+00 -0.45593999997E+02  0.45594000000E+02  0.51100000000E-03 0.  1.
    9900012    2    1    2    0    0 -0.10608225498E+01  0.11215038383E+00 -0.50457232678E+00  0.90007951093E+02  0.90000215247E+02 0.  0.
         12    1    1    2    0    0  0.10608225498E+01 -0.11215038383E+00  0.50457232678E+00  0.11800489074E+01  0.00000000000E+00 0. -1.
         11    1    3    3    0    0  0.18832774128E+02 -0.31084185174E+02  0.13847142269E+02  0.38892715237E+02  0.51100000000E-03 0. -1.
        -11    1    3    3    0    0  0.71495710819E+01  0.26412603381E+01  0.29190654756E+01  0.81617134440E+01  0.51100000000E-03 0.  1.
        -12    1    3    3    0    0 -0.27043167759E+02  0.28555075220E+02 -0.17270780071E+02  0.42953522411E+02  0.00000000000E+00 0.  1.
</event>
<event>
 7    1  0.1501154E-015  0.9000772E+02  0.7816164E-02  0.1186339E+00
        -11   -1    0    0    0    0  0.00000000000E+00  0.00000000000E+00  0.45593999997E+02  0.45594000000E+02  0.51100000000E-03 0.  1.
         11   -1    0    0    0    0 -0.00000000000E+00 -0.00000000000E+00 -0.45593999997E+02  0.45594000000E+02  0.51100000000E-03 0. -1.
    9900012    2    1    2    0    0 -0.38626161288E-01  0.28664337924E+00  0.11442928914E+01  0.90007719259E+02  0.89999980353E+02 0.  0.
         12    1    1    2    0    0  0.38626161288E-01 -0.28664337924E+00 -0.11442928914E+01  0.11802807414E+01  0.00000000000E+00 0. -1.
         11    1    3    3    0    0 -0.87028642701E+01  0.11412528864E+02 -0.33526771795E+01  0.14738592406E+02  0.51100000000E-03 0. -1.
        -11    1    3    3    0    0  0.36123329089E+02 -0.12218056986E+02 -0.15623375372E+02  0.41210019161E+02  0.51100000000E-03 0.  1.
         12    1    3    3    0    0 -0.27459090980E+02  0.10921715008E+01  0.20120345443E+02  0.34059107692E+02  0.00000000000E+00 0. -1.
</event>
<event>
 7    1  0.1501154E-015  0.9000763E+02  0.7816164E-02  0.1186339E+00
        -11   -1    0    0    0    0  0.00000000000E+00  0.00000000000E+00  0.45593999997E+02  0.45594000000E+02  0.51100000000E-03 0.  1.
         11   -1    0    0    0    0 -0.00000000000E+00 -0.00000000000E+00 -0.45593999997E+02  0.45594000000E+02  0.51100000000E-03 0. -1.
    9900012    2    1    2    0    0 -0.51864860202E+00  0.10374729096E+01 -0.21891188383E+00  0.90007631912E+02  0.89999891853E+02 0.  0.
         12    1    1    2    0    0  0.51864860202E+00 -0.10374729096E+01  0.21891188383E+00  0.11803680881E+01  0.00000000000E+00 0. -1.
         11    1    3    3    0    0 -0.36764863449E+02  0.63130771568E+01 -0.26900744416E+01  0.37399821235E+02  0.51100000000E-03 0. -1.
        -11    1    3    3    0    0 -0.28248170724E+01  0.41764054790E+01  0.10470757981E+02  0.11621476979E+02  0.51100000000E-03 0.  1.
        -12    1    3    3    0    0  0.39071031919E+02 -0.94520097262E+01 -0.79995954230E+01  0.40986333698E+02  0.00000000000E+00 0.  1.
</event>
<event>
 7    1  0.1501154E-015  0.9000772E+02  0.7816164E-02  0.1186339E+00
        -11   -1    0    0    0    0  0.00000000000E+00  0.00000000000E+00  0.45593999997E+02  0.45594000000E+02  0.51100000000E-03 0. -1.
         11   -1    0    0    0    0 -0.00000000000E+00 -0.00000000000E+00 -0.45593999997E+02  0.45594000000E+02  0.51100000000E-03 0.  1.
    9900012    2    1    2    0    0 -0.37172814684E+00 -0.99633001161E+00  0.51206600211E+00  0.90007717450E+02  0.89999978520E+02 0.  0.
         12    1    1    2    0    0  0.37172814684E+00  0.99633001161E+00 -0.51206600211E+00  0.11802825499E+01  0.00000000000E+00 0. -1.
         11    1    3    3    0    0  0.98467619148E+00  0.71172390713E+01 -0.72791745522E+01  0.10227954909E+02  0.51100000000E-03 0. -1.
        -11    1    3    3    0    0 -0.19828565200E+00 -0.19617735961E+02 -0.32444920047E+02  0.37915270255E+02  0.51100000000E-03 0.  1.
         12    1    3    3    0    0 -0.11581186863E+01  0.11504166878E+02  0.40236160601E+02  0.41864492286E+02  0.00000000000E+00 0. -1.
</event>
<event>
 7    1  0.1501154E-015  0.9000772E+02  0.7816164E-02  0.1186339E+00
        -11   -1    0    0    0    0  0.00000000000E+00  0.00000000000E+00  0.45593999997E+02  0.45594000000E+02  0.51100000000E-03 0.  1.
         11   -1    0    0    0    0 -0.00000000000E+00 -0.00000000000E+00 -0.45593999997E+02  0.45594000000E+02  0.51100000000E-03 0. -1.
    9900012    2    1    2    0    0 -0.87271567473E+00  0.79461570509E+00 -0.26782860098E-02  0.90007722939E+02  0.89999984082E+02 0.  0.
         12    1    1    2    0    0  0.87271567473E+00 -0.79461570509E+00  0.26782860098E-02  0.11802770611E+01  0.00000000000E+00 0. -1.
         11    1    3    3    0    0  0.13639983713E+02  0.37457869546E+00 -0.23544111253E+02  0.27212398642E+02  0.51100000000E-03 0. -1.
        -11    1    3    3    0    0  0.10874036659E+02  0.19842506979E+02 -0.76411555957E+00  0.22639647288E+02  0.51100000000E-03 0.  1.
        -12    1    3    3    0    0 -0.25386736047E+02 -0.19422469969E+02  0.24305548527E+02  0.40155677009E+02  0.00000000000E+00 0.  1.
</event>
<event>
 7    1  0.1501154E-015  0.9000769E+02  0.7816164E-02  0.1186339E+00
        -11   -1    0    0    0    0  0.00000000000E+00  0.00000000000E+00  0.45593999997E+02  0.45594000000E+02  0.51100000000E-03 0. -1.
         11   -1    0    0    0    0 -0.00000000000E+00 -0.00000000000E+00 -0.45593999997E+02  0.45594000000E+02  0.51100000000E-03 0.  1.
    9900012    2    1    2    0    0  0.43639707944E+00 -0.81771840022E+00 -0.73076888265E+00  0.90007691162E+02  0.89999951885E+02 0.  0.
         12    1    1    2    0    0 -0.43639707944E+00  0.81771840022E+00  0.73076888265E+00  0.11803088379E+01  0.00000000000E+00 0. -1.
         11    1    3    3    0    0  0.27385224280E+02  0.22802492624E+02 -0.17605560851E+02  0.39747452143E+02  0.51100000000E-03 0. -1.
        -11    1    3    3    0    0  0.55845568146E+01 -0.79395859143E+00  0.75745921890E+01  0.94441565082E+01  0.51100000000E-03 0.  1.
        -12    1    3    3    0    0 -0.32533384015E+02 -0.22826252432E+02  0.93001997797E+01  0.40816082511E+02  0.00000000000E+00 0.  1.
</event>
<event>
 7    1  0.1501154E-015  0.9000774E+02  0.7816164E-02  0.1186339E+00
        -11   -1    0    0    0    0  0.00000000000E+00  0.00000000000E+00  0.45593999997E+02  0.45594000000E+02  0.51100000000E-03 0.  1.
         11   -1    0    0    0    0 -0.00000000000E+00 -0.00000000000E+00 -0.45593999997E+02  0.45594000000E+02  0.51100000000E-03 0. -1.
    9900012    2    1    2    0    0 -0.22715716840E+00 -0.10192299726E+01 -0.55008121679E+00  0.90007737546E+02  0.89999998881E+02 0.  0.
         12    1    1    2    0    0  0.22715716840E+00  0.10192299726E+01  0.55008121679E+00  0.11802624544E+01  0.00000000000E+00 0. -1.
         11    1    3    3    0    0 -0.55054220733E+01 -0.60906324725E+01  0.39335191915E+01  0.91037382218E+01  0.51100000000E-03 0. -1.
        -11    1    3    3    0    0 -0.27007347778E+02  0.21985036832E+01 -0.29428517604E+02  0.40003348623E+02  0.51100000000E-03 0.  1.
         12    1    3    3    0    0  0.32285612683E+02  0.28728988168E+01  0.24944917195E+02  0.40900650701E+02  0.00000000000E+00 0. -1.
</event>
<event>
 7    1  0.1501154E-015  0.9000774E+02  0.7816164E-02  0.1186339E+00
        -11   -1    0    0    0    0  0.00000000000E+00  0.00000000000E+00  0.45593999997E+02  0.45594000000E+02  0.51100000000E-03 0.  1.
         11   -1    0    0    0    0 -0.00000000000E+00 -0.00000000000E+00 -0.45593999997E+02  0.45594000000E+02  0.51100000000E-03 0. -1.
    9900012    2    1    2    0    0  0.98430930670E+00 -0.43617078263E+00 -0.48363739351E+00  0.90007739482E+02  0.90000000843E+02 0.  0.
         12    1    1    2    0    0 -0.98430930670E+00  0.43617078263E+00  0.48363739351E+00  0.11802605184E+01  0.00000000000E+00 0. -1.
         11    1    3    3    0    0  0.40758609988E+01 -0.36686189788E+02  0.94711130056E+01  0.38107625823E+02  0.51100000000E-03 0. -1.
        -11    1    3    3    0    0 -0.15701754811E+01 -0.82275744007E+00  0.97352560982E+01  0.98953318492E+01  0.51100000000E-03 0.  1.
        -12    1    3    3    0    0 -0.15213762110E+01  0.37072776446E+02 -0.19690006497E+02  0.42004781809E+02  0.00000000000E+00 0.  1.
</event>
<event>
 7    1  0.1501154E-015  0.9000774E+02  0.7816164E-02  0.1186339E+00
        -11   -1    0    0    0    0  0.00000000000E+00  0.00000000000E+00  0.45593999997E+02  0.45594000000E+02  0.51100000000E-03 0. -1.
         11   -1    0    0    0    0 -0.00000000000E+00 -0.00000000000E+00 -0.45593999997E+02  0.45594000000E+02  0.51100000000E-03 0.  1.
    9900012    2    1    2    0    0  0.47871794193E+00 -0.85587091478E+00 -0.65675845648E+00  0.90007738351E+02  0.89999999697E+02 0.  0.
         12    1    1    2    0    0 -0.47871794193E+00  0.85587091478E+00  0.65675845648E+00  0.11802616493E+01  0.00000000000E+00 0. -1.
         11    1    3    3    0    0 -0.27402391496E+02 -0.30102132812E+02  0.30175924391E+01  0.40818320935E+02  0.51100000000E-03 0. -1.
        -11    1    3    3    0    0  0.15144253017E+01  0.16521611687E+01  0.87653817515E+01  0.90473774118E+01  0.51100000000E-03 0.  1.
        -12    1    3    3    0    0  0.26366684137E+02  0.27594100728E+02 -0.12439732647E+02  0.40142040004E+02  0.00000000000E+00 0.  1.
</event>
<event>
 7    1  0.1501154E-015  0.9000775E+02  0.7816164E-02  0.1186339E+00
        -11   -1    0    0    0    0  0.00000000000E+00  0.00000000000E+00  0.45593999997E+02  0.45594000000E+02  0.51100000000E-03 0. -1.
         11   -1    0    0    0    0 -0.00000000000E+00 -0.00000000000E+00 -0.45593999997E+02  0.45594000000E+02  0.51100000000E-03 0.  1.
    9900012    2    1    2    0    0 -0.83383412490E+00  0.75277608262E+00 -0.36200326779E+00  0.90007746830E+02  0.90000008289E+02 0.  0.
         12    1    1    2    0    0  0.83383412490E+00 -0.75277608262E+00  0.36200326779E+00  0.11802531696E+01  0.00000000000E+00 0. -1.
         11    1    3    3    0    0 -0.27718645005E+01 -0.81343866251E+01 -0.61476993097E+01  0.10566252204E+02  0.51100000000E-03 0. -1.
        -11    1    3    3    0    0  0.16091035330E+02 -0.32073506606E+02  0.19898501353E+01  0.35938708210E+02  0.51100000000E-03 0.  1.
         12    1    3    3    0    0 -0.14153004954E+02  0.40960669313E+02  0.37958459066E+01  0.43502786416E+02  0.00000000000E+00 0. -1.
</event>
<event>
 7    1  0.1680245E-015  0.9000771E+02  0.7816164E-02  0.1186339E+00
        -11   -1    0    0    0    0  0.00000000000E+00  0.00000000000E+00  0.45593999997E+02  0.45594000000E+02  0.51100000000E-03 0.  1.
         11   -1    0    0    0    0 -0.00000000000E+00 -0.00000000000E+00 -0.45593999997E+02  0.45594000000E+02  0.51100000000E-03 0. -1.
    9900012    2    1    2    0    0  0.19346409956E+00  0.85015155831E+00  0.79555099371E+00  0.90007708759E+02  0.89999969715E+02 0.  0.
         12    1    1    2    0    0 -0.19346409956E+00 -0.85015155831E+00 -0.79555099371E+00  0.11802912410E+01  0.00000000000E+00 0. -1.
         11    1    3    3    0    0 -0.11569714598E+02 -0.72608511978E+01 -0.34052005906E+02  0.36689472093E+02  0.51100000000E-03 0. -1.
        -11    1    3    3    0    0  0.12448828527E+01 -0.87183695451E+01 -0.40170745395E+01  0.96796998382E+01  0.51100000000E-03 0.  1.
        -12    1    3    3    0    0  0.10518295845E+02  0.16829372301E+02  0.38864631439E+02  0.43638536828E+02  0.00000000000E+00 0.  1.
</event>
<event>
 7    1  0.1501154E-015  0.9000758E+02  0.7816164E-02  0.1186339E+00
        -11   -1    0    0    0    0  0.00000000000E+00  0.00000000000E+00  0.45593999997E+02  0.45594000000E+02  0.51100000000E-03 0. -1.
         11   -1    0    0    0    0 -0.00000000000E+00 -0.00000000000E+00 -0.45593999997E+02  0.45594000000E+02  0.51100000000E-03 0.  1.
    9900012    2    1    2    0    0 -0.57818456490E+00 -0.65897860226E+00  0.79046370279E+00  0.90007583525E+02  0.89999842827E+02 0.  0.
         12    1    1    2    0    0  0.57818456490E+00  0.65897860226E+00 -0.79046370279E+00  0.11804164751E+01  0.00000000000E+00 0. -1.
         11    1    3    3    0    0 -0.30290013430E+01 -0.33976444536E+01  0.82139221258E+01  0.93908122076E+01  0.51100000000E-03 0. -1.
        -11    1    3    3    0    0  0.19639205426E+02 -0.29113431619E+02 -0.22173699734E+02  0.41532676901E+02  0.51100000000E-03 0.  1.
         12    1    3    3    0    0 -0.17188388648E+02  0.31852097470E+02  0.14750241311E+02  0.39084094416E+02  0.00000000000E+00 0. -1.
</event>
<event>
 7    1  0.1501154E-015  0.9000787E+02  0.7816164E-02  0.1186339E+00
        -11   -1    0    0    0    0  0.00000000000E+00  0.00000000000E+00  0.45593999997E+02  0.45594000000E+02  0.51100000000E-03 0.  1.
         11   -1    0    0    0    0 -0.00000000000E+00 -0.00000000000E+00 -0.45593999997E+02  0.45594000000E+02  0.51100000000E-03 0. -1.
    9900012    2    1    2    0    0  0.85045865829E+00  0.25326424482E+00  0.77799283090E+00  0.90007874773E+02  0.90000137920E+02 0.  0.
         12    1    1    2    0    0 -0.85045865829E+00 -0.25326424482E+00 -0.77799283090E+00  0.11801252273E+01  0.00000000000E+00 0. -1.
         11    1    3    3    0    0 -0.50506100798E+01  0.32638467639E+00  0.77843675217E+01  0.92850184227E+01  0.51100000000E-03 0. -1.
        -11    1    3    3    0    0  0.17317692008E+02 -0.37092974773E+02  0.18683995087E+01  0.40979045267E+02  0.51100000000E-03 0.  1.
         12    1    3    3    0    0 -0.11416623270E+02  0.37019854341E+02 -0.88747741995E+01  0.39743811083E+02  0.00000000000E+00 0. -1.
</event>
<event>
 7    1  0.1501154E-015  0.9000779E+02  0.7816164E-02  0.1186339E+00
        -11   -1    0    0    0    0  0.00000000000E+00  0.00000000000E+00  0.45593999997E+02  0.45594000000E+02  0.51100000000E-03 0.  1.
         11   -1    0    0    0    0 -0.00000000000E+00 -0.00000000000E+00 -0.45593999997E+02  0.45594000000E+02  0.51100000000E-03 0. -1.
    9900012    2    1    2    0    0  0.10252379433E+00  0.11554779547E+01 -0.21738439392E+00  0.90007789677E+02  0.90000051701E+02 0.  0.
         12    1    1    2    0    0 -0.10252379433E+00 -0.11554779547E+01  0.21738439392E+00  0.11802103232E+01  0.00000000000E+00 0. -1.
         11    1    3    3    0    0  0.88346107914E+01 -0.22289852194E+00 -0.42029265869E+01  0.97859401052E+01  0.51100000000E-03 0. -1.
        -11    1    3    3    0    0  0.52146339219E+01  0.39002108628E+02 -0.31176300755E+01  0.39472477777E+02  0.51100000000E-03 0.  1.
         12    1    3    3    0    0 -0.13946720919E+02 -0.37623732151E+02  0.71031722685E+01  0.40749371794E+02  0.00000000000E+00 0. -1.
</event>
<event>
 7    1  0.1501154E-015  0.9000776E+02  0.7816164E-02  0.1186339E+00
        -11   -1    0    0    0    0  0.00000000000E+00  0.00000000000E+00  0.45593999997E+02  0.45594000000E+02  0.51100000000E-03 0. -1.
         11   -1    0    0    0    0 -0.00000000000E+00 -0.00000000000E+00 -0.45593999997E+02  0.45594000000E+02  0.51100000000E-03 0.  1.
    9900012    2    1    2    0    0 -0.41727912005E+00 -0.68883497872E+00 -0.86276347657E+00  0.90007755827E+02  0.90000017404E+02 0.  0.
         12    1    1    2    0    0  0.41727912005E+00  0.68883497872E+00  0.86276347657E+00  0.11802441732E+01  0.00000000000E+00 0. -1.
         11    1    3    3    0    0  0.11898636662E+02 -0.12085145711E+02  0.11817402782E+02  0.20670735595E+02  0.51100000000E-03 0. -1.
        -11    1    3    3    0    0  0.41967867741E+01  0.10634547709E+02  0.25383271925E+02  0.27839129262E+02  0.51100000000E-03 0.  1.
        -12    1    3    3    0    0 -0.16512702556E+02  0.76176302365E+00 -0.38063438183E+02  0.41497890970E+02  0.00000000000E+00 0.  1.
</event>
<event>
 7    1  0.1501154E-015  0.9000774E+02  0.7816164E-02  0.1186339E+00
        -11   -1    0    0    0    0  0.00000000000E+00  0.00000000000E+00  0.45593999997E+02  0.45594000000E+02  0.51100000000E-03 0. -1.
         11   -1    0    0    0    0 -0.00000000000E+00 -0.00000000000E+00 -0.45593999997E+02  0.45594000000E+02  0.51100000000E-03 0.  1.
    9900012    2    1    2    0    0 -0.14990754973E+00  0.12842718522E+00 -0.11636390865E+01  0.90007736581E+02  0.89999997904E+02 0.  0.
         12    1    1    2    0    0  0.14990754973E+00 -0.12842718522E+00  0.11636390865E+01  0.11802634193E+01  0.00000000000E+00 0. -1.
         11    1    3    3    0    0 -0.78727092779E+01 -0.60692541181E+01 -0.42675794521E+01  0.10817931021E+02  0.51100000000E-03 0. -1.
        -11    1    3    3    0    0  0.14511693707E+02 -0.24485395028E+02 -0.24353172042E+02  0.37459322107E+02  0.51100000000E-03 0.  1.
         12    1    3    3    0    0 -0.67888919793E+01  0.30683076332E+02  0.27457112407E+02  0.41730483453E+02  0.00000000000E+00 0. -1.
</event>
<event>
 7    1  0.1501154E-015  0.9000779E+02  0.7816164E-02  0.1186339E+00
        -11   -1    0    0    0    0  0.00000000000E+00  0.00000000000E+00  0.45593999997E+02  0.45594000000E+02  0.51100000000E-03 0. -1.
         11   -1    0    0    0    0 -0.00000000000E+00 -0.00000000000E+00 -0.45593999997E+02  0.45594000000E+02  0.51100000000E-03 0.  1.
    9900012    2    1    2    0    0  0.93141666087E+00 -0.51749977378E+00 -0.50750586028E+00  0.90007785947E+02  0.90000047922E+02 0.  0.
         12    1    1    2    0    0 -0.93141666087E+00  0.51749977378E+00  0.50750586028E+00  0.11802140527E+01  0.00000000000E+00 0. -1.
         11    1    3    3    0    0  0.35717958143E+01 -0.69815338941E+01 -0.49110841668E+01  0.92530151199E+01  0.51100000000E-03 0. -1.
        -11    1    3    3    0    0 -0.13140180664E+02  0.19719045922E+02 -0.32465142773E+02  0.40193166278E+02  0.51100000000E-03 0.  1.
         12    1    3    3    0    0  0.10499801511E+02 -0.13255011801E+02  0.36868721079E+02  0.40561604549E+02  0.00000000000E+00 0. -1.
</event>
<event>
 7    1  0.1501154E-015  0.9000782E+02  0.7816164E-02  0.1186339E+00
        -11   -1    0    0    0    0  0.00000000000E+00  0.00000000000E+00  0.45593999997E+02  0.45594000000E+02  0.51100000000E-03 0.  1.
         11   -1    0    0    0    0 -0.00000000000E+00 -0.00000000000E+00 -0.45593999997E+02  0.45594000000E+02  0.51100000000E-03 0. -1.
    9900012    2    1    2    0    0 -0.11172259482E+01 -0.36584798751E+00 -0.10388254057E+00  0.90007817746E+02  0.90000080141E+02 0.  0.
         12    1    1    2    0    0  0.11172259482E+01  0.36584798751E+00  0.10388254057E+00  0.11801822535E+01  0.00000000000E+00 0. -1.
         11    1    3    3    0    0 -0.34801977994E+01  0.41543467676E+02  0.11566676602E+02  0.43263835835E+02  0.51100000000E-03 0. -1.
        -11    1    3    3    0    0 -0.54861907335E+01 -0.64382727512E+01 -0.49433704426E+01  0.97972729051E+01  0.51100000000E-03 0.  1.
        -12    1    3    3    0    0  0.78491625847E+01 -0.35471042913E+02 -0.67271886996E+01  0.36946709006E+02  0.00000000000E+00 0.  1.
</event>
<event>
 7    1  0.1791131E-015  0.9000770E+02  0.7816164E-02  0.1186339E+00
        -11   -1    0    0    0    0  0.00000000000E+00  0.00000000000E+00  0.45593999997E+02  0.45594000000E+02  0.51100000000E-03 0. -1.
         11   -1    0    0    0    0 -0.00000000000E+00 -0.00000000000E+00 -0.45593999997E+02  0.45594000000E+02  0.51100000000E-03 0.  1.
    9900012    2    1    2    0    0  0.26232728949E+00 -0.56256237197E+00 -0.10039017017E+01  0.90007698913E+02  0.89999959739E+02 0.  0.
         12    1    1    2    0    0 -0.26232728949E+00  0.56256237197E+00  0.10039017017E+01  0.11803010870E+01  0.00000000000E+00 0. -1.
         11    1    3    3    0    0  0.90193420420E+01 -0.29626274699E+02  0.20005882491E+02  0.36868686143E+02  0.51100000000E-03 0. -1.
        -11    1    3    3    0    0 -0.34048682260E+01 -0.21051271878E+01  0.88071241023E+01  0.96741988468E+01  0.51100000000E-03 0.  1.
        -12    1    3    3    0    0 -0.53521465264E+01  0.31168839514E+02 -0.29816908295E+02  0.43464813923E+02  0.00000000000E+00 0.  1.
</event>
<event>
 7    1  0.1501154E-015  0.9000777E+02  0.7816164E-02  0.1186339E+00
        -11   -1    0    0    0    0  0.00000000000E+00  0.00000000000E+00  0.45593999997E+02  0.45594000000E+02  0.51100000000E-03 0.  1.
         11   -1    0    0    0    0 -0.00000000000E+00 -0.00000000000E+00 -0.45593999997E+02  0.45594000000E+02  0.51100000000E-03 0. -1.
    9900012    2    1    2    0    0  0.49655335197E+00 -0.28954511793E+00  0.10308015895E+01  0.90007765479E+02  0.90000027184E+02 0.  0.
         12    1    1    2    0    0 -0.49655335197E+00  0.28954511793E+00 -0.10308015895E+01  0.11802345206E+01  0.00000000000E+00 0. -1.
         11    1    3    3    0    0  0.62655814559E+01 -0.10771722914E+01 -0.27677182733E+01  0.69338355783E+01  0.51100000000E-03 0. -1.
        -11    1    3    3    0    0  0.28663963201E+02 -0.49354424612E+01 -0.24585612547E+02  0.38084560169E+02  0.51100000000E-03 0.  1.
         12    1    3    3    0    0 -0.34432991305E+02  0.57230696347E+01  0.28384132410E+02  0.44989369732E+02  0.00000000000E+00 0. -1.
</event>
<event>
 7    1  0.1501154E-015  0.9000776E+02  0.7816164E-02  0.1186339E+00
        -11   -1    0    0    0    0  0.00000000000E+00  0.00000000000E+00  0.45593999997E+02  0.45594000000E+02  0.51100000000E-03 0. -1.
         11   -1    0    0    0    0 -0.00000000000E+00 -0.00000000000E+00 -0.45593999997E+02  0.45594000000E+02  0.51100000000E-03 0.  1.
    9900012    2    1    2    0    0  0.45977480734E+00 -0.98832813533E+00 -0.45251551284E+00  0.90007764572E+02  0.90000026264E+02 0.  0.
         12    1    1    2    0    0 -0.45977480734E+00  0.98832813533E+00  0.45251551284E+00  0.11802354282E+01  0.00000000000E+00 0. -1.
         11    1    3    3    0    0 -0.33175814831E+01  0.69199179114E+01  0.58406809436E+01  0.96439185471E+01  0.51100000000E-03 0. -1.
        -11    1    3    3    0    0  0.32645255011E+02  0.15478347375E+02  0.13129996461E+02  0.38440716949E+02  0.51100000000E-03 0.  1.
         12    1    3    3    0    0 -0.28867898721E+02 -0.23386593422E+02 -0.19423192917E+02  0.41923129076E+02  0.00000000000E+00 0. -1.
</event>
<event>
 7    1  0.1501154E-015  0.9000651E+02  0.7816164E-02  0.1186341E+00
        -11   -1    0    0    0    0  0.00000000000E+00  0.00000000000E+00  0.45593999997E+02  0.45594000000E+02  0.51100000000E-03 0.  1.
         11   -1    0    0    0    0 -0.00000000000E+00 -0.00000000000E+00 -0.45593999997E+02  0.45594000000E+02  0.51100000000E-03 0. -1.
    9900012    2    1    2    0    0 -0.51259323562E+00 -0.79149147208E+00  0.71182740847E+00  0.90006514141E+02  0.89998759319E+02 0.  0.
         12    1    1    2    0    0  0.51259323562E+00  0.79149147208E+00 -0.71182740847E+00  0.11814858590E+01  0.00000000000E+00 0. -1.
         11    1    3    3    0    0  0.24013093475E+01 -0.56419119395E+01  0.36119165142E+01  0.71164175033E+01  0.51100000000E-03 0. -1.
        -11    1    3    3    0    0  0.16334624304E+02  0.26538144299E+02  0.27004399570E+02  0.41235065786E+02  0.51100000000E-03 0.  1.
         12    1    3    3    0    0 -0.19248526887E+02 -0.21687723832E+02 -0.29904488676E+02  0.41655030852E+02  0.00000000000E+00 0. -1.
</event>
<event>
 7    1  0.1501154E-015  0.9000774E+02  0.7816164E-02  0.1186339E+00
        -11   -1    0    0    0    0  0.00000000000E+00  0.00000000000E+00  0.45593999997E+02  0.45594000000E+02  0.51100000000E-03 0. -1.
         11   -1    0    0    0    0 -0.00000000000E+00 -0.00000000000E+00 -0.45593999997E+02  0.45594000000E+02  0.51100000000E-03 0.  1.
    9900012    2    1    2    0    0 -0.32150406967E+00  0.10532992265E+01 -0.42450045027E+00  0.90007743774E+02  0.90000005192E+02 0.  0.
         12    1    1    2    0    0  0.32150406967E+00 -0.10532992265E+01  0.42450045027E+00  0.11802562263E+01  0.00000000000E+00 0. -1.
         11    1    3    3    0    0  0.12404973745E+00 -0.32429535067E+02  0.21192276640E+02  0.38740195178E+02  0.51100000000E-03 0. -1.
        -11    1    3    3    0    0 -0.11330211466E+02  0.12055348575E+01 -0.96963946131E+00  0.11435349015E+02  0.51100000000E-03 0.  1.
        -12    1    3    3    0    0  0.10884657658E+02  0.32277299436E+02 -0.20647137628E+02  0.39832199581E+02  0.00000000000E+00 0.  1.
</event>
<event>
 7    1  0.1501154E-015  0.9000776E+02  0.7816164E-02  0.1186339E+00
        -11   -1    0    0    0    0  0.00000000000E+00  0.00000000000E+00  0.45593999997E+02  0.45594000000E+02  0.51100000000E-03 0. -1.
         11   -1    0    0    0    0 -0.00000000000E+00 -0.00000000000E+00 -0.45593999997E+02  0.45594000000E+02  0.51100000000E-03 0.  1.
    9900012    2    1    2    0    0 -0.69776565918E-01 -0.98862433244E-01 -0.11740157965E+01  0.90007764583E+02  0.90000026275E+02 0.  0.
         12    1    1    2    0    0  0.69776565918E-01  0.98862433244E-01  0.11740157965E+01  0.11802354173E+01  0.00000000000E+00 0. -1.
         11    1    3    3    0    0  0.55314578816E+01 -0.17936104614E+02 -0.28547402444E+02  0.34165114688E+02  0.51100000000E-03 0. -1.
        -11    1    3    3    0    0  0.13507149897E+02 -0.20967338146E+01 -0.38105626402E+01  0.14190129630E+02  0.51100000000E-03 0.  1.
        -12    1    3    3    0    0 -0.19108384344E+02  0.19933975996E+02  0.31183949288E+02  0.41652520265E+02  0.00000000000E+00 0.  1.
</event>
<event>
 7    1  0.1501154E-015  0.9000776E+02  0.7816164E-02  0.1186339E+00
        -11   -1    0    0    0    0  0.00000000000E+00  0.00000000000E+00  0.45593999997E+02  0.45594000000E+02  0.51100000000E-03 0.  1.
         11   -1    0    0    0    0 -0.00000000000E+00 -0.00000000000E+00 -0.45593999997E+02  0.45594000000E+02  0.51100000000E-03 0. -1.
    9900012    2    1    2    0    0 -0.84546409709E-01  0.10527562677E+01  0.52680526676E+00  0.90007759497E+02  0.90000021123E+02 0.  0.
         12    1    1    2    0    0  0.84546409709E-01 -0.10527562677E+01 -0.52680526676E+00  0.11802405025E+01  0.00000000000E+00 0. -1.
         11    1    3    3    0    0 -0.31780503828E+01 -0.39967573890E+01  0.98356667981E+01  0.11082166552E+02  0.51100000000E-03 0. -1.
        -11    1    3    3    0    0 -0.14700566952E+02 -0.15141195022E+02  0.26660704001E+02  0.34002288062E+02  0.51100000000E-03 0.  1.
         12    1    3    3    0    0  0.17794070925E+02  0.20190708678E+02 -0.35969565532E+02  0.44923304883E+02  0.00000000000E+00 0. -1.
</event>
<event>
 7    1  0.1501154E-015  0.9000767E+02  0.7816164E-02  0.1186339E+00
        -11   -1    0    0    0    0  0.00000000000E+00  0.00000000000E+00  0.45593999997E+02  0.45594000000E+02  0.51100000000E-03 0. -1.
         11   -1    0    0    0    0 -0.00000000000E+00 -0.00000000000E+00 -0.45593999997E+02  0.45594000000E+02  0.51100000000E-03 0.  1.
    9900012    2    1    2    0    0 -0.12265565121E+00 -0.11397958196E+01  0.28107310133E+00  0.90007669111E+02  0.89999929543E+02 0.  0.
         12    1    1    2    0    0  0.12265565121E+00  0.11397958196E+01 -0.28107310133E+00  0.11803308890E+01  0.00000000000E+00 0. -1.
         11    1    3    3    0    0 -0.33087833885E+02 -0.67606598442E+00 -0.21418556125E+02  0.39421014233E+02  0.51100000000E-03 0. -1.
        -11    1    3    3    0    0 -0.32738414563E+01 -0.80327315477E+01  0.42395077545E+01  0.96548557866E+01  0.51100000000E-03 0.  1.
        -12    1    3    3    0    0  0.36239019690E+02  0.75690017126E+01  0.17460121472E+02  0.40931799091E+02  0.00000000000E+00 0.  1.
</event>
<event>
 7    1  0.1501154E-015  0.9000782E+02  0.7816164E-02  0.1186339E+00
        -11   -1    0    0    0    0  0.00000000000E+00  0.00000000000E+00  0.45593999997E+02  0.45594000000E+02  0.51100000000E-03 0.  1.
         11   -1    0    0    0    0 -0.00000000000E+00 -0.00000000000E+00 -0.45593999997E+02  0.45594000000E+02  0.51100000000E-03 0. -1.
    9900012    2    1    2    0    0 -0.11049210932E+01  0.18794490727E-01 -0.41427993284E+00  0.90007817083E+02  0.90000079468E+02 0.  0.
         12    1    1    2    0    0  0.11049210932E+01 -0.18794490727E-01  0.41427993284E+00  0.11801829171E+01  0.00000000000E+00 0. -1.
         11    1    3    3    0    0  0.78664733255E+01  0.34749455344E+01  0.21825824709E+00  0.86025743804E+01  0.51100000000E-03 0. -1.
        -11    1    3    3    0    0  0.36033812350E+02  0.17361206692E+01  0.68997784387E+00  0.36082209150E+02  0.51100000000E-03 0.  1.
         12    1    3    3    0    0 -0.45005206768E+02 -0.51922717128E+01 -0.13225160238E+01  0.45323033553E+02  0.00000000000E+00 0. -1.
</event>
<event>
 7    1  0.1501154E-015  0.9000786E+02  0.7816164E-02  0.1186339E+00
        -11   -1    0    0    0    0  0.00000000000E+00  0.00000000000E+00  0.45593999997E+02  0.45594000000E+02  0.51100000000E-03 0.  1.
         11   -1    0    0    0    0 -0.00000000000E+00 -0.00000000000E+00 -0.45593999997E+02  0.45594000000E+02  0.51100000000E-03 0. -1.
    9900012    2    1    2    0    0 -0.14272060620E+00 -0.27281987047E+00  0.11392641427E+01  0.90007863296E+02  0.90000126291E+02 0.  0.
         12    1    1    2    0    0  0.14272060620E+00  0.27281987047E+00 -0.11392641427E+01  0.11801367040E+01  0.00000000000E+00 0. -1.
         11    1    3    3    0    0  0.34418384131E+01  0.85049876158E+01  0.36555900567E+01  0.98764571041E+01  0.51100000000E-03 0. -1.
        -11    1    3    3    0    0 -0.16635547892E+02  0.22680158652E+02 -0.26366618280E+02  0.38552945542E+02  0.51100000000E-03 0.  1.
         12    1    3    3    0    0  0.13050988873E+02 -0.31457966138E+02  0.23850292366E+02  0.41578460650E+02  0.00000000000E+00 0. -1.
</event>
<event>
 7    1  0.1501154E-015  0.9000780E+02  0.7816164E-02  0.1186339E+00
        -11   -1    0    0    0    0  0.00000000000E+00  0.00000000000E+00  0.45593999997E+02  0.45594000000E+02  0.51100000000E-03 0.  1.
         11   -1    0    0    0    0 -0.00000000000E+00 -0.00000000000E+00 -0.45593999997E+02  0.45594000000E+02  0.51100000000E-03 0. -1.
    9900012    2    1    2    0    0 -0.21670149402E+00  0.53379309303E+00  0.10300391336E+01  0.90007798653E+02  0.90000060795E+02 0.  0.
         12    1    1    2    0    0  0.21670149402E+00 -0.53379309303E+00 -0.10300391336E+01  0.11802013474E+01  0.00000000000E+00 0. -1.
         11    1    3    3    0    0 -0.31887051884E+02  0.15306033326E+02 -0.16382163750E+02  0.38979918207E+02  0.51100000000E-03 0. -1.
        -11    1    3    3    0    0 -0.79395723231E+00 -0.17085819366E+01 -0.77183653180E+01  0.79449848183E+01  0.51100000000E-03 0.  1.
        -12    1    3    3    0    0  0.32464307622E+02 -0.13063658297E+02  0.25130568202E+02  0.43082895627E+02  0.00000000000E+00 0.  1.
</event>
<event>
 7    1  0.1501154E-015  0.9000771E+02  0.7816164E-02  0.1186339E+00
        -11   -1    0    0    0    0  0.00000000000E+00  0.00000000000E+00  0.45593999997E+02  0.45594000000E+02  0.51100000000E-03 0.  1.
         11   -1    0    0    0    0 -0.00000000000E+00 -0.00000000000E+00 -0.45593999997E+02  0.45594000000E+02  0.51100000000E-03 0. -1.
    9900012    2    1    2    0    0 -0.37502182426E+00  0.23094027123E+00  0.10950351108E+01  0.90007713310E+02  0.89999974325E+02 0.  0.
         12    1    1    2    0    0  0.37502182426E+00 -0.23094027123E+00 -0.10950351108E+01  0.11802866904E+01  0.00000000000E+00 0. -1.
         11    1    3    3    0    0 -0.90528825889E+01  0.67096051543E+01  0.30698726991E+01  0.11678938443E+02  0.51100000000E-03 0. -1.
        -11    1    3    3    0    0 -0.31964669194E+02 -0.17118462891E+02  0.19825827195E+00  0.36260462698E+02  0.51100000000E-03 0.  1.
         12    1    3    3    0    0  0.40642529959E+02  0.10639798008E+02 -0.21730958602E+01  0.42068312169E+02  0.00000000000E+00 0. -1.
</event>
<event>
 7    1  0.1501154E-015  0.9000769E+02  0.7816164E-02  0.1186339E+00
        -11   -1    0    0    0    0  0.00000000000E+00  0.00000000000E+00  0.45593999997E+02  0.45594000000E+02  0.51100000000E-03 0.  1.
         11   -1    0    0    0    0 -0.00000000000E+00 -0.00000000000E+00 -0.45593999997E+02  0.45594000000E+02  0.51100000000E-03 0. -1.
    9900012    2    1    2    0    0  0.10694684560E+01  0.34496670646E+00  0.36106662595E+00  0.90007689060E+02  0.89999949755E+02 0.  0.
         12    1    1    2    0    0 -0.10694684560E+01 -0.34496670646E+00 -0.36106662595E+00  0.11803109401E+01  0.00000000000E+00 0. -1.
         11    1    3    3    0    0  0.15115834439E+01 -0.80946478400E+01 -0.37959129869E+01  0.90673680761E+01  0.51100000000E-03 0. -1.
        -11    1    3    3    0    0 -0.37546956375E+02 -0.73592592856E+01  0.11492892086E+02  0.39950208999E+02  0.51100000000E-03 0.  1.
         12    1    3    3    0    0  0.37104841387E+02  0.15798873832E+02 -0.73359124733E+01  0.40990111985E+02  0.00000000000E+00 0. -1.
</event>
<event>
 7    1  0.1501154E-015  0.9000798E+02  0.7816164E-02  0.1186339E+00
        -11   -1    0    0    0    0  0.00000000000E+00  0.00000000000E+00  0.45593999997E+02  0.45594000000E+02  0.51100000000E-03 0.  1.
         11   -1    0    0    0    0 -0.00000000000E+00 -0.00000000000E+00 -0.45593999997E+02  0.45594000000E+02  0.51100000000E-03 0. -1.
    9900012    2    1    2    0    0  0.98829152933E+00 -0.22997425242E+00  0.60235739082E+00  0.90007981894E+02  0.90000246455E+02 0.  0.
         12    1    1    2    0    0 -0.98829152933E+00  0.22997425242E+00 -0.60235739082E+00  0.11800181058E+01  0.00000000000E+00 0. -1.
         11    1    3    3    0    0 -0.84186688721E+01 -0.18733119987E+01 -0.99572744119E+00  0.86818636721E+01  0.51100000000E-03 0. -1.
        -11    1    3    3    0    0 -0.34969992053E+02 -0.41228281819E+01 -0.66164395331E+01  0.35828415102E+02  0.51100000000E-03 0.  1.
         12    1    3    3    0    0  0.44376952454E+02  0.57661659281E+01  0.82145243651E+01  0.45497703120E+02  0.00000000000E+00 0. -1.
</event>
<event>
 7    1  0.1501154E-015  0.9000777E+02  0.7816164E-02  0.1186339E+00
        -11   -1    0    0    0    0  0.00000000000E+00  0.00000000000E+00  0.45593999997E+02  0.45594000000E+02  0.51100000000E-03 0.  1.
         11   -1    0    0    0    0 -0.00000000000E+00 -0.00000000000E+00 -0.45593999997E+02  0.45594000000E+02  0.51100000000E-03 0. -1.
    9900012    2    1    2    0    0 -0.84324045632E+00  0.68227324985E+00 -0.46516713336E+00  0.90007774718E+02  0.90000036544E+02 0.  0.
         12    1    1    2    0    0  0.84324045632E+00 -0.68227324985E+00  0.46516713336E+00  0.11802252821E+01  0.00000000000E+00 0. -1.
         11    1    3    3    0    0  0.68330967866E+01  0.37317418066E+01 -0.47784912547E+01  0.91351566784E+01  0.51100000000E-03 0. -1.
        -11    1    3    3    0    0  0.23958910128E+02 -0.21855299020E+02 -0.18730982352E+02  0.37450409476E+02  0.51100000000E-03 0.  1.
         12    1    3    3    0    0 -0.31635247371E+02  0.18805830464E+02  0.23044306473E+02  0.43422208563E+02  0.00000000000E+00 0. -1.
</event>
<event>
 7    1  0.1501154E-015  0.9000829E+02  0.7816164E-02  0.1186338E+00
        -11   -1    0    0    0    0  0.00000000000E+00  0.00000000000E+00  0.45593999997E+02  0.45594000000E+02  0.51100000000E-03 0. -1.
         11   -1    0    0    0    0 -0.00000000000E+00 -0.00000000000E+00 -0.45593999997E+02  0.45594000000E+02  0.51100000000E-03 0.  1.
    9900012    2    1    2    0    0  0.71441547531E+00 -0.91322278794E-01 -0.93433269024E+00  0.90008293763E+02  0.90000562439E+02 0.  0.
         12    1    1    2    0    0 -0.71441547531E+00  0.91322278794E-01  0.93433269024E+00  0.11797062372E+01  0.00000000000E+00 0. -1.
         11    1    3    3    0    0  0.34483764808E+02 -0.14838105963E+02  0.14519049174E+02  0.40250493328E+02  0.51100000000E-03 0. -1.
        -11    1    3    3    0    0  0.44693270124E+01  0.69453504246E+01 -0.22799359542E+01  0.85680152125E+01  0.51100000000E-03 0.  1.
        -12    1    3    3    0    0 -0.38238676345E+02  0.78014332601E+01 -0.13173445910E+02  0.41189785223E+02  0.00000000000E+00 0.  1.
</event>
<event>
 7    1  0.1501154E-015  0.9000773E+02  0.7816164E-02  0.1186339E+00
        -11   -1    0    0    0    0  0.00000000000E+00  0.00000000000E+00  0.45593999997E+02  0.45594000000E+02  0.51100000000E-03 0. -1.
         11   -1    0    0    0    0 -0.00000000000E+00 -0.00000000000E+00 -0.45593999997E+02  0.45594000000E+02  0.51100000000E-03 0.  1.
    9900012    2    1    2    0    0 -0.99493666196E+00 -0.58618481211E+00 -0.24398340868E+00  0.90007729057E+02  0.89999990281E+02 0.  0.
         12    1    1    2    0    0  0.99493666196E+00  0.58618481211E+00  0.24398340868E+00  0.11802709430E+01  0.00000000000E+00 0. -1.
         11    1    3    3    0    0  0.34145108583E+01 -0.23769444067E+01 -0.81883906503E+01  0.91846878454E+01  0.51100000000E-03 0. -1.
        -11    1    3    3    0    0  0.17342896732E+02 -0.69374263649E+01 -0.30518766427E+02  0.35781266832E+02  0.51100000000E-03 0.  1.
         12    1    3    3    0    0 -0.21752344252E+02  0.87281859595E+01  0.38463173668E+02  0.45041774380E+02  0.00000000000E+00 0. -1.
</event>
<event>
 7    1  0.1694153E-015  0.9000775E+02  0.7816164E-02  0.1186339E+00
        -11   -1    0    0    0    0  0.00000000000E+00  0.00000000000E+00  0.45593999997E+02  0.45594000000E+02  0.51100000000E-03 0. -1.
         11   -1    0    0    0    0 -0.00000000000E+00 -0.00000000000E+00 -0.45593999997E+02  0.45594000000E+02  0.51100000000E-03 0.  1.
    9900012    2    1    2    0    0 -0.61993128520E+00  0.17086939367E+00 -0.98969137757E+00  0.90007745718E+02  0.90000007161E+02 0.  0.
         12    1    1    2    0    0  0.61993128520E+00 -0.17086939367E+00  0.98969137757E+00  0.11802542823E+01  0.00000000000E+00 0. -1.
         11    1    3    3    0    0 -0.28215471389E+02  0.75160556235E+01  0.28378967024E+02  0.40718173921E+02  0.51100000000E-03 0. -1.
        -11    1    3    3    0    0 -0.92427228221E+00 -0.98054909277E+01 -0.28125329038E+01  0.10242669241E+02  0.51100000000E-03 0.  1.
        -12    1    3    3    0    0  0.28519812386E+02  0.24603046979E+01 -0.26556125498E+02  0.39046902556E+02  0.00000000000E+00 0.  1.
</event>
<event>
 7    1  0.1578027E-015  0.9000817E+02  0.7816164E-02  0.1186338E+00
        -11   -1    0    0    0    0  0.00000000000E+00  0.00000000000E+00  0.45593999997E+02  0.45594000000E+02  0.51100000000E-03 0. -1.
         11   -1    0    0    0    0 -0.00000000000E+00 -0.00000000000E+00 -0.45593999997E+02  0.45594000000E+02  0.51100000000E-03 0.  1.
    9900012    2    1    2    0    0 -0.54784813897E+00 -0.12264042038E+00 -0.10377026600E+01  0.90008167357E+02  0.90000434365E+02 0.  0.
         12    1    1    2    0    0  0.54784813897E+00  0.12264042038E+00  0.10377026600E+01  0.11798326435E+01  0.00000000000E+00 0. -1.
         11    1    3    3    0    0  0.41699170107E+00 -0.23979613611E+02  0.31732897670E+02  0.39776532601E+02  0.51100000000E-03 0. -1.
        -11    1    3    3    0    0  0.81522383090E+01 -0.26761748027E+01 -0.24521248381E+01  0.89237782079E+01  0.51100000000E-03 0.  1.
        -12    1    3    3    0    0 -0.91170781490E+01  0.26533147993E+02 -0.30318475491E+02  0.41307856547E+02  0.00000000000E+00 0.  1.
</event>
<event>
 7    1  0.1501154E-015  0.9000767E+02  0.7816164E-02  0.1186339E+00
        -11   -1    0    0    0    0  0.00000000000E+00  0.00000000000E+00  0.45593999997E+02  0.45594000000E+02  0.51100000000E-03 0. -1.
         11   -1    0    0    0    0 -0.00000000000E+00 -0.00000000000E+00 -0.45593999997E+02  0.45594000000E+02  0.51100000000E-03 0.  1.
    9900012    2    1    2    0    0 -0.90494462042E+00  0.36434920840E+00  0.66446530617E+00  0.90007665617E+02  0.89999926004E+02 0.  0.
         12    1    1    2    0    0  0.90494462042E+00 -0.36434920840E+00 -0.66446530617E+00  0.11803343826E+01  0.00000000000E+00 0. -1.
         11    1    3    3    0    0 -0.27359045966E+02  0.24124392093E+02  0.69061906097E+01  0.37124104825E+02  0.51100000000E-03 0. -1.
        -11    1    3    3    0    0 -0.82161242199E+01  0.25099742485E+01 -0.35689754612E+01  0.93028089322E+01  0.51100000000E-03 0.  1.
        -12    1    3    3    0    0  0.34670225566E+02 -0.26270017134E+02 -0.26727498424E+01  0.43580751860E+02  0.00000000000E+00 0.  1.
</event>
<event>
 8    1  0.1501154E-015  0.9000774E+02  0.7816164E-02  0.1186339E+00
        -11   -1    0    0    0    0  0.00000000000E+00  0.00000000000E+00  0.45593999997E+02  0.45594000000E+02  0.51100000000E-03 0.  1.
         11   -1    0    0    0    0 -0.00000000000E+00 -0.00000000000E+00 -0.45593999997E+02  0.45594000000E+02  0.51100000000E-03 0. -1.
    9900012    2    1    2    0    0  0.50194984635E+00 -0.58296209144E+00  0.89510086210E+00  0.90007744095E+02  0.90000005517E+02 0.  0.
         23    2    3    3    0    0 -0.26408898368E+02  0.35483483057E+01  0.10412571595E+01  0.62781234240E+02  0.56836418496E+02 0.  0.
         12    1    1    2    0    0 -0.50194984635E+00  0.58296209144E+00 -0.89510086210E+00  0.11802559052E+01  0.00000000000E+00 0. -1.
         11    1    4    4    0    0  0.97020087311E+01 -0.15792871544E+01  0.19548879462E+02  0.21881083378E+02  0.51100000000E-03 0. -1.
        -11    1    4    4    0    0 -0.36110907099E+02  0.51276354602E+01 -0.18507622302E+02  0.40900150861E+02  0.51100000000E-03 0.  1.
         12    1    3    3    0    0  0.26910848215E+02 -0.41313103972E+01 -0.14615629740E+00  0.27226509855E+02  0.00000000000E+00 0. -1.
</event>
<event>
 7    1  0.1501154E-015  0.9000774E+02  0.7816164E-02  0.1186339E+00
        -11   -1    0    0    0    0  0.00000000000E+00  0.00000000000E+00  0.45593999997E+02  0.45594000000E+02  0.51100000000E-03 0. -1.
         11   -1    0    0    0    0 -0.00000000000E+00 -0.00000000000E+00 -0.45593999997E+02  0.45594000000E+02  0.51100000000E-03 0.  1.
    9900012    2    1    2    0    0 -0.80608193828E+00  0.85060227615E+00 -0.14045807699E+00  0.90007736981E+02  0.89999998309E+02 0.  0.
         12    1    1    2    0    0  0.80608193828E+00 -0.85060227615E+00  0.14045807699E+00  0.11802630193E+01  0.00000000000E+00 0. -1.
         11    1    3    3    0    0 -0.78146118000E+01 -0.36779410193E+01 -0.20244918159E+01  0.88709624675E+01  0.51100000000E-03 0. -1.
        -11    1    3    3    0    0 -0.30376793832E+01  0.23388647017E+02 -0.32799535080E+02  0.40398834229E+02  0.51100000000E-03 0.  1.
         12    1    3    3    0    0  0.10046209245E+02 -0.18860103721E+02  0.34683568819E+02  0.40737940284E+02  0.00000000000E+00 0. -1.
</event>
<event>
 7    1  0.1501154E-015  0.9000773E+02  0.7816164E-02  0.1186339E+00
        -11   -1    0    0    0    0  0.00000000000E+00  0.00000000000E+00  0.45593999997E+02  0.45594000000E+02  0.51100000000E-03 0. -1.
         11   -1    0    0    0    0 -0.00000000000E+00 -0.00000000000E+00 -0.45593999997E+02  0.45594000000E+02  0.51100000000E-03 0.  1.
    9900012    2    1    2    0    0  0.25083888383E+00  0.84157374556E+00 -0.78859040900E+00  0.90007728274E+02  0.89999989487E+02 0.  0.
         12    1    1    2    0    0 -0.25083888383E+00 -0.84157374556E+00  0.78859040900E+00  0.11802717264E+01  0.00000000000E+00 0. -1.
         11    1    3    3    0    0  0.37879104302E+01  0.50534131620E+00 -0.96841583426E+01  0.10410886530E+02  0.51100000000E-03 0. -1.
        -11    1    3    3    0    0  0.38210967095E+01 -0.55836992418E+01 -0.34514473329E+02  0.35171399556E+02  0.51100000000E-03 0.  1.
         12    1    3    3    0    0 -0.73581682559E+01  0.59199316711E+01  0.43410041263E+02  0.44425442187E+02  0.00000000000E+00 0. -1.
</event>
<event>
 7    1  0.1501154E-015  0.9000774E+02  0.7816164E-02  0.1186339E+00
        -11   -1    0    0    0    0  0.00000000000E+00  0.00000000000E+00  0.45593999997E+02  0.45594000000E+02  0.51100000000E-03 0.  1.
         11   -1    0    0    0    0 -0.00000000000E+00 -0.00000000000E+00 -0.45593999997E+02  0.45594000000E+02  0.51100000000E-03 0. -1.
    9900012    2    1    2    0    0 -0.26343749848E+00 -0.10140513505E+01  0.54342766093E+00  0.90007740249E+02  0.90000001620E+02 0.  0.
         12    1    1    2    0    0  0.26343749848E+00  0.10140513505E+01 -0.54342766093E+00  0.11802597509E+01  0.00000000000E+00 0. -1.
         11    1    3    3    0    0 -0.56288103299E+01 -0.33069024924E+02 -0.20801799452E+02  0.39470986507E+02  0.51100000000E-03 0. -1.
        -11    1    3    3    0    0 -0.80206006264E+01  0.75207738564E+01 -0.50454488423E+01  0.12097463705E+02  0.51100000000E-03 0.  1.
        -12    1    3    3    0    0  0.13385973458E+02  0.24534199717E+02  0.26390675955E+02  0.38439290037E+02  0.00000000000E+00 0.  1.
</event>
<event>
 7    1  0.1501154E-015  0.9000829E+02  0.7816164E-02  0.1186338E+00
        -11   -1    0    0    0    0  0.00000000000E+00  0.00000000000E+00  0.45593999997E+02  0.45594000000E+02  0.51100000000E-03 0. -1.
         11   -1    0    0    0    0 -0.00000000000E+00 -0.00000000000E+00 -0.45593999997E+02  0.45594000000E+02  0.51100000000E-03 0.  1.
    9900012    2    1    2    0    0  0.54708059174E+00  0.38357752788E+00 -0.97225955363E+00  0.90008289216E+02  0.90000557832E+02 0.  0.
         12    1    1    2    0    0 -0.54708059174E+00 -0.38357752788E+00  0.97225955363E+00  0.11797107838E+01  0.00000000000E+00 0. -1.
         11    1    3    3    0    0  0.22115852812E+02  0.32065122739E+02 -0.80227026395E+00  0.38960578534E+02  0.51100000000E-03 0. -1.
        -11    1    3    3    0    0  0.24182199714E+01  0.29378004530E+01 -0.73936631396E+01  0.83153300725E+01  0.51100000000E-03 0.  1.
        -12    1    3    3    0    0 -0.23986992192E+02 -0.34619345664E+02  0.72236738499E+01  0.42732380609E+02  0.00000000000E+00 0.  1.
</event>
<event>
 7    1  0.1501154E-015  0.9000774E+02  0.7816164E-02  0.1186339E+00
        -11   -1    0    0    0    0  0.00000000000E+00  0.00000000000E+00  0.45593999997E+02  0.45594000000E+02  0.51100000000E-03 0.  1.
         11   -1    0    0    0    0 -0.00000000000E+00 -0.00000000000E+00 -0.45593999997E+02  0.45594000000E+02  0.51100000000E-03 0. -1.
    9900012    2    1    2    0    0 -0.45292310907E-01  0.31867568550E+00  0.11355254375E+01  0.90007735790E+02  0.89999997103E+02 0.  0.
         12    1    1    2    0    0  0.45292310907E-01 -0.31867568550E+00 -0.11355254375E+01  0.11802642099E+01  0.00000000000E+00 0. -1.
         11    1    3    3    0    0  0.11894707118E+01  0.17201678606E+01  0.62063746618E+01  0.65492674970E+01  0.51100000000E-03 0. -1.
        -11    1    3    3    0    0 -0.17626970907E+02 -0.25986159821E+02  0.25862654219E+02  0.40680062551E+02  0.51100000000E-03 0.  1.
         12    1    3    3    0    0  0.16392207884E+02  0.24584667646E+02 -0.30933503443E+02  0.42778405743E+02  0.00000000000E+00 0. -1.
</event>
<event>
 7    1  0.1501154E-015  0.9000779E+02  0.7816164E-02  0.1186339E+00
        -11   -1    0    0    0    0  0.00000000000E+00  0.00000000000E+00  0.45593999997E+02  0.45594000000E+02  0.51100000000E-03 0.  1.
         11   -1    0    0    0    0 -0.00000000000E+00 -0.00000000000E+00 -0.45593999997E+02  0.45594000000E+02  0.51100000000E-03 0. -1.
    9900012    2    1    2    0    0  0.10414899001E+01  0.46132372066E-01  0.55322451315E+00  0.90007793760E+02  0.90000055837E+02 0.  0.
         12    1    1    2    0    0 -0.10414899001E+01 -0.46132372066E-01 -0.55322451315E+00  0.11802062404E+01  0.00000000000E+00 0. -1.
         11    1    3    3    0    0  0.29395812854E+01 -0.37907611190E+02 -0.12127877992E+02  0.39908815431E+02  0.51100000000E-03 0. -1.
        -11    1    3    3    0    0  0.21246600203E+01  0.27360115695E+01 -0.82401510439E+01  0.89386816141E+01  0.51100000000E-03 0.  1.
        -12    1    3    3    0    0 -0.40227514056E+01  0.35217731992E+02  0.20921253549E+02  0.41160296715E+02  0.00000000000E+00 0.  1.
</event>
<event>
 7    1  0.1501154E-015  0.9000769E+02  0.7816164E-02  0.1186339E+00
        -11   -1    0    0    0    0  0.00000000000E+00  0.00000000000E+00  0.45593999997E+02  0.45594000000E+02  0.51100000000E-03 0.  1.
         11   -1    0    0    0    0 -0.00000000000E+00 -0.00000000000E+00 -0.45593999997E+02  0.45594000000E+02  0.51100000000E-03 0. -1.
    9900012    2    1    2    0    0 -0.11236606732E+01 -0.36080258418E+00  0.18392270241E-01  0.90007690681E+02  0.89999951398E+02 0.  0.
         12    1    1    2    0    0  0.11236606732E+01  0.36080258418E+00 -0.18392270241E-01  0.11803093192E+01  0.00000000000E+00 0. -1.
         11    1    3    3    0    0  0.15620196302E+01 -0.41721762628E+01  0.92795677826E+01  0.10293558111E+02  0.51100000000E-03 0. -1.
        -11    1    3    3    0    0  0.45052659794E+01 -0.32860093279E+02  0.13664981618E+02  0.35872201978E+02  0.51100000000E-03 0.  1.
         12    1    3    3    0    0 -0.71909462829E+01  0.36671466958E+02 -0.22926157130E+02  0.43841930592E+02  0.00000000000E+00 0. -1.
</event>
<event>
 7    1  0.2971727E-015  0.9000772E+02  0.7816164E-02  0.1186339E+00
        -11   -1    0    0    0    0  0.00000000000E+00  0.00000000000E+00  0.45593999997E+02  0.45594000000E+02  0.51100000000E-03 0. -1.
         11   -1    0    0    0    0 -0.00000000000E+00 -0.00000000000E+00 -0.45593999997E+02  0.45594000000E+02  0.51100000000E-03 0.  1.
    9900012    2    1    2    0    0 -0.27304450777E+00 -0.43178580267E+00 -0.10639915633E+01  0.90007715996E+02  0.89999977047E+02 0.  0.
         12    1    1    2    0    0  0.27304450777E+00  0.43178580267E+00  0.10639915633E+01  0.11802840037E+01  0.00000000000E+00 0. -1.
         11    1    3    3    0    0  0.11165904985E+02  0.17231879177E+02  0.30474691871E+02  0.36746726916E+02  0.51100000000E-03 0. -1.
        -11    1    3    3    0    0  0.63006387673E+01  0.64764773608E+01  0.93009035858E+00  0.90833846234E+01  0.51100000000E-03 0.  1.
        -12    1    3    3    0    0 -0.17739588261E+02 -0.24140142341E+02 -0.32468773793E+02  0.44177604457E+02  0.00000000000E+00 0.  1.
</event>
<event>
 7    1  0.1501154E-015  0.9000771E+02  0.7816164E-02  0.1186339E+00
        -11   -1    0    0    0    0  0.00000000000E+00  0.00000000000E+00  0.45593999997E+02  0.45594000000E+02  0.51100000000E-03 0. -1.
         11   -1    0    0    0    0 -0.00000000000E+00 -0.00000000000E+00 -0.45593999997E+02  0.45594000000E+02  0.51100000000E-03 0.  1.
    9900012    2    1    2    0    0 -0.10279655264E+01  0.55788311185E+00  0.15854238515E+00  0.90007710892E+02  0.89999971876E+02 0.  0.
         12    1    1    2    0    0  0.10279655264E+01 -0.55788311185E+00 -0.15854238515E+00  0.11802891078E+01  0.00000000000E+00 0. -1.
         11    1    3    3    0    0  0.22191961566E+02  0.31320662375E+00  0.19675077513E+01  0.22281210549E+02  0.51100000000E-03 0. -1.
        -11    1    3    3    0    0  0.16533769587E+02  0.17581150715E+02  0.18369431364E+01  0.24204064897E+02  0.51100000000E-03 0.  1.
         12    1    3    3    0    0 -0.39753696679E+02 -0.17336474227E+02 -0.36459085025E+01  0.43522435445E+02  0.00000000000E+00 0. -1.
</event>
<event>
 7    1  0.1501154E-015  0.9000763E+02  0.7816164E-02  0.1186339E+00
        -11   -1    0    0    0    0  0.00000000000E+00  0.00000000000E+00  0.45593999997E+02  0.45594000000E+02  0.51100000000E-03 0. -1.
         11   -1    0    0    0    0 -0.00000000000E+00 -0.00000000000E+00 -0.45593999997E+02  0.45594000000E+02  0.51100000000E-03 0.  1.
    9900012    2    1    2    0    0  0.39156145941E+00 -0.10254161609E+01  0.43414725591E+00  0.90007626110E+02  0.89999885975E+02 0.  0.
         12    1    1    2    0    0 -0.39156145941E+00  0.10254161609E+01 -0.43414725591E+00  0.11803738897E+01  0.00000000000E+00 0. -1.
         11    1    3    3    0    0  0.15729910690E+01  0.76061821057E+01 -0.60861468925E+01  0.98675980556E+01  0.51100000000E-03 0. -1.
        -11    1    3    3    0    0  0.22405127000E+02  0.55797696706E+01 -0.27799977258E+02  0.36138100134E+02  0.51100000000E-03 0.  1.
         12    1    3    3    0    0 -0.23586556609E+02 -0.14211367937E+02  0.34320271407E+02  0.44001927921E+02  0.00000000000E+00 0. -1.
</event>
<event>
 8    1  0.1501154E-015  0.9000777E+02  0.7816164E-02  0.1186339E+00
        -11   -1    0    0    0    0  0.00000000000E+00  0.00000000000E+00  0.45593999997E+02  0.45594000000E+02  0.51100000000E-03 0.  1.
         11   -1    0    0    0    0 -0.00000000000E+00 -0.00000000000E+00 -0.45593999997E+02  0.45594000000E+02  0.51100000000E-03 0. -1.
    9900012    2    1    2    0    0  0.42968407894E+00 -0.16590231754E-02  0.10992375070E+01  0.90007765169E+02  0.90000026869E+02 0.  0.
         23    2    3    3    0    0 -0.21409415749E+02 -0.18218323298E+02  0.29801406266E+01  0.61506345289E+02  0.54624892551E+02 0.  0.
         12    1    1    2    0    0 -0.42968407894E+00  0.16590231754E-02 -0.10992375070E+01  0.11802348313E+01  0.00000000000E+00 0. -1.
         11    1    4    4    0    0 -0.82283225442E+01 -0.29805700276E+02 -0.16696135323E+02  0.35140375579E+02  0.51100000000E-03 0. -1.
        -11    1    4    4    0    0 -0.13181093205E+02  0.11587376977E+02  0.19676275950E+02  0.26365969711E+02  0.51100000000E-03 0.  1.
        -12    1    3    3    0    0  0.21839099828E+02  0.18216664275E+02 -0.18809031196E+01  0.28501419879E+02  0.00000000000E+00 0.  1.
</event>
<event>
 7    1  0.1501154E-015  0.9000749E+02  0.7816164E-02  0.1186340E+00
        -11   -1    0    0    0    0  0.00000000000E+00  0.00000000000E+00  0.45593999997E+02  0.45594000000E+02  0.51100000000E-03 0.  1.
         11   -1    0    0    0    0 -0.00000000000E+00 -0.00000000000E+00 -0.45593999997E+02  0.45594000000E+02  0.51100000000E-03 0. -1.
    9900012    2    1    2    0    0  0.75198291567E+00 -0.65237671467E+00  0.63445911033E+00  0.90007486533E+02  0.89999744555E+02 0.  0.
         12    1    1    2    0    0 -0.75198291567E+00  0.65237671467E+00 -0.63445911033E+00  0.11805134671E+01  0.00000000000E+00 0. -1.
         11    1    3    3    0    0 -0.18318122648E+01  0.79323121387E+01 -0.90514003585E+01  0.12173945981E+02  0.51100000000E-03 0. -1.
        -11    1    3    3    0    0  0.23178301608E+02  0.26523913670E+02  0.11600548888E+02  0.37085366339E+02  0.51100000000E-03 0.  1.
         12    1    3    3    0    0 -0.20594506427E+02 -0.35108602523E+02 -0.19146894189E+01  0.40748174213E+02  0.00000000000E+00 0. -1.
</event>
<event>
 7    1  0.1501154E-015  0.9000789E+02  0.7816164E-02  0.1186339E+00
        -11   -1    0    0    0    0  0.00000000000E+00  0.00000000000E+00  0.45593999997E+02  0.45594000000E+02  0.51100000000E-03 0.  1.
         11   -1    0    0    0    0 -0.00000000000E+00 -0.00000000000E+00 -0.45593999997E+02  0.45594000000E+02  0.51100000000E-03 0. -1.
    9900012    2    1    2    0    0 -0.13044392181E+00  0.11511794966E+01  0.22458738524E+00  0.90007885877E+02  0.90000149170E+02 0.  0.
         12    1    1    2    0    0  0.13044392181E+00 -0.11511794966E+01 -0.22458738524E+00  0.11801141231E+01  0.00000000000E+00 0. -1.
         11    1    3    3    0    0  0.64889751764E-01  0.79413842009E+01 -0.41836762139E+01  0.89762431245E+01  0.51100000000E-03 0. -1.
        -11    1    3    3    0    0 -0.39312565308E+02 -0.91095598561E+01  0.96628703416E+01  0.41494974821E+02  0.51100000000E-03 0.  1.
         12    1    3    3    0    0  0.39117231635E+02  0.23193551517E+01 -0.52546067425E+01  0.39536667931E+02  0.00000000000E+00 0. -1.
</event>
<event>
 7    1  0.1501154E-015  0.9000773E+02  0.7816164E-02  0.1186339E+00
        -11   -1    0    0    0    0  0.00000000000E+00  0.00000000000E+00  0.45593999997E+02  0.45594000000E+02  0.51100000000E-03 0. -1.
         11   -1    0    0    0    0 -0.00000000000E+00 -0.00000000000E+00 -0.45593999997E+02  0.45594000000E+02  0.51100000000E-03 0.  1.
    9900012    2    1    2    0    0  0.10012468564E+01  0.62398621556E+00 -0.34442724183E-01  0.90007728690E+02  0.89999989908E+02 0.  0.
         12    1    1    2    0    0 -0.10012468564E+01 -0.62398621556E+00  0.34442724183E-01  0.11802713103E+01  0.00000000000E+00 0. -1.
         11    1    3    3    0    0 -0.22035503662E+01 -0.25802688603E+01  0.84539471575E+01  0.91094810176E+01  0.51100000000E-03 0. -1.
        -11    1    3    3    0    0  0.33346239169E+02  0.15458936080E+02 -0.24959936150E+02  0.44429143412E+02  0.51100000000E-03 0.  1.
         12    1    3    3    0    0 -0.30141441946E+02 -0.12254681005E+02  0.16471546268E+02  0.36469104260E+02  0.00000000000E+00 0. -1.
</event>
<event>
 7    1  0.1501154E-015  0.9000792E+02  0.7816164E-02  0.1186339E+00
        -11   -1    0    0    0    0  0.00000000000E+00  0.00000000000E+00  0.45593999997E+02  0.45594000000E+02  0.51100000000E-03 0. -1.
         11   -1    0    0    0    0 -0.00000000000E+00 -0.00000000000E+00 -0.45593999997E+02  0.45594000000E+02  0.51100000000E-03 0.  1.
    9900012    2    1    2    0    0 -0.72989174545E+00  0.78342547273E+00  0.49607498761E+00  0.90007920416E+02  0.90000184165E+02 0.  0.
         12    1    1    2    0    0  0.72989174545E+00 -0.78342547273E+00 -0.49607498761E+00  0.11800795841E+01  0.00000000000E+00 0. -1.
         11    1    3    3    0    0 -0.57882340686E+01 -0.58598245666E+01 -0.20419533021E+01  0.84859160456E+01  0.51100000000E-03 0. -1.
        -11    1    3    3    0    0 -0.16928052411E+02 -0.31445444577E+02 -0.73124843425E+01  0.36453358838E+02  0.51100000000E-03 0.  1.
         12    1    3    3    0    0  0.21986394734E+02  0.38088694616E+02  0.98505126321E+01  0.45068645532E+02  0.00000000000E+00 0. -1.
</event>
<event>
 7    1  0.1501154E-015  0.9000781E+02  0.7816164E-02  0.1186339E+00
        -11   -1    0    0    0    0  0.00000000000E+00  0.00000000000E+00  0.45593999997E+02  0.45594000000E+02  0.51100000000E-03 0. -1.
         11   -1    0    0    0    0 -0.00000000000E+00 -0.00000000000E+00 -0.45593999997E+02  0.45594000000E+02  0.51100000000E-03 0.  1.
    9900012    2    1    2    0    0  0.10674525743E+01  0.46820050827E+00 -0.18489235426E+00  0.90007808534E+02  0.90000070806E+02 0.  0.
         12    1    1    2    0    0 -0.10674525743E+01 -0.46820050827E+00  0.18489235426E+00  0.11801914663E+01  0.00000000000E+00 0. -1.
         11    1    3    3    0    0  0.70841125527E+01  0.85389736873E-01  0.33201864602E+02  0.33949311559E+02  0.51100000000E-03 0. -1.
        -11    1    3    3    0    0  0.52527870244E+01 -0.16482173787E+02 -0.36284036949E+00  0.17302759250E+02  0.51100000000E-03 0.  1.
        -12    1    3    3    0    0 -0.11269447003E+02  0.16864984558E+02 -0.33023916586E+02  0.38755737725E+02  0.00000000000E+00 0.  1.
</event>
<event>
 7    1  0.1501154E-015  0.9000776E+02  0.7816164E-02  0.1186339E+00
        -11   -1    0    0    0    0  0.00000000000E+00  0.00000000000E+00  0.45593999997E+02  0.45594000000E+02  0.51100000000E-03 0. -1.
         11   -1    0    0    0    0 -0.00000000000E+00 -0.00000000000E+00 -0.45593999997E+02  0.45594000000E+02  0.51100000000E-03 0.  1.
    9900012    2    1    2    0    0 -0.86344777656E+00 -0.69026430983E+00 -0.41347031525E+00  0.90007760795E+02  0.90000022437E+02 0.  0.
         12    1    1    2    0    0  0.86344777656E+00  0.69026430983E+00  0.41347031525E+00  0.11802392054E+01  0.00000000000E+00 0. -1.
         11    1    3    3    0    0  0.15485432498E+01  0.35597545315E+01  0.82407626761E+01  0.91093363241E+01  0.51100000000E-03 0. -1.
        -11    1    3    3    0    0 -0.32744779274E+02 -0.50752913135E+01  0.20379992781E+02  0.38901455726E+02  0.51100000000E-03 0.  1.
         12    1    3    3    0    0  0.30332788247E+02  0.82527247217E+00 -0.29034225772E+02  0.41996968744E+02  0.00000000000E+00 0. -1.
</event>
<event>
 7    1  0.1501154E-015  0.9000784E+02  0.7816164E-02  0.1186339E+00
        -11   -1    0    0    0    0  0.00000000000E+00  0.00000000000E+00  0.45593999997E+02  0.45594000000E+02  0.51100000000E-03 0.  1.
         11   -1    0    0    0    0 -0.00000000000E+00 -0.00000000000E+00 -0.45593999997E+02  0.45594000000E+02  0.51100000000E-03 0. -1.
    9900012    2    1    2    0    0  0.42787922589E+00  0.40079425251E+00  0.10242338788E+01  0.90007842509E+02  0.90000105230E+02 0.  0.
         12    1    1    2    0    0 -0.42787922589E+00 -0.40079425251E+00 -0.10242338788E+01  0.11801574909E+01  0.00000000000E+00 0. -1.
         11    1    3    3    0    0  0.74436747499E+01  0.65273081770E-01 -0.57939578559E+01  0.94330537078E+01  0.51100000000E-03 0. -1.
        -11    1    3    3    0    0  0.88353556100E+01 -0.12191628629E+02  0.39432737048E+02  0.42209478423E+02  0.51100000000E-03 0.  1.
         12    1    3    3    0    0 -0.15851151134E+02  0.12527149799E+02 -0.32614545314E+02  0.38365310378E+02  0.00000000000E+00 0. -1.
</event>
<event>
 7    1  0.1501154E-015  0.9000774E+02  0.7816164E-02  0.1186339E+00
        -11   -1    0    0    0    0  0.00000000000E+00  0.00000000000E+00  0.45593999997E+02  0.45594000000E+02  0.51100000000E-03 0.  1.
         11   -1    0    0    0    0 -0.00000000000E+00 -0.00000000000E+00 -0.45593999997E+02  0.45594000000E+02  0.51100000000E-03 0. -1.
    9900012    2    1    2    0    0  0.24946794855E+00 -0.11196317085E+01  0.27786408867E+00  0.90007738219E+02  0.89999999563E+02 0.  0.
         12    1    1    2    0    0 -0.24946794855E+00  0.11196317085E+01 -0.27786408867E+00  0.11802617810E+01  0.00000000000E+00 0. -1.
         11    1    3    3    0    0  0.17310330250E+01 -0.62369936928E+01  0.63725480768E+01  0.90832777625E+01  0.51100000000E-03 0. -1.
        -11    1    3    3    0    0 -0.30802621266E+02 -0.83789251770E+01  0.21476481872E+02  0.38473980010E+02  0.51100000000E-03 0.  1.
         12    1    3    3    0    0  0.29321056190E+02  0.13496287161E+02 -0.27571165860E+02  0.42450480446E+02  0.00000000000E+00 0. -1.
</event>
<event>
 7    1  0.1501154E-015  0.9000776E+02  0.7816164E-02  0.1186339E+00
        -11   -1    0    0    0    0  0.00000000000E+00  0.00000000000E+00  0.45593999997E+02  0.45594000000E+02  0.51100000000E-03 0.  1.
         11   -1    0    0    0    0 -0.00000000000E+00 -0.00000000000E+00 -0.45593999997E+02  0.45594000000E+02  0.51100000000E-03 0. -1.
    9900012    2    1    2    0    0  0.27581239576E+00  0.58731595312E+00  0.98588255420E+00  0.90007755569E+02  0.90000017142E+02 0.  0.
         12    1    1    2    0    0 -0.27581239576E+00 -0.58731595312E+00 -0.98588255420E+00  0.11802444311E+01  0.00000000000E+00 0. -1.
         11    1    3    3    0    0  0.25585404773E+01 -0.16825745726E+02 -0.26330853287E+02  0.31352283548E+02  0.51100000000E-03 0. -1.
        -11    1    3    3    0    0 -0.52620802129E+01 -0.12390502283E+02 -0.52137799263E+01  0.14435980617E+02  0.51100000000E-03 0.  1.
        -12    1    3    3    0    0  0.29793521314E+01  0.29803563962E+02  0.32530515768E+02  0.44219491404E+02  0.00000000000E+00 0.  1.
</event>
<event>
 7    1  0.1501154E-015  0.9000773E+02  0.7816164E-02  0.1186339E+00
        -11   -1    0    0    0    0  0.00000000000E+00  0.00000000000E+00  0.45593999997E+02  0.45594000000E+02  0.51100000000E-03 0.  1.
         11   -1    0    0    0    0 -0.00000000000E+00 -0.00000000000E+00 -0.45593999997E+02  0.45594000000E+02  0.51100000000E-03 0. -1.
    9900012    2    1    2    0    0 -0.61660537313E+00  0.10051387509E+01 -0.50251792380E-01  0.90007732514E+02  0.89999993784E+02 0.  0.
         12    1    1    2    0    0  0.61660537313E+00 -0.10051387509E+01  0.50251792380E-01  0.11802674856E+01  0.00000000000E+00 0. -1.
         11    1    3    3    0    0 -0.36583521558E+02 -0.14356464698E+02 -0.12905165784E+01  0.39320828596E+02  0.51100000000E-03 0. -1.
        -11    1    3    3    0    0  0.14849226447E+01 -0.83786793965E+01 -0.18528011597E+01  0.87086242363E+01  0.51100000000E-03 0.  1.
        -12    1    3    3    0    0  0.34481993540E+02  0.23740282846E+02  0.30930659457E+01  0.41978279682E+02  0.00000000000E+00 0.  1.
</event>
<event>
 7    1  0.1501154E-015  0.9000775E+02  0.7816164E-02  0.1186339E+00
        -11   -1    0    0    0    0  0.00000000000E+00  0.00000000000E+00  0.45593999997E+02  0.45594000000E+02  0.51100000000E-03 0.  1.
         11   -1    0    0    0    0 -0.00000000000E+00 -0.00000000000E+00 -0.45593999997E+02  0.45594000000E+02  0.51100000000E-03 0. -1.
    9900012    2    1    2    0    0 -0.23535353144E+00 -0.83886783384E+00 -0.79617493539E+00  0.90007752121E+02  0.90000013649E+02 0.  0.
         12    1    1    2    0    0  0.23535353144E+00  0.83886783384E+00  0.79617493539E+00  0.11802478787E+01  0.00000000000E+00 0. -1.
         11    1    3    3    0    0 -0.37564126118E+02 -0.81011294061E+00 -0.17285760549E+01  0.37612602003E+02  0.51100000000E-03 0. -1.
        -11    1    3    3    0    0 -0.43594649262E+01  0.77367272711E+01  0.42797787269E+01  0.98579099977E+01  0.51100000000E-03 0.  1.
        -12    1    3    3    0    0  0.41688237513E+02 -0.77654821643E+01 -0.33473776074E+01  0.42537240120E+02  0.00000000000E+00 0.  1.
</event>
<event>
 7    1  0.1501154E-015  0.9000768E+02  0.7816164E-02  0.1186339E+00
        -11   -1    0    0    0    0  0.00000000000E+00  0.00000000000E+00  0.45593999997E+02  0.45594000000E+02  0.51100000000E-03 0.  1.
         11   -1    0    0    0    0 -0.00000000000E+00 -0.00000000000E+00 -0.45593999997E+02  0.45594000000E+02  0.51100000000E-03 0. -1.
    9900012    2    1    2    0    0  0.10710094630E-01 -0.11799655553E+01  0.26680384313E-01  0.90007684254E+02  0.89999944886E+02 0.  0.
         12    1    1    2    0    0 -0.10710094630E-01  0.11799655553E+01 -0.26680384313E-01  0.11803157462E+01  0.00000000000E+00 0. -1.
         11    1    3    3    0    0 -0.85211971641E+01 -0.10875333384E+02 -0.34607574886E+02  0.37263493088E+02  0.51100000000E-03 0. -1.
        -11    1    3    3    0    0 -0.74890467438E+01 -0.61222058195E+01 -0.18733942517E+01  0.98527575587E+01  0.51100000000E-03 0.  1.
        -12    1    3    3    0    0  0.16020954003E+02  0.15817573648E+02  0.36507649522E+02  0.42891433608E+02  0.00000000000E+00 0.  1.
</event>
<event>
 7    1  0.1501154E-015  0.9000683E+02  0.7816164E-02  0.1186341E+00
        -11   -1    0    0    0    0  0.00000000000E+00  0.00000000000E+00  0.45593999997E+02  0.45594000000E+02  0.51100000000E-03 0.  1.
         11   -1    0    0    0    0 -0.00000000000E+00 -0.00000000000E+00 -0.45593999997E+02  0.45594000000E+02  0.51100000000E-03 0. -1.
    9900012    2    1    2    0    0 -0.68875516603E+00  0.95871160801E+00  0.40611094145E-01  0.90006830712E+02  0.89999080073E+02 0.  0.
         12    1    1    2    0    0  0.68875516603E+00 -0.95871160801E+00 -0.40611094145E-01  0.11811692881E+01  0.00000000000E+00 0. -1.
         11    1    3    3    0    0 -0.25193249399E+01  0.91757602119E+01 -0.62235130979E+01  0.11369858801E+02  0.51100000000E-03 0. -1.
        -11    1    3    3    0    0  0.24352518978E+02  0.27050201606E+02  0.52968575945E+01  0.36780637408E+02  0.51100000000E-03 0.  1.
         12    1    3    3    0    0 -0.22521949204E+02 -0.35267250210E+02  0.96726659746E+00  0.41856334503E+02  0.00000000000E+00 0. -1.
</event>
<event>
 7    1  0.1501154E-015  0.9000771E+02  0.7816164E-02  0.1186339E+00
        -11   -1    0    0    0    0  0.00000000000E+00  0.00000000000E+00  0.45593999997E+02  0.45594000000E+02  0.51100000000E-03 0. -1.
         11   -1    0    0    0    0 -0.00000000000E+00 -0.00000000000E+00 -0.45593999997E+02  0.45594000000E+02  0.51100000000E-03 0.  1.
    9900012    2    1    2    0    0 -0.12010049648E+00  0.11738850132E+01 -0.25655556978E-01  0.90007708358E+02  0.89999969308E+02 0.  0.
         12    1    1    2    0    0  0.12010049648E+00 -0.11738850132E+01  0.25655556978E-01  0.11802916423E+01  0.00000000000E+00 0. -1.
         11    1    3    3    0    0  0.12104279194E+02  0.26803839273E+01 -0.30104999073E+02  0.32557779443E+02  0.51100000000E-03 0.  1.
        -11    1    3    3    0    0 -0.13941232465E+02  0.13415117696E+02 -0.43996489611E+01  0.19841377389E+02  0.51100000000E-03 0. -1.
         12    1    3    3    0    0  0.17168527737E+01 -0.14921616610E+02  0.34478992477E+02  0.37608551526E+02  0.00000000000E+00 0. -1.
</event>
<event>
 7    1  0.1501154E-015  0.9000777E+02  0.7816164E-02  0.1186339E+00
        -11   -1    0    0    0    0  0.00000000000E+00  0.00000000000E+00  0.45593999997E+02  0.45594000000E+02  0.51100000000E-03 0. -1.
         11   -1    0    0    0    0 -0.00000000000E+00 -0.00000000000E+00 -0.45593999997E+02  0.45594000000E+02  0.51100000000E-03 0.  1.
    9900012    2    1    2    0    0 -0.11747042773E+01  0.91381090613E-01 -0.68354001527E-01  0.90007765738E+02  0.90000027446E+02 0.  0.
         12    1    1    2    0    0  0.11747042773E+01 -0.91381090613E-01  0.68354001527E-01  0.11802342616E+01  0.00000000000E+00 0. -1.
         11    1    3    3    0    0  0.44623417179E+01 -0.84834518829E+01  0.28838549450E+01  0.10009898554E+02  0.51100000000E-03 0. -1.
        -11    1    3    3    0    0  0.40405817309E+01 -0.30602529009E+02  0.16717592880E+02  0.35104401354E+02  0.51100000000E-03 0.  1.
         12    1    3    3    0    0 -0.96776277262E+01  0.39177361983E+02 -0.19669801826E+02  0.44893465830E+02  0.00000000000E+00 0. -1.
</event>
<event>
 7    1  0.1501154E-015  0.9000775E+02  0.7816164E-02  0.1186339E+00
        -11   -1    0    0    0    0  0.00000000000E+00  0.00000000000E+00  0.45593999997E+02  0.45594000000E+02  0.51100000000E-03 0.  1.
         11   -1    0    0    0    0 -0.00000000000E+00 -0.00000000000E+00 -0.45593999997E+02  0.45594000000E+02  0.51100000000E-03 0. -1.
    9900012    2    1    2    0    0 -0.92407514514E+00  0.73012736394E+00 -0.77341331885E-01  0.90007753194E+02  0.90000014736E+02 0.  0.
         12    1    1    2    0    0  0.92407514514E+00 -0.73012736394E+00  0.77341331885E-01  0.11802468060E+01  0.00000000000E+00 0. -1.
         11    1    3    3    0    0  0.76408870034E+01  0.35585184327E+01 -0.39412337582E+01  0.93048122728E+01  0.51100000000E-03 0. -1.
        -11    1    3    3    0    0  0.32580029422E+02  0.83483074814E+01 -0.11254715141E+02  0.35465774602E+02  0.51100000000E-03 0.  1.
         12    1    3    3    0    0 -0.41144991571E+02 -0.11176698550E+02  0.15118607567E+02  0.45237166319E+02  0.00000000000E+00 0. -1.
</event>
<event>
 7    1  0.1501154E-015  0.9000773E+02  0.7816164E-02  0.1186339E+00
        -11   -1    0    0    0    0  0.00000000000E+00  0.00000000000E+00  0.45593999997E+02  0.45594000000E+02  0.51100000000E-03 0.  1.
         11   -1    0    0    0    0 -0.00000000000E+00 -0.00000000000E+00 -0.45593999997E+02  0.45594000000E+02  0.51100000000E-03 0. -1.
    9900012    2    1    2    0    0 -0.51651405582E+00  0.30300471683E-01  0.10608206246E+01  0.90007726605E+02  0.89999987797E+02 0.  0.
         12    1    1    2    0    0  0.51651405582E+00 -0.30300471683E-01 -0.10608206246E+01  0.11802733946E+01  0.00000000000E+00 0. -1.
         11    1    3    3    0    0  0.15278929883E+02  0.36437437848E+02 -0.46913878075E+01  0.39788713162E+02  0.51100000000E-03 0. -1.
        -11    1    3    3    0    0 -0.91591226230E+01  0.24648924464E+01 -0.27557465790E+01  0.98772142563E+01  0.51100000000E-03 0.  1.
        -12    1    3    3    0    0 -0.66363213154E+01 -0.38872029823E+02  0.85079550112E+01  0.40341799187E+02  0.00000000000E+00 0.  1.
</event>
<event>
 7    1  0.1501154E-015  0.9000773E+02  0.7816164E-02  0.1186339E+00
        -11   -1    0    0    0    0  0.00000000000E+00  0.00000000000E+00  0.45593999997E+02  0.45594000000E+02  0.51100000000E-03 0.  1.
         11   -1    0    0    0    0 -0.00000000000E+00 -0.00000000000E+00 -0.45593999997E+02  0.45594000000E+02  0.51100000000E-03 0. -1.
    9900012    2    1    2    0    0 -0.51567784871E-01  0.75694325876E+00  0.90410746378E+00  0.90007731963E+02  0.89999993225E+02 0.  0.
         12    1    1    2    0    0  0.51567784871E-01 -0.75694325876E+00 -0.90410746378E+00  0.11802680371E+01  0.00000000000E+00 0. -1.
         11    1    3    3    0    0  0.26653426808E+01  0.51412260989E+01  0.91183659875E+01  0.10801891314E+02  0.51100000000E-03 0. -1.
        -11    1    3    3    0    0  0.12485823526E+02 -0.53071604805E+01  0.32778410346E+02  0.35475145194E+02  0.51100000000E-03 0.  1.
         12    1    3    3    0    0 -0.15202733991E+02  0.92287764034E+00 -0.40992668870E+02  0.43730695455E+02  0.00000000000E+00 0. -1.
</event>
<event>
 7    1  0.1501154E-015  0.9000769E+02  0.7816164E-02  0.1186339E+00
        -11   -1    0    0    0    0  0.00000000000E+00  0.00000000000E+00  0.45593999997E+02  0.45594000000E+02  0.51100000000E-03 0.  1.
         11   -1    0    0    0    0 -0.00000000000E+00 -0.00000000000E+00 -0.45593999997E+02  0.45594000000E+02  0.51100000000E-03 0. -1.
    9900012    2    1    2    0    0  0.47616257928E+00  0.79546373825E+00  0.73049789679E+00  0.90007694727E+02  0.89999955497E+02 0.  0.
         12    1    1    2    0    0 -0.47616257928E+00 -0.79546373825E+00 -0.73049789679E+00  0.11803052732E+01  0.00000000000E+00 0. -1.
         11    1    3    3    0    0 -0.28892840294E+02  0.21920077132E+02  0.14773504348E+02  0.39160470282E+02  0.51100000000E-03 0. -1.
        -11    1    3    3    0    0 -0.30117689963E+01  0.50464113011E+01 -0.60838207248E+01  0.84587170646E+01  0.51100000000E-03 0.  1.
        -12    1    3    3    0    0  0.32380771870E+02 -0.26171024695E+02 -0.79591857265E+01  0.42388507380E+02  0.00000000000E+00 0.  1.
</event>
<event>
 7    1  0.1501154E-015  0.9000775E+02  0.7816164E-02  0.1186339E+00
        -11   -1    0    0    0    0  0.00000000000E+00  0.00000000000E+00  0.45593999997E+02  0.45594000000E+02  0.51100000000E-03 0. -1.
         11   -1    0    0    0    0 -0.00000000000E+00 -0.00000000000E+00 -0.45593999997E+02  0.45594000000E+02  0.51100000000E-03 0.  1.
    9900012    2    1    2    0    0 -0.28916215210E+00  0.77436655821E+00 -0.84245447258E+00  0.90007750935E+02  0.90000012448E+02 0.  0.
         12    1    1    2    0    0  0.28916215210E+00 -0.77436655821E+00  0.84245447258E+00  0.11802490648E+01  0.00000000000E+00 0. -1.
         11    1    3    3    0    0  0.48238317512E+01 -0.58600145558E+01 -0.95454519927E+01  0.12195276847E+02  0.51100000000E-03 0. -1.
        -11    1    3    3    0    0  0.10956952557E+02 -0.27886808197E+02 -0.14432337116E+02  0.33256897565E+02  0.51100000000E-03 0.  1.
         12    1    3    3    0    0 -0.16069946460E+02  0.34521189311E+02  0.23135334636E+02  0.44555576524E+02  0.00000000000E+00 0. -1.
</event>
<event>
 7    1  0.1501154E-015  0.9000770E+02  0.7816164E-02  0.1186339E+00
        -11   -1    0    0    0    0  0.00000000000E+00  0.00000000000E+00  0.45593999997E+02  0.45594000000E+02  0.51100000000E-03 0. -1.
         11   -1    0    0    0    0 -0.00000000000E+00 -0.00000000000E+00 -0.45593999997E+02  0.45594000000E+02  0.51100000000E-03 0.  1.
    9900012    2    1    2    0    0  0.95499947242E+00 -0.46608744336E+00 -0.51366789813E+00  0.90007696562E+02  0.89999957356E+02 0.  0.
         12    1    1    2    0    0 -0.95499947242E+00  0.46608744336E+00  0.51366789813E+00  0.11803034384E+01  0.00000000000E+00 0. -1.
         11    1    3    3    0    0 -0.11088858791E+02 -0.24034423477E+01 -0.13527154187E+02  0.17655685347E+02  0.51100000000E-03 0. -1.
        -11    1    3    3    0    0  0.46249186036E+01  0.22108009176E+02 -0.21831060343E+02  0.31412563375E+02  0.51100000000E-03 0.  1.
         12    1    3    3    0    0  0.74189396602E+01 -0.20170654272E+02  0.34844546632E+02  0.40939447840E+02  0.00000000000E+00 0. -1.
</event>
<event>
 7    1  0.1501154E-015  0.9000774E+02  0.7816164E-02  0.1186339E+00
        -11   -1    0    0    0    0  0.00000000000E+00  0.00000000000E+00  0.45593999997E+02  0.45594000000E+02  0.51100000000E-03 0. -1.
         11   -1    0    0    0    0 -0.00000000000E+00 -0.00000000000E+00 -0.45593999997E+02  0.45594000000E+02  0.51100000000E-03 0.  1.
    9900012    2    1    2    0    0  0.63163371011E-01  0.91216524282E-01 -0.11750320302E+01  0.90007741411E+02  0.90000002797E+02 0.  0.
         12    1    1    2    0    0 -0.63163371011E-01 -0.91216524282E-01  0.11750320302E+01  0.11802585894E+01  0.00000000000E+00 0. -1.
         11    1    3    3    0    0  0.22610616082E+02  0.29649905801E+02 -0.18374566887E+02  0.41568997849E+02  0.51100000000E-03 0. -1.
        -11    1    3    3    0    0  0.16437143178E+01 -0.82186623112E+01 -0.45463899195E+01  0.95350861824E+01  0.51100000000E-03 0.  1.
        -12    1    3    3    0    0 -0.24191167029E+02 -0.21340026965E+02  0.21745924777E+02  0.38903657379E+02  0.00000000000E+00 0.  1.
</event>
<event>
 7    1  0.1501154E-015  0.9000782E+02  0.7816164E-02  0.1186339E+00
        -11   -1    0    0    0    0  0.00000000000E+00  0.00000000000E+00  0.45593999997E+02  0.45594000000E+02  0.51100000000E-03 0. -1.
         11   -1    0    0    0    0 -0.00000000000E+00 -0.00000000000E+00 -0.45593999997E+02  0.45594000000E+02  0.51100000000E-03 0.  1.
    9900012    2    1    2    0    0 -0.33321823169E+00  0.10959687650E+01 -0.28399494476E+00  0.90007815670E+02  0.90000078037E+02 0.  0.
         12    1    1    2    0    0  0.33321823169E+00 -0.10959687650E+01  0.28399494476E+00  0.11801843299E+01  0.00000000000E+00 0. -1.
         11    1    3    3    0    0  0.47970252113E+01  0.38680365425E+01  0.43157320228E+01  0.75232107990E+01  0.51100000000E-03 0. -1.
        -11    1    3    3    0    0 -0.13323556343E+02  0.26413506135E+02  0.26019395841E+02  0.39397962132E+02  0.51100000000E-03 0.  1.
         12    1    3    3    0    0  0.81933128996E+01 -0.29185573913E+02 -0.30619122809E+02  0.43086642739E+02  0.00000000000E+00 0. -1.
</event>
<event>
 7    1  0.1501154E-015  0.9000762E+02  0.7816164E-02  0.1186339E+00
        -11   -1    0    0    0    0  0.00000000000E+00  0.00000000000E+00  0.45593999997E+02  0.45594000000E+02  0.51100000000E-03 0. -1.
         11   -1    0    0    0    0 -0.00000000000E+00 -0.00000000000E+00 -0.45593999997E+02  0.45594000000E+02  0.51100000000E-03 0.  1.
    9900012    2    1    2    0    0 -0.10091924447E+01  0.37058147539E-01 -0.61111665001E+00  0.90007616055E+02  0.89999875787E+02 0.  0.
         12    1    1    2    0    0  0.10091924447E+01 -0.37058147539E-01  0.61111665001E+00  0.11803839446E+01  0.00000000000E+00 0. -1.
         11    1    3    3    0    0 -0.26946070368E+02  0.16821638895E+01  0.16983822717E+01  0.27051892470E+02  0.51100000000E-03 0. -1.
        -11    1    3    3    0    0 -0.10204443014E+02  0.18125037968E+02 -0.58538458170E+01  0.21608219957E+02  0.51100000000E-03 0.  1.
        -12    1    3    3    0    0  0.36141320937E+02 -0.19770143710E+02  0.35443468953E+01  0.41347503629E+02  0.00000000000E+00 0.  1.
</event>
<event>
 7    1  0.1501154E-015  0.9000766E+02  0.7816164E-02  0.1186339E+00
        -11   -1    0    0    0    0  0.00000000000E+00  0.00000000000E+00  0.45593999997E+02  0.45594000000E+02  0.51100000000E-03 0. -1.
         11   -1    0    0    0    0 -0.00000000000E+00 -0.00000000000E+00 -0.45593999997E+02  0.45594000000E+02  0.51100000000E-03 0.  1.
    9900012    2    1    2    0    0  0.32565094527E-01 -0.11726157712E+01  0.13080496661E+00  0.90007661840E+02  0.89999922176E+02 0.  0.
         12    1    1    2    0    0 -0.32565094527E-01  0.11726157712E+01 -0.13080496661E+00  0.11803381598E+01  0.00000000000E+00 0. -1.
         11    1    3    3    0    0  0.83658467918E+01 -0.32454507693E+02  0.15850267102E+02  0.37074430941E+02  0.51100000000E-03 0. -1.
        -11    1    3    3    0    0  0.26165938913E+01 -0.67004872297E+01  0.45486184118E+01  0.85107592156E+01  0.51100000000E-03 0.  1.
        -12    1    3    3    0    0 -0.10949875589E+02  0.37982379151E+02 -0.20268080548E+02  0.44422471684E+02  0.00000000000E+00 0.  1.
</event>
<event>
 7    1  0.1501154E-015  0.9000773E+02  0.7816164E-02  0.1186339E+00
        -11   -1    0    0    0    0  0.00000000000E+00  0.00000000000E+00  0.45593999997E+02  0.45594000000E+02  0.51100000000E-03 0.  1.
         11   -1    0    0    0    0 -0.00000000000E+00 -0.00000000000E+00 -0.45593999997E+02  0.45594000000E+02  0.51100000000E-03 0. -1.
    9900012    2    1    2    0    0  0.10681866977E+01 -0.39403913868E+00 -0.31105554106E+00  0.90007726636E+02  0.89999987828E+02 0.  0.
         12    1    1    2    0    0 -0.10681866977E+01  0.39403913868E+00  0.31105554106E+00  0.11802733639E+01  0.00000000000E+00 0. -1.
         11    1    3    3    0    0  0.56142437461E+01  0.72079084432E+00  0.66321355907E+01  0.87192026606E+01  0.51100000000E-03 0. -1.
        -11    1    3    3    0    0 -0.32325113871E+02  0.54958141273E+01  0.22892875206E+02  0.39990007441E+02  0.51100000000E-03 0.  1.
         12    1    3    3    0    0  0.27779056822E+02 -0.66106441103E+01 -0.29836066337E+02  0.41298516535E+02  0.00000000000E+00 0. -1.
</event>
<event>
 7    1  0.1501154E-015  0.9000778E+02  0.7816164E-02  0.1186339E+00
        -11   -1    0    0    0    0  0.00000000000E+00  0.00000000000E+00  0.45593999997E+02  0.45594000000E+02  0.51100000000E-03 0.  1.
         11   -1    0    0    0    0 -0.00000000000E+00 -0.00000000000E+00 -0.45593999997E+02  0.45594000000E+02  0.51100000000E-03 0. -1.
    9900012    2    1    2    0    0 -0.21478387341E+00  0.51711018167E+00  0.10389350026E+01  0.90007779261E+02  0.90000041148E+02 0.  0.
         12    1    1    2    0    0  0.21478387341E+00 -0.51711018167E+00 -0.10389350026E+01  0.11802207386E+01  0.00000000000E+00 0. -1.
         11    1    3    3    0    0  0.32238034878E+02 -0.33397869987E+01 -0.17472828755E+02  0.36820440179E+02  0.51100000000E-03 0. -1.
        -11    1    3    3    0    0  0.21777294591E+01  0.19832805337E+01  0.18269376020E+02  0.18505296747E+02  0.51100000000E-03 0.  1.
        -12    1    3    3    0    0 -0.34630548211E+02  0.18736166467E+01  0.24238773798E+00  0.34682042335E+02  0.00000000000E+00 0.  1.
</event>
<event>
 7    1  0.1501154E-015  0.9000774E+02  0.7816164E-02  0.1186339E+00
        -11   -1    0    0    0    0  0.00000000000E+00  0.00000000000E+00  0.45593999997E+02  0.45594000000E+02  0.51100000000E-03 0.  1.
         11   -1    0    0    0    0 -0.00000000000E+00 -0.00000000000E+00 -0.45593999997E+02  0.45594000000E+02  0.51100000000E-03 0. -1.
    9900012    2    1    2    0    0  0.44192789089E+00 -0.58861678600E+00  0.92262720290E+00  0.90007741157E+02  0.90000002540E+02 0.  0.
         12    1    1    2    0    0 -0.44192789089E+00  0.58861678600E+00 -0.92262720290E+00  0.11802588432E+01  0.00000000000E+00 0. -1.
         11    1    3    3    0    0  0.93320518780E+01  0.32445430450E+01  0.17370345520E+01  0.10031527357E+02  0.51100000000E-03 0. -1.
        -11    1    3    3    0    0 -0.39215894489E+02  0.54527743033E+01  0.17570949379E+02  0.43316941149E+02  0.51100000000E-03 0.  1.
         12    1    3    3    0    0  0.30325770501E+02 -0.92859341343E+01 -0.18385356728E+02  0.36659272651E+02  0.00000000000E+00 0. -1.
</event>
<event>
 7    1  0.1501154E-015  0.9000776E+02  0.7816164E-02  0.1186339E+00
        -11   -1    0    0    0    0  0.00000000000E+00  0.00000000000E+00  0.45593999997E+02  0.45594000000E+02  0.51100000000E-03 0.  1.
         11   -1    0    0    0    0 -0.00000000000E+00 -0.00000000000E+00 -0.45593999997E+02  0.45594000000E+02  0.51100000000E-03 0. -1.
    9900012    2    1    2    0    0 -0.17230339582E+00 -0.44872746859E+00  0.10779235115E+01  0.90007761084E+02  0.90000022731E+02 0.  0.
         12    1    1    2    0    0  0.17230339582E+00  0.44872746859E+00 -0.10779235115E+01  0.11802389156E+01  0.00000000000E+00 0. -1.
         11    1    3    3    0    0  0.19294731128E+02 -0.35641411799E+02 -0.13346858917E+02  0.42670077661E+02  0.51100000000E-03 0. -1.
        -11    1    3    3    0    0  0.82149051529E+00  0.79125455393E+01 -0.37415168356E+01  0.87910279303E+01  0.51100000000E-03 0.  1.
        -12    1    3    3    0    0 -0.20288525039E+02  0.27280138792E+02  0.18166299264E+02  0.38546655493E+02  0.00000000000E+00 0.  1.
</event>
<event>
 7    1  0.1501154E-015  0.9000778E+02  0.7816164E-02  0.1186339E+00
        -11   -1    0    0    0    0  0.00000000000E+00  0.00000000000E+00  0.45593999997E+02  0.45594000000E+02  0.51100000000E-03 0.  1.
         11   -1    0    0    0    0 -0.00000000000E+00 -0.00000000000E+00 -0.45593999997E+02  0.45594000000E+02  0.51100000000E-03 0. -1.
    9900012    2    1    2    0    0 -0.98592389126E+00 -0.22979460976E+00  0.60668483685E+00  0.90007780540E+02  0.90000042443E+02 0.  0.
         12    1    1    2    0    0  0.98592389126E+00  0.22979460976E+00 -0.60668483685E+00  0.11802194598E+01  0.00000000000E+00 0. -1.
         11    1    3    3    0    0 -0.33040553512E+01  0.76564794174E+01  0.33779346634E+01  0.89971607569E+01  0.51100000000E-03 0. -1.
        -11    1    3    3    0    0 -0.40073479890E+01  0.30915528975E+02  0.18561534015E+02  0.36281666376E+02  0.51100000000E-03 0.  1.
         12    1    3    3    0    0  0.63254794490E+01 -0.38801803003E+02 -0.21332783842E+02  0.44728953408E+02  0.00000000000E+00 0. -1.
</event>
<event>
 7    1  0.1501154E-015  0.9000778E+02  0.7816164E-02  0.1186339E+00
        -11   -1    0    0    0    0  0.00000000000E+00  0.00000000000E+00  0.45593999997E+02  0.45594000000E+02  0.51100000000E-03 0.  1.
         11   -1    0    0    0    0 -0.00000000000E+00 -0.00000000000E+00 -0.45593999997E+02  0.45594000000E+02  0.51100000000E-03 0. -1.
    9900012    2    1    2    0    0  0.85777096301E+00 -0.57521884578E+00  0.57119786740E+00  0.90007781906E+02  0.90000043827E+02 0.  0.
         12    1    1    2    0    0 -0.85777096301E+00  0.57521884578E+00 -0.57119786740E+00  0.11802180939E+01  0.00000000000E+00 0. -1.
         11    1    3    3    0    0 -0.91973634383E+01  0.25809579582E+01 -0.21887189285E+01  0.98001698459E+01  0.51100000000E-03 0. -1.
        -11    1    3    3    0    0  0.30271618922E+02 -0.21663228687E+02 -0.22027075730E+02  0.43253421307E+02  0.51100000000E-03 0.  1.
         12    1    3    3    0    0 -0.20216484520E+02  0.18507051883E+02  0.24786992526E+02  0.36954190753E+02  0.00000000000E+00 0. -1.
</event>
<event>
 7    1  0.1501154E-015  0.9000785E+02  0.7816164E-02  0.1186339E+00
        -11   -1    0    0    0    0  0.00000000000E+00  0.00000000000E+00  0.45593999997E+02  0.45594000000E+02  0.51100000000E-03 0. -1.
         11   -1    0    0    0    0 -0.00000000000E+00 -0.00000000000E+00 -0.45593999997E+02  0.45594000000E+02  0.51100000000E-03 0.  1.
    9900012    2    1    2    0    0  0.67320128249E+00  0.96760197857E+00  0.57394379140E-01  0.90007852691E+02  0.90000115547E+02 0.  0.
         12    1    1    2    0    0 -0.67320128249E+00 -0.96760197857E+00 -0.57394379140E-01  0.11801473088E+01  0.00000000000E+00 0. -1.
         11    1    3    3    0    0  0.68553725532E+01 -0.38395427157E+01 -0.59437352138E+01  0.98522185147E+01  0.51100000000E-03 0. -1.
        -11    1    3    3    0    0  0.13760809225E+02 -0.15524058683E+01 -0.33057845312E+02  0.35841190988E+02  0.51100000000E-03 0.  1.
         12    1    3    3    0    0 -0.19942980496E+02  0.63595505626E+01  0.39058974905E+02  0.44314443188E+02  0.00000000000E+00 0. -1.
</event>
<event>
 7    1  0.1501154E-015  0.9000792E+02  0.7816164E-02  0.1186339E+00
        -11   -1    0    0    0    0  0.00000000000E+00  0.00000000000E+00  0.45593999997E+02  0.45594000000E+02  0.51100000000E-03 0.  1.
         11   -1    0    0    0    0 -0.00000000000E+00 -0.00000000000E+00 -0.45593999997E+02  0.45594000000E+02  0.51100000000E-03 0. -1.
    9900012    2    1    2    0    0 -0.64893973656E+00 -0.46235208042E+00  0.87045095792E+00  0.90007924961E+02  0.90000188770E+02 0.  0.
         12    1    1    2    0    0  0.64893973656E+00  0.46235208042E+00 -0.87045095792E+00  0.11800750392E+01  0.00000000000E+00 0. -1.
         11    1    3    3    0    0 -0.84723084275E+01 -0.13027603875E+02  0.16639781856E+02  0.22767977804E+02  0.51100000000E-03 0. -1.
        -11    1    3    3    0    0  0.80743069742E+01 -0.14621452487E+02  0.17555362498E+02  0.24231633429E+02  0.51100000000E-03 0.  1.
         12    1    3    3    0    0 -0.25093828328E+00  0.27186704282E+02 -0.33324693396E+02  0.43008313727E+02  0.00000000000E+00 0. -1.
</event>
<event>
 7    1  0.1501154E-015  0.9000775E+02  0.7816164E-02  0.1186339E+00
        -11   -1    0    0    0    0  0.00000000000E+00  0.00000000000E+00  0.45593999997E+02  0.45594000000E+02  0.51100000000E-03 0.  1.
         11   -1    0    0    0    0 -0.00000000000E+00 -0.00000000000E+00 -0.45593999997E+02  0.45594000000E+02  0.51100000000E-03 0. -1.
    9900012    2    1    2    0    0 -0.84580877846E+00  0.39262752286E+00  0.72349642035E+00  0.90007747514E+02  0.90000008981E+02 0.  0.
         12    1    1    2    0    0  0.84580877846E+00 -0.39262752286E+00 -0.72349642035E+00  0.11802524864E+01  0.00000000000E+00 0. -1.
         11    1    3    3    0    0 -0.11452604847E+02  0.23015525474E+01 -0.39628523080E+02  0.41314393904E+02  0.51100000000E-03 0. -1.
        -11    1    3    3    0    0  0.75807282982E+01 -0.35004335445E+01  0.15513275959E+00  0.83513198336E+01  0.51100000000E-03 0.  1.
        -12    1    3    3    0    0  0.30260677701E+01  0.15915085199E+01  0.40196886741E+02  0.40342033776E+02  0.00000000000E+00 0.  1.
</event>
<event>
 7    1  0.1501154E-015  0.9000766E+02  0.7816164E-02  0.1186339E+00
        -11   -1    0    0    0    0  0.00000000000E+00  0.00000000000E+00  0.45593999997E+02  0.45594000000E+02  0.51100000000E-03 0. -1.
         11   -1    0    0    0    0 -0.00000000000E+00 -0.00000000000E+00 -0.45593999997E+02  0.45594000000E+02  0.51100000000E-03 0.  1.
    9900012    2    1    2    0    0 -0.59791477106E+00 -0.83770511584E+00 -0.57788196453E+00  0.90007661278E+02  0.89999921606E+02 0.  0.
         12    1    1    2    0    0  0.59791477106E+00  0.83770511584E+00  0.57788196453E+00  0.11803387224E+01  0.00000000000E+00 0. -1.
         11    1    3    3    0    0  0.29264906095E+02 -0.22051625685E+02 -0.12988524916E+02  0.38876865922E+02  0.51100000000E-03 0. -1.
        -11    1    3    3    0    0 -0.45857245124E+01 -0.54555497253E+01 -0.66402080113E+01  0.97408549319E+01  0.51100000000E-03 0.  1.
        -12    1    3    3    0    0 -0.25277096354E+02  0.26669470295E+02  0.19050850963E+02  0.41389940424E+02  0.00000000000E+00 0.  1.
</event>
<event>
 7    1  0.1501154E-015  0.9000765E+02  0.7816164E-02  0.1186339E+00
        -11   -1    0    0    0    0  0.00000000000E+00  0.00000000000E+00  0.45593999997E+02  0.45594000000E+02  0.51100000000E-03 0.  1.
         11   -1    0    0    0    0 -0.00000000000E+00 -0.00000000000E+00 -0.45593999997E+02  0.45594000000E+02  0.51100000000E-03 0. -1.
    9900012    2    1    2    0    0  0.53031993462E+00  0.75237078192E+00  0.73886648999E+00  0.90007650596E+02  0.89999910783E+02 0.  0.
         12    1    1    2    0    0 -0.53031993462E+00 -0.75237078192E+00 -0.73886648999E+00  0.11803494044E+01  0.00000000000E+00 0. -1.
         11    1    3    3    0    0  0.53616232090E+01  0.67062545847E+01 -0.94093692742E+01  0.12738017286E+02  0.51100000000E-03 0. -1.
        -11    1    3    3    0    0  0.15398226075E+02 -0.24227225412E+01  0.38917528585E+02  0.41923131827E+02  0.51100000000E-03 0.  1.
         12    1    3    3    0    0 -0.20229529350E+02 -0.35311612615E+01 -0.28769292821E+02  0.35346501482E+02  0.00000000000E+00 0. -1.
</event>
<event>
 7    1  0.1501154E-015  0.9000775E+02  0.7816164E-02  0.1186339E+00
        -11   -1    0    0    0    0  0.00000000000E+00  0.00000000000E+00  0.45593999997E+02  0.45594000000E+02  0.51100000000E-03 0.  1.
         11   -1    0    0    0    0 -0.00000000000E+00 -0.00000000000E+00 -0.45593999997E+02  0.45594000000E+02  0.51100000000E-03 0. -1.
    9900012    2    1    2    0    0 -0.69861480584E+00  0.60963342405E+00  0.73026431113E+00  0.90007745145E+02  0.90000006581E+02 0.  0.
         12    1    1    2    0    0  0.69861480584E+00 -0.60963342405E+00 -0.73026431113E+00  0.11802548550E+01  0.00000000000E+00 0. -1.
         11    1    3    3    0    0  0.45249002407E+01 -0.84819420393E+01 -0.77480362325E-01  0.96137436212E+01  0.51100000000E-03 0. -1.
        -11    1    3    3    0    0 -0.36715111834E+02 -0.14564749626E+02 -0.73355988352E+01  0.40173901717E+02  0.51100000000E-03 0.  1.
         12    1    3    3    0    0  0.31491596788E+02  0.23656325089E+02  0.81433435086E+01  0.40220099807E+02  0.00000000000E+00 0. -1.
</event>
<event>
 7    1  0.1501154E-015  0.9000750E+02  0.7816164E-02  0.1186340E+00
        -11   -1    0    0    0    0  0.00000000000E+00  0.00000000000E+00  0.45593999997E+02  0.45594000000E+02  0.51100000000E-03 0.  1.
         11   -1    0    0    0    0 -0.00000000000E+00 -0.00000000000E+00 -0.45593999997E+02  0.45594000000E+02  0.51100000000E-03 0. -1.
    9900012    2    1    2    0    0  0.87363837853E+00  0.11758772671E+00  0.78518623736E+00  0.90007496583E+02  0.89999754738E+02 0.  0.
         12    1    1    2    0    0 -0.87363837853E+00 -0.11758772671E+00 -0.78518623736E+00  0.11805034169E+01  0.00000000000E+00 0. -1.
         11    1    3    3    0    0 -0.36719838843E+02 -0.12026337793E+02 -0.53776242752E+01  0.39011513793E+02  0.51100000000E-03 0. -1.
        -11    1    3    3    0    0 -0.37562965712E+01  0.81066328244E+01  0.25575070216E+01  0.92934440391E+01  0.51100000000E-03 0.  1.
        -12    1    3    3    0    0  0.41349773792E+02  0.40372926956E+01  0.36053034910E+01  0.41702538751E+02  0.00000000000E+00 0.  1.
</event>
<event>
 7    1  0.1501154E-015  0.9000775E+02  0.7816164E-02  0.1186339E+00
        -11   -1    0    0    0    0  0.00000000000E+00  0.00000000000E+00  0.45593999997E+02  0.45594000000E+02  0.51100000000E-03 0. -1.
         11   -1    0    0    0    0 -0.00000000000E+00 -0.00000000000E+00 -0.45593999997E+02  0.45594000000E+02  0.51100000000E-03 0.  1.
    9900012    2    1    2    0    0  0.84605354968E+00  0.17282249494E+00 -0.80456046743E+00  0.90007749277E+02  0.90000010767E+02 0.  0.
         12    1    1    2    0    0 -0.84605354968E+00 -0.17282249494E+00  0.80456046743E+00  0.11802507231E+01  0.00000000000E+00 0. -1.
         11    1    3    3    0    0  0.76186328682E+01 -0.25093359344E+01 -0.58054599575E+01  0.99017018330E+01  0.51100000000E-03 0. -1.
        -11    1    3    3    0    0 -0.40967222586E+02  0.50171240012E+01  0.15764347901E+02  0.44181438690E+02  0.51100000000E-03 0.  1.
         12    1    3    3    0    0  0.34194643268E+02 -0.23349655719E+01 -0.10763448411E+02  0.35924608754E+02  0.00000000000E+00 0. -1.
</event>
<event>
 7    1  0.1501154E-015  0.9000761E+02  0.7816164E-02  0.1186339E+00
        -11   -1    0    0    0    0  0.00000000000E+00  0.00000000000E+00  0.45593999997E+02  0.45594000000E+02  0.51100000000E-03 0.  1.
         11   -1    0    0    0    0 -0.00000000000E+00 -0.00000000000E+00 -0.45593999997E+02  0.45594000000E+02  0.51100000000E-03 0. -1.
    9900012    2    1    2    0    0 -0.65093046019E+00  0.74313329848E-01 -0.98187742693E+00  0.90007611837E+02  0.89999871513E+02 0.  0.
         12    1    1    2    0    0  0.65093046019E+00 -0.74313329848E-01  0.98187742693E+00  0.11803881635E+01  0.00000000000E+00 0. -1.
         11    1    3    3    0    0  0.42208799932E+02  0.10867856024E+01  0.97597880556E+01  0.43336097630E+02  0.51100000000E-03 0. -1.
        -11    1    3    3    0    0 -0.52071160930E+01  0.50594833548E+01 -0.22181829745E+01  0.75916247136E+01  0.51100000000E-03 0.  1.
        -12    1    3    3    0    0 -0.37652614299E+02 -0.60719556273E+01 -0.85234825081E+01  0.39079889493E+02  0.00000000000E+00 0.  1.
</event>
<event>
 7    1  0.1501154E-015  0.9000778E+02  0.7816164E-02  0.1186339E+00
        -11   -1    0    0    0    0  0.00000000000E+00  0.00000000000E+00  0.45593999997E+02  0.45594000000E+02  0.51100000000E-03 0.  1.
         11   -1    0    0    0    0 -0.00000000000E+00 -0.00000000000E+00 -0.45593999997E+02  0.45594000000E+02  0.51100000000E-03 0. -1.
    9900012    2    1    2    0    0  0.81736934108E+00  0.20597356371E+00  0.82608268311E+00  0.90007775298E+02  0.90000037132E+02 0.  0.
         12    1    1    2    0    0 -0.81736934108E+00 -0.20597356371E+00 -0.82608268311E+00  0.11802247023E+01  0.00000000000E+00 0. -1.
         11    1    3    3    0    0 -0.61952070792E+00 -0.88102062122E+01 -0.41631644772E+01  0.97639888435E+01  0.51100000000E-03 0. -1.
        -11    1    3    3    0    0  0.10485040751E+02 -0.26740187613E+02  0.25178790177E+02  0.38196141012E+02  0.51100000000E-03 0.  1.
         12    1    3    3    0    0 -0.90481507020E+01  0.35756367389E+02 -0.20189543017E+02  0.42047645442E+02  0.00000000000E+00 0. -1.
</event>
<event>
 7    1  0.1501154E-015  0.9000775E+02  0.7816164E-02  0.1186339E+00
        -11   -1    0    0    0    0  0.00000000000E+00  0.00000000000E+00  0.45593999997E+02  0.45594000000E+02  0.51100000000E-03 0.  1.
         11   -1    0    0    0    0 -0.00000000000E+00 -0.00000000000E+00 -0.45593999997E+02  0.45594000000E+02  0.51100000000E-03 0. -1.
    9900012    2    1    2    0    0 -0.70311500225E+00 -0.75095560743E+00  0.57852702819E+00  0.90007746403E+02  0.90000007856E+02 0.  0.
         12    1    1    2    0    0  0.70311500225E+00  0.75095560743E+00 -0.57852702819E+00  0.11802535969E+01  0.00000000000E+00 0. -1.
         11    1    3    3    0    0 -0.17512133641E+02  0.30325608843E+02 -0.19048640144E+02  0.39864370909E+02  0.51100000000E-03 0. -1.
        -11    1    3    3    0    0 -0.11632024142E+01 -0.38904289798E+01 -0.69776435225E+01  0.80731646145E+01  0.51100000000E-03 0.  1.
        -12    1    3    3    0    0  0.17972221053E+02 -0.27186135471E+02  0.26604810695E+02  0.42070210880E+02  0.00000000000E+00 0.  1.
</event>
<event>
 7    1  0.1501154E-015  0.9000761E+02  0.7816164E-02  0.1186339E+00
        -11   -1    0    0    0    0  0.00000000000E+00  0.00000000000E+00  0.45593999997E+02  0.45594000000E+02  0.51100000000E-03 0.  1.
         11   -1    0    0    0    0 -0.00000000000E+00 -0.00000000000E+00 -0.45593999997E+02  0.45594000000E+02  0.51100000000E-03 0. -1.
    9900012    2    1    2    0    0  0.33134311467E+00  0.82320852606E+00  0.77836710589E+00  0.90007611975E+02  0.89999871653E+02 0.  0.
         12    1    1    2    0    0 -0.33134311467E+00 -0.82320852606E+00 -0.77836710589E+00  0.11803880246E+01  0.00000000000E+00 0. -1.
         11    1    3    3    0    0 -0.68315174243E+01  0.56574809801E+01  0.50843024247E+01  0.10223837478E+02  0.51100000000E-03 0. -1.
        -11    1    3    3    0    0 -0.21249331441E+02 -0.12945090891E+02  0.27013345165E+02  0.36726424848E+02  0.51100000000E-03 0.  1.
         12    1    3    3    0    0  0.28412191980E+02  0.81108184372E+01 -0.31319280484E+02  0.43057349650E+02  0.00000000000E+00 0. -1.
</event>
<event>
 7    1  0.1501154E-015  0.9000776E+02  0.7816164E-02  0.1186339E+00
        -11   -1    0    0    0    0  0.00000000000E+00  0.00000000000E+00  0.45593999997E+02  0.45594000000E+02  0.51100000000E-03 0.  1.
         11   -1    0    0    0    0 -0.00000000000E+00 -0.00000000000E+00 -0.45593999997E+02  0.45594000000E+02  0.51100000000E-03 0. -1.
    9900012    2    1    2    0    0 -0.72988652028E+00  0.28362906493E+00  0.88305751991E+00  0.90007758346E+02  0.90000019956E+02 0.  0.
         12    1    1    2    0    0  0.72988652028E+00 -0.28362906493E+00 -0.88305751991E+00  0.11802416543E+01  0.00000000000E+00 0. -1.
         11    1    3    3    0    0 -0.21522038183E+02 -0.18126131217E+02  0.26305680503E+02  0.38519392355E+02  0.51100000000E-03 0. -1.
        -11    1    3    3    0    0 -0.47759898337E+01  0.66934266922E+01  0.53419248955E+01  0.98055189371E+01  0.51100000000E-03 0.  1.
        -12    1    3    3    0    0  0.25568141496E+02  0.11716333590E+02 -0.30764547878E+02  0.41682847054E+02  0.00000000000E+00 0.  1.
</event>
<event>
 7    1  0.1501154E-015  0.9000772E+02  0.7816164E-02  0.1186339E+00
        -11   -1    0    0    0    0  0.00000000000E+00  0.00000000000E+00  0.45593999997E+02  0.45594000000E+02  0.51100000000E-03 0.  1.
         11   -1    0    0    0    0 -0.00000000000E+00 -0.00000000000E+00 -0.45593999997E+02  0.45594000000E+02  0.51100000000E-03 0. -1.
    9900012    2    1    2    0    0  0.61249336390E+00  0.10015187474E+01  0.12191423253E+00  0.90007724184E+02  0.89999985343E+02 0.  0.
         12    1    1    2    0    0 -0.61249336390E+00 -0.10015187474E+01 -0.12191423253E+00  0.11802758162E+01  0.00000000000E+00 0. -1.
         11    1    3    3    0    0 -0.14329919206E+01 -0.40795605375E+02  0.22789513337E+01  0.40884330778E+02  0.51100000000E-03 0. -1.
        -11    1    3    3    0    0  0.22796471244E+01  0.67192790302E+01 -0.10868176546E+02  0.12979320606E+02  0.51100000000E-03 0.  1.
        -12    1    3    3    0    0 -0.23416183993E+00  0.35077845092E+02  0.87111394452E+01  0.36144072799E+02  0.00000000000E+00 0.  1.
</event>
<event>
 7    1  0.1501154E-015  0.9000766E+02  0.7816164E-02  0.1186339E+00
        -11   -1    0    0    0    0  0.00000000000E+00  0.00000000000E+00  0.45593999997E+02  0.45594000000E+02  0.51100000000E-03 0.  1.
         11   -1    0    0    0    0 -0.00000000000E+00 -0.00000000000E+00 -0.45593999997E+02  0.45594000000E+02  0.51100000000E-03 0. -1.
    9900012    2    1    2    0    0 -0.10438945173E+01 -0.17078940704E+00  0.52374535030E+00  0.90007663617E+02  0.89999923977E+02 0.  0.
         12    1    1    2    0    0  0.10438945173E+01  0.17078940704E+00 -0.52374535030E+00  0.11803363829E+01  0.00000000000E+00 0. -1.
         11    1    3    3    0    0 -0.75707446459E+01 -0.18006332428E+00  0.64329528949E+01  0.99363715965E+01  0.51100000000E-03 0. -1.
        -11    1    3    3    0    0  0.13801445920E+02  0.35681163981E+02  0.11174837288E+02  0.39856020388E+02  0.51100000000E-03 0.  1.
         12    1    3    3    0    0 -0.72745957910E+01 -0.35671890064E+02 -0.17084044833E+02  0.40215271633E+02  0.00000000000E+00 0. -1.
</event>
<event>
 7    1  0.1501154E-015  0.9000772E+02  0.7816164E-02  0.1186339E+00
        -11   -1    0    0    0    0  0.00000000000E+00  0.00000000000E+00  0.45593999997E+02  0.45594000000E+02  0.51100000000E-03 0.  1.
         11   -1    0    0    0    0 -0.00000000000E+00 -0.00000000000E+00 -0.45593999997E+02  0.45594000000E+02  0.51100000000E-03 0. -1.
    9900012    2    1    2    0    0 -0.82797644687E+00 -0.68342091209E+00 -0.49035007509E+00  0.90007723619E+02  0.89999984771E+02 0.  0.
         12    1    1    2    0    0  0.82797644687E+00  0.68342091209E+00  0.49035007509E+00  0.11802763811E+01  0.00000000000E+00 0. -1.
         11    1    3    3    0    0  0.78195649383E+01  0.30422728883E+02 -0.11224295818E+02  0.33356751122E+02  0.51100000000E-03 0. -1.
        -11    1    3    3    0    0  0.77241168331E+01  0.87056312445E+01 -0.18916467067E+01  0.11791027255E+02  0.51100000000E-03 0.  1.
        -12    1    3    3    0    0 -0.16371658218E+02 -0.39811781040E+02  0.12625592450E+02  0.44859945242E+02  0.00000000000E+00 0.  1.
</event>
<event>
 7    1  0.1501154E-015  0.9000781E+02  0.7816164E-02  0.1186339E+00
        -11   -1    0    0    0    0  0.00000000000E+00  0.00000000000E+00  0.45593999997E+02  0.45594000000E+02  0.51100000000E-03 0.  1.
         11   -1    0    0    0    0 -0.00000000000E+00 -0.00000000000E+00 -0.45593999997E+02  0.45594000000E+02  0.51100000000E-03 0. -1.
    9900012    2    1    2    0    0 -0.14987933472E+00  0.59158320546E+00  0.10101596397E+01  0.90007806371E+02  0.90000068615E+02 0.  0.
         12    1    1    2    0    0  0.14987933472E+00 -0.59158320546E+00 -0.10101596397E+01  0.11801936289E+01  0.00000000000E+00 0. -1.
         11    1    3    3    0    0  0.15447632870E+02 -0.29969080778E+02 -0.36877592306E+01  0.33917174593E+02  0.51100000000E-03 0. -1.
        -11    1    3    3    0    0  0.13515949837E+01 -0.10936277804E+02 -0.73882816209E-02  0.11019484383E+02  0.51100000000E-03 0.  1.
        -12    1    3    3    0    0 -0.16949107189E+02  0.41496941787E+02  0.47053071519E+01  0.45071147396E+02  0.00000000000E+00 0.  1.
</event>
<event>
 7    1  0.1501154E-015  0.9000790E+02  0.7816164E-02  0.1186339E+00
        -11   -1    0    0    0    0  0.00000000000E+00  0.00000000000E+00  0.45593999997E+02  0.45594000000E+02  0.51100000000E-03 0.  1.
         11   -1    0    0    0    0 -0.00000000000E+00 -0.00000000000E+00 -0.45593999997E+02  0.45594000000E+02  0.51100000000E-03 0. -1.
    9900012    2    1    2    0    0 -0.21328677314E-02 -0.29560812848E+00  0.11424724880E+01  0.90007901656E+02  0.90000165158E+02 0.  0.
         12    1    1    2    0    0  0.21328677314E-02  0.29560812848E+00 -0.11424724880E+01  0.11800983436E+01  0.00000000000E+00 0. -1.
         11    1    3    3    0    0 -0.23652246943E+02 -0.17150574202E+01 -0.21772450818E+02  0.32193319529E+02  0.51100000000E-03 0. -1.
        -11    1    3    3    0    0 -0.80525147855E+01 -0.16886359146E+01 -0.93634634848E+01  0.12464707550E+02  0.51100000000E-03 0.  1.
        -12    1    3    3    0    0  0.31702628860E+02  0.31080852063E+01  0.32278386791E+02  0.45349874577E+02  0.00000000000E+00 0.  1.
</event>
<event>
 7    1  0.1501154E-015  0.9000775E+02  0.7816164E-02  0.1186339E+00
        -11   -1    0    0    0    0  0.00000000000E+00  0.00000000000E+00  0.45593999997E+02  0.45594000000E+02  0.51100000000E-03 0. -1.
         11   -1    0    0    0    0 -0.00000000000E+00 -0.00000000000E+00 -0.45593999997E+02  0.45594000000E+02  0.51100000000E-03 0.  1.
    9900012    2    1    2    0    0 -0.30529476239E+00  0.54742948688E+00 -0.10000495082E+01  0.90007753011E+02  0.90000014551E+02 0.  0.
         12    1    1    2    0    0  0.30529476239E+00 -0.54742948688E+00  0.10000495082E+01  0.11802469885E+01  0.00000000000E+00 0. -1.
         11    1    3    3    0    0  0.19131385138E+02 -0.33479622044E+02 -0.69496609319E+01  0.39181536172E+02  0.51100000000E-03 0. -1.
        -11    1    3    3    0    0  0.40800210544E+01  0.16153880806E+01 -0.74102160316E+01  0.86120469315E+01  0.51100000000E-03 0.  1.
        -12    1    3    3    0    0 -0.23516700955E+02  0.32411663450E+02  0.13359827455E+02  0.42214169908E+02  0.00000000000E+00 0.  1.
</event>
<event>
 7    1  0.1501154E-015  0.9000797E+02  0.7816164E-02  0.1186339E+00
        -11   -1    0    0    0    0  0.00000000000E+00  0.00000000000E+00  0.45593999997E+02  0.45594000000E+02  0.51100000000E-03 0.  1.
         11   -1    0    0    0    0 -0.00000000000E+00 -0.00000000000E+00 -0.45593999997E+02  0.45594000000E+02  0.51100000000E-03 0. -1.
    9900012    2    1    2    0    0 -0.64025702302E+00 -0.18963409153E+00  0.97292276809E+00  0.90007970824E+02  0.90000235238E+02 0.  0.
         12    1    1    2    0    0  0.64025702302E+00  0.18963409153E+00 -0.97292276809E+00  0.11800291763E+01  0.00000000000E+00 0. -1.
         11    1    3    3    0    0  0.40340609359E+01  0.89194792104E+01 -0.51313250178E+01  0.11052658220E+02  0.51100000000E-03 0. -1.
        -11    1    3    3    0    0  0.69825833150E+01 -0.19487800034E+02  0.38097278290E+02  0.43358199147E+02  0.51100000000E-03 0.  1.
         12    1    3    3    0    0 -0.11656901274E+02  0.10378686732E+02 -0.31993030504E+02  0.35597113457E+02  0.00000000000E+00 0. -1.
</event>
<event>
 7    1  0.1501154E-015  0.9000775E+02  0.7816164E-02  0.1186339E+00
        -11   -1    0    0    0    0  0.00000000000E+00  0.00000000000E+00  0.45593999997E+02  0.45594000000E+02  0.51100000000E-03 0. -1.
         11   -1    0    0    0    0 -0.00000000000E+00 -0.00000000000E+00 -0.45593999997E+02  0.45594000000E+02  0.51100000000E-03 0.  1.
    9900012    2    1    2    0    0 -0.87830113550E+00 -0.78726857139E+00  0.42352419044E-01  0.90007746461E+02  0.90000007915E+02 0.  0.
         12    1    1    2    0    0  0.87830113550E+00  0.78726857139E+00 -0.42352419044E-01  0.11802535387E+01  0.00000000000E+00 0. -1.
         11    1    3    3    0    0 -0.31034094253E+02 -0.10942582147E+02  0.21403867305E+02  0.39255326339E+02  0.51100000000E-03 0. -1.
        -11    1    3    3    0    0  0.63933834202E+01 -0.66411219564E+00  0.87757910820E+01  0.10878001009E+02  0.51100000000E-03 0.  1.
        -12    1    3    3    0    0  0.23762409698E+02  0.10819425771E+02 -0.30137305967E+02  0.39874419113E+02  0.00000000000E+00 0.  1.
</event>
<event>
 7    1  0.1501154E-015  0.9000767E+02  0.7816164E-02  0.1186339E+00
        -11   -1    0    0    0    0  0.00000000000E+00  0.00000000000E+00  0.45593999997E+02  0.45594000000E+02  0.51100000000E-03 0.  1.
         11   -1    0    0    0    0 -0.00000000000E+00 -0.00000000000E+00 -0.45593999997E+02  0.45594000000E+02  0.51100000000E-03 0. -1.
    9900012    2    1    2    0    0 -0.87025249355E+00 -0.52378977026E+00  0.60122799424E+00  0.90007673678E+02  0.89999934170E+02 0.  0.
         12    1    1    2    0    0  0.87025249355E+00  0.52378977026E+00 -0.60122799424E+00  0.11803263223E+01  0.00000000000E+00 0. -1.
         11    1    3    3    0    0 -0.34377630188E+02 -0.11840536542E+02 -0.78275045755E+01  0.37192601295E+02  0.51100000000E-03 0. -1.
        -11    1    3    3    0    0 -0.32097861825E+01 -0.40192121293E+01 -0.82075499069E+01  0.96861070205E+01  0.51100000000E-03 0.  1.
        -12    1    3    3    0    0  0.36717163877E+02  0.15335958901E+02  0.16636282477E+02  0.43128965362E+02  0.00000000000E+00 0.  1.
</event>
<event>
 7    1  0.1501154E-015  0.9000772E+02  0.7816164E-02  0.1186339E+00
        -11   -1    0    0    0    0  0.00000000000E+00  0.00000000000E+00  0.45593999997E+02  0.45594000000E+02  0.51100000000E-03 0. -1.
         11   -1    0    0    0    0 -0.00000000000E+00 -0.00000000000E+00 -0.45593999997E+02  0.45594000000E+02  0.51100000000E-03 0.  1.
    9900012    2    1    2    0    0  0.75538757891E+00  0.58347375884E+00 -0.69426923945E+00  0.90007719610E+02  0.89999980709E+02 0.  0.
         12    1    1    2    0    0 -0.75538757891E+00 -0.58347375884E+00  0.69426923945E+00  0.11802803898E+01  0.00000000000E+00 0. -1.
         11    1    3    3    0    0 -0.68168177362E+00 -0.41967172039E+02 -0.50978950522E+01  0.42281163102E+02  0.51100000000E-03 0. -1.
        -11    1    3    3    0    0 -0.41488977239E+01  0.34471061526E+01  0.61589158463E+01  0.81870713820E+01  0.51100000000E-03 0.  1.
        -12    1    3    3    0    0  0.55859670764E+01  0.39103539645E+02 -0.17552900336E+01  0.39539485127E+02  0.00000000000E+00 0.  1.
</event>
<event>
 7    1  0.1501154E-015  0.9000766E+02  0.7816164E-02  0.1186339E+00
        -11   -1    0    0    0    0  0.00000000000E+00  0.00000000000E+00  0.45593999997E+02  0.45594000000E+02  0.51100000000E-03 0. -1.
         11   -1    0    0    0    0 -0.00000000000E+00 -0.00000000000E+00 -0.45593999997E+02  0.45594000000E+02  0.51100000000E-03 0.  1.
    9900012    2    1    2    0    0  0.62871030330E+00 -0.38246927371E+00 -0.92284758093E+00  0.90007658080E+02  0.89999918366E+02 0.  0.
         12    1    1    2    0    0 -0.62871030330E+00  0.38246927371E+00  0.92284758093E+00  0.11803419201E+01  0.00000000000E+00 0. -1.
         11    1    3    3    0    0 -0.11066734542E+02  0.12388941528E+01  0.53531287359E+01  0.12355705551E+02  0.51100000000E-03 0. -1.
        -11    1    3    3    0    0 -0.30938082020E+02  0.88501668273E+01 -0.97237268797E+01  0.33616085980E+02  0.51100000000E-03 0.  1.
         12    1    3    3    0    0  0.42633526865E+02 -0.10471530254E+02  0.34477505629E+01  0.44035866549E+02  0.00000000000E+00 0. -1.
</event>
<event>
 7    1  0.1501154E-015  0.9000777E+02  0.7816164E-02  0.1186339E+00
        -11   -1    0    0    0    0  0.00000000000E+00  0.00000000000E+00  0.45593999997E+02  0.45594000000E+02  0.51100000000E-03 0.  1.
         11   -1    0    0    0    0 -0.00000000000E+00 -0.00000000000E+00 -0.45593999997E+02  0.45594000000E+02  0.51100000000E-03 0. -1.
    9900012    2    1    2    0    0 -0.32211294156E+00 -0.10457294411E+01  0.44231993338E+00  0.90007765390E+02  0.90000027093E+02 0.  0.
         12    1    1    2    0    0  0.32211294156E+00  0.10457294411E+01 -0.44231993338E+00  0.11802346100E+01  0.00000000000E+00 0. -1.
         11    1    3    3    0    0  0.70273017137E+01 -0.12058383220E+02 -0.15747342593E+00  0.13957520317E+02  0.51100000000E-03 0. -1.
        -11    1    3    3    0    0  0.98899464123E+01 -0.50307243342E+01  0.33670402884E+02  0.35451590345E+02  0.51100000000E-03 0.  1.
         12    1    3    3    0    0 -0.17239361068E+02  0.16043378114E+02 -0.33070609525E+02  0.40598654727E+02  0.00000000000E+00 0. -1.
</event>
<event>
 7    1  0.1501154E-015  0.9000767E+02  0.7816164E-02  0.1186339E+00
        -11   -1    0    0    0    0  0.00000000000E+00  0.00000000000E+00  0.45593999997E+02  0.45594000000E+02  0.51100000000E-03 0.  1.
         11   -1    0    0    0    0 -0.00000000000E+00 -0.00000000000E+00 -0.45593999997E+02  0.45594000000E+02  0.51100000000E-03 0. -1.
    9900012    2    1    2    0    0 -0.10112899130E+01  0.10239995236E+00  0.59998818253E+00  0.90007670022E+02  0.89999930466E+02 0.  0.
         12    1    1    2    0    0  0.10112899130E+01 -0.10239995236E+00 -0.59998818253E+00  0.11803299782E+01  0.00000000000E+00 0. -1.
         11    1    3    3    0    0  0.35927176591E+01  0.11503997686E+02 -0.22750803988E+02  0.25745847535E+02  0.51100000000E-03 0. -1.
        -11    1    3    3    0    0 -0.28857023486E+02 -0.17071203788E+02  0.63992313366E+01  0.34133619281E+02  0.51100000000E-03 0.  1.
         12    1    3    3    0    0  0.24253015914E+02  0.56696060541E+01  0.16951560834E+02  0.30128203206E+02  0.00000000000E+00 0. -1.
</event>
<event>
 7    1  0.1501154E-015  0.9000772E+02  0.7816164E-02  0.1186339E+00
        -11   -1    0    0    0    0  0.00000000000E+00  0.00000000000E+00  0.45593999997E+02  0.45594000000E+02  0.51100000000E-03 0.  1.
         11   -1    0    0    0    0 -0.00000000000E+00 -0.00000000000E+00 -0.45593999997E+02  0.45594000000E+02  0.51100000000E-03 0. -1.
    9900012    2    1    2    0    0 -0.10447107179E+01  0.49424055335E+00 -0.23949912914E+00  0.90007722896E+02  0.89999984038E+02 0.  0.
         12    1    1    2    0    0  0.10447107179E+01 -0.49424055335E+00  0.23949912914E+00  0.11802771037E+01  0.00000000000E+00 0. -1.
         11    1    3    3    0    0  0.27122278129E+01 -0.83310702670E+01 -0.55842749021E+01  0.10389756395E+02  0.51100000000E-03 0. -1.
        -11    1    3    3    0    0 -0.19267190365E+02 -0.12670712878E+02  0.33679178925E+02  0.40817382115E+02  0.51100000000E-03 0.  1.
         12    1    3    3    0    0  0.15510251834E+02  0.21496023698E+02 -0.28334403152E+02  0.38800584387E+02  0.00000000000E+00 0. -1.
</event>
<event>
 7    1  0.1501154E-015  0.9000774E+02  0.7816164E-02  0.1186339E+00
        -11   -1    0    0    0    0  0.00000000000E+00  0.00000000000E+00  0.45593999997E+02  0.45594000000E+02  0.51100000000E-03 0.  1.
         11   -1    0    0    0    0 -0.00000000000E+00 -0.00000000000E+00 -0.45593999997E+02  0.45594000000E+02  0.51100000000E-03 0. -1.
    9900012    2    1    2    0    0 -0.83692203331E+00  0.71941925430E+00  0.41834427796E+00  0.90007739652E+02  0.90000001016E+02 0.  0.
         12    1    1    2    0    0  0.83692203331E+00 -0.71941925430E+00 -0.41834427796E+00  0.11802603476E+01  0.00000000000E+00 0. -1.
         11    1    3    3    0    0  0.20221222358E+02 -0.32759270348E+02 -0.15750255850E+02  0.41594929823E+02  0.51100000000E-03 0. -1.
        -11    1    3    3    0    0 -0.88972753591E+01  0.49056313349E+01 -0.44979364412E+01  0.11111172760E+02  0.51100000000E-03 0.  1.
        -12    1    3    3    0    0 -0.12160869032E+02  0.28573058267E+02  0.20666536569E+02  0.37301637070E+02  0.00000000000E+00 0.  1.
</event>
<event>
 7    1  0.1501154E-015  0.9000846E+02  0.7816164E-02  0.1186338E+00
        -11   -1    0    0    0    0  0.00000000000E+00  0.00000000000E+00  0.45593999997E+02  0.45594000000E+02  0.51100000000E-03 0.  1.
         11   -1    0    0    0    0 -0.00000000000E+00 -0.00000000000E+00 -0.45593999997E+02  0.45594000000E+02  0.51100000000E-03 0. -1.
    9900012    2    1    2    0    0 -0.65188618736E+00  0.34004232058E+00  0.92234545690E+00  0.90008463853E+02  0.90000734772E+02 0.  0.
         12    1    1    2    0    0  0.65188618736E+00 -0.34004232058E+00 -0.92234545690E+00  0.11795361474E+01  0.00000000000E+00 0. -1.
         11    1    3    3    0    0 -0.18150091517E+02  0.35937709888E+02  0.87749215114E+01  0.41206116801E+02  0.51100000000E-03 0. -1.
        -11    1    3    3    0    0  0.29649423978E+01 -0.44590263175E+01  0.90435088038E+01  0.10509940574E+02  0.51100000000E-03 0.  1.
        -12    1    3    3    0    0  0.14533262932E+02 -0.31138641250E+02 -0.16896084858E+02  0.38292406478E+02  0.00000000000E+00 0.  1.
</event>
<event>
 7    1  0.1501154E-015  0.9000778E+02  0.7816164E-02  0.1186339E+00
        -11   -1    0    0    0    0  0.00000000000E+00  0.00000000000E+00  0.45593999997E+02  0.45594000000E+02  0.51100000000E-03 0.  1.
         11   -1    0    0    0    0 -0.00000000000E+00 -0.00000000000E+00 -0.45593999997E+02  0.45594000000E+02  0.51100000000E-03 0. -1.
    9900012    2    1    2    0    0 -0.34588049515E+00 -0.33507752226E+00  0.10775051562E+01  0.90007776452E+02  0.90000038301E+02 0.  0.
         12    1    1    2    0    0  0.34588049515E+00  0.33507752226E+00 -0.10775051562E+01  0.11802235485E+01  0.00000000000E+00 0. -1.
         11    1    3    3    0    0 -0.49865727294E+01 -0.31223659105E+01 -0.70547500003E+01  0.91861076791E+01  0.51100000000E-03 0. -1.
        -11    1    3    3    0    0 -0.26616989486E+02 -0.26295427719E+02  0.72874012757E+01  0.38118497686E+02  0.51100000000E-03 0.  1.
         12    1    3    3    0    0  0.31257681721E+02  0.29082716107E+02  0.84485388067E+00  0.42703171086E+02  0.00000000000E+00 0. -1.
</event>
<event>
 7    1  0.1501154E-015  0.9000779E+02  0.7816164E-02  0.1186339E+00
        -11   -1    0    0    0    0  0.00000000000E+00  0.00000000000E+00  0.45593999997E+02  0.45594000000E+02  0.51100000000E-03 0.  1.
         11   -1    0    0    0    0 -0.00000000000E+00 -0.00000000000E+00 -0.45593999997E+02  0.45594000000E+02  0.51100000000E-03 0. -1.
    9900012    2    1    2    0    0  0.40296163331E+00 -0.97139695704E+00 -0.53563641022E+00  0.90007789642E+02  0.90000051665E+02 0.  0.
         12    1    1    2    0    0 -0.40296163331E+00  0.97139695704E+00  0.53563641022E+00  0.11802103584E+01  0.00000000000E+00 0. -1.
         11    1    3    3    0    0  0.59416833183E+01 -0.84770916637E+01  0.46803467392E+01  0.11360912357E+02  0.51100000000E-03 0. -1.
        -11    1    3    3    0    0  0.24806326120E+02 -0.17719769303E+02 -0.20052747329E+02  0.36489131470E+02  0.51100000000E-03 0.  1.
         12    1    3    3    0    0 -0.30345047805E+02  0.25225464010E+02  0.14836764179E+02  0.42157745814E+02  0.00000000000E+00 0. -1.
</event>
<event>
 7    1  0.1501154E-015  0.9000759E+02  0.7816164E-02  0.1186339E+00
        -11   -1    0    0    0    0  0.00000000000E+00  0.00000000000E+00  0.45593999997E+02  0.45594000000E+02  0.51100000000E-03 0. -1.
         11   -1    0    0    0    0 -0.00000000000E+00 -0.00000000000E+00 -0.45593999997E+02  0.45594000000E+02  0.51100000000E-03 0.  1.
    9900012    2    1    2    0    0 -0.26868654292E+00 -0.78698152203E+00 -0.83775649144E+00  0.90007589769E+02  0.89999849154E+02 0.  0.
         12    1    1    2    0    0  0.26868654292E+00  0.78698152203E+00  0.83775649144E+00  0.11804102309E+01  0.00000000000E+00 0. -1.
         11    1    3    3    0    0 -0.21416892001E+02  0.25414149776E+02  0.20476951424E+02  0.39036749502E+02  0.51100000000E-03 0. -1.
        -11    1    3    3    0    0 -0.37171622717E+01 -0.48633719000E+01  0.58062366343E+01  0.84369464681E+01  0.51100000000E-03 0.  1.
        -12    1    3    3    0    0  0.24865367730E+02 -0.21337759398E+02 -0.27120944550E+02  0.42533893799E+02  0.00000000000E+00 0.  1.
</event>
<event>
 7    1  0.1501154E-015  0.9000777E+02  0.7816164E-02  0.1186339E+00
        -11   -1    0    0    0    0  0.00000000000E+00  0.00000000000E+00  0.45593999997E+02  0.45594000000E+02  0.51100000000E-03 0. -1.
         11   -1    0    0    0    0 -0.00000000000E+00 -0.00000000000E+00 -0.45593999997E+02  0.45594000000E+02  0.51100000000E-03 0.  1.
    9900012    2    1    2    0    0  0.63248951270E+00 -0.36714798665E+00 -0.92633860936E+00  0.90007769579E+02  0.90000031337E+02 0.  0.
         12    1    1    2    0    0 -0.63248951270E+00  0.36714798665E+00  0.92633860936E+00  0.11802304211E+01  0.00000000000E+00 0. -1.
         11    1    3    3    0    0 -0.27284586672E+02  0.11910357070E+02  0.14564596400E+02  0.33142612208E+02  0.51100000000E-03 0. -1.
        -11    1    3    3    0    0  0.22914546528E+02  0.12195297281E+02  0.25058284342E+01  0.26078360661E+02  0.51100000000E-03 0.  1.
        -12    1    3    3    0    0  0.50025296573E+01 -0.24472802338E+02 -0.17996763444E+02  0.30786796710E+02  0.00000000000E+00 0.  1.
</event>
<event>
 7    1  0.1501154E-015  0.9000772E+02  0.7816164E-02  0.1186339E+00
        -11   -1    0    0    0    0  0.00000000000E+00  0.00000000000E+00  0.45593999997E+02  0.45594000000E+02  0.51100000000E-03 0.  1.
         11   -1    0    0    0    0 -0.00000000000E+00 -0.00000000000E+00 -0.45593999997E+02  0.45594000000E+02  0.51100000000E-03 0. -1.
    9900012    2    1    2    0    0  0.18468993877E+00  0.10219073045E+01 -0.56094940124E+00  0.90007716499E+02  0.89999977557E+02 0.  0.
         12    1    1    2    0    0 -0.18468993877E+00 -0.10219073045E+01  0.56094940124E+00  0.11802835012E+01  0.00000000000E+00 0. -1.
         11    1    3    3    0    0  0.47390952790E+01  0.33324715024E+02 -0.18219825221E+02  0.38274765667E+02  0.51100000000E-03 0. -1.
        -11    1    3    3    0    0 -0.57783000278E+01  0.70819802716E+01  0.21699880793E+01  0.93942559207E+01  0.51100000000E-03 0.  1.
        -12    1    3    3    0    0  0.12238946876E+01 -0.39384787992E+02  0.15488887740E+02  0.42338694911E+02  0.00000000000E+00 0.  1.
</event>
<event>
 7    1  0.1501154E-015  0.9000810E+02  0.7816164E-02  0.1186338E+00
        -11   -1    0    0    0    0  0.00000000000E+00  0.00000000000E+00  0.45593999997E+02  0.45594000000E+02  0.51100000000E-03 0. -1.
         11   -1    0    0    0    0 -0.00000000000E+00 -0.00000000000E+00 -0.45593999997E+02  0.45594000000E+02  0.51100000000E-03 0.  1.
    9900012    2    1    2    0    0  0.20802788299E+00 -0.25178553620E+00 -0.11337937663E+01  0.90008101758E+02  0.90000367901E+02 0.  0.
         12    1    1    2    0    0 -0.20802788299E+00  0.25178553620E+00  0.11337937663E+01  0.11798982418E+01  0.00000000000E+00 0. -1.
         11    1    3    3    0    0 -0.61283437135E+01  0.42968649074E+01  0.10669011607E+02  0.13032553611E+02  0.51100000000E-03 0. -1.
        -11    1    3    3    0    0 -0.11352806279E+02 -0.25369955481E+02 -0.32453014385E+02  0.42728433092E+02  0.51100000000E-03 0.  1.
         12    1    3    3    0    0  0.17689177876E+02  0.20821305037E+02  0.20650209012E+02  0.34247115055E+02  0.00000000000E+00 0. -1.
</event>
<event>
 7    1  0.1501154E-015  0.9000774E+02  0.7816164E-02  0.1186339E+00
        -11   -1    0    0    0    0  0.00000000000E+00  0.00000000000E+00  0.45593999997E+02  0.45594000000E+02  0.51100000000E-03 0. -1.
         11   -1    0    0    0    0 -0.00000000000E+00 -0.00000000000E+00 -0.45593999997E+02  0.45594000000E+02  0.51100000000E-03 0.  1.
    9900012    2    1    2    0    0 -0.87126206307E+00 -0.93469332124E-01 -0.79068555840E+00  0.90007738270E+02  0.89999999615E+02 0.  0.
         12    1    1    2    0    0  0.87126206307E+00  0.93469332124E-01  0.79068555840E+00  0.11802617298E+01  0.00000000000E+00 0. -1.
         11    1    3    3    0    0 -0.30946528193E+01  0.14946693573E+01 -0.11902180876E+02  0.12388414847E+02  0.51100000000E-03 0. -1.
        -11    1    3    3    0    0 -0.10694456741E+01 -0.17073111995E+02 -0.29461118215E+02  0.34067467678E+02  0.51100000000E-03 0.  1.
         12    1    3    3    0    0  0.32928364303E+01  0.15484973306E+02  0.40572613532E+02  0.43551855745E+02  0.00000000000E+00 0. -1.
</event>
<event>
 7    1  0.1501154E-015  0.9000774E+02  0.7816164E-02  0.1186339E+00
        -11   -1    0    0    0    0  0.00000000000E+00  0.00000000000E+00  0.45593999997E+02  0.45594000000E+02  0.51100000000E-03 0.  1.
         11   -1    0    0    0    0 -0.00000000000E+00 -0.00000000000E+00 -0.45593999997E+02  0.45594000000E+02  0.51100000000E-03 0. -1.
    9900012    2    1    2    0    0  0.11773146709E+01 -0.57553013053E-01 -0.60355355623E-01  0.90007735219E+02  0.89999996524E+02 0.  0.
         12    1    1    2    0    0 -0.11773146709E+01  0.57553013053E-01  0.60355355623E-01  0.11802647807E+01  0.00000000000E+00 0. -1.
         11    1    3    3    0    0  0.21795835727E+01 -0.48594691416E+01  0.82264340685E+01  0.97999613588E+01  0.51100000000E-03 0. -1.
        -11    1    3    3    0    0 -0.20200685340E+02 -0.19671259461E+02  0.22777920335E+02  0.36247203920E+02  0.51100000000E-03 0.  1.
         12    1    3    3    0    0  0.19198416438E+02  0.24473175589E+02 -0.31064709759E+02  0.43960569941E+02  0.00000000000E+00 0. -1.
</event>
<event>
 7    1  0.1501154E-015  0.9000766E+02  0.7816164E-02  0.1186339E+00
        -11   -1    0    0    0    0  0.00000000000E+00  0.00000000000E+00  0.45593999997E+02  0.45594000000E+02  0.51100000000E-03 0.  1.
         11   -1    0    0    0    0 -0.00000000000E+00 -0.00000000000E+00 -0.45593999997E+02  0.45594000000E+02  0.51100000000E-03 0. -1.
    9900012    2    1    2    0    0  0.11600092517E+01  0.37324448428E-01  0.21492168939E+00  0.90007658562E+02  0.89999918855E+02 0.  0.
         12    1    1    2    0    0 -0.11600092517E+01 -0.37324448428E-01 -0.21492168939E+00  0.11803414383E+01  0.00000000000E+00 0. -1.
         11    1    3    3    0    0  0.21961424046E+02  0.26880143899E+02 -0.10196717330E+01  0.34725869505E+02  0.51100000000E-03 0. -1.
        -11    1    3    3    0    0  0.38821225890E+01  0.76219722561E+01  0.87412645562E+01  0.12230087619E+02  0.51100000000E-03 0.  1.
        -12    1    3    3    0    0 -0.24683537383E+02 -0.34464791707E+02 -0.75066711339E+01  0.43051701438E+02  0.00000000000E+00 0.  1.
</event>
<event>
 7    1  0.1501154E-015  0.9000775E+02  0.7816164E-02  0.1186339E+00
        -11   -1    0    0    0    0  0.00000000000E+00  0.00000000000E+00  0.45593999997E+02  0.45594000000E+02  0.51100000000E-03 0. -1.
         11   -1    0    0    0    0 -0.00000000000E+00 -0.00000000000E+00 -0.45593999997E+02  0.45594000000E+02  0.51100000000E-03 0.  1.
    9900012    2    1    2    0    0  0.92070631241E+00  0.70667662651E+00  0.21424283619E+00  0.90007749196E+02  0.90000010685E+02 0.  0.
         12    1    1    2    0    0 -0.92070631241E+00 -0.70667662651E+00 -0.21424283619E+00  0.11802508043E+01  0.00000000000E+00 0. -1.
         11    1    3    3    0    0 -0.90788677657E+01  0.69099297069E+01  0.36909341309E+02  0.38632530911E+02  0.51100000000E-03 0. -1.
        -11    1    3    3    0    0  0.12072220010E+00 -0.87004664317E+01  0.38894744810E+01  0.95310388720E+01  0.51100000000E-03 0.  1.
        -12    1    3    3    0    0  0.98788518780E+01  0.24972133513E+01 -0.40584572953E+02  0.41844179413E+02  0.00000000000E+00 0.  1.
</event>
<event>
 7    1  0.1501154E-015  0.9000777E+02  0.7816164E-02  0.1186339E+00
        -11   -1    0    0    0    0  0.00000000000E+00  0.00000000000E+00  0.45593999997E+02  0.45594000000E+02  0.51100000000E-03 0. -1.
         11   -1    0    0    0    0 -0.00000000000E+00 -0.00000000000E+00 -0.45593999997E+02  0.45594000000E+02  0.51100000000E-03 0.  1.
    9900012    2    1    2    0    0 -0.17654071819E+00 -0.94807456031E+00  0.68039666717E+00  0.90007766285E+02  0.90000028000E+02 0.  0.
         12    1    1    2    0    0  0.17654071819E+00  0.94807456031E+00 -0.68039666717E+00  0.11802337149E+01  0.00000000000E+00 0. -1.
         11    1    3    3    0    0 -0.34586639433E+02  0.21141986001E+02  0.66798171877E+01  0.41083319696E+02  0.51100000000E-03 0. -1.
        -11    1    3    3    0    0  0.53880536707E+01  0.60190856401E+01  0.28651981844E-03  0.80783980247E+01  0.51100000000E-03 0.  1.
        -12    1    3    3    0    0  0.29022045044E+02 -0.28109146202E+02 -0.59997070403E+01  0.40846048564E+02  0.00000000000E+00 0.  1.
</event>
<event>
 7    1  0.1501154E-015  0.9000754E+02  0.7816164E-02  0.1186339E+00
        -11   -1    0    0    0    0  0.00000000000E+00  0.00000000000E+00  0.45593999997E+02  0.45594000000E+02  0.51100000000E-03 0. -1.
         11   -1    0    0    0    0 -0.00000000000E+00 -0.00000000000E+00 -0.45593999997E+02  0.45594000000E+02  0.51100000000E-03 0.  1.
    9900012    2    1    2    0    0  0.52078248311E+00 -0.80110326999E+00  0.69318617702E+00  0.90007539107E+02  0.89999797823E+02 0.  0.
         12    1    1    2    0    0 -0.52078248311E+00  0.80110326999E+00 -0.69318617702E+00  0.11804608930E+01  0.00000000000E+00 0. -1.
         11    1    3    3    0    0  0.31668249314E+02 -0.29700890781E+02 -0.42717003921E+01  0.43626463899E+02  0.51100000000E-03 0. -1.
        -11    1    3    3    0    0 -0.65685889756E+01  0.36216038762E+00  0.57092439756E+01  0.87105102210E+01  0.51100000000E-03 0.  1.
        -12    1    3    3    0    0 -0.24578877855E+02  0.28537627124E+02 -0.74435740645E+00  0.37670564987E+02  0.00000000000E+00 0.  1.
</event>
<event>
 7    1  0.1501154E-015  0.9000783E+02  0.7816164E-02  0.1186339E+00
        -11   -1    0    0    0    0  0.00000000000E+00  0.00000000000E+00  0.45593999997E+02  0.45594000000E+02  0.51100000000E-03 0. -1.
         11   -1    0    0    0    0 -0.00000000000E+00 -0.00000000000E+00 -0.45593999997E+02  0.45594000000E+02  0.51100000000E-03 0.  1.
    9900012    2    1    2    0    0 -0.93598971487E+00 -0.13853378610E+00 -0.70535208753E+00  0.90007834790E+02  0.90000097409E+02 0.  0.
         12    1    1    2    0    0  0.93598971487E+00  0.13853378610E+00  0.70535208753E+00  0.11801652103E+01  0.00000000000E+00 0. -1.
         11    1    3    3    0    0 -0.16471455132E+02  0.15783265950E+02  0.34144414868E+02  0.41064113106E+02  0.51100000000E-03 0. -1.
        -11    1    3    3    0    0 -0.58231654513E+01 -0.30086558018E+01 -0.17110946872E+02  0.18323366741E+02  0.51100000000E-03 0.  1.
        -12    1    3    3    0    0  0.21358630869E+02 -0.12913143934E+02 -0.17738820083E+02  0.30620354942E+02  0.00000000000E+00 0.  1.
</event>
<event>
 7    1  0.1501154E-015  0.9000769E+02  0.7816164E-02  0.1186339E+00
        -11   -1    0    0    0    0  0.00000000000E+00  0.00000000000E+00  0.45593999997E+02  0.45594000000E+02  0.51100000000E-03 0.  1.
         11   -1    0    0    0    0 -0.00000000000E+00 -0.00000000000E+00 -0.45593999997E+02  0.45594000000E+02  0.51100000000E-03 0. -1.
    9900012    2    1    2    0    0  0.96957492107E+00  0.50031395410E+00 -0.45027230228E+00  0.90007688716E+02  0.89999949407E+02 0.  0.
         12    1    1    2    0    0 -0.96957492107E+00 -0.50031395410E+00  0.45027230228E+00  0.11803112837E+01  0.00000000000E+00 0. -1.
         11    1    3    3    0    0  0.38843450801E+01 -0.98216198102E+01 -0.96587679153E+01  0.14312377521E+02  0.51100000000E-03 0. -1.
        -11    1    3    3    0    0  0.28367970265E+02 -0.67658172027E+01  0.23337434919E+02  0.37351758837E+02  0.51100000000E-03 0.  1.
         12    1    3    3    0    0 -0.31282740424E+02  0.17087750967E+02 -0.14128939305E+02  0.38343552358E+02  0.00000000000E+00 0. -1.
</event>
<event>
 7    1  0.1501154E-015  0.9000766E+02  0.7816164E-02  0.1186339E+00
        -11   -1    0    0    0    0  0.00000000000E+00  0.00000000000E+00  0.45593999997E+02  0.45594000000E+02  0.51100000000E-03 0.  1.
         11   -1    0    0    0    0 -0.00000000000E+00 -0.00000000000E+00 -0.45593999997E+02  0.45594000000E+02  0.51100000000E-03 0. -1.
    9900012    2    1    2    0    0  0.70161994558E+00 -0.51629003069E+00  0.79647412774E+00  0.90007662345E+02  0.89999922688E+02 0.  0.
         12    1    1    2    0    0 -0.70161994558E+00  0.51629003069E+00 -0.79647412774E+00  0.11803376551E+01  0.00000000000E+00 0. -1.
         11    1    3    3    0    0  0.17238678087E+01  0.10153223117E+02 -0.78743176456E+00  0.10328586976E+02  0.51100000000E-03 0. -1.
        -11    1    3    3    0    0 -0.21204194472E+02 -0.47066282527E+01  0.34406901814E+02  0.40689127607E+02  0.51100000000E-03 0.  1.
         12    1    3    3    0    0  0.20181946609E+02 -0.59628848948E+01 -0.32822995922E+02  0.38989947762E+02  0.00000000000E+00 0. -1.
</event>
<event>
 7    1  0.1501154E-015  0.9000771E+02  0.7816164E-02  0.1186339E+00
        -11   -1    0    0    0    0  0.00000000000E+00  0.00000000000E+00  0.45593999997E+02  0.45594000000E+02  0.51100000000E-03 0.  1.
         11   -1    0    0    0    0 -0.00000000000E+00 -0.00000000000E+00 -0.45593999997E+02  0.45594000000E+02  0.51100000000E-03 0. -1.
    9900012    2    1    2    0    0 -0.59208983413E+00  0.90584665669E+00  0.47111803903E+00  0.90007711584E+02  0.89999972577E+02 0.  0.
         12    1    1    2    0    0  0.59208983413E+00 -0.90584665669E+00 -0.47111803903E+00  0.11802884155E+01  0.00000000000E+00 0. -1.
         11    1    3    3    0    0  0.45216510424E+01 -0.92369926281E+01 -0.10041493910E+01  0.10333231693E+02  0.51100000000E-03 0. -1.
        -11    1    3    3    0    0  0.35248453016E+02  0.70493021736E+01  0.11914488778E+02  0.37869527912E+02  0.51100000000E-03 0.  1.
         12    1    3    3    0    0 -0.40362193893E+02  0.30935371112E+01 -0.10439221348E+02  0.41804951980E+02  0.00000000000E+00 0. -1.
</event>
<event>
 7    1  0.1501154E-015  0.9000762E+02  0.7816164E-02  0.1186339E+00
        -11   -1    0    0    0    0  0.00000000000E+00  0.00000000000E+00  0.45593999997E+02  0.45594000000E+02  0.51100000000E-03 0. -1.
         11   -1    0    0    0    0 -0.00000000000E+00 -0.00000000000E+00 -0.45593999997E+02  0.45594000000E+02  0.51100000000E-03 0.  1.
    9900012    2    1    2    0    0 -0.50887363800E-01  0.85448999426E+00 -0.81274250195E+00  0.90007621650E+02  0.89999881456E+02 0.  0.
         12    1    1    2    0    0  0.50887363800E-01 -0.85448999426E+00  0.81274250195E+00  0.11803783498E+01  0.00000000000E+00 0. -1.
         11    1    3    3    0    0 -0.44650531559E+01  0.25586943338E+02  0.29348380835E+02  0.39191272332E+02  0.51100000000E-03 0. -1.
        -11    1    3    3    0    0 -0.29397535261E+01  0.73424798525E+01 -0.71480153579E+01  0.10660594964E+02  0.51100000000E-03 0.  1.
        -12    1    3    3    0    0  0.73539193181E+01 -0.32074933196E+02 -0.23013107979E+02  0.40155754354E+02  0.00000000000E+00 0.  1.
</event>
<event>
 7    1  0.1501154E-015  0.9000775E+02  0.7816164E-02  0.1186339E+00
        -11   -1    0    0    0    0  0.00000000000E+00  0.00000000000E+00  0.45593999997E+02  0.45594000000E+02  0.51100000000E-03 0.  1.
         11   -1    0    0    0    0 -0.00000000000E+00 -0.00000000000E+00 -0.45593999997E+02  0.45594000000E+02  0.51100000000E-03 0. -1.
    9900012    2    1    2    0    0 -0.87975206494E+00 -0.40797275689E+00  0.67275111806E+00  0.90007745988E+02  0.90000007435E+02 0.  0.
         12    1    1    2    0    0  0.87975206494E+00  0.40797275689E+00 -0.67275111806E+00  0.11802540121E+01  0.00000000000E+00 0. -1.
         11    1    3    3    0    0 -0.28220461703E+02 -0.28736084473E+02 -0.17029653224E+02  0.43728321472E+02  0.51100000000E-03 0. -1.
        -11    1    3    3    0    0  0.83109897790E+01 -0.37516285632E+00  0.36215603793E+01  0.90735328355E+01  0.51100000000E-03 0.  1.
        -12    1    3    3    0    0  0.19029719859E+02  0.28703274572E+02  0.14080843963E+02  0.37205891681E+02  0.00000000000E+00 0.  1.
</event>
<event>
 7    1  0.1501154E-015  0.9000778E+02  0.7816164E-02  0.1186339E+00
        -11   -1    0    0    0    0  0.00000000000E+00  0.00000000000E+00  0.45593999997E+02  0.45594000000E+02  0.51100000000E-03 0. -1.
         11   -1    0    0    0    0 -0.00000000000E+00 -0.00000000000E+00 -0.45593999997E+02  0.45594000000E+02  0.51100000000E-03 0.  1.
    9900012    2    1    2    0    0  0.30641932914E+00  0.59097160686E-02 -0.11397299482E+01  0.90007783035E+02  0.90000044971E+02 0.  0.
         12    1    1    2    0    0 -0.30641932914E+00 -0.59097160686E-02  0.11397299482E+01  0.11802169652E+01  0.00000000000E+00 0. -1.
         11    1    3    3    0    0 -0.27412784328E+01 -0.53402320108E+01  0.91063338883E+01  0.10906786994E+02  0.51100000000E-03 0. -1.
        -11    1    3    3    0    0  0.30267628395E+02 -0.37046892609E+01 -0.31162337455E+02  0.43599831732E+02  0.51100000000E-03 0.  1.
         12    1    3    3    0    0 -0.27219930633E+02  0.90508309878E+01  0.20916273618E+02  0.35501164309E+02  0.00000000000E+00 0. -1.
</event>
<event>
 7    1  0.1501154E-015  0.9000775E+02  0.7816164E-02  0.1186339E+00
        -11   -1    0    0    0    0  0.00000000000E+00  0.00000000000E+00  0.45593999997E+02  0.45594000000E+02  0.51100000000E-03 0.  1.
         11   -1    0    0    0    0 -0.00000000000E+00 -0.00000000000E+00 -0.45593999997E+02  0.45594000000E+02  0.51100000000E-03 0. -1.
    9900012    2    1    2    0    0  0.83255809916E+00 -0.44381505376E+00  0.70912758852E+00  0.90007751413E+02  0.90000012932E+02 0.  0.
         12    1    1    2    0    0 -0.83255809916E+00  0.44381505376E+00 -0.70912758852E+00  0.11802485870E+01  0.00000000000E+00 0. -1.
         11    1    3    3    0    0 -0.13247514831E+02 -0.26929599067E+02 -0.26342559091E+02  0.39932823276E+02  0.51100000000E-03 0. -1.
        -11    1    3    3    0    0  0.61563015304E+01  0.17300906870E+00 -0.49444217241E+01  0.78979292930E+01  0.51100000000E-03 0.  1.
        -12    1    3    3    0    0  0.79237713997E+01  0.26312774945E+02  0.31996108403E+02  0.42176998844E+02  0.00000000000E+00 0.  1.
</event>
<event>
 7    1  0.1501154E-015  0.9000779E+02  0.7816164E-02  0.1186339E+00
        -11   -1    0    0    0    0  0.00000000000E+00  0.00000000000E+00  0.45593999997E+02  0.45594000000E+02  0.51100000000E-03 0. -1.
         11   -1    0    0    0    0 -0.00000000000E+00 -0.00000000000E+00 -0.45593999997E+02  0.45594000000E+02  0.51100000000E-03 0.  1.
    9900012    2    1    2    0    0  0.11265587519E+01 -0.35128056987E+00 -0.19203027121E-01  0.90007787554E+02  0.90000049550E+02 0.  0.
         12    1    1    2    0    0 -0.11265587519E+01  0.35128056987E+00  0.19203027121E-01  0.11802124455E+01  0.00000000000E+00 0. -1.
         11    1    3    3    0    0  0.18345596688E+02 -0.19585564830E+02  0.25068529907E+02  0.36723105254E+02  0.51100000000E-03 0. -1.
        -11    1    3    3    0    0 -0.14338136422E+01  0.47884050471E+01  0.10574073224E+02  0.11695968078E+02  0.51100000000E-03 0.  1.
        -12    1    3    3    0    0 -0.15785224294E+02  0.14445879213E+02 -0.35661806158E+02  0.41588714223E+02  0.00000000000E+00 0.  1.
</event>
<event>
 7    1  0.1501154E-015  0.9000781E+02  0.7816164E-02  0.1186339E+00
        -11   -1    0    0    0    0  0.00000000000E+00  0.00000000000E+00  0.45593999997E+02  0.45594000000E+02  0.51100000000E-03 0. -1.
         11   -1    0    0    0    0 -0.00000000000E+00 -0.00000000000E+00 -0.45593999997E+02  0.45594000000E+02  0.51100000000E-03 0.  1.
    9900012    2    1    2    0    0  0.12106005334E+00  0.57014701357E+00 -0.10262237961E+01  0.90007805765E+02  0.90000068001E+02 0.  0.
         12    1    1    2    0    0 -0.12106005334E+00 -0.57014701357E+00  0.10262237961E+01  0.11801942354E+01  0.00000000000E+00 0. -1.
         11    1    3    3    0    0  0.24379272550E+01  0.33420958868E+01 -0.73166819997E+01  0.84051728098E+01  0.51100000000E-03 0. -1.
        -11    1    3    3    0    0 -0.38249542848E+02  0.65078218506E+01 -0.11471421883E+02  0.40459520432E+02  0.51100000000E-03 0.  1.
         12    1    3    3    0    0  0.35932675647E+02 -0.92797707238E+01  0.17761880086E+02  0.41143112522E+02  0.00000000000E+00 0. -1.
</event>
<event>
 7    1  0.1501154E-015  0.9000774E+02  0.7816164E-02  0.1186339E+00
        -11   -1    0    0    0    0  0.00000000000E+00  0.00000000000E+00  0.45593999997E+02  0.45594000000E+02  0.51100000000E-03 0. -1.
         11   -1    0    0    0    0 -0.00000000000E+00 -0.00000000000E+00 -0.45593999997E+02  0.45594000000E+02  0.51100000000E-03 0.  1.
    9900012    2    1    2    0    0 -0.63676845606E+00 -0.85985279684E+00 -0.49819174109E+00  0.90007739050E+02  0.90000000406E+02 0.  0.
         12    1    1    2    0    0  0.63676845606E+00  0.85985279684E+00  0.49819174109E+00  0.11802609499E+01  0.00000000000E+00 0. -1.
         11    1    3    3    0    0 -0.54602122103E+00 -0.35028138778E+02 -0.23745741065E+02  0.42321730404E+02  0.51100000000E-03 0. -1.
        -11    1    3    3    0    0  0.53479087054E+01  0.25549760837E+01 -0.26177868115E+01  0.64792621772E+01  0.51100000000E-03 0.  1.
        -12    1    3    3    0    0 -0.54386559404E+01  0.31613309898E+02  0.25865336135E+02  0.41206746469E+02  0.00000000000E+00 0.  1.
</event>
<event>
 7    1  0.1501154E-015  0.9000836E+02  0.7816164E-02  0.1186338E+00
        -11   -1    0    0    0    0  0.00000000000E+00  0.00000000000E+00  0.45593999997E+02  0.45594000000E+02  0.51100000000E-03 0. -1.
         11   -1    0    0    0    0 -0.00000000000E+00 -0.00000000000E+00 -0.45593999997E+02  0.45594000000E+02  0.51100000000E-03 0.  1.
    9900012    2    1    2    0    0  0.21683019662E-01 -0.66994676584E+00 -0.97069059607E+00  0.90008364863E+02  0.90000634477E+02 0.  0.
         12    1    1    2    0    0 -0.21683019662E-01  0.66994676584E+00  0.97069059607E+00  0.11796351367E+01  0.00000000000E+00 0. -1.
         11    1    3    3    0    0  0.27745221615E+02  0.23731992688E+02  0.50755874421E+01  0.36861448527E+02  0.51100000000E-03 0. -1.
        -11    1    3    3    0    0  0.75209906683E+01 -0.37318039154E+00  0.50551906709E+01  0.90697032596E+01  0.51100000000E-03 0.  1.
        -12    1    3    3    0    0 -0.35244529263E+02 -0.24028759062E+02 -0.11101468709E+02  0.44077213076E+02  0.00000000000E+00 0.  1.
</event>
<event>
 7    1  0.1501154E-015  0.9000778E+02  0.7816164E-02  0.1186339E+00
        -11   -1    0    0    0    0  0.00000000000E+00  0.00000000000E+00  0.45593999997E+02  0.45594000000E+02  0.51100000000E-03 0.  1.
         11   -1    0    0    0    0 -0.00000000000E+00 -0.00000000000E+00 -0.45593999997E+02  0.45594000000E+02  0.51100000000E-03 0. -1.
    9900012    2    1    2    0    0  0.18767934570E+00  0.80585750953E+00  0.84160557080E+00  0.90007775530E+02  0.90000037367E+02 0.  0.
         12    1    1    2    0    0 -0.18767934570E+00 -0.80585750953E+00 -0.84160557080E+00  0.11802244699E+01  0.00000000000E+00 0. -1.
         11    1    3    3    0    0  0.14309695720E+01 -0.64220389700E+01 -0.36856426638E+02  0.37439103131E+02  0.51100000000E-03 0. -1.
        -11    1    3    3    0    0 -0.33223719592E+01 -0.56864626757E+01 -0.47699603101E+01  0.81318223553E+01  0.51100000000E-03 0.  1.
        -12    1    3    3    0    0  0.20790817329E+01  0.12914359155E+02  0.42467992519E+02  0.44436850044E+02  0.00000000000E+00 0.  1.
</event>
<event>
 7    1  0.1501154E-015  0.9000776E+02  0.7816164E-02  0.1186339E+00
        -11   -1    0    0    0    0  0.00000000000E+00  0.00000000000E+00  0.45593999997E+02  0.45594000000E+02  0.51100000000E-03 0.  1.
         11   -1    0    0    0    0 -0.00000000000E+00 -0.00000000000E+00 -0.45593999997E+02  0.45594000000E+02  0.51100000000E-03 0. -1.
    9900012    2    1    2    0    0 -0.94261405619E+00  0.50563133165E+00  0.49877769261E+00  0.90007761258E+02  0.90000022906E+02 0.  0.
         12    1    1    2    0    0  0.94261405619E+00 -0.50563133165E+00 -0.49877769261E+00  0.11802387424E+01  0.00000000000E+00 0. -1.
         11    1    3    3    0    0  0.24485912382E+02  0.30912478002E+02  0.99504271355E+01  0.40671269981E+02  0.51100000000E-03 0. -1.
        -11    1    3    3    0    0  0.48246038409E+01 -0.10007674316E+02 -0.61520997342E+01  0.12699554277E+02  0.51100000000E-03 0.  1.
        -12    1    3    3    0    0 -0.30253130279E+02 -0.20399172355E+02 -0.32995497088E+01  0.36636937000E+02  0.00000000000E+00 0.  1.
</event>
<event>
 7    1  0.1501154E-015  0.9000776E+02  0.7816164E-02  0.1186339E+00
        -11   -1    0    0    0    0  0.00000000000E+00  0.00000000000E+00  0.45593999997E+02  0.45594000000E+02  0.51100000000E-03 0.  1.
         11   -1    0    0    0    0 -0.00000000000E+00 -0.00000000000E+00 -0.45593999997E+02  0.45594000000E+02  0.51100000000E-03 0. -1.
    9900012    2    1    2    0    0 -0.11567187530E+01 -0.16223170435E+00 -0.16926190042E+00  0.90007759774E+02  0.90000021403E+02 0.  0.
         12    1    1    2    0    0  0.11567187530E+01  0.16223170435E+00  0.16926190042E+00  0.11802402257E+01  0.00000000000E+00 0. -1.
         11    1    3    3    0    0  0.38544246225E+01 -0.62835286467E+01  0.66762022959E+01  0.99454008859E+01  0.51100000000E-03 0. -1.
        -11    1    3    3    0    0 -0.41664377381E+02  0.13738635415E+01  0.30582272654E+01  0.41799050203E+02  0.51100000000E-03 0.  1.
         12    1    3    3    0    0  0.36653234006E+02  0.47474334009E+01 -0.99036914617E+01  0.38263308685E+02  0.00000000000E+00 0. -1.
</event>
<event>
 7    1  0.1501154E-015  0.9000767E+02  0.7816164E-02  0.1186339E+00
        -11   -1    0    0    0    0  0.00000000000E+00  0.00000000000E+00  0.45593999997E+02  0.45594000000E+02  0.51100000000E-03 0.  1.
         11   -1    0    0    0    0 -0.00000000000E+00 -0.00000000000E+00 -0.45593999997E+02  0.45594000000E+02  0.51100000000E-03 0. -1.
    9900012    2    1    2    0    0  0.56648993068E+00  0.17042357977E+00  0.10213859360E+01  0.90007667730E+02  0.89999928144E+02 0.  0.
         12    1    1    2    0    0 -0.56648993068E+00 -0.17042357977E+00 -0.10213859360E+01  0.11803322704E+01  0.00000000000E+00 0. -1.
         11    1    3    3    0    0 -0.12858597779E+02 -0.36884789866E+02 -0.14526565773E+02  0.41675560869E+02  0.51100000000E-03 0. -1.
        -11    1    3    3    0    0 -0.62572434083E+01  0.47011331260E+01  0.36559768368E+01  0.86382819259E+01  0.51100000000E-03 0.  1.
        -12    1    3    3    0    0  0.19682331118E+02  0.32354080320E+02  0.11891974873E+02  0.39693824935E+02  0.00000000000E+00 0.  1.
</event>
<event>
 7    1  0.1501154E-015  0.9000749E+02  0.7816164E-02  0.1186340E+00
        -11   -1    0    0    0    0  0.00000000000E+00  0.00000000000E+00  0.45593999997E+02  0.45594000000E+02  0.51100000000E-03 0.  1.
         11   -1    0    0    0    0 -0.00000000000E+00 -0.00000000000E+00 -0.45593999997E+02  0.45594000000E+02  0.51100000000E-03 0. -1.
    9900012    2    1    2    0    0 -0.94003296370E+00  0.43452944071E+00  0.56668535365E+00  0.90007487358E+02  0.89999745391E+02 0.  0.
         12    1    1    2    0    0  0.94003296370E+00 -0.43452944071E+00 -0.56668535365E+00  0.11805126419E+01  0.00000000000E+00 0. -1.
         11    1    3    3    0    0  0.28967492289E+02 -0.22259475310E+02 -0.13591063832E+02  0.38978415398E+02  0.51100000000E-03 0. -1.
        -11    1    3    3    0    0  0.19378669290E+01 -0.28355420308E+01  0.93144144285E+01  0.99274338703E+01  0.51100000000E-03 0.  1.
        -12    1    3    3    0    0 -0.31845392182E+02  0.25529546781E+02  0.48433347574E+01  0.41101638090E+02  0.00000000000E+00 0.  1.
</event>
<event>
 7    1  0.1982787E-015  0.9000774E+02  0.7816164E-02  0.1186339E+00
        -11   -1    0    0    0    0  0.00000000000E+00  0.00000000000E+00  0.45593999997E+02  0.45594000000E+02  0.51100000000E-03 0. -1.
         11   -1    0    0    0    0 -0.00000000000E+00 -0.00000000000E+00 -0.45593999997E+02  0.45594000000E+02  0.51100000000E-03 0.  1.
    9900012    2    1    2    0    0 -0.27910893633E+00 -0.77353608202E+00 -0.84661649828E+00  0.90007737587E+02  0.89999998923E+02 0.  0.
         12    1    1    2    0    0  0.27910893633E+00  0.77353608202E+00  0.84661649828E+00  0.11802624131E+01  0.00000000000E+00 0. -1.
         11    1    3    3    0    0  0.24725131030E+02 -0.69252079342E+01  0.33995839656E+02  0.42602907454E+02  0.51100000000E-03 0. -1.
        -11    1    3    3    0    0 -0.33128388169E+01  0.82499780653E+01 -0.42760191487E+01  0.98651598632E+01  0.51100000000E-03 0.  1.
        -12    1    3    3    0    0 -0.21691401149E+02 -0.20983062132E+01 -0.30566437005E+02  0.37539670270E+02  0.00000000000E+00 0.  1.
</event>
<event>
 7    1  0.1501154E-015  0.9000797E+02  0.7816164E-02  0.1186339E+00
        -11   -1    0    0    0    0  0.00000000000E+00  0.00000000000E+00  0.45593999997E+02  0.45594000000E+02  0.51100000000E-03 0. -1.
         11   -1    0    0    0    0 -0.00000000000E+00 -0.00000000000E+00 -0.45593999997E+02  0.45594000000E+02  0.51100000000E-03 0.  1.
    9900012    2    1    2    0    0  0.69972790476E+00  0.94735978848E+00  0.73181713649E-01  0.90007972342E+02  0.90000236777E+02 0.  0.
         12    1    1    2    0    0 -0.69972790476E+00 -0.94735978848E+00 -0.73181713649E-01  0.11800276576E+01  0.00000000000E+00 0. -1.
         11    1    3    3    0    0  0.95849464944E+01 -0.11002853874E+01 -0.13251869923E+01  0.97384777075E+01  0.51100000000E-03 0. -1.
        -11    1    3    3    0    0  0.31808308213E+02 -0.13101558809E+02 -0.91251865194E+01  0.35590565377E+02  0.51100000000E-03 0.  1.
         12    1    3    3    0    0 -0.40693526803E+02  0.15149203985E+02  0.10523555225E+02  0.44678929258E+02  0.00000000000E+00 0. -1.
</event>
<event>
 7    1  0.1501154E-015  0.9000768E+02  0.7816164E-02  0.1186339E+00
        -11   -1    0    0    0    0  0.00000000000E+00  0.00000000000E+00  0.45593999997E+02  0.45594000000E+02  0.51100000000E-03 0.  1.
         11   -1    0    0    0    0 -0.00000000000E+00 -0.00000000000E+00 -0.45593999997E+02  0.45594000000E+02  0.51100000000E-03 0. -1.
    9900012    2    1    2    0    0 -0.41442847238E-01 -0.99005557490E+00 -0.64126319983E+00  0.90007683923E+02  0.89999944550E+02 0.  0.
         12    1    1    2    0    0  0.41442847238E-01  0.99005557490E+00  0.64126319983E+00  0.11803160773E+01  0.00000000000E+00 0. -1.
         11    1    3    3    0    0 -0.85809864304E+01  0.72745052319E+01 -0.55044972927E+01  0.12524026716E+02  0.51100000000E-03 0. -1.
        -11    1    3    3    0    0 -0.33919293602E+02 -0.79814078207E+01  0.12036953779E+01  0.34866462856E+02  0.51100000000E-03 0.  1.
         12    1    3    3    0    0  0.42458837185E+02 -0.28315298609E+00  0.36595387150E+01  0.42617194351E+02  0.00000000000E+00 0. -1.
</event>
<event>
 7    1  0.1501154E-015  0.9000790E+02  0.7816164E-02  0.1186339E+00
        -11   -1    0    0    0    0  0.00000000000E+00  0.00000000000E+00  0.45593999997E+02  0.45594000000E+02  0.51100000000E-03 0.  1.
         11   -1    0    0    0    0 -0.00000000000E+00 -0.00000000000E+00 -0.45593999997E+02  0.45594000000E+02  0.51100000000E-03 0. -1.
    9900012    2    1    2    0    0  0.69502566252E+00  0.14211311694E+00  0.94306594360E+00  0.90007902469E+02  0.90000165981E+02 0.  0.
         12    1    1    2    0    0 -0.69502566252E+00 -0.14211311694E+00 -0.94306594360E+00  0.11800975314E+01  0.00000000000E+00 0. -1.
         11    1    3    3    0    0  0.24019425359E+01 -0.23546056508E+02 -0.33138113166E+02  0.40722483341E+02  0.51100000000E-03 0. -1.
        -11    1    3    3    0    0  0.95676611440E+01  0.78464784406E+00  0.13103966993E+02  0.16244068555E+02  0.51100000000E-03 0.  1.
        -12    1    3    3    0    0 -0.11274578017E+02  0.22903521781E+02  0.20977212117E+02  0.33041350572E+02  0.00000000000E+00 0.  1.
</event>
<event>
 7    1  0.1501154E-015  0.9000785E+02  0.7816164E-02  0.1186339E+00
        -11   -1    0    0    0    0  0.00000000000E+00  0.00000000000E+00  0.45593999997E+02  0.45594000000E+02  0.51100000000E-03 0. -1.
         11   -1    0    0    0    0 -0.00000000000E+00 -0.00000000000E+00 -0.45593999997E+02  0.45594000000E+02  0.51100000000E-03 0.  1.
    9900012    2    1    2    0    0  0.98457517453E+00  0.50957010455E+00  0.40459089061E+00  0.90007854350E+02  0.90000117228E+02 0.  0.
         12    1    1    2    0    0 -0.98457517453E+00 -0.50957010455E+00 -0.40459089061E+00  0.11801456497E+01  0.00000000000E+00 0. -1.
         11    1    3    3    0    0  0.18643611783E+01  0.30589594075E+01  0.73837387546E+01  0.82068674607E+01  0.51100000000E-03 0. -1.
        -11    1    3    3    0    0 -0.19737107135E+02  0.12025140105E+02 -0.36904802153E+02  0.43544480877E+02  0.51100000000E-03 0.  1.
         12    1    3    3    0    0  0.18857321131E+02 -0.14574529407E+02  0.29925654289E+02  0.38256506013E+02  0.00000000000E+00 0. -1.
</event>
<event>
 7    1  0.1501154E-015  0.9000773E+02  0.7816164E-02  0.1186339E+00
        -11   -1    0    0    0    0  0.00000000000E+00  0.00000000000E+00  0.45593999997E+02  0.45594000000E+02  0.51100000000E-03 0. -1.
         11   -1    0    0    0    0 -0.00000000000E+00 -0.00000000000E+00 -0.45593999997E+02  0.45594000000E+02  0.51100000000E-03 0.  1.
    9900012    2    1    2    0    0 -0.11300957499E+01  0.20856394204E+00 -0.26912709566E+00  0.90007726847E+02  0.89999988041E+02 0.  0.
         12    1    1    2    0    0  0.11300957499E+01 -0.20856394204E+00  0.26912709566E+00  0.11802731529E+01  0.00000000000E+00 0. -1.
         11    1    3    3    0    0  0.22993023851E+01 -0.70864011643E+01 -0.43815635920E+01  0.86430302956E+01  0.51100000000E-03 0. -1.
        -11    1    3    3    0    0 -0.52590219825E+01 -0.35767641220E+02  0.10837689015E+02  0.37741713979E+02  0.51100000000E-03 0.  1.
         12    1    3    3    0    0  0.18296238474E+01  0.43062606326E+02 -0.67252525184E+01  0.43622982572E+02  0.00000000000E+00 0. -1.
</event>
<event>
 7    1  0.1501154E-015  0.9000772E+02  0.7816164E-02  0.1186339E+00
        -11   -1    0    0    0    0  0.00000000000E+00  0.00000000000E+00  0.45593999997E+02  0.45594000000E+02  0.51100000000E-03 0.  1.
         11   -1    0    0    0    0 -0.00000000000E+00 -0.00000000000E+00 -0.45593999997E+02  0.45594000000E+02  0.51100000000E-03 0. -1.
    9900012    2    1    2    0    0  0.86046696720E+00  0.33656813502E+00  0.73441819508E+00  0.90007723932E+02  0.89999985088E+02 0.  0.
         12    1    1    2    0    0 -0.86046696720E+00 -0.33656813502E+00 -0.73441819508E+00  0.11802760679E+01  0.00000000000E+00 0. -1.
         11    1    3    3    0    0  0.92330398548E+01 -0.10217287559E+02  0.14915430202E+02  0.20300543057E+02  0.51100000000E-03 0. -1.
        -11    1    3    3    0    0 -0.87036697649E+00 -0.22221949991E+02  0.13620471144E+02  0.26078532062E+02  0.51100000000E-03 0.  1.
         12    1    3    3    0    0 -0.75022059111E+01  0.32775805685E+02 -0.27801483151E+02  0.43628648813E+02  0.00000000000E+00 0. -1.
</event>
<event>
 7    1  0.1501154E-015  0.9000775E+02  0.7816164E-02  0.1186339E+00
        -11   -1    0    0    0    0  0.00000000000E+00  0.00000000000E+00  0.45593999997E+02  0.45594000000E+02  0.51100000000E-03 0. -1.
         11   -1    0    0    0    0 -0.00000000000E+00 -0.00000000000E+00 -0.45593999997E+02  0.45594000000E+02  0.51100000000E-03 0.  1.
    9900012    2    1    2    0    0  0.34687825767E+00  0.88000403668E+00 -0.70587171336E+00  0.90007751507E+02  0.90000013027E+02 0.  0.
         12    1    1    2    0    0 -0.34687825767E+00 -0.88000403668E+00  0.70587171336E+00  0.11802484933E+01  0.00000000000E+00 0. -1.
         11    1    3    3    0    0 -0.13040131460E+01  0.87304247236E+01  0.34058138881E+01  0.94615186224E+01  0.51100000000E-03 0. -1.
        -11    1    3    3    0    0 -0.11369090083E+02  0.21947340824E+02 -0.30079255608E+02  0.38932038179E+02  0.51100000000E-03 0.  1.
         12    1    3    3    0    0  0.13019981487E+02 -0.29797761511E+02  0.25967570006E+02  0.41614194706E+02  0.00000000000E+00 0. -1.
</event>
<event>
 7    1  0.1501154E-015  0.9000781E+02  0.7816164E-02  0.1186339E+00
        -11   -1    0    0    0    0  0.00000000000E+00  0.00000000000E+00  0.45593999997E+02  0.45594000000E+02  0.51100000000E-03 0. -1.
         11   -1    0    0    0    0 -0.00000000000E+00 -0.00000000000E+00 -0.45593999997E+02  0.45594000000E+02  0.51100000000E-03 0.  1.
    9900012    2    1    2    0    0  0.38267641993E+00 -0.48561597982E+00 -0.10052819794E+01  0.90007806804E+02  0.90000069054E+02 0.  0.
         12    1    1    2    0    0 -0.38267641993E+00  0.48561597982E+00  0.10052819794E+01  0.11801931961E+01  0.00000000000E+00 0. -1.
         11    1    3    3    0    0  0.19545854493E+02  0.39879259260E+01  0.28507150232E+02  0.34793700517E+02  0.51100000000E-03 0. -1.
        -11    1    3    3    0    0  0.95136935882E+01  0.10202235659E+02 -0.12755990495E+02  0.18902678961E+02  0.51100000000E-03 0.  1.
        -12    1    3    3    0    0 -0.28676871661E+02 -0.14675777565E+02 -0.16756441716E+02  0.36311427325E+02  0.00000000000E+00 0.  1.
</event>
<event>
 7    1  0.1501154E-015  0.9000774E+02  0.7816164E-02  0.1186339E+00
        -11   -1    0    0    0    0  0.00000000000E+00  0.00000000000E+00  0.45593999997E+02  0.45594000000E+02  0.51100000000E-03 0.  1.
         11   -1    0    0    0    0 -0.00000000000E+00 -0.00000000000E+00 -0.45593999997E+02  0.45594000000E+02  0.51100000000E-03 0. -1.
    9900012    2    1    2    0    0  0.11714986964E+01 -0.14147376124E+00 -0.24435718735E-01  0.90007736841E+02  0.89999998167E+02 0.  0.
         12    1    1    2    0    0 -0.11714986964E+01  0.14147376124E+00  0.24435718735E-01  0.11802631593E+01  0.00000000000E+00 0. -1.
         11    1    3    3    0    0 -0.21789188417E+00  0.90815629966E+01 -0.32210747367E+01  0.96383393826E+01  0.51100000000E-03 0. -1.
        -11    1    3    3    0    0 -0.37393260487E+02 -0.49983601033E+01 -0.10269462413E+02  0.39098611127E+02  0.51100000000E-03 0.  1.
         12    1    3    3    0    0  0.38782651067E+02 -0.42246766546E+01  0.13466101431E+02  0.41270786331E+02  0.00000000000E+00 0. -1.
</event>
<event>
 7    1  0.1501154E-015  0.9000779E+02  0.7816164E-02  0.1186339E+00
        -11   -1    0    0    0    0  0.00000000000E+00  0.00000000000E+00  0.45593999997E+02  0.45594000000E+02  0.51100000000E-03 0. -1.
         11   -1    0    0    0    0 -0.00000000000E+00 -0.00000000000E+00 -0.45593999997E+02  0.45594000000E+02  0.51100000000E-03 0.  1.
    9900012    2    1    2    0    0  0.97123412849E+00 -0.66915182535E+00  0.42890080473E-01  0.90007788385E+02  0.90000050391E+02 0.  0.
         12    1    1    2    0    0 -0.97123412849E+00  0.66915182535E+00 -0.42890080473E-01  0.11802116152E+01  0.00000000000E+00 0. -1.
         11    1    3    3    0    0 -0.17999476013E+02 -0.35120671981E+02 -0.37149409976E+01  0.39638914264E+02  0.51100000000E-03 0. -1.
        -11    1    3    3    0    0  0.78297943293E+01 -0.29860740151E+01 -0.57566156012E+01  0.10166658286E+02  0.51100000000E-03 0.  1.
        -12    1    3    3    0    0  0.11140915812E+02  0.37437594171E+02  0.95144466793E+01  0.40202215835E+02  0.00000000000E+00 0.  1.
</event>
<event>
 7    1  0.1501154E-015  0.9000770E+02  0.7816164E-02  0.1186339E+00
        -11   -1    0    0    0    0  0.00000000000E+00  0.00000000000E+00  0.45593999997E+02  0.45594000000E+02  0.51100000000E-03 0. -1.
         11   -1    0    0    0    0 -0.00000000000E+00 -0.00000000000E+00 -0.45593999997E+02  0.45594000000E+02  0.51100000000E-03 0.  1.
    9900012    2    1    2    0    0 -0.54493064522E+00 -0.22479686183E-01 -0.10467401275E+01  0.90007695108E+02  0.89999955883E+02 0.  0.
         12    1    1    2    0    0  0.54493064522E+00  0.22479686183E-01  0.10467401275E+01  0.11803048923E+01  0.00000000000E+00 0. -1.
         11    1    3    3    0    0 -0.25798864102E+01 -0.87965844194E+01 -0.62411471368E+01  0.11089978773E+02  0.51100000000E-03 0. -1.
        -11    1    3    3    0    0 -0.38234054979E+01 -0.28125394751E+02 -0.19226461054E+02  0.34282839212E+02  0.51100000000E-03 0.  1.
         12    1    3    3    0    0  0.58583612629E+01  0.36899499484E+02  0.24420868063E+02  0.44634877123E+02  0.00000000000E+00 0. -1.
</event>
<event>
 7    1  0.1501154E-015  0.9000772E+02  0.7816164E-02  0.1186339E+00
        -11   -1    0    0    0    0  0.00000000000E+00  0.00000000000E+00  0.45593999997E+02  0.45594000000E+02  0.51100000000E-03 0.  1.
         11   -1    0    0    0    0 -0.00000000000E+00 -0.00000000000E+00 -0.45593999997E+02  0.45594000000E+02  0.51100000000E-03 0. -1.
    9900012    2    1    2    0    0 -0.14916490997E+00 -0.74383228063E+00  0.90417228558E+00  0.90007718612E+02  0.89999979698E+02 0.  0.
         12    1    1    2    0    0  0.14916490997E+00  0.74383228063E+00 -0.90417228558E+00  0.11802813877E+01  0.00000000000E+00 0. -1.
         11    1    3    3    0    0 -0.54083666624E+01  0.61695746633E+01  0.64061955748E+01  0.10409295052E+02  0.51100000000E-03 0. -1.
        -11    1    3    3    0    0  0.14602933314E+02  0.33907620707E+02 -0.75059806423E+01  0.37673759423E+02  0.51100000000E-03 0.  1.
         12    1    3    3    0    0 -0.93437315614E+01 -0.40821027651E+02  0.20039573531E+01  0.41924664137E+02  0.00000000000E+00 0. -1.
</event>
<event>
 7    1  0.1501154E-015  0.9000757E+02  0.7816164E-02  0.1186339E+00
        -11   -1    0    0    0    0  0.00000000000E+00  0.00000000000E+00  0.45593999997E+02  0.45594000000E+02  0.51100000000E-03 0. -1.
         11   -1    0    0    0    0 -0.00000000000E+00 -0.00000000000E+00 -0.45593999997E+02  0.45594000000E+02  0.51100000000E-03 0.  1.
    9900012    2    1    2    0    0 -0.13967557873E+00  0.71599251993E+00 -0.92804573915E+00  0.90007566414E+02  0.89999825491E+02 0.  0.
         12    1    1    2    0    0  0.13967557873E+00 -0.71599251993E+00  0.92804573915E+00  0.11804335855E+01  0.00000000000E+00 0. -1.
         11    1    3    3    0    0  0.32323059612E+01  0.77825349320E+01 -0.33071284286E+01  0.90527758450E+01  0.51100000000E-03 0. -1.
        -11    1    3    3    0    0 -0.21389734550E+01  0.29130562640E+02 -0.22622698707E+02  0.36945248466E+02  0.51100000000E-03 0.  1.
         12    1    3    3    0    0 -0.12330080849E+01 -0.36197105052E+02  0.25001781397E+02  0.44009542103E+02  0.00000000000E+00 0. -1.
</event>
<event>
 7    1  0.1501154E-015  0.9000782E+02  0.7816164E-02  0.1186339E+00
        -11   -1    0    0    0    0  0.00000000000E+00  0.00000000000E+00  0.45593999997E+02  0.45594000000E+02  0.51100000000E-03 0. -1.
         11   -1    0    0    0    0 -0.00000000000E+00 -0.00000000000E+00 -0.45593999997E+02  0.45594000000E+02  0.51100000000E-03 0.  1.
    9900012    2    1    2    0    0 -0.41328494073E+00 -0.11001041915E+01  0.10855735684E+00  0.90007822736E+02  0.90000085196E+02 0.  0.
         12    1    1    2    0    0  0.41328494073E+00  0.11001041915E+01 -0.10855735684E+00  0.11801772639E+01  0.00000000000E+00 0. -1.
         11    1    3    3    0    0  0.73664385141E+01 -0.39391096025E+02  0.10844443918E+02  0.41515356515E+02  0.51100000000E-03 0. -1.
        -11    1    3    3    0    0  0.68134185782E+01  0.43869592047E+01  0.36360111427E+01  0.88819289052E+01  0.51100000000E-03 0.  1.
        -12    1    3    3    0    0 -0.14593142033E+02  0.33904032628E+02 -0.14371897703E+02  0.39610537316E+02  0.00000000000E+00 0.  1.
</event>
<event>
 7    1  0.1501154E-015  0.9000774E+02  0.7816164E-02  0.1186339E+00
        -11   -1    0    0    0    0  0.00000000000E+00  0.00000000000E+00  0.45593999997E+02  0.45594000000E+02  0.51100000000E-03 0.  1.
         11   -1    0    0    0    0 -0.00000000000E+00 -0.00000000000E+00 -0.45593999997E+02  0.45594000000E+02  0.51100000000E-03 0. -1.
    9900012    2    1    2    0    0  0.28817430758E+00 -0.88374656340E+00 -0.72729307473E+00  0.90007742555E+02  0.90000003957E+02 0.  0.
         12    1    1    2    0    0 -0.28817430758E+00  0.88374656340E+00  0.72729307473E+00  0.11802574450E+01  0.00000000000E+00 0. -1.
         11    1    3    3    0    0 -0.42292754745E+01 -0.92321757205E+01 -0.46472569553E+01  0.11167669275E+02  0.51100000000E-03 0. -1.
        -11    1    3    3    0    0 -0.24885573876E+02 -0.88232977101E+01 -0.23325789502E+02  0.35231162708E+02  0.51100000000E-03 0.  1.
         12    1    3    3    0    0  0.29403023658E+02  0.17171726867E+02  0.27245753383E+02  0.43608910571E+02  0.00000000000E+00 0. -1.
</event>
<event>
 7    1  0.1501154E-015  0.9000770E+02  0.7816164E-02  0.1186339E+00
        -11   -1    0    0    0    0  0.00000000000E+00  0.00000000000E+00  0.45593999997E+02  0.45594000000E+02  0.51100000000E-03 0.  1.
         11   -1    0    0    0    0 -0.00000000000E+00 -0.00000000000E+00 -0.45593999997E+02  0.45594000000E+02  0.51100000000E-03 0. -1.
    9900012    2    1    2    0    0 -0.11074617093E+01 -0.34060272119E+00  0.22500225330E+00  0.90007700180E+02  0.89999961022E+02 0.  0.
         12    1    1    2    0    0  0.11074617093E+01  0.34060272119E+00 -0.22500225330E+00  0.11802998200E+01  0.00000000000E+00 0. -1.
         11    1    3    3    0    0  0.31824428928E+01 -0.73729296268E+01  0.38840575176E+01  0.89204224736E+01  0.51100000000E-03 0. -1.
        -11    1    3    3    0    0  0.35266742771E+02 -0.11793895865E+02 -0.23140135729E+01  0.37258472653E+02  0.51100000000E-03 0.  1.
         12    1    3    3    0    0 -0.39556647373E+02  0.18826222771E+02 -0.13450416913E+01  0.43828805053E+02  0.00000000000E+00 0. -1.
</event>
<event>
 7    1  0.1501154E-015  0.9000779E+02  0.7816164E-02  0.1186339E+00
        -11   -1    0    0    0    0  0.00000000000E+00  0.00000000000E+00  0.45593999997E+02  0.45594000000E+02  0.51100000000E-03 0. -1.
         11   -1    0    0    0    0 -0.00000000000E+00 -0.00000000000E+00 -0.45593999997E+02  0.45594000000E+02  0.51100000000E-03 0.  1.
    9900012    2    1    2    0    0  0.66625677416E+00  0.44353189301E+00 -0.86734394865E+00  0.90007786395E+02  0.90000048375E+02 0.  0.
         12    1    1    2    0    0 -0.66625677416E+00 -0.44353189301E+00  0.86734394865E+00  0.11802136055E+01  0.00000000000E+00 0. -1.
         11    1    3    3    0    0 -0.38512651029E+01  0.14319538821E+01 -0.10162071876E+02  0.10961315609E+02  0.51100000000E-03 0. -1.
        -11    1    3    3    0    0  0.20441944570E+02  0.22902385442E+02 -0.21088002808E+02  0.37243740674E+02  0.51100000000E-03 0.  1.
         12    1    3    3    0    0 -0.15924422693E+02 -0.23890807431E+02  0.30382730736E+02  0.41802730111E+02  0.00000000000E+00 0. -1.
</event>
<event>
 7    1  0.1501154E-015  0.9000777E+02  0.7816164E-02  0.1186339E+00
        -11   -1    0    0    0    0  0.00000000000E+00  0.00000000000E+00  0.45593999997E+02  0.45594000000E+02  0.51100000000E-03 0. -1.
         11   -1    0    0    0    0 -0.00000000000E+00 -0.00000000000E+00 -0.45593999997E+02  0.45594000000E+02  0.51100000000E-03 0.  1.
    9900012    2    1    2    0    0 -0.11069391580E+01 -0.29310448992E+00 -0.28584545305E+00  0.90007774528E+02  0.90000036352E+02 0.  0.
         12    1    1    2    0    0  0.11069391580E+01  0.29310448992E+00  0.28584545305E+00  0.11802254719E+01  0.00000000000E+00 0. -1.
         11    1    3    3    0    0  0.91929800693E+01  0.21094136477E+01  0.47991195399E+01  0.10582629971E+02  0.51100000000E-03 0. -1.
        -11    1    3    3    0    0  0.33515903585E+02 -0.94869934804E+01 -0.35587612452E+01  0.35014048899E+02  0.51100000000E-03 0.  1.
         12    1    3    3    0    0 -0.43815822813E+02  0.70844753428E+01 -0.15262037478E+01  0.44411095658E+02  0.00000000000E+00 0. -1.
</event>
<event>
 7    1  0.1501154E-015  0.9000798E+02  0.7816164E-02  0.1186339E+00
        -11   -1    0    0    0    0  0.00000000000E+00  0.00000000000E+00  0.45593999997E+02  0.45594000000E+02  0.51100000000E-03 0.  1.
         11   -1    0    0    0    0 -0.00000000000E+00 -0.00000000000E+00 -0.45593999997E+02  0.45594000000E+02  0.51100000000E-03 0. -1.
    9900012    2    1    2    0    0  0.76800915491E+00 -0.87737491225E+00  0.18119070141E+00  0.90007976751E+02  0.90000241243E+02 0.  0.
         12    1    1    2    0    0 -0.76800915491E+00  0.87737491225E+00 -0.18119070141E+00  0.11800232493E+01  0.00000000000E+00 0. -1.
         11    1    3    3    0    0  0.31688828623E+02  0.16731724153E+02  0.47879970777E+01  0.36153248387E+02  0.51100000000E-03 0. -1.
        -11    1    3    3    0    0  0.65320898504E+01  0.84865890612E+00 -0.97694325058E+01  0.11782624135E+02  0.51100000000E-03 0.  1.
        -12    1    3    3    0    0 -0.37452909318E+02 -0.18457757971E+02  0.51626261296E+01  0.42072104229E+02  0.00000000000E+00 0.  1.
</event>
<event>
 7    1  0.1767179E-015  0.9000773E+02  0.7816164E-02  0.1186339E+00
        -11   -1    0    0    0    0  0.00000000000E+00  0.00000000000E+00  0.45593999997E+02  0.45594000000E+02  0.51100000000E-03 0. -1.
         11   -1    0    0    0    0 -0.00000000000E+00 -0.00000000000E+00 -0.45593999997E+02  0.45594000000E+02  0.51100000000E-03 0.  1.
    9900012    2    1    2    0    0  0.22556854308E+00 -0.55621000555E+00 -0.10162563393E+01  0.90007734062E+02  0.89999995351E+02 0.  0.
         12    1    1    2    0    0 -0.22556854308E+00  0.55621000555E+00  0.10162563393E+01  0.11802659383E+01  0.00000000000E+00 0. -1.
         11    1    3    3    0    0 -0.29929557192E+02  0.35119813254E+01  0.22455275910E+02  0.37581269577E+02  0.51100000000E-03 0. -1.
        -11    1    3    3    0    0  0.97948230563E+00  0.89527515594E+01  0.44045537586E+01  0.10025529420E+02  0.51100000000E-03 0.  1.
        -12    1    3    3    0    0  0.29175643429E+02 -0.13020942890E+02 -0.27876086008E+02  0.42400935065E+02  0.00000000000E+00 0.  1.
</event>
<event>
 7    1  0.1501154E-015  0.9000776E+02  0.7816164E-02  0.1186339E+00
        -11   -1    0    0    0    0  0.00000000000E+00  0.00000000000E+00  0.45593999997E+02  0.45594000000E+02  0.51100000000E-03 0.  1.
         11   -1    0    0    0    0 -0.00000000000E+00 -0.00000000000E+00 -0.45593999997E+02  0.45594000000E+02  0.51100000000E-03 0. -1.
    9900012    2    1    2    0    0  0.21893263600E+00  0.11518208607E+01 -0.13540523111E+00  0.90007763849E+02  0.90000025532E+02 0.  0.
         12    1    1    2    0    0 -0.21893263600E+00 -0.11518208607E+01  0.13540523111E+00  0.11802361505E+01  0.00000000000E+00 0. -1.
         11    1    3    3    0    0  0.52796466245E+01  0.91249815513E+01  0.30223509336E+00  0.10546625200E+02  0.51100000000E-03 0. -1.
        -11    1    3    3    0    0  0.33600210215E+02 -0.13039638204E+02 -0.13278047248E+02  0.38409801222E+02  0.51100000000E-03 0.  1.
         12    1    3    3    0    0 -0.38660924203E+02  0.50664775136E+01  0.12840406923E+02  0.41051337427E+02  0.00000000000E+00 0. -1.
</event>
<event>
 7    1  0.1501154E-015  0.9000772E+02  0.7816164E-02  0.1186339E+00
        -11   -1    0    0    0    0  0.00000000000E+00  0.00000000000E+00  0.45593999997E+02  0.45594000000E+02  0.51100000000E-03 0.  1.
         11   -1    0    0    0    0 -0.00000000000E+00 -0.00000000000E+00 -0.45593999997E+02  0.45594000000E+02  0.51100000000E-03 0. -1.
    9900012    2    1    2    0    0 -0.61292001927E+00  0.10390784602E+00  0.10032950904E+01  0.90007716632E+02  0.89999977692E+02 0.  0.
         12    1    1    2    0    0  0.61292001927E+00 -0.10390784602E+00 -0.10032950904E+01  0.11802833680E+01  0.00000000000E+00 0. -1.
         11    1    3    3    0    0 -0.45645459456E+01 -0.97477465526E+00 -0.38081138661E+02  0.38366109879E+02  0.51100000000E-03 0. -1.
        -11    1    3    3    0    0  0.86634110380E+00  0.79920109208E+01 -0.32239643794E+01  0.86612200091E+01  0.51100000000E-03 0.  1.
        -12    1    3    3    0    0  0.30852848225E+01 -0.69133284195E+01  0.42308398130E+02  0.42980386744E+02  0.00000000000E+00 0.  1.
</event>
<event>
 7    1  0.1817293E-015  0.9000773E+02  0.7816164E-02  0.1186339E+00
        -11   -1    0    0    0    0  0.00000000000E+00  0.00000000000E+00  0.45593999997E+02  0.45594000000E+02  0.51100000000E-03 0. -1.
         11   -1    0    0    0    0 -0.00000000000E+00 -0.00000000000E+00 -0.45593999997E+02  0.45594000000E+02  0.51100000000E-03 0.  1.
    9900012    2    1    2    0    0 -0.45102736828E+00 -0.45626451873E+00 -0.99067883946E+00  0.90007725642E+02  0.89999986820E+02 0.  0.
         12    1    1    2    0    0  0.45102736828E+00  0.45626451873E+00  0.99067883946E+00  0.11802743583E+01  0.00000000000E+00 0. -1.
         11    1    3    3    0    0 -0.36362664720E+02  0.12815360228E+01  0.15026685939E+02  0.39366064201E+02  0.51100000000E-03 0. -1.
        -11    1    3    3    0    0 -0.45273422801E+00 -0.89607008442E+01  0.23382125840E+01  0.92718049078E+01  0.51100000000E-03 0.  1.
        -12    1    3    3    0    0  0.36364371580E+02  0.72229003026E+01 -0.18355577362E+02  0.41369856532E+02  0.00000000000E+00 0.  1.
</event>
<event>
 7    1  0.1501154E-015  0.9000778E+02  0.7816164E-02  0.1186339E+00
        -11   -1    0    0    0    0  0.00000000000E+00  0.00000000000E+00  0.45593999997E+02  0.45594000000E+02  0.51100000000E-03 0.  1.
         11   -1    0    0    0    0 -0.00000000000E+00 -0.00000000000E+00 -0.45593999997E+02  0.45594000000E+02  0.51100000000E-03 0. -1.
    9900012    2    1    2    0    0  0.73102008682E-01  0.46801882147E+00  0.10809860434E+01  0.90007781229E+02  0.90000043141E+02 0.  0.
         12    1    1    2    0    0 -0.73102008682E-01 -0.46801882147E+00 -0.10809860434E+01  0.11802187708E+01  0.00000000000E+00 0. -1.
         11    1    3    3    0    0  0.21627524913E+01  0.21794513429E+01  0.97722592853E+01  0.10243268926E+02  0.51100000000E-03 0. -1.
        -11    1    3    3    0    0  0.31324093906E+02 -0.23291557746E+02  0.69167133804E-01  0.39034603951E+02  0.51100000000E-03 0.  1.
         12    1    3    3    0    0 -0.33413744388E+02  0.21580125225E+02 -0.87604403757E+01  0.40729908352E+02  0.00000000000E+00 0. -1.
</event>
<event>
 7    1  0.1713868E-015  0.9000773E+02  0.7816164E-02  0.1186339E+00
        -11   -1    0    0    0    0  0.00000000000E+00  0.00000000000E+00  0.45593999997E+02  0.45594000000E+02  0.51100000000E-03 0. -1.
         11   -1    0    0    0    0 -0.00000000000E+00 -0.00000000000E+00 -0.45593999997E+02  0.45594000000E+02  0.51100000000E-03 0.  1.
    9900012    2    1    2    0    0  0.34713407512E+00 -0.21110953140E+00 -0.11081381815E+01  0.90007729044E+02  0.89999990267E+02 0.  0.
         12    1    1    2    0    0 -0.34713407512E+00  0.21110953140E+00  0.11081381815E+01  0.11802709561E+01  0.00000000000E+00 0. -1.
         11    1    3    3    0    0  0.10387741009E+02  0.34304561180E+01  0.34312704438E+02  0.36014370445E+02  0.51100000000E-03 0. -1.
        -11    1    3    3    0    0  0.58053139817E+01  0.60876263542E+01  0.47980424166E+01  0.96841146393E+01  0.51100000000E-03 0.  1.
        -12    1    3    3    0    0 -0.15845920916E+02 -0.97291920036E+01 -0.40218885036E+02  0.44309243959E+02  0.00000000000E+00 0.  1.
</event>
<event>
 7    1  0.1501154E-015  0.9000809E+02  0.7816164E-02  0.1186338E+00
        -11   -1    0    0    0    0  0.00000000000E+00  0.00000000000E+00  0.45593999997E+02  0.45594000000E+02  0.51100000000E-03 0.  1.
         11   -1    0    0    0    0 -0.00000000000E+00 -0.00000000000E+00 -0.45593999997E+02  0.45594000000E+02  0.51100000000E-03 0. -1.
    9900012    2    1    2    0    0  0.87479590935E+00  0.24185548065E+00  0.75393361474E+00  0.90008094134E+02  0.90000360176E+02 0.  0.
         12    1    1    2    0    0 -0.87479590935E+00 -0.24185548065E+00 -0.75393361474E+00  0.11799058657E+01  0.00000000000E+00 0. -1.
         11    1    3    3    0    0  0.21428016372E+02  0.22945250738E+01 -0.32148336519E+02  0.38703233355E+02  0.51100000000E-03 0. -1.
        -11    1    3    3    0    0  0.27436835596E+01  0.98454489484E+01  0.13352530063E+01  0.10307451932E+02  0.51100000000E-03 0.  1.
        -12    1    3    3    0    0 -0.23296904022E+02 -0.11898118542E+02  0.31567017128E+02  0.40997408847E+02  0.00000000000E+00 0.  1.
</event>
<event>
 7    1  0.1730092E-015  0.9000797E+02  0.7816164E-02  0.1186339E+00
        -11   -1    0    0    0    0  0.00000000000E+00  0.00000000000E+00  0.45593999997E+02  0.45594000000E+02  0.51100000000E-03 0. -1.
         11   -1    0    0    0    0 -0.00000000000E+00 -0.00000000000E+00 -0.45593999997E+02  0.45594000000E+02  0.51100000000E-03 0.  1.
    9900012    2    1    2    0    0 -0.65906355125E+00 -0.32632536629E+00 -0.92283777337E+00  0.90007965015E+02  0.90000229353E+02 0.  0.
         12    1    1    2    0    0  0.65906355125E+00  0.32632536629E+00  0.92283777337E+00  0.11800349848E+01  0.00000000000E+00 0. -1.
         11    1    3    3    0    0 -0.34402960253E+01 -0.94385503600E+01 -0.22540489399E+01  0.10295756724E+02  0.51100000000E-03 0. -1.
        -11    1    3    3    0    0  0.77632862953E+01  0.43659678392E+01 -0.38384757277E+02  0.39404566750E+02  0.51100000000E-03 0.  1.
         12    1    3    3    0    0 -0.49820538212E+01  0.47462571545E+01  0.39715968443E+02  0.40307641541E+02  0.00000000000E+00 0. -1.
</event>
<event>
 7    1  0.1501154E-015  0.9000776E+02  0.7816164E-02  0.1186339E+00
        -11   -1    0    0    0    0  0.00000000000E+00  0.00000000000E+00  0.45593999997E+02  0.45594000000E+02  0.51100000000E-03 0. -1.
         11   -1    0    0    0    0 -0.00000000000E+00 -0.00000000000E+00 -0.45593999997E+02  0.45594000000E+02  0.51100000000E-03 0.  1.
    9900012    2    1    2    0    0  0.13673094958E+00 -0.55602551304E+00  0.10320435648E+01  0.90007756956E+02  0.90000018548E+02 0.  0.
         12    1    1    2    0    0 -0.13673094958E+00  0.55602551304E+00 -0.10320435648E+01  0.11802430442E+01  0.00000000000E+00 0. -1.
         11    1    3    3    0    0  0.91144700660E+01 -0.17880372270E+01  0.44970333954E+01  0.10319590657E+02  0.51100000000E-03 0. -1.
        -11    1    3    3    0    0  0.22923462786E+02 -0.22541822644E+02  0.15410128670E+02  0.35652362896E+02  0.51100000000E-03 0.  1.
         12    1    3    3    0    0 -0.31901201902E+02  0.23773834358E+02 -0.18875118500E+02  0.44035803402E+02  0.00000000000E+00 0. -1.
</event>
<event>
 7    1  0.1501154E-015  0.9000787E+02  0.7816164E-02  0.1186339E+00
        -11   -1    0    0    0    0  0.00000000000E+00  0.00000000000E+00  0.45593999997E+02  0.45594000000E+02  0.51100000000E-03 0. -1.
         11   -1    0    0    0    0 -0.00000000000E+00 -0.00000000000E+00 -0.45593999997E+02  0.45594000000E+02  0.51100000000E-03 0.  1.
    9900012    2    1    2    0    0  0.56146145674E+00 -0.84604609343E+00  0.60139438994E+00  0.90007869426E+02  0.90000132502E+02 0.  0.
         12    1    1    2    0    0 -0.56146145674E+00  0.84604609343E+00 -0.60139438994E+00  0.11801305741E+01  0.00000000000E+00 0. -1.
         11    1    3    3    0    0 -0.24129804322E+02 -0.19909048496E+02  0.20754804109E+02  0.37541704310E+02  0.51100000000E-03 0. -1.
        -11    1    3    3    0    0 -0.89414918934E+01 -0.80087289497E+00 -0.65179456179E+01  0.11093930323E+02  0.51100000000E-03 0.  1.
        -12    1    3    3    0    0  0.33632757672E+02  0.19863875298E+02 -0.13635464101E+02  0.41372234793E+02  0.00000000000E+00 0.  1.
</event>
<event>
 7    1  0.1501154E-015  0.9000772E+02  0.7816164E-02  0.1186339E+00
        -11   -1    0    0    0    0  0.00000000000E+00  0.00000000000E+00  0.45593999997E+02  0.45594000000E+02  0.51100000000E-03 0.  1.
         11   -1    0    0    0    0 -0.00000000000E+00 -0.00000000000E+00 -0.45593999997E+02  0.45594000000E+02  0.51100000000E-03 0. -1.
    9900012    2    1    2    0    0 -0.62281382171E+00 -0.45059147349E+00  0.89562114549E+00  0.90007717420E+02  0.89999978490E+02 0.  0.
         12    1    1    2    0    0  0.62281382171E+00  0.45059147349E+00 -0.89562114549E+00  0.11802825800E+01  0.00000000000E+00 0. -1.
         11    1    3    3    0    0 -0.20620806716E+02 -0.12300866710E+02 -0.28944983471E+02  0.37607726065E+02  0.51100000000E-03 0. -1.
        -11    1    3    3    0    0 -0.46581219822E+01 -0.23528937118E+01 -0.51285065599E+01  0.73168154969E+01  0.51100000000E-03 0.  1.
        -12    1    3    3    0    0  0.24656114876E+02  0.14203168948E+02  0.34969111176E+02  0.45083175858E+02  0.00000000000E+00 0.  1.
</event>
<event>
 7    1  0.1501154E-015  0.9000772E+02  0.7816164E-02  0.1186339E+00
        -11   -1    0    0    0    0  0.00000000000E+00  0.00000000000E+00  0.45593999997E+02  0.45594000000E+02  0.51100000000E-03 0. -1.
         11   -1    0    0    0    0 -0.00000000000E+00 -0.00000000000E+00 -0.45593999997E+02  0.45594000000E+02  0.51100000000E-03 0.  1.
    9900012    2    1    2    0    0  0.45171103417E+00  0.78930957917E+00 -0.75233555990E+00  0.90007719836E+02  0.89999980938E+02 0.  0.
         12    1    1    2    0    0 -0.45171103417E+00 -0.78930957917E+00  0.75233555990E+00  0.11802801637E+01  0.00000000000E+00 0. -1.
         11    1    3    3    0    0  0.23286624352E+01  0.31091230810E+02 -0.62492235478E+01  0.31798429163E+02  0.51100000000E-03 0. -1.
        -11    1    3    3    0    0 -0.17124179614E+02 -0.93407087450E+01 -0.15449824862E+02  0.24883397193E+02  0.51100000000E-03 0.  1.
         12    1    3    3    0    0  0.15247228213E+02 -0.20961212486E+02  0.20946712850E+02  0.33325893481E+02  0.00000000000E+00 0. -1.
</event>
<event>
 8    1  0.1501154E-015  0.9000767E+02  0.7816164E-02  0.1186339E+00
        -11   -1    0    0    0    0  0.00000000000E+00  0.00000000000E+00  0.45593999997E+02  0.45594000000E+02  0.51100000000E-03 0. -1.
         11   -1    0    0    0    0 -0.00000000000E+00 -0.00000000000E+00 -0.45593999997E+02  0.45594000000E+02  0.51100000000E-03 0.  1.
    9900012    2    1    2    0    0  0.78827906490E+00  0.80100679951E+00 -0.36079593908E+00  0.90007673991E+02  0.89999934488E+02 0.  0.
         23    2    3    3    0    0 -0.14476241914E+02 -0.43121508246E+01 -0.23002814371E+02  0.62226187705E+02  0.55810507458E+02 0.  0.
         12    1    1    2    0    0 -0.78827906490E+00 -0.80100679951E+00  0.36079593908E+00  0.11803260086E+01  0.00000000000E+00 0. -1.
         11    1    4    4    0    0 -0.14840236739E+02 -0.28114526371E+02 -0.45675554010E+01  0.32117312810E+02  0.51100000000E-03 0.  1.
        -11    1    4    4    0    0  0.36399482466E+00  0.23802375547E+02 -0.18435258970E+02  0.30108874895E+02  0.51100000000E-03 0. -1.
        -12    1    3    3    0    0  0.15264520979E+02  0.51131576241E+01  0.22642018432E+02  0.27781486286E+02  0.00000000000E+00 0.  1.
</event>
<event>
 7    1  0.1501154E-015  0.9000775E+02  0.7816164E-02  0.1186339E+00
        -11   -1    0    0    0    0  0.00000000000E+00  0.00000000000E+00  0.45593999997E+02  0.45594000000E+02  0.51100000000E-03 0.  1.
         11   -1    0    0    0    0 -0.00000000000E+00 -0.00000000000E+00 -0.45593999997E+02  0.45594000000E+02  0.51100000000E-03 0. -1.
    9900012    2    1    2    0    0  0.17037737257E+00  0.42114751254E+00  0.10893046602E+01  0.90007754975E+02  0.90000016541E+02 0.  0.
         12    1    1    2    0    0 -0.17037737257E+00 -0.42114751254E+00 -0.10893046602E+01  0.11802450251E+01  0.00000000000E+00 0. -1.
         11    1    3    3    0    0  0.25964824251E+02  0.77221596995E+01  0.72333475985E+00  0.27098469739E+02  0.51100000000E-03 0. -1.
        -11    1    3    3    0    0  0.13767052566E+02  0.92568451045E+01  0.94193575432E+01  0.19077348202E+02  0.51100000000E-03 0.  1.
        -12    1    3    3    0    0 -0.39561499443E+02 -0.16557857291E+02 -0.90533876428E+01  0.43831937034E+02  0.00000000000E+00 0.  1.
</event>
<event>
 7    1  0.1501154E-015  0.9000764E+02  0.7816164E-02  0.1186339E+00
        -11   -1    0    0    0    0  0.00000000000E+00  0.00000000000E+00  0.45593999997E+02  0.45594000000E+02  0.51100000000E-03 0. -1.
         11   -1    0    0    0    0 -0.00000000000E+00 -0.00000000000E+00 -0.45593999997E+02  0.45594000000E+02  0.51100000000E-03 0.  1.
    9900012    2    1    2    0    0  0.32003160791E-01  0.77118807224E+00 -0.89302441145E+00  0.90007640799E+02  0.89999900857E+02 0.  0.
         12    1    1    2    0    0 -0.32003160791E-01 -0.77118807224E+00  0.89302441145E+00  0.11803592015E+01  0.00000000000E+00 0. -1.
         11    1    3    3    0    0  0.86451727656E+01 -0.78321941098E+01  0.31894031014E+01  0.12093575531E+02  0.51100000000E-03 0. -1.
        -11    1    3    3    0    0 -0.38334446297E+02 -0.13583441465E+02 -0.76915676355E+00  0.40677158914E+02  0.51100000000E-03 0.  1.
         12    1    3    3    0    0  0.29721276692E+02  0.22186823647E+02 -0.33132707493E+01  0.37236906354E+02  0.00000000000E+00 0. -1.
</event>
<event>
 7    1  0.1501154E-015  0.9000772E+02  0.7816164E-02  0.1186339E+00
        -11   -1    0    0    0    0  0.00000000000E+00  0.00000000000E+00  0.45593999997E+02  0.45594000000E+02  0.51100000000E-03 0. -1.
         11   -1    0    0    0    0 -0.00000000000E+00 -0.00000000000E+00 -0.45593999997E+02  0.45594000000E+02  0.51100000000E-03 0.  1.
    9900012    2    1    2    0    0  0.22531752682E+00 -0.10291998956E+01 -0.53200805341E+00  0.90007723345E+02  0.89999984493E+02 0.  0.
         12    1    1    2    0    0 -0.22531752682E+00  0.10291998956E+01  0.53200805341E+00  0.11802766548E+01  0.00000000000E+00 0. -1.
         11    1    3    3    0    0  0.13461058705E+00  0.98677723989E+01  0.82535418915E+00  0.99031440425E+01  0.51100000000E-03 0. -1.
        -11    1    3    3    0    0  0.74816297347E+01  0.32718875485E+02  0.88375958734E+01  0.34707386787E+02  0.51100000000E-03 0.  1.
         12    1    3    3    0    0 -0.73909227949E+01 -0.43615847780E+02 -0.10194958116E+02  0.45397192516E+02  0.00000000000E+00 0. -1.
</event>
<event>
 7    1  0.1501154E-015  0.9000774E+02  0.7816164E-02  0.1186339E+00
        -11   -1    0    0    0    0  0.00000000000E+00  0.00000000000E+00  0.45593999997E+02  0.45594000000E+02  0.51100000000E-03 0.  1.
         11   -1    0    0    0    0 -0.00000000000E+00 -0.00000000000E+00 -0.45593999997E+02  0.45594000000E+02  0.51100000000E-03 0. -1.
    9900012    2    1    2    0    0 -0.70155688507E+00 -0.80126008248E+00  0.50873994279E+00  0.90007738964E+02  0.90000000319E+02 0.  0.
         12    1    1    2    0    0  0.70155688507E+00  0.80126008248E+00 -0.50873994279E+00  0.11802610356E+01  0.00000000000E+00 0. -1.
         11    1    3    3    0    0 -0.72041689122E+01 -0.18028579249E+02 -0.68212474881E+01  0.20578122776E+02  0.51100000000E-03 0. -1.
        -11    1    3    3    0    0  0.29794589882E+02  0.14141991274E+02 -0.15702458251E+02  0.36527807200E+02  0.51100000000E-03 0.  1.
         12    1    3    3    0    0 -0.23291977855E+02  0.30853278918E+01  0.23032445682E+02  0.32901808988E+02  0.00000000000E+00 0. -1.
</event>
<event>
 7    1  0.1501154E-015  0.9000779E+02  0.7816164E-02  0.1186339E+00
        -11   -1    0    0    0    0  0.00000000000E+00  0.00000000000E+00  0.45593999997E+02  0.45594000000E+02  0.51100000000E-03 0. -1.
         11   -1    0    0    0    0 -0.00000000000E+00 -0.00000000000E+00 -0.45593999997E+02  0.45594000000E+02  0.51100000000E-03 0.  1.
    9900012    2    1    2    0    0  0.11352702385E+01 -0.21425993949E+00 -0.24115280779E+00  0.90007787937E+02  0.90000049938E+02 0.  0.
         12    1    1    2    0    0 -0.11352702385E+01  0.21425993949E+00  0.24115280779E+00  0.11802120626E+01  0.00000000000E+00 0. -1.
         11    1    3    3    0    0  0.43604083130E+01 -0.30645538227E+02  0.27146051403E+02  0.41171231229E+02  0.51100000000E-03 0. -1.
        -11    1    3    3    0    0 -0.31446302697E+01  0.86244205465E+01  0.44859913819E+01  0.10217311204E+02  0.51100000000E-03 0.  1.
        -12    1    3    3    0    0 -0.80507804814E-01  0.21806857741E+02 -0.31873195593E+02  0.38619245504E+02  0.00000000000E+00 0.  1.
</event>
<event>
 7    1  0.1675832E-015  0.9000778E+02  0.7816164E-02  0.1186339E+00
        -11   -1    0    0    0    0  0.00000000000E+00  0.00000000000E+00  0.45593999997E+02  0.45594000000E+02  0.51100000000E-03 0.  1.
         11   -1    0    0    0    0 -0.00000000000E+00 -0.00000000000E+00 -0.45593999997E+02  0.45594000000E+02  0.51100000000E-03 0. -1.
    9900012    2    1    2    0    0 -0.97813862215E+00  0.62854693334E+00  0.20270666977E+00  0.90007781204E+02  0.90000043116E+02 0.  0.
         12    1    1    2    0    0  0.97813862215E+00 -0.62854693334E+00 -0.20270666977E+00  0.11802187956E+01  0.00000000000E+00 0. -1.
         11    1    3    3    0    0 -0.10407753822E+02 -0.20808795849E+02 -0.28522722590E+02  0.36808599926E+02  0.51100000000E-03 0. -1.
        -11    1    3    3    0    0 -0.91246992236E+01 -0.43290063997E+01 -0.40712851808E+00  0.10107729034E+02  0.51100000000E-03 0.  1.
        -12    1    3    3    0    0  0.18554314424E+02  0.25766349182E+02  0.29132557778E+02  0.43091452245E+02  0.00000000000E+00 0.  1.
</event>
<event>
 7    1  0.1501154E-015  0.9000773E+02  0.7816164E-02  0.1186339E+00
        -11   -1    0    0    0    0  0.00000000000E+00  0.00000000000E+00  0.45593999997E+02  0.45594000000E+02  0.51100000000E-03 0.  1.
         11   -1    0    0    0    0 -0.00000000000E+00 -0.00000000000E+00 -0.45593999997E+02  0.45594000000E+02  0.51100000000E-03 0. -1.
    9900012    2    1    2    0    0 -0.14489064133E+00  0.11711768324E+01  0.19478317726E-01  0.90007733981E+02  0.89999995270E+02 0.  0.
         12    1    1    2    0    0  0.14489064133E+00 -0.11711768324E+01 -0.19478317726E-01  0.11802660190E+01  0.00000000000E+00 0. -1.
         11    1    3    3    0    0 -0.31028413016E+01 -0.71217757316E+01 -0.72775271678E+01  0.10644703643E+02  0.51100000000E-03 0. -1.
        -11    1    3    3    0    0 -0.68552314953E+01 -0.17895688225E+02  0.35060118812E+02  0.39955747863E+02  0.51100000000E-03 0.  1.
         12    1    3    3    0    0  0.98131821555E+01  0.26188640789E+02 -0.27763113327E+02  0.39407282474E+02  0.00000000000E+00 0. -1.
</event>
<event>
 7    1  0.1501154E-015  0.9000778E+02  0.7816164E-02  0.1186339E+00
        -11   -1    0    0    0    0  0.00000000000E+00  0.00000000000E+00  0.45593999997E+02  0.45594000000E+02  0.51100000000E-03 0.  1.
         11   -1    0    0    0    0 -0.00000000000E+00 -0.00000000000E+00 -0.45593999997E+02  0.45594000000E+02  0.51100000000E-03 0. -1.
    9900012    2    1    2    0    0 -0.68836149761E-01 -0.11298405581E+01  0.33414147287E+00  0.90007776027E+02  0.90000037871E+02 0.  0.
         12    1    1    2    0    0  0.68836149761E-01  0.11298405581E+01 -0.33414147287E+00  0.11802239729E+01  0.00000000000E+00 0. -1.
         11    1    3    3    0    0 -0.28890963869E+01 -0.79945776089E+01  0.14188635332E+01  0.86181972050E+01  0.51100000000E-03 0. -1.
        -11    1    3    3    0    0  0.32111903028E+02 -0.88210668258E+01  0.22895559204E+02  0.40412772332E+02  0.51100000000E-03 0.  1.
         12    1    3    3    0    0 -0.29291642790E+02  0.15685803877E+02 -0.23980281265E+02  0.40976806490E+02  0.00000000000E+00 0. -1.
</event>
<event>
 7    1  0.1501154E-015  0.9000776E+02  0.7816164E-02  0.1186339E+00
        -11   -1    0    0    0    0  0.00000000000E+00  0.00000000000E+00  0.45593999997E+02  0.45594000000E+02  0.51100000000E-03 0.  1.
         11   -1    0    0    0    0 -0.00000000000E+00 -0.00000000000E+00 -0.45593999997E+02  0.45594000000E+02  0.51100000000E-03 0. -1.
    9900012    2    1    2    0    0  0.67695445830E+00 -0.13660374317E-02  0.96679678720E+00  0.90007760519E+02  0.90000022158E+02 0.  0.
         12    1    1    2    0    0 -0.67695445830E+00  0.13660374317E-02 -0.96679678720E+00  0.11802394810E+01  0.00000000000E+00 0. -1.
         11    1    3    3    0    0 -0.92275556094E+01  0.28485388965E+02 -0.17373878127E+02  0.34618157208E+02  0.51100000000E-03 0. -1.
        -11    1    3    3    0    0 -0.73698639553E+01 -0.42537678887E+01 -0.10792525596E+02  0.13743654717E+02  0.51100000000E-03 0.  1.
        -12    1    3    3    0    0  0.17274374023E+02 -0.24232987114E+02  0.29133200511E+02  0.41645948595E+02  0.00000000000E+00 0.  1.
</event>
<event>
 7    1  0.1501154E-015  0.9000779E+02  0.7816164E-02  0.1186339E+00
        -11   -1    0    0    0    0  0.00000000000E+00  0.00000000000E+00  0.45593999997E+02  0.45594000000E+02  0.51100000000E-03 0.  1.
         11   -1    0    0    0    0 -0.00000000000E+00 -0.00000000000E+00 -0.45593999997E+02  0.45594000000E+02  0.51100000000E-03 0. -1.
    9900012    2    1    2    0    0  0.44328529648E+00 -0.19889451190E+00  0.10755572915E+01  0.90007794777E+02  0.90000056868E+02 0.  0.
         12    1    1    2    0    0 -0.44328529648E+00  0.19889451190E+00 -0.10755572915E+01  0.11802052229E+01  0.00000000000E+00 0. -1.
         11    1    3    3    0    0  0.14206169052E+02 -0.33484133523E+02 -0.11067561770E+02  0.38019644406E+02  0.51100000000E-03 0. -1.
        -11    1    3    3    0    0 -0.53163574240E+01 -0.64650529848E+01  0.72187452556E+01  0.11053092313E+02  0.51100000000E-03 0.  1.
        -12    1    3    3    0    0 -0.84465263314E+01  0.39750291996E+02  0.49243738063E+01  0.40935058058E+02  0.00000000000E+00 0.  1.
</event>
<event>
 7    1  0.1501154E-015  0.9000760E+02  0.7816164E-02  0.1186339E+00
        -11   -1    0    0    0    0  0.00000000000E+00  0.00000000000E+00  0.45593999997E+02  0.45594000000E+02  0.51100000000E-03 0.  1.
         11   -1    0    0    0    0 -0.00000000000E+00 -0.00000000000E+00 -0.45593999997E+02  0.45594000000E+02  0.51100000000E-03 0. -1.
    9900012    2    1    2    0    0 -0.89559763845E+00 -0.45822221429E+00  0.61748028614E+00  0.90007599800E+02  0.89999859318E+02 0.  0.
         12    1    1    2    0    0  0.89559763845E+00  0.45822221429E+00 -0.61748028614E+00  0.11804001997E+01  0.00000000000E+00 0. -1.
         11    1    3    3    0    0 -0.83810446983E+01 -0.40255312398E+01  0.11505222346E+01  0.93685918723E+01  0.51100000000E-03 0. -1.
        -11    1    3    3    0    0 -0.77988206109E+01 -0.72826756199E+00  0.38086407004E+02  0.38883497467E+02  0.51100000000E-03 0.  1.
         12    1    3    3    0    0  0.15284267671E+02  0.42955765874E+01 -0.38619448952E+02  0.41755510461E+02  0.00000000000E+00 0. -1.
</event>
<event>
 7    1  0.1501154E-015  0.9000785E+02  0.7816164E-02  0.1186339E+00
        -11   -1    0    0    0    0  0.00000000000E+00  0.00000000000E+00  0.45593999997E+02  0.45594000000E+02  0.51100000000E-03 0.  1.
         11   -1    0    0    0    0 -0.00000000000E+00 -0.00000000000E+00 -0.45593999997E+02  0.45594000000E+02  0.51100000000E-03 0. -1.
    9900012    2    1    2    0    0 -0.11397609315E+01  0.30480799854E+00  0.28130334981E-01  0.90007849919E+02  0.90000112738E+02 0.  0.
         12    1    1    2    0    0  0.11397609315E+01 -0.30480799854E+00 -0.28130334981E-01  0.11801500806E+01  0.00000000000E+00 0. -1.
         11    1    3    3    0    0  0.93754218978E+01  0.26157578652E+02 -0.30579765286E+02  0.41318754845E+02  0.51100000000E-03 0. -1.
        -11    1    3    3    0    0 -0.29298040056E+01 -0.72016673911E+01 -0.39293255353E+01  0.87113353825E+01  0.51100000000E-03 0.  1.
        -12    1    3    3    0    0 -0.75853788237E+01 -0.18651103262E+02  0.34537221157E+02  0.39977759692E+02  0.00000000000E+00 0.  1.
</event>
<event>
 7    1  0.1501154E-015  0.9000767E+02  0.7816164E-02  0.1186339E+00
        -11   -1    0    0    0    0  0.00000000000E+00  0.00000000000E+00  0.45593999997E+02  0.45594000000E+02  0.51100000000E-03 0. -1.
         11   -1    0    0    0    0 -0.00000000000E+00 -0.00000000000E+00 -0.45593999997E+02  0.45594000000E+02  0.51100000000E-03 0.  1.
    9900012    2    1    2    0    0  0.89402776953E-01  0.85527738135E+00 -0.80850400532E+00  0.90007673358E+02  0.89999933846E+02 0.  0.
         12    1    1    2    0    0 -0.89402776953E-01 -0.85527738135E+00  0.80850400532E+00  0.11803266422E+01  0.00000000000E+00 0. -1.
         11    1    3    3    0    0  0.31975692805E+02 -0.17926455832E+02 -0.12045246568E+02  0.38586146662E+02  0.51100000000E-03 0. -1.
        -11    1    3    3    0    0  0.12516275681E+01 -0.72839122550E+01  0.46957895034E+01  0.87562770987E+01  0.51100000000E-03 0.  1.
        -12    1    3    3    0    0 -0.33137917596E+02  0.26065645468E+02  0.65409530593E+01  0.42665249597E+02  0.00000000000E+00 0.  1.
</event>
<event>
 7    1  0.1501154E-015  0.9000784E+02  0.7816164E-02  0.1186339E+00
        -11   -1    0    0    0    0  0.00000000000E+00  0.00000000000E+00  0.45593999997E+02  0.45594000000E+02  0.51100000000E-03 0. -1.
         11   -1    0    0    0    0 -0.00000000000E+00 -0.00000000000E+00 -0.45593999997E+02  0.45594000000E+02  0.51100000000E-03 0.  1.
    9900012    2    1    2    0    0 -0.11259784944E+01  0.13250109831E+00 -0.32771941161E+00  0.90007837247E+02  0.90000099899E+02 0.  0.
         12    1    1    2    0    0  0.11259784944E+01 -0.13250109831E+00  0.32771941161E+00  0.11801627530E+01  0.00000000000E+00 0. -1.
         11    1    3    3    0    0  0.84806416046E+01 -0.39628481095E+01 -0.40105985359E+01  0.10183827770E+02  0.51100000000E-03 0. -1.
        -11    1    3    3    0    0  0.33800748435E+02 -0.78372550947E+01  0.63373971291E+00  0.34703238876E+02  0.51100000000E-03 0.  1.
         12    1    3    3    0    0 -0.43407368534E+02  0.11932604302E+02  0.30491394114E+01  0.45120770601E+02  0.00000000000E+00 0. -1.
</event>
<event>
 7    1  0.1501154E-015  0.9000770E+02  0.7816164E-02  0.1186339E+00
        -11   -1    0    0    0    0  0.00000000000E+00  0.00000000000E+00  0.45593999997E+02  0.45594000000E+02  0.51100000000E-03 0.  1.
         11   -1    0    0    0    0 -0.00000000000E+00 -0.00000000000E+00 -0.45593999997E+02  0.45594000000E+02  0.51100000000E-03 0. -1.
    9900012    2    1    2    0    0  0.11965895605E+00 -0.71559808474E+00 -0.93097738136E+00  0.90007695900E+02  0.89999956686E+02 0.  0.
         12    1    1    2    0    0 -0.11965895605E+00  0.71559808474E+00  0.93097738136E+00  0.11803041003E+01  0.00000000000E+00 0. -1.
         11    1    3    3    0    0 -0.37297067264E+02 -0.15775900050E+02 -0.10305085590E+02  0.41786900318E+02  0.51100000000E-03 0. -1.
        -11    1    3    3    0    0  0.53840709029E+01  0.63085932417E+01 -0.73126787944E+01  0.11057207586E+02  0.51100000000E-03 0.  1.
        -12    1    3    3    0    0  0.32032655317E+02  0.87517087239E+01  0.16686787003E+02  0.37163587996E+02  0.00000000000E+00 0.  1.
</event>
<event>
 7    1  0.1501154E-015  0.9000768E+02  0.7816164E-02  0.1186339E+00
        -11   -1    0    0    0    0  0.00000000000E+00  0.00000000000E+00  0.45593999997E+02  0.45594000000E+02  0.51100000000E-03 0.  1.
         11   -1    0    0    0    0 -0.00000000000E+00 -0.00000000000E+00 -0.45593999997E+02  0.45594000000E+02  0.51100000000E-03 0. -1.
    9900012    2    1    2    0    0 -0.73798339441E+00  0.90674337184E+00 -0.16234928936E+00  0.90007677873E+02  0.89999938420E+02 0.  0.
         12    1    1    2    0    0  0.73798339441E+00 -0.90674337184E+00  0.16234928936E+00  0.11803221275E+01  0.00000000000E+00 0. -1.
         11    1    3    3    0    0 -0.48325580583E+01  0.86179137504E+00 -0.84440665357E+01  0.97672187281E+01  0.51100000000E-03 0. -1.
        -11    1    3    3    0    0 -0.19147373796E+02 -0.28082736460E+02 -0.14792947917E+02  0.37068764731E+02  0.51100000000E-03 0.  1.
         12    1    3    3    0    0  0.23241948460E+02  0.28127688457E+02  0.23074665163E+02  0.43171694413E+02  0.00000000000E+00 0. -1.
</event>
<event>
 7    1  0.1501154E-015  0.9000783E+02  0.7816164E-02  0.1186339E+00
        -11   -1    0    0    0    0  0.00000000000E+00  0.00000000000E+00  0.45593999997E+02  0.45594000000E+02  0.51100000000E-03 0.  1.
         11   -1    0    0    0    0 -0.00000000000E+00 -0.00000000000E+00 -0.45593999997E+02  0.45594000000E+02  0.51100000000E-03 0. -1.
    9900012    2    1    2    0    0 -0.43788813263E+00  0.36545328639E-01  0.10953131474E+01  0.90007833711E+02  0.90000096316E+02 0.  0.
         12    1    1    2    0    0  0.43788813263E+00 -0.36545328639E-01 -0.10953131474E+01  0.11801662885E+01  0.00000000000E+00 0. -1.
         11    1    3    3    0    0  0.15637320422E+02  0.34782246483E+02  0.41698787585E+01  0.38362981499E+02  0.51100000000E-03 0. -1.
        -11    1    3    3    0    0 -0.64348021301E+01  0.62074048737E+01 -0.34154283885E+01  0.95709824499E+01  0.51100000000E-03 0.  1.
        -12    1    3    3    0    0 -0.96404064249E+01 -0.40953106028E+02  0.34086277737E+00  0.42073869762E+02  0.00000000000E+00 0.  1.
</event>
<event>
 7    1  0.1501154E-015  0.9000779E+02  0.7816164E-02  0.1186339E+00
        -11   -1    0    0    0    0  0.00000000000E+00  0.00000000000E+00  0.45593999997E+02  0.45594000000E+02  0.51100000000E-03 0. -1.
         11   -1    0    0    0    0 -0.00000000000E+00 -0.00000000000E+00 -0.45593999997E+02  0.45594000000E+02  0.51100000000E-03 0.  1.
    9900012    2    1    2    0    0 -0.10028272992E+01  0.20336359136E+00 -0.58811952893E+00  0.90007786493E+02  0.90000048475E+02 0.  0.
         12    1    1    2    0    0  0.10028272992E+01 -0.20336359136E+00  0.58811952893E+00  0.11802135072E+01  0.00000000000E+00 0. -1.
         11    1    3    3    0    0  0.71877492445E+01 -0.49381400470E+01 -0.75560072412E+00  0.87532793307E+01  0.51100000000E-03 0. -1.
        -11    1    3    3    0    0  0.35699358024E+02  0.85425865512E+00  0.76647708493E+01  0.36522905602E+02  0.51100000000E-03 0.  1.
         12    1    3    3    0    0 -0.43889934568E+02  0.42872449832E+01 -0.74972896541E+01  0.44731601560E+02  0.00000000000E+00 0. -1.
</event>
<event>
 7    1  0.1501154E-015  0.9000773E+02  0.7816164E-02  0.1186339E+00
        -11   -1    0    0    0    0  0.00000000000E+00  0.00000000000E+00  0.45593999997E+02  0.45594000000E+02  0.51100000000E-03 0.  1.
         11   -1    0    0    0    0 -0.00000000000E+00 -0.00000000000E+00 -0.45593999997E+02  0.45594000000E+02  0.51100000000E-03 0. -1.
    9900012    2    1    2    0    0 -0.70298011001E+00 -0.72623665829E+00 -0.60945722129E+00  0.90007729343E+02  0.89999990570E+02 0.  0.
         12    1    1    2    0    0  0.70298011001E+00  0.72623665829E+00  0.60945722129E+00  0.11802706569E+01  0.00000000000E+00 0. -1.
         11    1    3    3    0    0 -0.67043851917E+01 -0.36244395955E+02 -0.12318094844E+02  0.38863099205E+02  0.51100000000E-03 0. -1.
        -11    1    3    3    0    0 -0.68407502568E+01 -0.34484535216E+01 -0.19455362095E+01  0.79039741377E+01  0.51100000000E-03 0.  1.
        -12    1    3    3    0    0  0.12842155338E+02  0.38966612819E+02  0.13654173833E+02  0.43240656000E+02  0.00000000000E+00 0.  1.
</event>
<event>
 7    1  0.1501154E-015  0.9000780E+02  0.7816164E-02  0.1186339E+00
        -11   -1    0    0    0    0  0.00000000000E+00  0.00000000000E+00  0.45593999997E+02  0.45594000000E+02  0.51100000000E-03 0. -1.
         11   -1    0    0    0    0 -0.00000000000E+00 -0.00000000000E+00 -0.45593999997E+02  0.45594000000E+02  0.51100000000E-03 0.  1.
    9900012    2    1    2    0    0  0.30515300276E+00  0.26208458066E+00 -0.11095336749E+01  0.90007800162E+02  0.90000062324E+02 0.  0.
         12    1    1    2    0    0 -0.30515300276E+00 -0.26208458066E+00  0.11095336749E+01  0.11801998382E+01  0.00000000000E+00 0. -1.
         11    1    3    3    0    0  0.24774674497E+01 -0.74486827477E+01  0.36325184696E+01  0.86496190860E+01  0.51100000000E-03 0. -1.
        -11    1    3    3    0    0  0.13038255760E+01 -0.35555112564E+02 -0.11583218287E+02  0.37417067452E+02  0.51100000000E-03 0.  1.
         12    1    3    3    0    0 -0.34761400229E+01  0.43265879892E+02  0.68411661423E+01  0.43941113624E+02  0.00000000000E+00 0. -1.
</event>
<event>
 7    1  0.1501154E-015  0.9000775E+02  0.7816164E-02  0.1186339E+00
        -11   -1    0    0    0    0  0.00000000000E+00  0.00000000000E+00  0.45593999997E+02  0.45594000000E+02  0.51100000000E-03 0. -1.
         11   -1    0    0    0    0 -0.00000000000E+00 -0.00000000000E+00 -0.45593999997E+02  0.45594000000E+02  0.51100000000E-03 0.  1.
    9900012    2    1    2    0    0 -0.11062568842E+01 -0.28957650414E+00 -0.29212648456E+00  0.90007747176E+02  0.90000008639E+02 0.  0.
         12    1    1    2    0    0  0.11062568842E+01  0.28957650414E+00  0.29212648456E+00  0.11802528240E+01  0.00000000000E+00 0. -1.
         11    1    3    3    0    0 -0.20362069093E+01  0.10801913902E+01  0.94447978454E+01  0.97219935516E+01  0.51100000000E-03 0. -1.
        -11    1    3    3    0    0  0.36843714582E+02  0.15549125525E+02 -0.52477570229E+01  0.40333281082E+02  0.51100000000E-03 0.  1.
         12    1    3    3    0    0 -0.35913764557E+02 -0.16918893419E+02 -0.44891673070E+01  0.39952472543E+02  0.00000000000E+00 0. -1.
</event>
<event>
 7    1  0.1501154E-015  0.9000763E+02  0.7816164E-02  0.1186339E+00
        -11   -1    0    0    0    0  0.00000000000E+00  0.00000000000E+00  0.45593999997E+02  0.45594000000E+02  0.51100000000E-03 0.  1.
         11   -1    0    0    0    0 -0.00000000000E+00 -0.00000000000E+00 -0.45593999997E+02  0.45594000000E+02  0.51100000000E-03 0. -1.
    9900012    2    1    2    0    0  0.48343116704E+00  0.74209762266E+00  0.78028897123E+00  0.90007633339E+02  0.89999893299E+02 0.  0.
         12    1    1    2    0    0 -0.48343116704E+00 -0.74209762266E+00 -0.78028897123E+00  0.11803666606E+01  0.00000000000E+00 0. -1.
         11    1    3    3    0    0  0.32430137722E+02 -0.21606803204E+02 -0.11478366167E+02  0.40624138975E+02  0.51100000000E-03 0. -1.
        -11    1    3    3    0    0 -0.61532008936E+01 -0.91762620109E+00 -0.72421258135E+01  0.95473716614E+01  0.51100000000E-03 0.  1.
        -12    1    3    3    0    0 -0.25793505661E+02  0.23266527028E+02  0.19500780952E+02  0.39836122703E+02  0.00000000000E+00 0.  1.
</event>
<event>
 7    1  0.1501154E-015  0.9000772E+02  0.7816164E-02  0.1186339E+00
        -11   -1    0    0    0    0  0.00000000000E+00  0.00000000000E+00  0.45593999997E+02  0.45594000000E+02  0.51100000000E-03 0.  1.
         11   -1    0    0    0    0 -0.00000000000E+00 -0.00000000000E+00 -0.45593999997E+02  0.45594000000E+02  0.51100000000E-03 0. -1.
    9900012    2    1    2    0    0 -0.47514043324E+00 -0.76325180548E+00  0.76468505706E+00  0.90007722496E+02  0.89999983633E+02 0.  0.
         12    1    1    2    0    0  0.47514043324E+00  0.76325180548E+00 -0.76468505706E+00  0.11802775040E+01  0.00000000000E+00 0. -1.
         11    1    3    3    0    0 -0.88644013431E+01  0.36525534130E+01  0.11019112618E-01  0.95874334046E+01  0.51100000000E-03 0. -1.
        -11    1    3    3    0    0 -0.39282349939E+01  0.21461878403E+02  0.31544850715E+02  0.38355193412E+02  0.51100000000E-03 0.  1.
         12    1    3    3    0    0  0.12317495904E+02 -0.25877683622E+02 -0.30791184771E+02  0.42065095680E+02  0.00000000000E+00 0. -1.
</event>
<event>
 7    1  0.1501154E-015  0.9000723E+02  0.7816164E-02  0.1186340E+00
        -11   -1    0    0    0    0  0.00000000000E+00  0.00000000000E+00  0.45593999997E+02  0.45594000000E+02  0.51100000000E-03 0. -1.
         11   -1    0    0    0    0 -0.00000000000E+00 -0.00000000000E+00 -0.45593999997E+02  0.45594000000E+02  0.51100000000E-03 0.  1.
    9900012    2    1    2    0    0  0.71343652933E+00  0.85823678568E+00 -0.38556684190E+00  0.90007227435E+02  0.89999482035E+02 0.  0.
         12    1    1    2    0    0 -0.71343652933E+00 -0.85823678568E+00  0.38556684190E+00  0.11807725654E+01  0.00000000000E+00 0. -1.
         11    1    3    3    0    0 -0.24875994141E+00 -0.80177465322E+01  0.35432174505E+02  0.36328847097E+02  0.51100000000E-03 0. -1.
        -11    1    3    3    0    0 -0.14034806623E+01 -0.26986527314E+01  0.78616206966E+01  0.84295649218E+01  0.51100000000E-03 0.  1.
        -12    1    3    3    0    0  0.23656771330E+01  0.11574636049E+02 -0.43679362044E+02  0.45248815416E+02  0.00000000000E+00 0.  1.
</event>
<event>
 7    1  0.1501154E-015  0.9000775E+02  0.7816164E-02  0.1186339E+00
        -11   -1    0    0    0    0  0.00000000000E+00  0.00000000000E+00  0.45593999997E+02  0.45594000000E+02  0.51100000000E-03 0.  1.
         11   -1    0    0    0    0 -0.00000000000E+00 -0.00000000000E+00 -0.45593999997E+02  0.45594000000E+02  0.51100000000E-03 0. -1.
    9900012    2    1    2    0    0  0.31882736046E+00 -0.85738037783E+00  0.74581730764E+00  0.90007747716E+02  0.90000009186E+02 0.  0.
         12    1    1    2    0    0 -0.31882736046E+00  0.85738037783E+00 -0.74581730764E+00  0.11802522842E+01  0.00000000000E+00 0. -1.
         11    1    3    3    0    0  0.64966312900E+01  0.25666206437E+01  0.38515811892E+01  0.79767435439E+01  0.51100000000E-03 0. -1.
        -11    1    3    3    0    0 -0.38019238129E+01  0.32176407625E+02  0.21325375321E+02  0.38788496557E+02  0.51100000000E-03 0.  1.
         12    1    3    3    0    0 -0.23758801166E+01 -0.35600408646E+02 -0.24431139202E+02  0.43242507615E+02  0.00000000000E+00 0. -1.
</event>
<event>
 7    1  0.1501154E-015  0.9000742E+02  0.7816164E-02  0.1186340E+00
        -11   -1    0    0    0    0  0.00000000000E+00  0.00000000000E+00  0.45593999997E+02  0.45594000000E+02  0.51100000000E-03 0. -1.
         11   -1    0    0    0    0 -0.00000000000E+00 -0.00000000000E+00 -0.45593999997E+02  0.45594000000E+02  0.51100000000E-03 0.  1.
    9900012    2    1    2    0    0 -0.11185643506E+01  0.90265576758E-01  0.36664703253E+00  0.90007422121E+02  0.89999679293E+02 0.  0.
         12    1    1    2    0    0  0.11185643506E+01 -0.90265576758E-01 -0.36664703253E+00  0.11805778786E+01  0.00000000000E+00 0. -1.
         11    1    3    3    0    0 -0.72549938027E+01 -0.12671186381E+01 -0.70868701195E+01  0.10220775561E+02  0.51100000000E-03 0. -1.
        -11    1    3    3    0    0 -0.33313557550E+02  0.14978460615E+02 -0.33395955757E+01  0.36678335539E+02  0.51100000000E-03 0.  1.
         12    1    3    3    0    0  0.39449987002E+02 -0.13621076400E+02  0.10793112728E+02  0.43108311021E+02  0.00000000000E+00 0. -1.
</event>
<event>
 7    1  0.1555560E-015  0.9000775E+02  0.7816164E-02  0.1186339E+00
        -11   -1    0    0    0    0  0.00000000000E+00  0.00000000000E+00  0.45593999997E+02  0.45594000000E+02  0.51100000000E-03 0. -1.
         11   -1    0    0    0    0 -0.00000000000E+00 -0.00000000000E+00 -0.45593999997E+02  0.45594000000E+02  0.51100000000E-03 0.  1.
    9900012    2    1    2    0    0 -0.69430401709E+00  0.10441726851E-01 -0.95437230437E+00  0.90007748504E+02  0.90000009985E+02 0.  0.
         12    1    1    2    0    0  0.69430401709E+00 -0.10441726851E-01  0.95437230437E+00  0.11802514957E+01  0.00000000000E+00 0. -1.
         11    1    3    3    0    0 -0.71034326203E+00  0.82961305998E+01  0.43365261230E+01  0.93880684677E+01  0.51100000000E-03 0. -1.
        -11    1    3    3    0    0 -0.10390784417E+02  0.17781067819E+02 -0.34456714668E+02  0.40142246569E+02  0.51100000000E-03 0.  1.
         12    1    3    3    0    0  0.10406823662E+02 -0.26066756692E+02  0.29165816241E+02  0.40477433468E+02  0.00000000000E+00 0. -1.
</event>
<event>
 7    1  0.1501154E-015  0.9000745E+02  0.7816164E-02  0.1186340E+00
        -11   -1    0    0    0    0  0.00000000000E+00  0.00000000000E+00  0.45593999997E+02  0.45594000000E+02  0.51100000000E-03 0.  1.
         11   -1    0    0    0    0 -0.00000000000E+00 -0.00000000000E+00 -0.45593999997E+02  0.45594000000E+02  0.51100000000E-03 0. -1.
    9900012    2    1    2    0    0  0.44623312835E+00 -0.19418580720E+00  0.10755780216E+01  0.90007449191E+02  0.89999706720E+02 0.  0.
         12    1    1    2    0    0 -0.44623312835E+00  0.19418580720E+00 -0.10755780216E+01  0.11805508092E+01  0.00000000000E+00 0. -1.
         11    1    3    3    0    0 -0.30032358376E+02 -0.14210615993E+02 -0.10184588812E+02  0.34750683533E+02  0.51100000000E-03 0. -1.
        -11    1    3    3    0    0 -0.22686897266E+01 -0.58107415608E+00 -0.12191623963E+02  0.12414519538E+02  0.51100000000E-03 0.  1.
        -12    1    3    3    0    0  0.32747281231E+02  0.14597504342E+02  0.23451790796E+02  0.42842246119E+02  0.00000000000E+00 0.  1.
</event>
<event>
 7    1  0.1501154E-015  0.9000775E+02  0.7816164E-02  0.1186339E+00
        -11   -1    0    0    0    0  0.00000000000E+00  0.00000000000E+00  0.45593999997E+02  0.45594000000E+02  0.51100000000E-03 0.  1.
         11   -1    0    0    0    0 -0.00000000000E+00 -0.00000000000E+00 -0.45593999997E+02  0.45594000000E+02  0.51100000000E-03 0. -1.
    9900012    2    1    2    0    0  0.10461204305E+01  0.36008264105E+00 -0.41104869963E+00  0.90007750663E+02  0.90000012172E+02 0.  0.
         12    1    1    2    0    0 -0.10461204305E+01 -0.36008264105E+00  0.41104869963E+00  0.11802493368E+01  0.00000000000E+00 0. -1.
         11    1    3    3    0    0 -0.35113683353E+01  0.36070715727E+02 -0.10224795890E+02  0.37655978170E+02  0.51100000000E-03 0. -1.
        -11    1    3    3    0    0 -0.37361975490E+00  0.68899520846E+01  0.62653827643E+01  0.93201959687E+01  0.51100000000E-03 0.  1.
        -12    1    3    3    0    0  0.49311085207E+01 -0.42600585171E+02  0.35483644262E+01  0.43031576525E+02  0.00000000000E+00 0.  1.
</event>
<event>
 7    1  0.1514622E-015  0.9000760E+02  0.7816164E-02  0.1186339E+00
        -11   -1    0    0    0    0  0.00000000000E+00  0.00000000000E+00  0.45593999997E+02  0.45594000000E+02  0.51100000000E-03 0.  1.
         11   -1    0    0    0    0 -0.00000000000E+00 -0.00000000000E+00 -0.45593999997E+02  0.45594000000E+02  0.51100000000E-03 0. -1.
    9900012    2    1    2    0    0  0.15381111852E+00  0.97604999910E+00  0.64576982513E+00  0.90007597472E+02  0.89999856959E+02 0.  0.
         12    1    1    2    0    0 -0.15381111852E+00 -0.97604999910E+00 -0.64576982513E+00  0.11804025279E+01  0.00000000000E+00 0. -1.
         11    1    3    3    0    0  0.35465829857E+02  0.89734610020E+01 -0.16234707372E+02  0.40023915519E+02  0.51100000000E-03 0. -1.
        -11    1    3    3    0    0 -0.27223013254E+01 -0.32267892336E+01 -0.77706046570E+01  0.88433811554E+01  0.51100000000E-03 0.  1.
        -12    1    3    3    0    0 -0.32589717413E+02 -0.47706217693E+01  0.24651081854E+02  0.41140300797E+02  0.00000000000E+00 0.  1.
</event>
<event>
 7    1  0.1501154E-015  0.9000774E+02  0.7816164E-02  0.1186339E+00
        -11   -1    0    0    0    0  0.00000000000E+00  0.00000000000E+00  0.45593999997E+02  0.45594000000E+02  0.51100000000E-03 0.  1.
         11   -1    0    0    0    0 -0.00000000000E+00 -0.00000000000E+00 -0.45593999997E+02  0.45594000000E+02  0.51100000000E-03 0. -1.
    9900012    2    1    2    0    0  0.21181771695E+00  0.11576223023E+01  0.89813646296E-01  0.90007736203E+02  0.89999997521E+02 0.  0.
         12    1    1    2    0    0 -0.21181771695E+00 -0.11576223023E+01 -0.89813646296E-01  0.11802637972E+01  0.00000000000E+00 0. -1.
         11    1    3    3    0    0 -0.58476177759E+01  0.40743950914E+01  0.54261932559E+01  0.89576170115E+01  0.51100000000E-03 0. -1.
        -11    1    3    3    0    0  0.49009467590E+01 -0.73765474115E+00  0.37659120283E+02  0.37983848600E+02  0.51100000000E-03 0.  1.
         12    1    3    3    0    0  0.11584887339E+01 -0.21791180480E+01 -0.42995499893E+02  0.43066270592E+02  0.00000000000E+00 0. -1.
</event>
<event>
 7    1  0.1724090E-015  0.9000759E+02  0.7816164E-02  0.1186339E+00
        -11   -1    0    0    0    0  0.00000000000E+00  0.00000000000E+00  0.45593999997E+02  0.45594000000E+02  0.51100000000E-03 0.  1.
         11   -1    0    0    0    0 -0.00000000000E+00 -0.00000000000E+00 -0.45593999997E+02  0.45594000000E+02  0.51100000000E-03 0. -1.
    9900012    2    1    2    0    0  0.26249713481E+00  0.60465069901E+00  0.97921757482E+00  0.90007587245E+02  0.89999846596E+02 0.  0.
         12    1    1    2    0    0 -0.26249713481E+00 -0.60465069901E+00 -0.97921757482E+00  0.11804127551E+01  0.00000000000E+00 0. -1.
         11    1    3    3    0    0 -0.79513985394E+01 -0.30598528322E+01 -0.39722249182E+01  0.94003196301E+01  0.51100000000E-03 0. -1.
        -11    1    3    3    0    0 -0.20250209472E+02  0.17681935251E+02  0.29926615887E+02  0.40228399876E+02  0.51100000000E-03 0.  1.
         12    1    3    3    0    0  0.28464105146E+02 -0.14017431720E+02 -0.24975173394E+02  0.40378867739E+02  0.00000000000E+00 0. -1.
</event>
<event>
 7    1  0.1501154E-015  0.9000759E+02  0.7816164E-02  0.1186339E+00
        -11   -1    0    0    0    0  0.00000000000E+00  0.00000000000E+00  0.45593999997E+02  0.45594000000E+02  0.51100000000E-03 0.  1.
         11   -1    0    0    0    0 -0.00000000000E+00 -0.00000000000E+00 -0.45593999997E+02  0.45594000000E+02  0.51100000000E-03 0. -1.
    9900012    2    1    2    0    0  0.31745976963E+00  0.11206519695E+01  0.19164070691E+00  0.90007590028E+02  0.89999849416E+02 0.  0.
         12    1    1    2    0    0 -0.31745976963E+00 -0.11206519695E+01 -0.19164070691E+00  0.11804099723E+01  0.00000000000E+00 0. -1.
         11    1    3    3    0    0  0.11423070023E+02  0.43025327408E+01  0.82890083691E+01  0.14754862817E+02  0.51100000000E-03 0. -1.
        -11    1    3    3    0    0 -0.65056306990E+01  0.22860346163E+02  0.23923584354E+02  0.33723234514E+02  0.51100000000E-03 0.  1.
         12    1    3    3    0    0 -0.45999795546E+01 -0.26042226935E+02 -0.32020952016E+02  0.41529492697E+02  0.00000000000E+00 0. -1.
</event>
<event>
 7    1  0.1501154E-015  0.9000768E+02  0.7816164E-02  0.1186339E+00
        -11   -1    0    0    0    0  0.00000000000E+00  0.00000000000E+00  0.45593999997E+02  0.45594000000E+02  0.51100000000E-03 0. -1.
         11   -1    0    0    0    0 -0.00000000000E+00 -0.00000000000E+00 -0.45593999997E+02  0.45594000000E+02  0.51100000000E-03 0.  1.
    9900012    2    1    2    0    0  0.76177420071E-01 -0.11322457385E+01 -0.32459228184E+00  0.90007684974E+02  0.89999945615E+02 0.  0.
         12    1    1    2    0    0 -0.76177420071E-01  0.11322457385E+01  0.32459228184E+00  0.11803150262E+01  0.00000000000E+00 0. -1.
         11    1    3    3    0    0  0.25924428140E+01 -0.11318138139E+02 -0.17764856640E+01  0.11746357404E+02  0.51100000000E-03 0. -1.
        -11    1    3    3    0    0  0.16765206802E+02 -0.24068440185E+02  0.19278047457E+02  0.35099930001E+02  0.51100000000E-03 0.  1.
         12    1    3    3    0    0 -0.19281472196E+02  0.34254332586E+02 -0.17826154075E+02  0.43161397569E+02  0.00000000000E+00 0. -1.
</event>
<event>
 7    1  0.1501154E-015  0.9000760E+02  0.7816164E-02  0.1186339E+00
        -11   -1    0    0    0    0  0.00000000000E+00  0.00000000000E+00  0.45593999997E+02  0.45594000000E+02  0.51100000000E-03 0.  1.
         11   -1    0    0    0    0 -0.00000000000E+00 -0.00000000000E+00 -0.45593999997E+02  0.45594000000E+02  0.51100000000E-03 0. -1.
    9900012    2    1    2    0    0  0.53271183455E-01  0.27884999599E+00  0.11457560393E+01  0.90007596662E+02  0.89999856138E+02 0.  0.
         12    1    1    2    0    0 -0.53271183455E-01 -0.27884999599E+00 -0.11457560393E+01  0.11804033382E+01  0.00000000000E+00 0. -1.
         11    1    3    3    0    0 -0.41337426779E+01  0.57473197427E+01  0.81615880458E+01  0.10804213643E+02  0.51100000000E-03 0. -1.
        -11    1    3    3    0    0 -0.17255557181E+02  0.28129964005E+02 -0.18357980720E+02  0.37763270315E+02  0.51100000000E-03 0.  1.
         12    1    3    3    0    0  0.21442571042E+02 -0.33598433751E+02  0.11342148713E+02  0.41440112704E+02  0.00000000000E+00 0. -1.
</event>
<event>
 7    1  0.1501154E-015  0.9000771E+02  0.7816164E-02  0.1186339E+00
        -11   -1    0    0    0    0  0.00000000000E+00  0.00000000000E+00  0.45593999997E+02  0.45594000000E+02  0.51100000000E-03 0.  1.
         11   -1    0    0    0    0 -0.00000000000E+00 -0.00000000000E+00 -0.45593999997E+02  0.45594000000E+02  0.51100000000E-03 0. -1.
    9900012    2    1    2    0    0  0.11730829652E+00  0.42859248345E+00  0.10934503228E+01  0.90007709205E+02  0.89999970166E+02 0.  0.
         12    1    1    2    0    0 -0.11730829652E+00 -0.42859248345E+00 -0.10934503228E+01  0.11802907954E+01  0.00000000000E+00 0. -1.
         11    1    3    3    0    0 -0.16419658465E+02  0.24068836347E+02  0.26682601158E+02  0.39507914043E+02  0.51100000000E-03 0. -1.
        -11    1    3    3    0    0  0.58078489213E+01  0.11847565897E+01  0.63246934931E+01  0.86681315929E+01  0.51100000000E-03 0.  1.
        -12    1    3    3    0    0  0.10729117840E+02 -0.24825000453E+02 -0.31913844328E+02  0.41831663569E+02  0.00000000000E+00 0.  1.
</event>
<event>
 7    1  0.1501154E-015  0.9000773E+02  0.7816164E-02  0.1186339E+00
        -11   -1    0    0    0    0  0.00000000000E+00  0.00000000000E+00  0.45593999997E+02  0.45594000000E+02  0.51100000000E-03 0.  1.
         11   -1    0    0    0    0 -0.00000000000E+00 -0.00000000000E+00 -0.45593999997E+02  0.45594000000E+02  0.51100000000E-03 0. -1.
    9900012    2    1    2    0    0  0.49264512610E+00 -0.98656884137E+00  0.42072375543E+00  0.90007734870E+02  0.89999996170E+02 0.  0.
         12    1    1    2    0    0 -0.49264512610E+00  0.98656884137E+00 -0.42072375543E+00  0.11802651301E+01  0.00000000000E+00 0. -1.
         11    1    3    3    0    0 -0.37226054476E+01 -0.81942728602E+01 -0.17115202424E+01  0.91615064715E+01  0.51100000000E-03 0. -1.
        -11    1    3    3    0    0  0.25488709370E+02 -0.14329425608E+02  0.28402921711E+02  0.40764355822E+02  0.51100000000E-03 0.  1.
         12    1    3    3    0    0 -0.21273458796E+02  0.21537129626E+02 -0.26270677713E+02  0.40081872576E+02  0.00000000000E+00 0. -1.
</event>
<event>
 7    1  0.1501154E-015  0.9000774E+02  0.7816164E-02  0.1186339E+00
        -11   -1    0    0    0    0  0.00000000000E+00  0.00000000000E+00  0.45593999997E+02  0.45594000000E+02  0.51100000000E-03 0.  1.
         11   -1    0    0    0    0 -0.00000000000E+00 -0.00000000000E+00 -0.45593999997E+02  0.45594000000E+02  0.51100000000E-03 0. -1.
    9900012    2    1    2    0    0  0.95862709725E+00 -0.48697929713E+00 -0.48672251482E+00  0.90007740048E+02  0.90000001417E+02 0.  0.
         12    1    1    2    0    0 -0.95862709725E+00  0.48697929713E+00  0.48672251482E+00  0.11802599518E+01  0.00000000000E+00 0. -1.
         11    1    3    3    0    0  0.47410295527E+01  0.35536129556E+01 -0.13116223055E+01  0.60684330425E+01  0.51100000000E-03 0. -1.
        -11    1    3    3    0    0 -0.85857361639E+01 -0.18545063482E+02  0.38332087825E+02  0.43439419912E+02  0.51100000000E-03 0.  1.
         12    1    3    3    0    0  0.48033337084E+01  0.14504471229E+02 -0.37507188034E+02  0.40499887094E+02  0.00000000000E+00 0. -1.
</event>
<event>
 7    1  0.1501154E-015  0.9000799E+02  0.7816164E-02  0.1186339E+00
        -11   -1    0    0    0    0  0.00000000000E+00  0.00000000000E+00  0.45593999997E+02  0.45594000000E+02  0.51100000000E-03 0.  1.
         11   -1    0    0    0    0 -0.00000000000E+00 -0.00000000000E+00 -0.45593999997E+02  0.45594000000E+02  0.51100000000E-03 0. -1.
    9900012    2    1    2    0    0  0.10883297669E+01 -0.41256507353E+00  0.19429116501E+00  0.90007991238E+02  0.90000255922E+02 0.  0.
         12    1    1    2    0    0 -0.10883297669E+01  0.41256507353E+00 -0.19429116501E+00  0.11800087620E+01  0.00000000000E+00 0. -1.
         11    1    3    3    0    0 -0.80274481866E+01 -0.86137396482E+00  0.40522282310E+01  0.90334070756E+01  0.51100000000E-03 0. -1.
        -11    1    3    3    0    0 -0.29458704108E+02  0.89723989642E+01  0.18157529424E+02  0.35749336581E+02  0.51100000000E-03 0.  1.
         12    1    3    3    0    0  0.38574482062E+02 -0.85235900729E+01 -0.22015466490E+02  0.45225247582E+02  0.00000000000E+00 0. -1.
</event>
<event>
 7    1  0.1501154E-015  0.9000776E+02  0.7816164E-02  0.1186339E+00
        -11   -1    0    0    0    0  0.00000000000E+00  0.00000000000E+00  0.45593999997E+02  0.45594000000E+02  0.51100000000E-03 0. -1.
         11   -1    0    0    0    0 -0.00000000000E+00 -0.00000000000E+00 -0.45593999997E+02  0.45594000000E+02  0.51100000000E-03 0.  1.
    9900012    2    1    2    0    0  0.43541023538E+00  0.74987510120E+00  0.80067470268E+00  0.90007756500E+02  0.90000018085E+02 0.  0.
         12    1    1    2    0    0 -0.43541023538E+00 -0.74987510120E+00 -0.80067470268E+00  0.11802435003E+01  0.00000000000E+00 0. -1.
         11    1    3    3    0    0 -0.13761054170E+01 -0.57742457952E+01 -0.88909485068E+00  0.60021721515E+01  0.51100000000E-03 0. -1.
        -11    1    3    3    0    0  0.89481509944E+01 -0.12979726148E+02 -0.36930741961E+02  0.40154979755E+02  0.51100000000E-03 0.  1.
         12    1    3    3    0    0 -0.71366353420E+01  0.19503847044E+02  0.38620511514E+02  0.43850604593E+02  0.00000000000E+00 0. -1.
</event>
<event>
 7    1  0.1501154E-015  0.9000777E+02  0.7816164E-02  0.1186339E+00
        -11   -1    0    0    0    0  0.00000000000E+00  0.00000000000E+00  0.45593999997E+02  0.45594000000E+02  0.51100000000E-03 0. -1.
         11   -1    0    0    0    0 -0.00000000000E+00 -0.00000000000E+00 -0.45593999997E+02  0.45594000000E+02  0.51100000000E-03 0.  1.
    9900012    2    1    2    0    0 -0.11215962105E+01  0.15825381360E+00 -0.33154965119E+00  0.90007768031E+02  0.90000029769E+02 0.  0.
         12    1    1    2    0    0  0.11215962105E+01 -0.15825381360E+00  0.33154965119E+00  0.11802319688E+01  0.00000000000E+00 0. -1.
         11    1    3    3    0    0  0.19395019554E+01  0.33683038870E+01  0.74037112897E+01  0.83619423600E+01  0.51100000000E-03 0. -1.
        -11    1    3    3    0    0 -0.19139517804E+02 -0.23603328583E+02  0.25358710020E+02  0.39579065630E+02  0.51100000000E-03 0.  1.
         12    1    3    3    0    0  0.16078419638E+02  0.20393278510E+02 -0.33093970961E+02  0.42066760042E+02  0.00000000000E+00 0. -1.
</event>
<event>
 7    1  0.1501154E-015  0.9000770E+02  0.7816164E-02  0.1186339E+00
        -11   -1    0    0    0    0  0.00000000000E+00  0.00000000000E+00  0.45593999997E+02  0.45594000000E+02  0.51100000000E-03 0.  1.
         11   -1    0    0    0    0 -0.00000000000E+00 -0.00000000000E+00 -0.45593999997E+02  0.45594000000E+02  0.51100000000E-03 0. -1.
    9900012    2    1    2    0    0 -0.81438368888E-01 -0.11479254910E+01  0.26219728347E+00  0.90007698108E+02  0.89999958923E+02 0.  0.
         12    1    1    2    0    0  0.81438368888E-01  0.11479254910E+01 -0.26219728347E+00  0.11803018920E+01  0.00000000000E+00 0. -1.
         11    1    3    3    0    0 -0.57148163145E+01  0.95534086643E+01 -0.35528805589E+02  0.37232012697E+02  0.51100000000E-03 0. -1.
        -11    1    3    3    0    0  0.29274047258E+01  0.89043336905E+00 -0.73823914430E+01  0.79913874698E+01  0.51100000000E-03 0.  1.
        -12    1    3    3    0    0  0.27059732198E+01 -0.11591767524E+02  0.43173394315E+02  0.44784297941E+02  0.00000000000E+00 0.  1.
</event>
<event>
 7    1  0.1501154E-015  0.9000778E+02  0.7816164E-02  0.1186339E+00
        -11   -1    0    0    0    0  0.00000000000E+00  0.00000000000E+00  0.45593999997E+02  0.45594000000E+02  0.51100000000E-03 0. -1.
         11   -1    0    0    0    0 -0.00000000000E+00 -0.00000000000E+00 -0.45593999997E+02  0.45594000000E+02  0.51100000000E-03 0.  1.
    9900012    2    1    2    0    0  0.51251863014E+00  0.48198859673E+00 -0.94759480089E+00  0.90007777877E+02  0.90000039745E+02 0.  0.
         12    1    1    2    0    0 -0.51251863014E+00 -0.48198859673E+00  0.94759480089E+00  0.11802221233E+01  0.00000000000E+00 0. -1.
         11    1    3    3    0    0 -0.10896393835E+02  0.42846463325E+01  0.29950753833E+02  0.32158004419E+02  0.51100000000E-03 0. -1.
        -11    1    3    3    0    0 -0.10115005430E+02 -0.19080440600E+02 -0.84156338183E+01  0.23177563314E+02  0.51100000000E-03 0.  1.
         12    1    3    3    0    0  0.21523917895E+02  0.15277782864E+02 -0.22482714815E+02  0.34672210144E+02  0.00000000000E+00 0. -1.
</event>
<event>
 7    1  0.1501154E-015  0.9000772E+02  0.7816164E-02  0.1186339E+00
        -11   -1    0    0    0    0  0.00000000000E+00  0.00000000000E+00  0.45593999997E+02  0.45594000000E+02  0.51100000000E-03 0. -1.
         11   -1    0    0    0    0 -0.00000000000E+00 -0.00000000000E+00 -0.45593999997E+02  0.45594000000E+02  0.51100000000E-03 0.  1.
    9900012    2    1    2    0    0  0.32610136402E+00 -0.11144752610E+01 -0.21134863508E+00  0.90007718062E+02  0.89999979141E+02 0.  0.
         12    1    1    2    0    0 -0.32610136402E+00  0.11144752610E+01  0.21134863508E+00  0.11802819377E+01  0.00000000000E+00 0. -1.
         11    1    3    3    0    0  0.78865050972E+01 -0.22182829841E+01  0.10957147759E+01  0.82654904983E+01  0.51100000000E-03 0. -1.
        -11    1    3    3    0    0  0.24833942565E+02  0.25468737026E+02  0.14256306502E+02  0.38322624445E+02  0.51100000000E-03 0.  1.
         12    1    3    3    0    0 -0.32394346298E+02 -0.24364929303E+02 -0.15563369913E+02  0.43419603119E+02  0.00000000000E+00 0. -1.
</event>
<event>
 7    1  0.1501154E-015  0.9000775E+02  0.7816164E-02  0.1186339E+00
        -11   -1    0    0    0    0  0.00000000000E+00  0.00000000000E+00  0.45593999997E+02  0.45594000000E+02  0.51100000000E-03 0.  1.
         11   -1    0    0    0    0 -0.00000000000E+00 -0.00000000000E+00 -0.45593999997E+02  0.45594000000E+02  0.51100000000E-03 0. -1.
    9900012    2    1    2    0    0  0.10946665838E+01 -0.43533546772E+00 -0.72034632877E-01  0.90007745414E+02  0.90000006854E+02 0.  0.
         12    1    1    2    0    0 -0.10946665838E+01  0.43533546772E+00  0.72034632877E-01  0.11802545859E+01  0.00000000000E+00 0. -1.
         11    1    3    3    0    0  0.21601281424E+02  0.15971874113E+01 -0.27806456668E+02  0.35247204137E+02  0.51100000000E-03 0. -1.
        -11    1    3    3    0    0  0.90604046115E+01  0.32799732336E+01 -0.45547914059E+01  0.10658108704E+02  0.51100000000E-03 0.  1.
        -12    1    3    3    0    0 -0.29567019451E+02 -0.53124961126E+01  0.32289213441E+02  0.44102432573E+02  0.00000000000E+00 0.  1.
</event>
<event>
 7    1  0.1501154E-015  0.9000744E+02  0.7816164E-02  0.1186340E+00
        -11   -1    0    0    0    0  0.00000000000E+00  0.00000000000E+00  0.45593999997E+02  0.45594000000E+02  0.51100000000E-03 0. -1.
         11   -1    0    0    0    0 -0.00000000000E+00 -0.00000000000E+00 -0.45593999997E+02  0.45594000000E+02  0.51100000000E-03 0.  1.
    9900012    2    1    2    0    0 -0.57493819514E+00  0.31758438778E+00 -0.98097696103E+00  0.90007436757E+02  0.89999694122E+02 0.  0.
         12    1    1    2    0    0  0.57493819514E+00 -0.31758438778E+00  0.98097696103E+00  0.11805632425E+01  0.00000000000E+00 0. -1.
         11    1    3    3    0    0 -0.27005451323E+02  0.10066888065E+02  0.27841273237E+02  0.40072099174E+02  0.51100000000E-03 0. -1.
        -11    1    3    3    0    0 -0.65474177911E+01 -0.24707044702E+01 -0.53228260784E+01  0.87923567962E+01  0.51100000000E-03 0.  1.
        -12    1    3    3    0    0  0.32977930919E+02 -0.72785992073E+01 -0.23499424120E+02  0.41142980787E+02  0.00000000000E+00 0.  1.
</event>
<event>
 7    1  0.1501154E-015  0.9000774E+02  0.7816164E-02  0.1186339E+00
        -11   -1    0    0    0    0  0.00000000000E+00  0.00000000000E+00  0.45593999997E+02  0.45594000000E+02  0.51100000000E-03 0. -1.
         11   -1    0    0    0    0 -0.00000000000E+00 -0.00000000000E+00 -0.45593999997E+02  0.45594000000E+02  0.51100000000E-03 0.  1.
    9900012    2    1    2    0    0  0.53163592364E+00  0.35776989112E+00 -0.99115465964E+00  0.90007735788E+02  0.89999997101E+02 0.  0.
         12    1    1    2    0    0 -0.53163592364E+00 -0.35776989112E+00  0.99115465964E+00  0.11802642118E+01  0.00000000000E+00 0. -1.
         11    1    3    3    0    0 -0.17701740496E+01 -0.42862584374E+01 -0.65291604538E+01  0.80084620278E+01  0.51100000000E-03 0. -1.
        -11    1    3    3    0    0 -0.38298606022E+02  0.30041895473E+01 -0.78634969012E+01  0.39212790794E+02  0.51100000000E-03 0.  1.
         12    1    3    3    0    0  0.40600415995E+02  0.16398387813E+01  0.13401502695E+02  0.42786482967E+02  0.00000000000E+00 0. -1.
</event>
<event>
 7    1  0.1501154E-015  0.9000765E+02  0.7816164E-02  0.1186339E+00
        -11   -1    0    0    0    0  0.00000000000E+00  0.00000000000E+00  0.45593999997E+02  0.45594000000E+02  0.51100000000E-03 0.  1.
         11   -1    0    0    0    0 -0.00000000000E+00 -0.00000000000E+00 -0.45593999997E+02  0.45594000000E+02  0.51100000000E-03 0. -1.
    9900012    2    1    2    0    0  0.97365070405E+00  0.12516907485E+00  0.65540877992E+00  0.90007651043E+02  0.89999911237E+02 0.  0.
         12    1    1    2    0    0 -0.97365070405E+00 -0.12516907485E+00 -0.65540877992E+00  0.11803489567E+01  0.00000000000E+00 0. -1.
         11    1    3    3    0    0  0.14216328574E+02 -0.22515591102E+02  0.34080966811E+02  0.43250065200E+02  0.51100000000E-03 0. -1.
        -11    1    3    3    0    0  0.43141390352E+01  0.61092529624E+01 -0.33150965278E+01  0.81807476812E+01  0.51100000000E-03 0.  1.
        -12    1    3    3    0    0 -0.17556816906E+02  0.16531507214E+02 -0.30110461503E+02  0.38576838162E+02  0.00000000000E+00 0.  1.
</event>
<event>
 7    1  0.1501154E-015  0.9000776E+02  0.7816164E-02  0.1186339E+00
        -11   -1    0    0    0    0  0.00000000000E+00  0.00000000000E+00  0.45593999997E+02  0.45594000000E+02  0.51100000000E-03 0.  1.
         11   -1    0    0    0    0 -0.00000000000E+00 -0.00000000000E+00 -0.45593999997E+02  0.45594000000E+02  0.51100000000E-03 0. -1.
    9900012    2    1    2    0    0  0.12101852148E+00  0.21855621470E+00  0.11534923592E+01  0.90007764039E+02  0.90000025724E+02 0.  0.
         12    1    1    2    0    0 -0.12101852148E+00 -0.21855621470E+00 -0.11534923592E+01  0.11802359613E+01  0.00000000000E+00 0. -1.
         11    1    3    3    0    0  0.67969184880E+01  0.41036388608E+01 -0.56298957644E+01  0.97331227985E+01  0.51100000000E-03 0. -1.
        -11    1    3    3    0    0 -0.12095113407E+02 -0.40813904953E+02  0.16642885087E+01  0.42600897436E+02  0.51100000000E-03 0.  1.
         12    1    3    3    0    0  0.54192134410E+01  0.36928822307E+02  0.51190996149E+01  0.37673743804E+02  0.00000000000E+00 0. -1.
</event>
<event>
 7    1  0.1501154E-015  0.9000780E+02  0.7816164E-02  0.1186339E+00
        -11   -1    0    0    0    0  0.00000000000E+00  0.00000000000E+00  0.45593999997E+02  0.45594000000E+02  0.51100000000E-03 0. -1.
         11   -1    0    0    0    0 -0.00000000000E+00 -0.00000000000E+00 -0.45593999997E+02  0.45594000000E+02  0.51100000000E-03 0.  1.
    9900012    2    1    2    0    0  0.99355333241E-01  0.98149373007E+00 -0.64782325389E+00  0.90007798156E+02  0.90000060292E+02 0.  0.
         12    1    1    2    0    0 -0.99355333241E-01 -0.98149373007E+00  0.64782325389E+00  0.11802018440E+01  0.00000000000E+00 0. -1.
         11    1    3    3    0    0  0.26967575056E+02 -0.72384423067E+01  0.20979091573E+02  0.34925169075E+02  0.51100000000E-03 0. -1.
        -11    1    3    3    0    0  0.61942869406E+01  0.59133906421E+01  0.71761067234E+01  0.11172908644E+02  0.51100000000E-03 0.  1.
        -12    1    3    3    0    0 -0.33062506663E+02  0.23065453946E+01 -0.28803021550E+02  0.43909720438E+02  0.00000000000E+00 0.  1.
</event>
<event>
 7    1  0.1501154E-015  0.9000802E+02  0.7816164E-02  0.1186338E+00
        -11   -1    0    0    0    0  0.00000000000E+00  0.00000000000E+00  0.45593999997E+02  0.45594000000E+02  0.51100000000E-03 0.  1.
         11   -1    0    0    0    0 -0.00000000000E+00 -0.00000000000E+00 -0.45593999997E+02  0.45594000000E+02  0.51100000000E-03 0. -1.
    9900012    2    1    2    0    0  0.24277534380E+00  0.84009073149E+00 -0.79224448913E+00  0.90008023884E+02  0.90000288998E+02 0.  0.
         12    1    1    2    0    0 -0.24277534380E+00 -0.84009073149E+00  0.79224448913E+00  0.11799761164E+01  0.00000000000E+00 0. -1.
         11    1    3    3    0    0 -0.41753426680E+01 -0.61513523469E+01 -0.40923952847E+01  0.84864787467E+01  0.51100000000E-03 0. -1.
        -11    1    3    3    0    0  0.23938848381E+02 -0.68069623486E+01  0.34298190256E+02  0.42376515352E+02  0.51100000000E-03 0.  1.
         12    1    3    3    0    0 -0.19520730369E+02  0.13798405427E+02 -0.30998039461E+02  0.39145029785E+02  0.00000000000E+00 0. -1.
</event>
<event>
 7    1  0.1501154E-015  0.9000766E+02  0.7816164E-02  0.1186339E+00
        -11   -1    0    0    0    0  0.00000000000E+00  0.00000000000E+00  0.45593999997E+02  0.45594000000E+02  0.51100000000E-03 0. -1.
         11   -1    0    0    0    0 -0.00000000000E+00 -0.00000000000E+00 -0.45593999997E+02  0.45594000000E+02  0.51100000000E-03 0.  1.
    9900012    2    1    2    0    0  0.35995298402E+00 -0.38988253985E+00 -0.10543398023E+01  0.90007658115E+02  0.89999918403E+02 0.  0.
         12    1    1    2    0    0 -0.35995298402E+00  0.38988253985E+00  0.10543398023E+01  0.11803418845E+01  0.00000000000E+00 0. -1.
         11    1    3    3    0    0  0.40238603204E+01 -0.67579218679E+00 -0.84952514033E+01  0.94243006968E+01  0.51100000000E-03 0. -1.
        -11    1    3    3    0    0  0.25956751672E+02 -0.28453142576E+02 -0.68301195683E+00  0.38520134805E+02  0.51100000000E-03 0.  1.
         12    1    3    3    0    0 -0.29620659008E+02  0.28739052222E+02  0.81239235578E+01  0.42063222614E+02  0.00000000000E+00 0. -1.
</event>
<event>
 7    1  0.1501154E-015  0.9000758E+02  0.7816164E-02  0.1186339E+00
        -11   -1    0    0    0    0  0.00000000000E+00  0.00000000000E+00  0.45593999997E+02  0.45594000000E+02  0.51100000000E-03 0.  1.
         11   -1    0    0    0    0 -0.00000000000E+00 -0.00000000000E+00 -0.45593999997E+02  0.45594000000E+02  0.51100000000E-03 0. -1.
    9900012    2    1    2    0    0 -0.30108759737E+00 -0.10340801631E+01  0.48312511152E+00  0.90007582532E+02  0.89999841821E+02 0.  0.
         12    1    1    2    0    0  0.30108759737E+00  0.10340801631E+01 -0.48312511152E+00  0.11804174678E+01  0.00000000000E+00 0. -1.
         11    1    3    3    0    0  0.72954315901E+01 -0.33689584121E+02  0.25322563669E+00  0.34471372526E+02  0.51100000000E-03 0. -1.
        -11    1    3    3    0    0 -0.25719517757E+01  0.35798935331E+01 -0.19532017739E+02  0.20023243765E+02  0.51100000000E-03 0.  1.
        -12    1    3    3    0    0 -0.50245674118E+01  0.29075610425E+02  0.19761917214E+02  0.35512966241E+02  0.00000000000E+00 0.  1.
</event>
<event>
 7    1  0.1501154E-015  0.9000754E+02  0.7816164E-02  0.1186339E+00
        -11   -1    0    0    0    0  0.00000000000E+00  0.00000000000E+00  0.45593999997E+02  0.45594000000E+02  0.51100000000E-03 0.  1.
         11   -1    0    0    0    0 -0.00000000000E+00 -0.00000000000E+00 -0.45593999997E+02  0.45594000000E+02  0.51100000000E-03 0. -1.
    9900012    2    1    2    0    0  0.10667900546E+01 -0.10529839644E+00  0.49433223946E+00  0.90007536898E+02  0.89999795585E+02 0.  0.
         12    1    1    2    0    0 -0.10667900546E+01  0.10529839644E+00 -0.49433223946E+00  0.11804631022E+01  0.00000000000E+00 0. -1.
         11    1    3    3    0    0 -0.26613825336E+02 -0.11289062432E+02  0.25451037404E+02  0.38516151610E+02  0.51100000000E-03 0. -1.
        -11    1    3    3    0    0 -0.79134324606E+01  0.31365542165E+01 -0.55207287791E+01  0.10145877595E+02  0.51100000000E-03 0.  1.
        -12    1    3    3    0    0  0.35594047851E+02  0.80472098190E+01 -0.19435976386E+02  0.41345507693E+02  0.00000000000E+00 0.  1.
</event>
<event>
 7    1  0.1501154E-015  0.9000770E+02  0.7816164E-02  0.1186339E+00
        -11   -1    0    0    0    0  0.00000000000E+00  0.00000000000E+00  0.45593999997E+02  0.45594000000E+02  0.51100000000E-03 0. -1.
         11   -1    0    0    0    0 -0.00000000000E+00 -0.00000000000E+00 -0.45593999997E+02  0.45594000000E+02  0.51100000000E-03 0.  1.
    9900012    2    1    2    0    0  0.77249641207E+00  0.41545060096E+00 -0.78979065184E+00  0.90007695301E+02  0.89999956079E+02 0.  0.
         12    1    1    2    0    0 -0.77249641207E+00 -0.41545060096E+00  0.78979065184E+00  0.11803046989E+01  0.00000000000E+00 0. -1.
         11    1    3    3    0    0 -0.15225277941E+02 -0.27666312241E+02 -0.61394344031E+01  0.32170274734E+02  0.51100000000E-03 0. -1.
        -11    1    3    3    0    0 -0.32062842478E+00 -0.12983451501E+02 -0.16710152656E+01  0.13094468593E+02  0.51100000000E-03 0.  1.
        -12    1    3    3    0    0  0.16318402778E+02  0.41065214343E+02  0.70206590169E+01  0.44742951974E+02  0.00000000000E+00 0.  1.
</event>
<event>
 7    1  0.1501154E-015  0.9000777E+02  0.7816164E-02  0.1186339E+00
        -11   -1    0    0    0    0  0.00000000000E+00  0.00000000000E+00  0.45593999997E+02  0.45594000000E+02  0.51100000000E-03 0.  1.
         11   -1    0    0    0    0 -0.00000000000E+00 -0.00000000000E+00 -0.45593999997E+02  0.45594000000E+02  0.51100000000E-03 0. -1.
    9900012    2    1    2    0    0  0.98478937126E+00  0.57502359605E+00 -0.30410240098E+00  0.90007770992E+02  0.90000032769E+02 0.  0.
         12    1    1    2    0    0 -0.98478937126E+00 -0.57502359605E+00  0.30410240098E+00  0.11802290083E+01  0.00000000000E+00 0. -1.
         11    1    3    3    0    0  0.10907159820E+02  0.39568369497E+02 -0.14495648355E+02  0.43528678150E+02  0.51100000000E-03 0. -1.
        -11    1    3    3    0    0  0.42025367866E+01 -0.92058647673E+01 -0.10220664754E+01  0.10171228131E+02  0.51100000000E-03 0.  1.
        -12    1    3    3    0    0 -0.14124907236E+02 -0.29787481133E+02  0.15213612430E+02  0.36307864711E+02  0.00000000000E+00 0.  1.
</event>
<event>
 7    1  0.1501154E-015  0.9000774E+02  0.7816164E-02  0.1186339E+00
        -11   -1    0    0    0    0  0.00000000000E+00  0.00000000000E+00  0.45593999997E+02  0.45594000000E+02  0.51100000000E-03 0.  1.
         11   -1    0    0    0    0 -0.00000000000E+00 -0.00000000000E+00 -0.45593999997E+02  0.45594000000E+02  0.51100000000E-03 0. -1.
    9900012    2    1    2    0    0 -0.75680217185E-01  0.11484484286E+01  0.26143185978E+00  0.90007742441E+02  0.90000003841E+02 0.  0.
         12    1    1    2    0    0  0.75680217185E-01 -0.11484484286E+01 -0.26143185978E+00  0.11802575591E+01  0.00000000000E+00 0. -1.
         11    1    3    3    0    0  0.88138396310E+01 -0.31560701183E+01  0.25238158565E+01  0.96960917060E+01  0.51100000000E-03 0. -1.
        -11    1    3    3    0    0  0.13329157591E+02 -0.32914101796E+02  0.64682660204E+01  0.36094916605E+02  0.51100000000E-03 0.  1.
         12    1    3    3    0    0 -0.22218677440E+02  0.37218620343E+02 -0.87306500171E+01  0.44216734130E+02  0.00000000000E+00 0. -1.
</event>
<event>
 7    1  0.1501154E-015  0.9000761E+02  0.7816164E-02  0.1186339E+00
        -11   -1    0    0    0    0  0.00000000000E+00  0.00000000000E+00  0.45593999997E+02  0.45594000000E+02  0.51100000000E-03 0.  1.
         11   -1    0    0    0    0 -0.00000000000E+00 -0.00000000000E+00 -0.45593999997E+02  0.45594000000E+02  0.51100000000E-03 0. -1.
    9900012    2    1    2    0    0 -0.29124983398E+00 -0.10869341350E+01  0.35647087398E+00  0.90007608640E+02  0.89999868274E+02 0.  0.
         12    1    1    2    0    0  0.29124983398E+00  0.10869341350E+01 -0.35647087398E+00  0.11803913604E+01  0.00000000000E+00 0. -1.
         11    1    3    3    0    0 -0.13095801564E+02 -0.20301021862E+01 -0.13858389202E+02  0.19174886833E+02  0.51100000000E-03 0. -1.
        -11    1    3    3    0    0 -0.14902062548E+02 -0.20773781442E+02  0.23175362432E+02  0.34506794805E+02  0.51100000000E-03 0.  1.
         12    1    3    3    0    0  0.27706614279E+02  0.21716949494E+02 -0.89605023554E+01  0.36325927002E+02  0.00000000000E+00 0. -1.
</event>
<event>
 7    1  0.1501154E-015  0.9000773E+02  0.7816164E-02  0.1186339E+00
        -11   -1    0    0    0    0  0.00000000000E+00  0.00000000000E+00  0.45593999997E+02  0.45594000000E+02  0.51100000000E-03 0. -1.
         11   -1    0    0    0    0 -0.00000000000E+00 -0.00000000000E+00 -0.45593999997E+02  0.45594000000E+02  0.51100000000E-03 0.  1.
    9900012    2    1    2    0    0 -0.52679906519E+00  0.45202579613E+00 -0.95456607545E+00  0.90007728435E+02  0.89999989650E+02 0.  0.
         12    1    1    2    0    0  0.52679906519E+00 -0.45202579613E+00  0.95456607545E+00  0.11802715653E+01  0.00000000000E+00 0. -1.
         11    1    3    3    0    0  0.10633179674E+02 -0.43725841333E+00  0.83378080696E+00  0.10674778480E+02  0.51100000000E-03 0. -1.
        -11    1    3    3    0    0  0.24802600160E+02  0.25324635933E+02  0.30890745036E+01  0.35581575870E+02  0.51100000000E-03 0.  1.
         12    1    3    3    0    0 -0.35962578899E+02 -0.24435351723E+02 -0.48774213860E+01  0.43751374085E+02  0.00000000000E+00 0. -1.
</event>
<event>
 7    1  0.1501154E-015  0.9000790E+02  0.7816164E-02  0.1186339E+00
        -11   -1    0    0    0    0  0.00000000000E+00  0.00000000000E+00  0.45593999997E+02  0.45594000000E+02  0.51100000000E-03 0. -1.
         11   -1    0    0    0    0 -0.00000000000E+00 -0.00000000000E+00 -0.45593999997E+02  0.45594000000E+02  0.51100000000E-03 0.  1.
    9900012    2    1    2    0    0 -0.96945002747E+00  0.30837551173E+00  0.59809006165E+00  0.90007898083E+02  0.90000161538E+02 0.  0.
         12    1    1    2    0    0  0.96945002747E+00 -0.30837551173E+00 -0.59809006165E+00  0.11801019167E+01  0.00000000000E+00 0. -1.
         11    1    3    3    0    0  0.11167585350E+02 -0.40715234113E+01 -0.67878706671E+01  0.13688223182E+02  0.51100000000E-03 0. -1.
        -11    1    3    3    0    0 -0.15407018797E+01 -0.33437603879E+02 -0.75282490849E+01  0.34309206490E+02  0.51100000000E-03 0.  1.
         12    1    3    3    0    0 -0.10596333498E+02  0.37817502802E+02  0.14914209814E+02  0.42010468411E+02  0.00000000000E+00 0. -1.
</event>
<event>
 7    1  0.1501154E-015  0.9000782E+02  0.7816164E-02  0.1186339E+00
        -11   -1    0    0    0    0  0.00000000000E+00  0.00000000000E+00  0.45593999997E+02  0.45594000000E+02  0.51100000000E-03 0.  1.
         11   -1    0    0    0    0 -0.00000000000E+00 -0.00000000000E+00 -0.45593999997E+02  0.45594000000E+02  0.51100000000E-03 0. -1.
    9900012    2    1    2    0    0  0.50067573343E+00  0.18922370184E+00  0.10518253041E+01  0.90007822780E+02  0.90000085241E+02 0.  0.
         12    1    1    2    0    0 -0.50067573343E+00 -0.18922370184E+00 -0.10518253041E+01  0.11801772197E+01  0.00000000000E+00 0. -1.
         11    1    3    3    0    0  0.10343578999E+01  0.31600959777E+02  0.18317860113E+02  0.36540861435E+02  0.51100000000E-03 0. -1.
        -11    1    3    3    0    0  0.28689140587E+00  0.95828814491E+01 -0.28113418368E+01  0.99908741725E+01  0.51100000000E-03 0.  1.
        -12    1    3    3    0    0 -0.82057357234E+00 -0.40994617524E+02 -0.14454692972E+02  0.43476087172E+02  0.00000000000E+00 0.  1.
</event>
<event>
 7    1  0.1501154E-015  0.9000769E+02  0.7816164E-02  0.1186339E+00
        -11   -1    0    0    0    0  0.00000000000E+00  0.00000000000E+00  0.45593999997E+02  0.45594000000E+02  0.51100000000E-03 0. -1.
         11   -1    0    0    0    0 -0.00000000000E+00 -0.00000000000E+00 -0.45593999997E+02  0.45594000000E+02  0.51100000000E-03 0.  1.
    9900012    2    1    2    0    0  0.81011766889E+00  0.41654173714E+00 -0.75055643926E+00  0.90007689607E+02  0.89999950309E+02 0.  0.
         12    1    1    2    0    0 -0.81011766889E+00 -0.41654173714E+00  0.75055643926E+00  0.11803103934E+01  0.00000000000E+00 0. -1.
         11    1    3    3    0    0 -0.47961008466E+01 -0.71391699429E+01 -0.39615364396E+01  0.94691130539E+01  0.51100000000E-03 0. -1.
        -11    1    3    3    0    0  0.18916084980E+02 -0.23295135869E+02 -0.23094873714E+02  0.37866275473E+02  0.51100000000E-03 0.  1.
         12    1    3    3    0    0 -0.13309866464E+02  0.30850847549E+02  0.26305853714E+02  0.42672301079E+02  0.00000000000E+00 0. -1.
</event>
<event>
 7    1  0.1501154E-015  0.9000773E+02  0.7816164E-02  0.1186339E+00
        -11   -1    0    0    0    0  0.00000000000E+00  0.00000000000E+00  0.45593999997E+02  0.45594000000E+02  0.51100000000E-03 0. -1.
         11   -1    0    0    0    0 -0.00000000000E+00 -0.00000000000E+00 -0.45593999997E+02  0.45594000000E+02  0.51100000000E-03 0.  1.
    9900012    2    1    2    0    0 -0.24038911633E+00 -0.11258440686E+01 -0.26025843618E+00  0.90007726198E+02  0.89999987384E+02 0.  0.
         12    1    1    2    0    0  0.24038911633E+00  0.11258440686E+01  0.26025843618E+00  0.11802738020E+01  0.00000000000E+00 0. -1.
         11    1    3    3    0    0 -0.95659147373E+01 -0.25605614359E+00 -0.39293673320E+01  0.10344670966E+02  0.51100000000E-03 0. -1.
        -11    1    3    3    0    0 -0.22561960102E+02 -0.13923758828E+02 -0.23776418607E+02  0.35612233651E+02  0.51100000000E-03 0.  1.
         12    1    3    3    0    0  0.31887485723E+02  0.13053970903E+02  0.27445527503E+02  0.44050821581E+02  0.00000000000E+00 0. -1.
</event>
<event>
 7    1  0.1501154E-015  0.9000783E+02  0.7816164E-02  0.1186339E+00
        -11   -1    0    0    0    0  0.00000000000E+00  0.00000000000E+00  0.45593999997E+02  0.45594000000E+02  0.51100000000E-03 0.  1.
         11   -1    0    0    0    0 -0.00000000000E+00 -0.00000000000E+00 -0.45593999997E+02  0.45594000000E+02  0.51100000000E-03 0. -1.
    9900012    2    1    2    0    0 -0.88143838769E+00 -0.47948180092E+00  0.62126708359E+00  0.90007826615E+02  0.90000089127E+02 0.  0.
         12    1    1    2    0    0  0.88143838769E+00  0.47948180092E+00 -0.62126708359E+00  0.11801733847E+01  0.00000000000E+00 0. -1.
         11    1    3    3    0    0  0.43544610965E+01  0.46303333003E+01  0.57110045691E+01  0.85449921803E+01  0.51100000000E-03 0. -1.
        -11    1    3    3    0    0  0.13309779461E+02  0.26687132641E+02  0.20887608950E+02  0.36409414797E+02  0.51100000000E-03 0.  1.
         12    1    3    3    0    0 -0.18545678945E+02 -0.31796947743E+02 -0.25977346435E+02  0.45053419638E+02  0.00000000000E+00 0. -1.
</event>
<event>
 7    1  0.1501154E-015  0.9000772E+02  0.7816164E-02  0.1186339E+00
        -11   -1    0    0    0    0  0.00000000000E+00  0.00000000000E+00  0.45593999997E+02  0.45594000000E+02  0.51100000000E-03 0.  1.
         11   -1    0    0    0    0 -0.00000000000E+00 -0.00000000000E+00 -0.45593999997E+02  0.45594000000E+02  0.51100000000E-03 0. -1.
    9900012    2    1    2    0    0 -0.77830940140E+00 -0.55390237428E+00  0.69316619812E+00  0.90007723446E+02  0.89999984596E+02 0.  0.
         12    1    1    2    0    0  0.77830940140E+00  0.55390237428E+00 -0.69316619812E+00  0.11802765535E+01  0.00000000000E+00 0. -1.
         11    1    3    3    0    0 -0.34043540092E+02  0.27607405209E+02 -0.76714865325E+01  0.44497001587E+02  0.51100000000E-03 0. -1.
        -11    1    3    3    0    0  0.41950596264E+01 -0.87243739076E+01  0.66382511455E+00  0.97032927088E+01  0.51100000000E-03 0.  1.
        -12    1    3    3    0    0  0.29070171064E+02 -0.19436933675E+02  0.77008276161E+01  0.35807429151E+02  0.00000000000E+00 0.  1.
</event>
<event>
 7    1  0.1501154E-015  0.9000784E+02  0.7816164E-02  0.1186339E+00
        -11   -1    0    0    0    0  0.00000000000E+00  0.00000000000E+00  0.45593999997E+02  0.45594000000E+02  0.51100000000E-03 0. -1.
         11   -1    0    0    0    0 -0.00000000000E+00 -0.00000000000E+00 -0.45593999997E+02  0.45594000000E+02  0.51100000000E-03 0.  1.
    9900012    2    1    2    0    0 -0.53717699241E+00 -0.67115109152E+00 -0.80856209352E+00  0.90007840872E+02  0.90000103571E+02 0.  0.
         12    1    1    2    0    0  0.53717699241E+00  0.67115109152E+00  0.80856209352E+00  0.11801591282E+01  0.00000000000E+00 0. -1.
         11    1    3    3    0    0 -0.56546067960E+01  0.62260843540E+01  0.31940613487E+01  0.89967067619E+01  0.51100000000E-03 0. -1.
        -11    1    3    3    0    0  0.32825765072E+02  0.23044536985E+02 -0.26115902636E+01  0.40192063164E+02  0.51100000000E-03 0.  1.
         12    1    3    3    0    0 -0.27708335268E+02 -0.29941772430E+02 -0.13910331787E+01  0.40819070946E+02  0.00000000000E+00 0. -1.
</event>
<event>
 7    1  0.1501154E-015  0.9000774E+02  0.7816164E-02  0.1186339E+00
        -11   -1    0    0    0    0  0.00000000000E+00  0.00000000000E+00  0.45593999997E+02  0.45594000000E+02  0.51100000000E-03 0.  1.
         11   -1    0    0    0    0 -0.00000000000E+00 -0.00000000000E+00 -0.45593999997E+02  0.45594000000E+02  0.51100000000E-03 0. -1.
    9900012    2    1    2    0    0 -0.86763350417E+00  0.64790204174E+00 -0.46951223277E+00  0.90007742956E+02  0.90000004363E+02 0.  0.
         12    1    1    2    0    0  0.86763350417E+00 -0.64790204174E+00  0.46951223277E+00  0.11802570440E+01  0.00000000000E+00 0. -1.
         11    1    3    3    0    0 -0.28429471135E+02  0.14635849873E+02 -0.20266001459E+02  0.37857017129E+02  0.51100000000E-03 0. -1.
        -11    1    3    3    0    0 -0.36193972518E+01  0.49461905240E+01 -0.51096989822E+01  0.79795902850E+01  0.51100000000E-03 0.  1.
        -12    1    3    3    0    0  0.31181234882E+02 -0.18934138355E+02  0.24906188208E+02  0.44171135542E+02  0.00000000000E+00 0.  1.
</event>
<event>
 7    1  0.1501154E-015  0.9000774E+02  0.7816164E-02  0.1186339E+00
        -11   -1    0    0    0    0  0.00000000000E+00  0.00000000000E+00  0.45593999997E+02  0.45594000000E+02  0.51100000000E-03 0. -1.
         11   -1    0    0    0    0 -0.00000000000E+00 -0.00000000000E+00 -0.45593999997E+02  0.45594000000E+02  0.51100000000E-03 0.  1.
    9900012    2    1    2    0    0 -0.10783119594E+01  0.22391562185E+00 -0.42440864191E+00  0.90007738341E+02  0.89999999687E+02 0.  0.
         12    1    1    2    0    0  0.10783119594E+01 -0.22391562185E+00  0.42440864191E+00  0.11802616586E+01  0.00000000000E+00 0. -1.
         11    1    3    3    0    0  0.68195380045E+00 -0.89652035404E+01 -0.33679284384E+01  0.96011914747E+01  0.51100000000E-03 0. -1.
        -11    1    3    3    0    0 -0.25364428083E+02 -0.17055135099E+02 -0.21589121403E+02  0.37420876639E+02  0.51100000000E-03 0.  1.
         12    1    3    3    0    0  0.23604162324E+02  0.26244254261E+02  0.24532641199E+02  0.42985670228E+02  0.00000000000E+00 0. -1.
</event>
<event>
 7    1  0.1501154E-015  0.9000740E+02  0.7816164E-02  0.1186340E+00
        -11   -1    0    0    0    0  0.00000000000E+00  0.00000000000E+00  0.45593999997E+02  0.45594000000E+02  0.51100000000E-03 0.  1.
         11   -1    0    0    0    0 -0.00000000000E+00 -0.00000000000E+00 -0.45593999997E+02  0.45594000000E+02  0.51100000000E-03 0. -1.
    9900012    2    1    2    0    0  0.68954803340E+00 -0.36211515006E+00  0.88725053994E+00  0.90007399563E+02  0.89999656436E+02 0.  0.
         12    1    1    2    0    0 -0.68954803340E+00  0.36211515006E+00 -0.88725053994E+00  0.11806004374E+01  0.00000000000E+00 0. -1.
         11    1    3    3    0    0 -0.10340154498E+02 -0.28306890938E+02 -0.27570912413E+02  0.40845490340E+02  0.51100000000E-03 0. -1.
        -11    1    3    3    0    0  0.49266487663E+01  0.91210075969E+01 -0.40294559748E+01  0.11122102470E+02  0.51100000000E-03 0.  1.
        -12    1    3    3    0    0  0.61030537649E+01  0.18823768191E+02  0.32487618928E+02  0.38039806752E+02  0.00000000000E+00 0.  1.
</event>
<event>
 7    1  0.1501154E-015  0.9000774E+02  0.7816164E-02  0.1186339E+00
        -11   -1    0    0    0    0  0.00000000000E+00  0.00000000000E+00  0.45593999997E+02  0.45594000000E+02  0.51100000000E-03 0.  1.
         11   -1    0    0    0    0 -0.00000000000E+00 -0.00000000000E+00 -0.45593999997E+02  0.45594000000E+02  0.51100000000E-03 0. -1.
    9900012    2    1    2    0    0 -0.59146607060E+00 -0.95738320151E+00  0.35582153445E+00  0.90007735762E+02  0.89999997074E+02 0.  0.
         12    1    1    2    0    0  0.59146607060E+00  0.95738320151E+00 -0.35582153445E+00  0.11802642380E+01  0.00000000000E+00 0. -1.
         11    1    3    3    0    0  0.36345770532E+01 -0.68474426491E+01 -0.39072089137E+02  0.39833726552E+02  0.51100000000E-03 0. -1.
        -11    1    3    3    0    0 -0.61306322433E+01 -0.59419384763E+01 -0.43488001038E+00  0.85487078230E+01  0.51100000000E-03 0.  1.
        -12    1    3    3    0    0  0.19045891195E+01  0.11831997924E+02  0.39862790682E+02  0.41625301387E+02  0.00000000000E+00 0.  1.
</event>
<event>
 7    1  0.1501154E-015  0.9000773E+02  0.7816164E-02  0.1186339E+00
        -11   -1    0    0    0    0  0.00000000000E+00  0.00000000000E+00  0.45593999997E+02  0.45594000000E+02  0.51100000000E-03 0.  1.
         11   -1    0    0    0    0 -0.00000000000E+00 -0.00000000000E+00 -0.45593999997E+02  0.45594000000E+02  0.51100000000E-03 0. -1.
    9900012    2    1    2    0    0 -0.11781644442E+01  0.47913756747E-01 -0.51678814174E-01  0.90007729741E+02  0.89999990973E+02 0.  0.
         12    1    1    2    0    0  0.11781644442E+01 -0.47913756747E-01  0.51678814174E-01  0.11802702595E+01  0.00000000000E+00 0. -1.
         11    1    3    3    0    0  0.39866786756E+02  0.99185252837E+01 -0.29549703122E+01  0.41188222587E+02  0.51100000000E-03 0. -1.
        -11    1    3    3    0    0 -0.64376233322E+01  0.75011592317E+01 -0.81681219795E+00  0.99185465878E+01  0.51100000000E-03 0.  1.
        -12    1    3    3    0    0 -0.34607327868E+02 -0.17371770759E+02  0.37201036960E+01  0.38900960566E+02  0.00000000000E+00 0.  1.
</event>
<event>
 7    1  0.1501154E-015  0.9000762E+02  0.7816164E-02  0.1186339E+00
        -11   -1    0    0    0    0  0.00000000000E+00  0.00000000000E+00  0.45593999997E+02  0.45594000000E+02  0.51100000000E-03 0. -1.
         11   -1    0    0    0    0 -0.00000000000E+00 -0.00000000000E+00 -0.45593999997E+02  0.45594000000E+02  0.51100000000E-03 0.  1.
    9900012    2    1    2    0    0  0.97044370328E+00 -0.14086147363E+00  0.65703467344E+00  0.90007619765E+02  0.89999879546E+02 0.  0.
         12    1    1    2    0    0 -0.97044370328E+00  0.14086147363E+00 -0.65703467344E+00  0.11803802345E+01  0.00000000000E+00 0. -1.
         11    1    3    3    0    0  0.30454501285E+02  0.27728919322E+02 -0.16809506921E+02  0.44485156384E+02  0.51100000000E-03 0. -1.
        -11    1    3    3    0    0 -0.88951380699E+01 -0.23821682489E+01  0.27991180952E+01  0.96246178740E+01  0.51100000000E-03 0.  1.
        -12    1    3    3    0    0 -0.20588919512E+02 -0.25487612547E+02  0.14667423499E+02  0.35897845508E+02  0.00000000000E+00 0.  1.
</event>
<event>
 7    1  0.1501154E-015  0.9000769E+02  0.7816164E-02  0.1186339E+00
        -11   -1    0    0    0    0  0.00000000000E+00  0.00000000000E+00  0.45593999997E+02  0.45594000000E+02  0.51100000000E-03 0.  1.
         11   -1    0    0    0    0 -0.00000000000E+00 -0.00000000000E+00 -0.45593999997E+02  0.45594000000E+02  0.51100000000E-03 0. -1.
    9900012    2    1    2    0    0 -0.58727112964E+00  0.97425346774E+00 -0.31476465244E+00  0.90007689030E+02  0.89999949725E+02 0.  0.
         12    1    1    2    0    0  0.58727112964E+00 -0.97425346774E+00  0.31476465244E+00  0.11803109698E+01  0.00000000000E+00 0. -1.
         11    1    3    3    0    0  0.78044001224E+01 -0.38612726446E+01  0.37568626241E+01  0.94832539112E+01  0.51100000000E-03 0. -1.
        -11    1    3    3    0    0  0.15137966468E+02 -0.29791474948E+02  0.12248475268E+02  0.35590942035E+02  0.51100000000E-03 0.  1.
         12    1    3    3    0    0 -0.23529637720E+02  0.34627001060E+02 -0.16320102544E+02  0.44933493083E+02  0.00000000000E+00 0. -1.
</event>
<event>
 7    1  0.1501154E-015  0.9000725E+02  0.7816164E-02  0.1186340E+00
        -11   -1    0    0    0    0  0.00000000000E+00  0.00000000000E+00  0.45593999997E+02  0.45594000000E+02  0.51100000000E-03 0.  1.
         11   -1    0    0    0    0 -0.00000000000E+00 -0.00000000000E+00 -0.45593999997E+02  0.45594000000E+02  0.51100000000E-03 0. -1.
    9900012    2    1    2    0    0 -0.93891049278E+00 -0.31098929679E+00  0.64490535001E+00  0.90007250168E+02  0.89999505068E+02 0.  0.
         12    1    1    2    0    0  0.93891049278E+00  0.31098929679E+00 -0.64490535001E+00  0.11807498324E+01  0.00000000000E+00 0. -1.
         11    1    3    3    0    0 -0.10510742688E+02  0.34498762474E+01 -0.11388519355E+02  0.15876893000E+02  0.51100000000E-03 0. -1.
        -11    1    3    3    0    0  0.94098445137E+01 -0.26680310967E+02  0.32720396851E+02  0.43255156195E+02  0.51100000000E-03 0.  1.
         12    1    3    3    0    0  0.16198768113E+00  0.22919445423E+02 -0.20686972147E+02  0.30875200973E+02  0.00000000000E+00 0. -1.
</event>
<event>
 7    1  0.1501154E-015  0.9000781E+02  0.7816164E-02  0.1186339E+00
        -11   -1    0    0    0    0  0.00000000000E+00  0.00000000000E+00  0.45593999997E+02  0.45594000000E+02  0.51100000000E-03 0. -1.
         11   -1    0    0    0    0 -0.00000000000E+00 -0.00000000000E+00 -0.45593999997E+02  0.45594000000E+02  0.51100000000E-03 0.  1.
    9900012    2    1    2    0    0  0.43079883154E+00 -0.34450266177E+00 -0.10433466171E+01  0.90007812777E+02  0.90000075106E+02 0.  0.
         12    1    1    2    0    0 -0.43079883154E+00  0.34450266177E+00  0.10433466171E+01  0.11801872227E+01  0.00000000000E+00 0. -1.
         11    1    3    3    0    0  0.58195232093E+01  0.67497382330E+00  0.60411887719E+01  0.84153670202E+01  0.51100000000E-03 0. -1.
        -11    1    3    3    0    0  0.34912725943E+02 -0.11053997315E+02 -0.14530640341E+02  0.39398334969E+02  0.51100000000E-03 0.  1.
         12    1    3    3    0    0 -0.40301450320E+02  0.10034520830E+02  0.74461049516E+01  0.42194110788E+02  0.00000000000E+00 0. -1.
</event>
<event>
 7    1  0.1501154E-015  0.9000752E+02  0.7816164E-02  0.1186339E+00
        -11   -1    0    0    0    0  0.00000000000E+00  0.00000000000E+00  0.45593999997E+02  0.45594000000E+02  0.51100000000E-03 0. -1.
         11   -1    0    0    0    0 -0.00000000000E+00 -0.00000000000E+00 -0.45593999997E+02  0.45594000000E+02  0.51100000000E-03 0.  1.
    9900012    2    1    2    0    0 -0.25110432491E+00 -0.10828874087E+01  0.39727190841E+00  0.90007524040E+02  0.89999782558E+02 0.  0.
         12    1    1    2    0    0  0.25110432491E+00  0.10828874087E+01 -0.39727190841E+00  0.11804759596E+01  0.00000000000E+00 0. -1.
         11    1    3    3    0    0  0.94425999590E+01 -0.46940650725E-02  0.86915700939E+01  0.12833787710E+02  0.51100000000E-03 0. -1.
        -11    1    3    3    0    0  0.13828322851E+01  0.88791707322E+01 -0.40609189854E+02  0.41591564035E+02  0.51100000000E-03 0.  1.
         12    1    3    3    0    0 -0.11076536569E+02 -0.99573640758E+01  0.32314891669E+02  0.35582172295E+02  0.00000000000E+00 0. -1.
</event>
<event>
 7    1  0.1501154E-015  0.9000832E+02  0.7816164E-02  0.1186338E+00
        -11   -1    0    0    0    0  0.00000000000E+00  0.00000000000E+00  0.45593999997E+02  0.45594000000E+02  0.51100000000E-03 0. -1.
         11   -1    0    0    0    0 -0.00000000000E+00 -0.00000000000E+00 -0.45593999997E+02  0.45594000000E+02  0.51100000000E-03 0.  1.
    9900012    2    1    2    0    0  0.49560000268E+00 -0.58690047894E+00 -0.89530549146E+00  0.90008320612E+02  0.90000589642E+02 0.  0.
         12    1    1    2    0    0 -0.49560000268E+00  0.58690047894E+00  0.89530549146E+00  0.11796793877E+01  0.00000000000E+00 0. -1.
         11    1    3    3    0    0 -0.86760439215E+01  0.26152868142E+01 -0.59535551260E+01  0.10842429716E+02  0.51100000000E-03 0. -1.
        -11    1    3    3    0    0 -0.17492538800E+02  0.11808452785E+02 -0.27381809391E+02  0.34571548369E+02  0.51100000000E-03 0.  1.
         12    1    3    3    0    0  0.26664182724E+02 -0.15010640079E+02  0.32440059025E+02  0.44594342527E+02  0.00000000000E+00 0. -1.
</event>
<event>
 7    1  0.1501154E-015  0.9000769E+02  0.7816164E-02  0.1186339E+00
        -11   -1    0    0    0    0  0.00000000000E+00  0.00000000000E+00  0.45593999997E+02  0.45594000000E+02  0.51100000000E-03 0. -1.
         11   -1    0    0    0    0 -0.00000000000E+00 -0.00000000000E+00 -0.45593999997E+02  0.45594000000E+02  0.51100000000E-03 0.  1.
    9900012    2    1    2    0    0  0.20988367577E+00  0.10412797798E+01  0.51460579134E+00  0.90007689084E+02  0.89999949780E+02 0.  0.
         12    1    1    2    0    0 -0.20988367577E+00 -0.10412797798E+01 -0.51460579134E+00  0.11803109156E+01  0.00000000000E+00 0. -1.
         11    1    3    3    0    0 -0.48040408323E+01 -0.14936876919E+02  0.36578357000E+02  0.39801574108E+02  0.51100000000E-03 0. -1.
        -11    1    3    3    0    0 -0.37910759065E+01 -0.20215717146E+01  0.37057416350E+01  0.56737580185E+01  0.51100000000E-03 0.  1.
        -12    1    3    3    0    0  0.88050004146E+01  0.17999728413E+02 -0.39769492843E+02  0.44532356958E+02  0.00000000000E+00 0.  1.
</event>
<event>
 7    1  0.1501154E-015  0.9000773E+02  0.7816164E-02  0.1186339E+00
        -11   -1    0    0    0    0  0.00000000000E+00  0.00000000000E+00  0.45593999997E+02  0.45594000000E+02  0.51100000000E-03 0.  1.
         11   -1    0    0    0    0 -0.00000000000E+00 -0.00000000000E+00 -0.45593999997E+02  0.45594000000E+02  0.51100000000E-03 0. -1.
    9900012    2    1    2    0    0  0.11611708628E+01 -0.75015226099E-02 -0.21136307120E+00  0.90007725289E+02  0.89999986463E+02 0.  0.
         12    1    1    2    0    0 -0.11611708628E+01  0.75015226099E-02  0.21136307120E+00  0.11802747109E+01  0.00000000000E+00 0. -1.
         11    1    3    3    0    0  0.38063955715E+02  0.80225567718E+01 -0.10038650010E+02  0.40174626770E+02  0.51100000000E-03 0. -1.
        -11    1    3    3    0    0  0.31397878049E+01 -0.78079306089E+01  0.41706121767E+01  0.93923401793E+01  0.51100000000E-03 0.  1.
        -12    1    3    3    0    0 -0.40042572657E+02 -0.22212768555E+00  0.56566747624E+01  0.40440758340E+02  0.00000000000E+00 0.  1.
</event>
<event>
 7    1  0.1501154E-015  0.9000773E+02  0.7816164E-02  0.1186339E+00
        -11   -1    0    0    0    0  0.00000000000E+00  0.00000000000E+00  0.45593999997E+02  0.45594000000E+02  0.51100000000E-03 0. -1.
         11   -1    0    0    0    0 -0.00000000000E+00 -0.00000000000E+00 -0.45593999997E+02  0.45594000000E+02  0.51100000000E-03 0.  1.
    9900012    2    1    2    0    0  0.81915011632E+00  0.84313509520E+00 -0.10564755484E+00  0.90007726681E+02  0.89999987873E+02 0.  0.
         12    1    1    2    0    0 -0.81915011632E+00 -0.84313509520E+00  0.10564755484E+00  0.11802733191E+01  0.00000000000E+00 0. -1.
         11    1    3    3    0    0  0.13026047038E+02  0.25819105859E+02  0.11955739844E+02  0.31292872100E+02  0.51100000000E-03 0. -1.
        -11    1    3    3    0    0 -0.83695558123E-01  0.14031813916E+02  0.43533844767E+01  0.14691860446E+02  0.51100000000E-03 0.  1.
        -12    1    3    3    0    0 -0.12123201364E+02 -0.39007784679E+02 -0.16414771875E+02  0.44022994135E+02  0.00000000000E+00 0.  1.
</event>
<event>
 7    1  0.1501154E-015  0.9000776E+02  0.7816164E-02  0.1186339E+00
        -11   -1    0    0    0    0  0.00000000000E+00  0.00000000000E+00  0.45593999997E+02  0.45594000000E+02  0.51100000000E-03 0.  1.
         11   -1    0    0    0    0 -0.00000000000E+00 -0.00000000000E+00 -0.45593999997E+02  0.45594000000E+02  0.51100000000E-03 0. -1.
    9900012    2    1    2    0    0  0.51592301090E+00  0.84779214200E+00  0.63878254148E+00  0.90007757989E+02  0.90000019594E+02 0.  0.
         12    1    1    2    0    0 -0.51592301090E+00 -0.84779214200E+00 -0.63878254148E+00  0.11802420110E+01  0.00000000000E+00 0. -1.
         11    1    3    3    0    0  0.35893144266E+02  0.27235002224E+01 -0.11409432364E+02  0.37761228872E+02  0.51100000000E-03 0. -1.
        -11    1    3    3    0    0  0.49346709643E+01 -0.19225826285E+01  0.10668882906E+02  0.11911018605E+02  0.51100000000E-03 0.  1.
        -12    1    3    3    0    0 -0.40311892219E+02  0.46874548095E-01  0.13793319997E+01  0.40335510512E+02  0.00000000000E+00 0.  1.
</event>
<event>
 7    1  0.1501154E-015  0.9000773E+02  0.7816164E-02  0.1186339E+00
        -11   -1    0    0    0    0  0.00000000000E+00  0.00000000000E+00  0.45593999997E+02  0.45594000000E+02  0.51100000000E-03 0. -1.
         11   -1    0    0    0    0 -0.00000000000E+00 -0.00000000000E+00 -0.45593999997E+02  0.45594000000E+02  0.51100000000E-03 0.  1.
    9900012    2    1    2    0    0  0.10380269471E+01  0.42380341997E+00 -0.36869653534E+00  0.90007726126E+02  0.89999987311E+02 0.  0.
         12    1    1    2    0    0 -0.10380269471E+01 -0.42380341997E+00  0.36869653534E+00  0.11802738737E+01  0.00000000000E+00 0. -1.
         11    1    3    3    0    0 -0.47224549319E+01  0.37887094359E+02 -0.20892395895E+02  0.43522703340E+02  0.51100000000E-03 0. -1.
        -11    1    3    3    0    0 -0.39892305618E+01 -0.35659369405E+01  0.67641342403E+01  0.86245799330E+01  0.51100000000E-03 0.  1.
        -12    1    3    3    0    0  0.97497124408E+01 -0.33897353998E+02  0.13759565119E+02  0.37860442853E+02  0.00000000000E+00 0.  1.
</event>
<event>
 7    1  0.1501154E-015  0.9000771E+02  0.7816164E-02  0.1186339E+00
        -11   -1    0    0    0    0  0.00000000000E+00  0.00000000000E+00  0.45593999997E+02  0.45594000000E+02  0.51100000000E-03 0.  1.
         11   -1    0    0    0    0 -0.00000000000E+00 -0.00000000000E+00 -0.45593999997E+02  0.45594000000E+02  0.51100000000E-03 0. -1.
    9900012    2    1    2    0    0 -0.61612579298E+00 -0.75055407572E+00  0.67092045590E+00  0.90007713310E+02  0.89999974325E+02 0.  0.
         12    1    1    2    0    0  0.61612579298E+00  0.75055407572E+00 -0.67092045590E+00  0.11802866904E+01  0.00000000000E+00 0. -1.
         11    1    3    3    0    0 -0.18851578734E+01  0.32973794580E+01  0.98366410685E+01  0.10544479090E+02  0.51100000000E-03 0. -1.
        -11    1    3    3    0    0 -0.30835322996E+02 -0.98700975325E+01  0.17967047743E+02  0.37027702797E+02  0.51100000000E-03 0.  1.
         12    1    3    3    0    0  0.32104355076E+02  0.58221639988E+01 -0.27132768356E+02  0.42435531423E+02  0.00000000000E+00 0. -1.
</event>
<event>
 7    1  0.1501154E-015  0.9000759E+02  0.7816164E-02  0.1186339E+00
        -11   -1    0    0    0    0  0.00000000000E+00  0.00000000000E+00  0.45593999997E+02  0.45594000000E+02  0.51100000000E-03 0.  1.
         11   -1    0    0    0    0 -0.00000000000E+00 -0.00000000000E+00 -0.45593999997E+02  0.45594000000E+02  0.51100000000E-03 0. -1.
    9900012    2    1    2    0    0  0.19234332939E-01 -0.18528904801E+00  0.11656223176E+01  0.90007585929E+02  0.89999845263E+02 0.  0.
         12    1    1    2    0    0 -0.19234332939E-01  0.18528904801E+00 -0.11656223176E+01  0.11804140707E+01  0.00000000000E+00 0. -1.
         11    1    3    3    0    0 -0.26398469040E+02 -0.15931200946E+02 -0.21677450651E+02  0.37690770730E+02  0.51100000000E-03 0. -1.
        -11    1    3    3    0    0 -0.40980987036E+01  0.63584884004E+00 -0.62691465544E+01  0.75167090880E+01  0.51100000000E-03 0.  1.
        -12    1    3    3    0    0  0.30515802077E+02  0.15110063058E+02  0.29112219523E+02  0.44800106111E+02  0.00000000000E+00 0.  1.
</event>
<event>
 7    1  0.1501154E-015  0.9000772E+02  0.7816164E-02  0.1186339E+00
        -11   -1    0    0    0    0  0.00000000000E+00  0.00000000000E+00  0.45593999997E+02  0.45594000000E+02  0.51100000000E-03 0.  1.
         11   -1    0    0    0    0 -0.00000000000E+00 -0.00000000000E+00 -0.45593999997E+02  0.45594000000E+02  0.51100000000E-03 0. -1.
    9900012    2    1    2    0    0  0.10682817586E+00 -0.10725376402E+01 -0.48094699239E+00  0.90007720686E+02  0.89999981799E+02 0.  0.
         12    1    1    2    0    0 -0.10682817586E+00  0.10725376402E+01  0.48094699239E+00  0.11802793137E+01  0.00000000000E+00 0. -1.
         11    1    3    3    0    0  0.34431830312E+02  0.39725478792E+01 -0.14476539638E+02  0.37561979120E+02  0.51100000000E-03 0. -1.
        -11    1    3    3    0    0  0.79601859480E+01 -0.11835666872E+01  0.29511617029E+01  0.85717411351E+01  0.51100000000E-03 0.  1.
        -12    1    3    3    0    0 -0.42285188084E+02 -0.38615188322E+01  0.11044430943E+02  0.43874000431E+02  0.00000000000E+00 0.  1.
</event>
<event>
 7    1  0.1501154E-015  0.9000773E+02  0.7816164E-02  0.1186339E+00
        -11   -1    0    0    0    0  0.00000000000E+00  0.00000000000E+00  0.45593999997E+02  0.45594000000E+02  0.51100000000E-03 0.  1.
         11   -1    0    0    0    0 -0.00000000000E+00 -0.00000000000E+00 -0.45593999997E+02  0.45594000000E+02  0.51100000000E-03 0. -1.
    9900012    2    1    2    0    0 -0.72310689990E+00 -0.75300625920E+00 -0.55056957283E+00  0.90007733560E+02  0.89999994843E+02 0.  0.
         12    1    1    2    0    0  0.72310689990E+00  0.75300625920E+00  0.55056957283E+00  0.11802664401E+01  0.00000000000E+00 0. -1.
         11    1    3    3    0    0  0.24952875725E+01 -0.16682370626E+01  0.70352983281E+01  0.76488494424E+01  0.51100000000E-03 0. -1.
        -11    1    3    3    0    0  0.12049522270E+02  0.75082711598E+01  0.34391742388E+02  0.37206949183E+02  0.51100000000E-03 0.  1.
         12    1    3    3    0    0 -0.15267916743E+02 -0.65930403565E+01 -0.41977610289E+02  0.45151934935E+02  0.00000000000E+00 0. -1.
</event>
<event>
 7    1  0.1501154E-015  0.9000774E+02  0.7816164E-02  0.1186339E+00
        -11   -1    0    0    0    0  0.00000000000E+00  0.00000000000E+00  0.45593999997E+02  0.45594000000E+02  0.51100000000E-03 0.  1.
         11   -1    0    0    0    0 -0.00000000000E+00 -0.00000000000E+00 -0.45593999997E+02  0.45594000000E+02  0.51100000000E-03 0. -1.
    9900012    2    1    2    0    0 -0.35341387401E-01 -0.10620393771E+01  0.51364412472E+00  0.90007742851E+02  0.90000004256E+02 0.  0.
         12    1    1    2    0    0  0.35341387401E-01  0.10620393771E+01 -0.51364412472E+00  0.11802571495E+01  0.00000000000E+00 0. -1.
         11    1    3    3    0    0  0.10764883345E+02 -0.81201933130E+01 -0.83800494228E+01  0.15875940333E+02  0.51100000000E-03 0. -1.
        -11    1    3    3    0    0 -0.34213032215E+02  0.10554041907E+01  0.27274220240E+02  0.43766751551E+02  0.51100000000E-03 0.  1.
         12    1    3    3    0    0  0.23412807483E+02  0.60027497453E+01 -0.18380526692E+02  0.30365050967E+02  0.00000000000E+00 0. -1.
</event>
<event>
 7    1  0.1501154E-015  0.9000791E+02  0.7816164E-02  0.1186339E+00
        -11   -1    0    0    0    0  0.00000000000E+00  0.00000000000E+00  0.45593999997E+02  0.45594000000E+02  0.51100000000E-03 0.  1.
         11   -1    0    0    0    0 -0.00000000000E+00 -0.00000000000E+00 -0.45593999997E+02  0.45594000000E+02  0.51100000000E-03 0. -1.
    9900012    2    1    2    0    0  0.71720814349E+00  0.91654135348E+00  0.19540973570E+00  0.90007906555E+02  0.90000170122E+02 0.  0.
         12    1    1    2    0    0 -0.71720814349E+00 -0.91654135348E+00 -0.19540973570E+00  0.11800934448E+01  0.00000000000E+00 0. -1.
         11    1    3    3    0    0 -0.52706894359E+01  0.87343052569E+01  0.62341913217E+00  0.10220416191E+02  0.51100000000E-03 0. -1.
        -11    1    3    3    0    0  0.21473730959E+02  0.25425046714E+02  0.18963301224E+02  0.38303536589E+02  0.51100000000E-03 0.  1.
         12    1    3    3    0    0 -0.15485833379E+02 -0.33242810617E+02 -0.19391310621E+02  0.41483953774E+02  0.00000000000E+00 0. -1.
</event>
<event>
 7    1  0.1501154E-015  0.9000770E+02  0.7816164E-02  0.1186339E+00
        -11   -1    0    0    0    0  0.00000000000E+00  0.00000000000E+00  0.45593999997E+02  0.45594000000E+02  0.51100000000E-03 0.  1.
         11   -1    0    0    0    0 -0.00000000000E+00 -0.00000000000E+00 -0.45593999997E+02  0.45594000000E+02  0.51100000000E-03 0. -1.
    9900012    2    1    2    0    0  0.92668152727E+00 -0.69361260612E+00  0.23079571342E+00  0.90007701834E+02  0.89999962698E+02 0.  0.
         12    1    1    2    0    0 -0.92668152727E+00  0.69361260612E+00 -0.23079571342E+00  0.11802981664E+01  0.00000000000E+00 0. -1.
         11    1    3    3    0    0 -0.10757182510E+02  0.29939620847E+02 -0.15968596426E+02  0.35596263063E+02  0.51100000000E-03 0. -1.
        -11    1    3    3    0    0 -0.95163546193E+01  0.34001312668E+01 -0.21245503299E+01  0.10326452064E+02  0.51100000000E-03 0.  1.
        -12    1    3    3    0    0  0.21200218656E+02 -0.34033364720E+02  0.18323942469E+02  0.44084986706E+02  0.00000000000E+00 0.  1.
</event>
<event>
 7    1  0.1501154E-015  0.9000789E+02  0.7816164E-02  0.1186339E+00
        -11   -1    0    0    0    0  0.00000000000E+00  0.00000000000E+00  0.45593999997E+02  0.45594000000E+02  0.51100000000E-03 0.  1.
         11   -1    0    0    0    0 -0.00000000000E+00 -0.00000000000E+00 -0.45593999997E+02  0.45594000000E+02  0.51100000000E-03 0. -1.
    9900012    2    1    2    0    0  0.10363372694E+01 -0.54297988003E+00 -0.15436107384E+00  0.90007894315E+02  0.90000157720E+02 0.  0.
         12    1    1    2    0    0 -0.10363372694E+01  0.54297988003E+00  0.15436107384E+00  0.11801056847E+01  0.00000000000E+00 0. -1.
         11    1    3    3    0    0 -0.16959622671E+02  0.14556531120E+01 -0.31022377335E+02  0.35385528439E+02  0.51100000000E-03 0. -1.
        -11    1    3    3    0    0  0.29701809686E+00  0.84077578805E+00 -0.99771710469E+01  0.10016938955E+02  0.51100000000E-03 0.  1.
        -12    1    3    3    0    0  0.17698941844E+02 -0.28394087800E+01  0.40845187308E+02  0.44605426921E+02  0.00000000000E+00 0.  1.
</event>
<event>
 7    1  0.1501154E-015  0.9000776E+02  0.7816164E-02  0.1186339E+00
        -11   -1    0    0    0    0  0.00000000000E+00  0.00000000000E+00  0.45593999997E+02  0.45594000000E+02  0.51100000000E-03 0.  1.
         11   -1    0    0    0    0 -0.00000000000E+00 -0.00000000000E+00 -0.45593999997E+02  0.45594000000E+02  0.51100000000E-03 0. -1.
    9900012    2    1    2    0    0  0.11102784577E+01  0.38597219213E+00 -0.10620038622E+00  0.90007757945E+02  0.90000019550E+02 0.  0.
         12    1    1    2    0    0 -0.11102784577E+01 -0.38597219213E+00  0.10620038622E+00  0.11802420551E+01  0.00000000000E+00 0. -1.
         11    1    3    3    0    0 -0.17569744913E+02  0.15207697527E+02 -0.28473794542E+02  0.36752237704E+02  0.51100000000E-03 0. -1.
        -11    1    3    3    0    0 -0.36689846475E+01 -0.29611774138E+00 -0.76254914343E+01  0.84674230989E+01  0.51100000000E-03 0.  1.
        -12    1    3    3    0    0  0.22349008018E+02 -0.14525607593E+02  0.35993085590E+02  0.44788097142E+02  0.00000000000E+00 0.  1.
</event>
<event>
 7    1  0.1501154E-015  0.9000782E+02  0.7816164E-02  0.1186339E+00
        -11   -1    0    0    0    0  0.00000000000E+00  0.00000000000E+00  0.45593999997E+02  0.45594000000E+02  0.51100000000E-03 0. -1.
         11   -1    0    0    0    0 -0.00000000000E+00 -0.00000000000E+00 -0.45593999997E+02  0.45594000000E+02  0.51100000000E-03 0.  1.
    9900012    2    1    2    0    0 -0.12289483733E+00 -0.26487452696E+00  0.11434851762E+01  0.90007822046E+02  0.90000084497E+02 0.  0.
         12    1    1    2    0    0  0.12289483733E+00  0.26487452696E+00 -0.11434851762E+01  0.11801779545E+01  0.00000000000E+00 0. -1.
         11    1    3    3    0    0 -0.46608722917E+01  0.52800384005E+01 -0.81454451580E+01  0.10768045928E+02  0.51100000000E-03 0. -1.
        -11    1    3    3    0    0 -0.21505995160E+02  0.23450464498E+02 -0.12965626983E+02  0.34358981305E+02  0.51100000000E-03 0.  1.
         12    1    3    3    0    0  0.26043972614E+02 -0.28995377426E+02  0.22254557317E+02  0.44880794812E+02  0.00000000000E+00 0. -1.
</event>
<event>
 7    1  0.1501154E-015  0.9000797E+02  0.7816164E-02  0.1186339E+00
        -11   -1    0    0    0    0  0.00000000000E+00  0.00000000000E+00  0.45593999997E+02  0.45594000000E+02  0.51100000000E-03 0. -1.
         11   -1    0    0    0    0 -0.00000000000E+00 -0.00000000000E+00 -0.45593999997E+02  0.45594000000E+02  0.51100000000E-03 0.  1.
    9900012    2    1    2    0    0  0.25773751052E-01  0.11149712787E+01  0.38554729172E+00  0.90007969512E+02  0.90000233909E+02 0.  0.
         12    1    1    2    0    0 -0.25773751052E-01 -0.11149712787E+01 -0.38554729172E+00  0.11800304880E+01  0.00000000000E+00 0. -1.
         11    1    3    3    0    0 -0.15927315431E+02 -0.25609783185E+02  0.18559337922E+02  0.35411712695E+02  0.51100000000E-03 0. -1.
        -11    1    3    3    0    0 -0.45842158519E+01 -0.12546073087E+01  0.92249333049E+01  0.10377305489E+02  0.51100000000E-03 0.  1.
        -12    1    3    3    0    0  0.20537305034E+02  0.27979361772E+02 -0.27398723936E+02  0.44218951328E+02  0.00000000000E+00 0.  1.
</event>
<event>
 7    1  0.1501154E-015  0.9000751E+02  0.7816164E-02  0.1186340E+00
        -11   -1    0    0    0    0  0.00000000000E+00  0.00000000000E+00  0.45593999997E+02  0.45594000000E+02  0.51100000000E-03 0.  1.
         11   -1    0    0    0    0 -0.00000000000E+00 -0.00000000000E+00 -0.45593999997E+02  0.45594000000E+02  0.51100000000E-03 0. -1.
    9900012    2    1    2    0    0  0.84702977755E+00 -0.43869160652E+00  0.69545017154E+00  0.90007508276E+02  0.89999766585E+02 0.  0.
         12    1    1    2    0    0 -0.84702977755E+00  0.43869160652E+00 -0.69545017154E+00  0.11804917241E+01  0.00000000000E+00 0. -1.
         11    1    3    3    0    0 -0.41837831043E+01  0.25522837813E+02  0.25090244390E+02  0.36033868165E+02  0.51100000000E-03 0. -1.
        -11    1    3    3    0    0  0.13144307251E+02  0.58597065889E+01 -0.27746030920E+01  0.14656309119E+02  0.51100000000E-03 0.  1.
        -12    1    3    3    0    0 -0.81134943688E+01 -0.31821236008E+02 -0.21620191127E+02  0.39317330992E+02  0.00000000000E+00 0.  1.
</event>
<event>
 7    1  0.1501154E-015  0.9000769E+02  0.7816164E-02  0.1186339E+00
        -11   -1    0    0    0    0  0.00000000000E+00  0.00000000000E+00  0.45593999997E+02  0.45594000000E+02  0.51100000000E-03 0.  1.
         11   -1    0    0    0    0 -0.00000000000E+00 -0.00000000000E+00 -0.45593999997E+02  0.45594000000E+02  0.51100000000E-03 0. -1.
    9900012    2    1    2    0    0 -0.79790847526E+00  0.74799775200E+00  0.44381287401E+00  0.90007691380E+02  0.89999952106E+02 0.  0.
         12    1    1    2    0    0  0.79790847526E+00 -0.74799775200E+00 -0.44381287401E+00  0.11803086202E+01  0.00000000000E+00 0. -1.
         11    1    3    3    0    0  0.20062227681E+02  0.23987971400E+02  0.17460375801E+02  0.35815924877E+02  0.51100000000E-03 0. -1.
        -11    1    3    3    0    0  0.40702759527E+01  0.67933052142E+01  0.50122337088E+01  0.93722264739E+01  0.51100000000E-03 0.  1.
        -12    1    3    3    0    0 -0.24930412109E+02 -0.30033278862E+02 -0.22028796636E+02  0.44819540029E+02  0.00000000000E+00 0.  1.
</event>
<event>
 7    1  0.1501154E-015  0.9000781E+02  0.7816164E-02  0.1186339E+00
        -11   -1    0    0    0    0  0.00000000000E+00  0.00000000000E+00  0.45593999997E+02  0.45594000000E+02  0.51100000000E-03 0. -1.
         11   -1    0    0    0    0 -0.00000000000E+00 -0.00000000000E+00 -0.45593999997E+02  0.45594000000E+02  0.51100000000E-03 0.  1.
    9900012    2    1    2    0    0 -0.17423289975E+00  0.94340136466E+00  0.68738337216E+00  0.90007805466E+02  0.90000067698E+02 0.  0.
         12    1    1    2    0    0  0.17423289975E+00 -0.94340136466E+00 -0.68738337216E+00  0.11801945342E+01  0.00000000000E+00 0. -1.
         11    1    3    3    0    0 -0.98423471456E+01  0.21469777236E+01  0.40178603862E+01  0.10845483531E+02  0.51100000000E-03 0. -1.
        -11    1    3    3    0    0 -0.16210159398E+02  0.22996833461E+02 -0.24993412365E+02  0.37633685427E+02  0.51100000000E-03 0.  1.
         12    1    3    3    0    0  0.25878273643E+02 -0.24200409820E+02  0.21662935351E+02  0.41528636508E+02  0.00000000000E+00 0. -1.
</event>
<event>
 7    1  0.1501154E-015  0.9000752E+02  0.7816164E-02  0.1186339E+00
        -11   -1    0    0    0    0  0.00000000000E+00  0.00000000000E+00  0.45593999997E+02  0.45594000000E+02  0.51100000000E-03 0.  1.
         11   -1    0    0    0    0 -0.00000000000E+00 -0.00000000000E+00 -0.45593999997E+02  0.45594000000E+02  0.51100000000E-03 0. -1.
    9900012    2    1    2    0    0 -0.34917667741E+00 -0.67081817906E+00  0.90642833610E+00  0.90007519712E+02  0.89999778172E+02 0.  0.
         12    1    1    2    0    0  0.34917667741E+00  0.67081817906E+00 -0.90642833610E+00  0.11804802878E+01  0.00000000000E+00 0. -1.
         11    1    3    3    0    0 -0.65024001061E+01 -0.47681652248E+00 -0.64537368435E+01  0.91738367460E+01  0.51100000000E-03 0. -1.
        -11    1    3    3    0    0 -0.33416947705E+01  0.24914479776E+02  0.34483074727E+02  0.42672950089E+02  0.51100000000E-03 0.  1.
         12    1    3    3    0    0  0.94949181992E+01 -0.25108481432E+02 -0.27122909547E+02  0.38160732877E+02  0.00000000000E+00 0. -1.
</event>
<event>
 7    1  0.1501154E-015  0.9000777E+02  0.7816164E-02  0.1186339E+00
        -11   -1    0    0    0    0  0.00000000000E+00  0.00000000000E+00  0.45593999997E+02  0.45594000000E+02  0.51100000000E-03 0.  1.
         11   -1    0    0    0    0 -0.00000000000E+00 -0.00000000000E+00 -0.45593999997E+02  0.45594000000E+02  0.51100000000E-03 0. -1.
    9900012    2    1    2    0    0 -0.27625718527E+00 -0.52422185298E+00  0.10206883908E+01  0.90007774863E+02  0.90000036691E+02 0.  0.
         12    1    1    2    0    0  0.27625718527E+00  0.52422185298E+00 -0.10206883908E+01  0.11802251373E+01  0.00000000000E+00 0. -1.
         11    1    3    3    0    0 -0.76843992093E+01  0.13937128842E+02 -0.27149153530E+00  0.15917514237E+02  0.51100000000E-03 0. -1.
        -11    1    3    3    0    0 -0.22148333884E+01 -0.34879725579E+02  0.23744541351E+02  0.42252857745E+02  0.51100000000E-03 0.  1.
         12    1    3    3    0    0  0.96229754124E+01  0.20418374883E+02 -0.22452361425E+02  0.31837402881E+02  0.00000000000E+00 0. -1.
</event>
<event>
 7    1  0.1501154E-015  0.9000773E+02  0.7816164E-02  0.1186339E+00
        -11   -1    0    0    0    0  0.00000000000E+00  0.00000000000E+00  0.45593999997E+02  0.45594000000E+02  0.51100000000E-03 0.  1.
         11   -1    0    0    0    0 -0.00000000000E+00 -0.00000000000E+00 -0.45593999997E+02  0.45594000000E+02  0.51100000000E-03 0. -1.
    9900012    2    1    2    0    0  0.53413343540E+00 -0.96503868540E+00  0.42004110018E+00  0.90007731930E+02  0.89999993192E+02 0.  0.
         12    1    1    2    0    0 -0.53413343540E+00  0.96503868540E+00 -0.42004110018E+00  0.11802680700E+01  0.00000000000E+00 0. -1.
         11    1    3    3    0    0  0.90324223924E+01 -0.28285321635E+01  0.14313748709E+01  0.95725692871E+01  0.51100000000E-03 0. -1.
        -11    1    3    3    0    0 -0.11899787567E+02  0.31670849657E+02  0.23914046652E+02  0.41431018448E+02  0.51100000000E-03 0.  1.
         12    1    3    3    0    0  0.34014986095E+01 -0.29807356179E+02 -0.24925380422E+02  0.39004144195E+02  0.00000000000E+00 0. -1.
</event>
<event>
 7    1  0.1501154E-015  0.9000767E+02  0.7816164E-02  0.1186339E+00
        -11   -1    0    0    0    0  0.00000000000E+00  0.00000000000E+00  0.45593999997E+02  0.45594000000E+02  0.51100000000E-03 0.  1.
         11   -1    0    0    0    0 -0.00000000000E+00 -0.00000000000E+00 -0.45593999997E+02  0.45594000000E+02  0.51100000000E-03 0. -1.
    9900012    2    1    2    0    0 -0.99783226610E+00 -0.62450749030E+00  0.86549510391E-01  0.90007673920E+02  0.89999934416E+02 0.  0.
         12    1    1    2    0    0  0.99783226610E+00  0.62450749030E+00 -0.86549510391E-01  0.11803260797E+01  0.00000000000E+00 0. -1.
         11    1    3    3    0    0  0.29394152431E+01 -0.45401497221E+01  0.74018005902E+01  0.91673209668E+01  0.51100000000E-03 0. -1.
        -11    1    3    3    0    0 -0.35748186632E+02 -0.13293786068E+02 -0.19291607577E+02  0.42741358410E+02  0.51100000000E-03 0.  1.
         12    1    3    3    0    0  0.31810939123E+02  0.17209428300E+02  0.11976356497E+02  0.38098994544E+02  0.00000000000E+00 0. -1.
</event>
<event>
 7    1  0.1501154E-015  0.9000802E+02  0.7816164E-02  0.1186338E+00
        -11   -1    0    0    0    0  0.00000000000E+00  0.00000000000E+00  0.45593999997E+02  0.45594000000E+02  0.51100000000E-03 0.  1.
         11   -1    0    0    0    0 -0.00000000000E+00 -0.00000000000E+00 -0.45593999997E+02  0.45594000000E+02  0.51100000000E-03 0. -1.
    9900012    2    1    2    0    0 -0.42590519756E+00 -0.89854699706E+00  0.63527615433E+00  0.90008017909E+02  0.90000282945E+02 0.  0.
         12    1    1    2    0    0  0.42590519756E+00  0.89854699706E+00 -0.63527615433E+00  0.11799820912E+01  0.00000000000E+00 0. -1.
         11    1    3    3    0    0  0.57059294032E+01  0.66983013560E+01  0.34782048311E+01  0.94616478754E+01  0.51100000000E-03 0. -1.
        -11    1    3    3    0    0  0.12268580459E+02 -0.24477420153E+02  0.29130140060E+02  0.39977834158E+02  0.51100000000E-03 0.  1.
         12    1    3    3    0    0 -0.18400415059E+02  0.16880571800E+02 -0.31973068736E+02  0.40568535875E+02  0.00000000000E+00 0. -1.
</event>
<event>
 7    1  0.1501154E-015  0.9000776E+02  0.7816164E-02  0.1186339E+00
        -11   -1    0    0    0    0  0.00000000000E+00  0.00000000000E+00  0.45593999997E+02  0.45594000000E+02  0.51100000000E-03 0. -1.
         11   -1    0    0    0    0 -0.00000000000E+00 -0.00000000000E+00 -0.45593999997E+02  0.45594000000E+02  0.51100000000E-03 0.  1.
    9900012    2    1    2    0    0 -0.74922294438E+00  0.76045282102E+00 -0.50334220954E+00  0.90007755579E+02  0.90000017153E+02 0.  0.
         12    1    1    2    0    0  0.74922294438E+00 -0.76045282102E+00  0.50334220954E+00  0.11802444210E+01  0.00000000000E+00 0. -1.
         11    1    3    3    0    0 -0.76593484700E+01  0.14968574046E+01  0.18505438364E+01  0.80206429808E+01  0.51100000000E-03 0. -1.
        -11    1    3    3    0    0  0.10766033412E+01 -0.19140284112E+02 -0.37370587804E+02  0.42000837893E+02  0.51100000000E-03 0.  1.
         12    1    3    3    0    0  0.58335221844E+01  0.18403879528E+02  0.35016701758E+02  0.39986274705E+02  0.00000000000E+00 0. -1.
</event>
<event>
 7    1  0.1501154E-015  0.9000772E+02  0.7816164E-02  0.1186339E+00
        -11   -1    0    0    0    0  0.00000000000E+00  0.00000000000E+00  0.45593999997E+02  0.45594000000E+02  0.51100000000E-03 0.  1.
         11   -1    0    0    0    0 -0.00000000000E+00 -0.00000000000E+00 -0.45593999997E+02  0.45594000000E+02  0.51100000000E-03 0. -1.
    9900012    2    1    2    0    0  0.16331928059E+00  0.14333687117E+00  0.11601060205E+01  0.90007718413E+02  0.89999979496E+02 0.  0.
         12    1    1    2    0    0 -0.16331928059E+00 -0.14333687117E+00 -0.11601060205E+01  0.11802815871E+01  0.00000000000E+00 0. -1.
         11    1    3    3    0    0 -0.24925966070E+01  0.25287446228E+02 -0.23793452766E+02  0.34810865680E+02  0.51100000000E-03 0. -1.
        -11    1    3    3    0    0 -0.33710622572E+01  0.68042148757E+01 -0.64737671739E+01  0.99785300771E+01  0.51100000000E-03 0.  1.
        -12    1    3    3    0    0  0.60269781448E+01 -0.31948324233E+02  0.31427325960E+02  0.45218322656E+02  0.00000000000E+00 0.  1.
</event>
<event>
 7    1  0.1501154E-015  0.9000785E+02  0.7816164E-02  0.1186339E+00
        -11   -1    0    0    0    0  0.00000000000E+00  0.00000000000E+00  0.45593999997E+02  0.45594000000E+02  0.51100000000E-03 0. -1.
         11   -1    0    0    0    0 -0.00000000000E+00 -0.00000000000E+00 -0.45593999997E+02  0.45594000000E+02  0.51100000000E-03 0.  1.
    9900012    2    1    2    0    0 -0.24610147367E+00 -0.92041696747E+00 -0.69643011310E+00  0.90007852453E+02  0.90000115306E+02 0.  0.
         12    1    1    2    0    0  0.24610147367E+00  0.92041696747E+00  0.69643011310E+00  0.11801475466E+01  0.00000000000E+00 0. -1.
         11    1    3    3    0    0 -0.11855503883E+02 -0.25453761410E+02  0.17496138438E+02  0.33084162415E+02  0.51100000000E-03 0. -1.
        -11    1    3    3    0    0 -0.63327108140E+01 -0.95100476988E+01  0.44647214018E+01  0.12266946276E+02  0.51100000000E-03 0.  1.
        -12    1    3    3    0    0  0.17942113223E+02  0.34043392141E+02 -0.22657289953E+02  0.44656743762E+02  0.00000000000E+00 0.  1.
</event>
<event>
 7    1  0.1501154E-015  0.9000750E+02  0.7816164E-02  0.1186340E+00
        -11   -1    0    0    0    0  0.00000000000E+00  0.00000000000E+00  0.45593999997E+02  0.45594000000E+02  0.51100000000E-03 0. -1.
         11   -1    0    0    0    0 -0.00000000000E+00 -0.00000000000E+00 -0.45593999997E+02  0.45594000000E+02  0.51100000000E-03 0.  1.
    9900012    2    1    2    0    0 -0.59926838949E+00  0.28699239594E+00 -0.97575128150E+00  0.90007501037E+02  0.89999759251E+02 0.  0.
         12    1    1    2    0    0  0.59926838949E+00 -0.28699239594E+00  0.97575128150E+00  0.11804989629E+01  0.00000000000E+00 0. -1.
         11    1    3    3    0    0 -0.13213854877E+02 -0.11018918539E+02 -0.19889429567E+02  0.26298515837E+02  0.51100000000E-03 0. -1.
        -11    1    3    3    0    0  0.89176043930E+01 -0.20992205994E+01 -0.20208954532E+02  0.22188560990E+02  0.51100000000E-03 0.  1.
         12    1    3    3    0    0  0.36969820948E+01  0.13405131534E+02  0.39122632818E+02  0.41520424211E+02  0.00000000000E+00 0. -1.
</event>
<event>
 7    1  0.1501154E-015  0.9000763E+02  0.7816164E-02  0.1186339E+00
        -11   -1    0    0    0    0  0.00000000000E+00  0.00000000000E+00  0.45593999997E+02  0.45594000000E+02  0.51100000000E-03 0. -1.
         11   -1    0    0    0    0 -0.00000000000E+00 -0.00000000000E+00 -0.45593999997E+02  0.45594000000E+02  0.51100000000E-03 0.  1.
    9900012    2    1    2    0    0  0.38672739855E+00 -0.51313133795E+00 -0.99015448591E+00  0.90007632364E+02  0.89999892311E+02 0.  0.
         12    1    1    2    0    0 -0.38672739855E+00  0.51313133795E+00  0.99015448591E+00  0.11803676363E+01  0.00000000000E+00 0. -1.
         11    1    3    3    0    0  0.89896053301E+01  0.48222829058E+01 -0.46295541272E+01  0.11202686646E+02  0.51100000000E-03 0. -1.
        -11    1    3    3    0    0  0.30255509000E+02 -0.19737749436E+02 -0.50106231048E+01  0.36470274496E+02  0.51100000000E-03 0.  1.
         12    1    3    3    0    0 -0.38858386932E+02  0.14402335192E+02  0.86500227460E+01  0.42334671222E+02  0.00000000000E+00 0. -1.
</event>
<event>
 7    1  0.1501154E-015  0.9000776E+02  0.7816164E-02  0.1186339E+00
        -11   -1    0    0    0    0  0.00000000000E+00  0.00000000000E+00  0.45593999997E+02  0.45594000000E+02  0.51100000000E-03 0. -1.
         11   -1    0    0    0    0 -0.00000000000E+00 -0.00000000000E+00 -0.45593999997E+02  0.45594000000E+02  0.51100000000E-03 0.  1.
    9900012    2    1    2    0    0  0.60961357291E-01  0.58716204680E+00 -0.10220009259E+01  0.90007762122E+02  0.90000023782E+02 0.  0.
         12    1    1    2    0    0 -0.60961357291E-01 -0.58716204680E+00  0.10220009259E+01  0.11802378780E+01  0.00000000000E+00 0. -1.
         11    1    3    3    0    0 -0.90750818600E+00 -0.77430928932E-01  0.10925018917E+02  0.10962919559E+02  0.51100000000E-03 0. -1.
        -11    1    3    3    0    0 -0.49323622816E+00  0.25976010960E+02  0.23790311072E+02  0.35227479736E+02  0.51100000000E-03 0.  1.
         12    1    3    3    0    0  0.14617057715E+01 -0.25311417985E+02 -0.35737330915E+02  0.43817362827E+02  0.00000000000E+00 0. -1.
</event>
<event>
 7    1  0.1501154E-015  0.9000785E+02  0.7816164E-02  0.1186339E+00
        -11   -1    0    0    0    0  0.00000000000E+00  0.00000000000E+00  0.45593999997E+02  0.45594000000E+02  0.51100000000E-03 0. -1.
         11   -1    0    0    0    0 -0.00000000000E+00 -0.00000000000E+00 -0.45593999997E+02  0.45594000000E+02  0.51100000000E-03 0.  1.
    9900012    2    1    2    0    0  0.43183882061E-01  0.33591921097E+00 -0.11305098391E+01  0.90007847866E+02  0.90000110657E+02 0.  0.
         12    1    1    2    0    0 -0.43183882061E-01 -0.33591921097E+00  0.11305098391E+01  0.11801521344E+01  0.00000000000E+00 0. -1.
         11    1    3    3    0    0  0.10259421087E+02 -0.29712704187E+01 -0.81235126037E+00  0.10711866493E+02  0.51100000000E-03 0. -1.
        -11    1    3    3    0    0 -0.13902196514E+02 -0.36342889472E+02 -0.48738748598E+01  0.39215192712E+02  0.51100000000E-03 0.  1.
         12    1    3    3    0    0  0.36859593092E+01  0.39650079101E+02  0.45557162811E+01  0.40080788660E+02  0.00000000000E+00 0. -1.
</event>
<event>
 7    1  0.1501154E-015  0.9000774E+02  0.7816164E-02  0.1186339E+00
        -11   -1    0    0    0    0  0.00000000000E+00  0.00000000000E+00  0.45593999997E+02  0.45594000000E+02  0.51100000000E-03 0.  1.
         11   -1    0    0    0    0 -0.00000000000E+00 -0.00000000000E+00 -0.45593999997E+02  0.45594000000E+02  0.51100000000E-03 0. -1.
    9900012    2    1    2    0    0 -0.94427671674E+00  0.23433811780E-01 -0.70767218596E+00  0.90007742577E+02  0.90000003979E+02 0.  0.
         12    1    1    2    0    0  0.94427671674E+00 -0.23433811780E-01  0.70767218596E+00  0.11802574228E+01  0.00000000000E+00 0. -1.
         11    1    3    3    0    0 -0.13437888121E+02 -0.27416624199E+02 -0.18402816614E+02  0.35649849638E+02  0.51100000000E-03 0. -1.
        -11    1    3    3    0    0  0.10176706993E+02 -0.96780556498E+01  0.68061740121E+01  0.15606220918E+02  0.51100000000E-03 0.  1.
        -12    1    3    3    0    0  0.23169044114E+01  0.37118113661E+02  0.10888970416E+02  0.38751672022E+02  0.00000000000E+00 0.  1.
</event>
<event>
 7    1  0.1501154E-015  0.9000781E+02  0.7816164E-02  0.1186339E+00
        -11   -1    0    0    0    0  0.00000000000E+00  0.00000000000E+00  0.45593999997E+02  0.45594000000E+02  0.51100000000E-03 0.  1.
         11   -1    0    0    0    0 -0.00000000000E+00 -0.00000000000E+00 -0.45593999997E+02  0.45594000000E+02  0.51100000000E-03 0. -1.
    9900012    2    1    2    0    0 -0.40156307717E+00 -0.87064833879E+00  0.68816633555E+00  0.90007807499E+02  0.90000069758E+02 0.  0.
         12    1    1    2    0    0  0.40156307717E+00  0.87064833879E+00 -0.68816633555E+00  0.11801925013E+01  0.00000000000E+00 0. -1.
         11    1    3    3    0    0 -0.83947003711E+01  0.40603805764E+02  0.89366820854E+01  0.42414671092E+02  0.51100000000E-03 0. -1.
        -11    1    3    3    0    0  0.88203194641E+01 -0.12752867284E+02  0.45186354180E+01  0.16150904795E+02  0.51100000000E-03 0.  1.
        -12    1    3    3    0    0 -0.82718217020E+00 -0.28721586819E+02 -0.12767151168E+02  0.31442231612E+02  0.00000000000E+00 0.  1.
</event>
<event>
 7    1  0.1501154E-015  0.9000775E+02  0.7816164E-02  0.1186339E+00
        -11   -1    0    0    0    0  0.00000000000E+00  0.00000000000E+00  0.45593999997E+02  0.45594000000E+02  0.51100000000E-03 0.  1.
         11   -1    0    0    0    0 -0.00000000000E+00 -0.00000000000E+00 -0.45593999997E+02  0.45594000000E+02  0.51100000000E-03 0. -1.
    9900012    2    1    2    0    0  0.37328200442E-01 -0.47647731250E+00  0.10791560206E+01  0.90007745053E+02  0.90000006487E+02 0.  0.
         12    1    1    2    0    0 -0.37328200442E-01  0.47647731250E+00 -0.10791560206E+01  0.11802549473E+01  0.00000000000E+00 0. -1.
         11    1    3    3    0    0  0.61536114087E+01  0.23266438272E+02 -0.29702720535E+02  0.38228859395E+02  0.51100000000E-03 0. -1.
        -11    1    3    3    0    0  0.10639507022E+02 -0.91001134599E+01  0.25533092467E+00  0.14002727191E+02  0.51100000000E-03 0.  1.
        -12    1    3    3    0    0 -0.16755790230E+02 -0.14642802124E+02  0.30526545631E+02  0.37776158466E+02  0.00000000000E+00 0.  1.
</event>
<event>
 7    1  0.2827385E-015  0.9000782E+02  0.7816164E-02  0.1186339E+00
        -11   -1    0    0    0    0  0.00000000000E+00  0.00000000000E+00  0.45593999997E+02  0.45594000000E+02  0.51100000000E-03 0. -1.
         11   -1    0    0    0    0 -0.00000000000E+00 -0.00000000000E+00 -0.45593999997E+02  0.45594000000E+02  0.51100000000E-03 0.  1.
    9900012    2    1    2    0    0  0.54259651043E+00 -0.68002688775E+00 -0.79748025190E+00  0.90007821076E+02  0.90000083514E+02 0.  0.
         12    1    1    2    0    0 -0.54259651043E+00  0.68002688775E+00  0.79748025190E+00  0.11801789243E+01  0.00000000000E+00 0. -1.
         11    1    3    3    0    0 -0.23969281550E+02 -0.11592682217E+02  0.28951004354E+02  0.39332904703E+02  0.51100000000E-03 0. -1.
        -11    1    3    3    0    0 -0.38948648996E+01 -0.65475206266E+01 -0.66457234590E+01  0.10109680484E+02  0.51100000000E-03 0.  1.
        -12    1    3    3    0    0  0.28406742960E+02  0.17460175956E+02 -0.23102761147E+02  0.40565235888E+02  0.00000000000E+00 0.  1.
</event>
<event>
 7    1  0.1501154E-015  0.9000770E+02  0.7816164E-02  0.1186339E+00
        -11   -1    0    0    0    0  0.00000000000E+00  0.00000000000E+00  0.45593999997E+02  0.45594000000E+02  0.51100000000E-03 0.  1.
         11   -1    0    0    0    0 -0.00000000000E+00 -0.00000000000E+00 -0.45593999997E+02  0.45594000000E+02  0.51100000000E-03 0. -1.
    9900012    2    1    2    0    0  0.86187442089E-01  0.49034836692E+00  0.10701570274E+01  0.90007700945E+02  0.89999961797E+02 0.  0.
         12    1    1    2    0    0 -0.86187442089E-01 -0.49034836692E+00 -0.10701570274E+01  0.11802990551E+01  0.00000000000E+00 0. -1.
         11    1    3    3    0    0  0.52847020339E+01  0.29078218557E+02  0.28155371293E+02  0.40819061760E+02  0.51100000000E-03 0. -1.
        -11    1    3    3    0    0 -0.25847962655E+00  0.40153232366E+01 -0.12500189276E+02  0.13131807363E+02  0.51100000000E-03 0.  1.
        -12    1    3    3    0    0 -0.49400349653E+01 -0.32603193427E+02 -0.14585024990E+02  0.36056831822E+02  0.00000000000E+00 0.  1.
</event>
<event>
 7    1  0.1501154E-015  0.9000782E+02  0.7816164E-02  0.1186339E+00
        -11   -1    0    0    0    0  0.00000000000E+00  0.00000000000E+00  0.45593999997E+02  0.45594000000E+02  0.51100000000E-03 0.  1.
         11   -1    0    0    0    0 -0.00000000000E+00 -0.00000000000E+00 -0.45593999997E+02  0.45594000000E+02  0.51100000000E-03 0. -1.
    9900012    2    1    2    0    0  0.39773196117E+00 -0.97760449513E+00  0.52813667622E+00  0.90007817976E+02  0.90000080373E+02 0.  0.
         12    1    1    2    0    0 -0.39773196117E+00  0.97760449513E+00 -0.52813667622E+00  0.11801820244E+01  0.00000000000E+00 0. -1.
         11    1    3    3    0    0  0.49137753749E+01  0.54105375245E+01  0.64267831892E+01  0.97325560446E+01  0.51100000000E-03 0. -1.
        -11    1    3    3    0    0  0.26017753439E+02 -0.19504989206E+02  0.19971693876E+02  0.38160668947E+02  0.51100000000E-03 0.  1.
         12    1    3    3    0    0 -0.30533796853E+02  0.13116847187E+02 -0.25870340389E+02  0.42114592984E+02  0.00000000000E+00 0. -1.
</event>
<event>
 7    1  0.2191243E-015  0.9000779E+02  0.7816164E-02  0.1186339E+00
        -11   -1    0    0    0    0  0.00000000000E+00  0.00000000000E+00  0.45593999997E+02  0.45594000000E+02  0.51100000000E-03 0. -1.
         11   -1    0    0    0    0 -0.00000000000E+00 -0.00000000000E+00 -0.45593999997E+02  0.45594000000E+02  0.51100000000E-03 0.  1.
    9900012    2    1    2    0    0  0.28270286270E+00 -0.47211817680E+00 -0.10440637512E+01  0.90007794256E+02  0.90000056340E+02 0.  0.
         12    1    1    2    0    0 -0.28270286270E+00  0.47211817680E+00  0.10440637512E+01  0.11802057439E+01  0.00000000000E+00 0. -1.
         11    1    3    3    0    0  0.27085075773E+02 -0.14567959835E+02  0.27913489325E+02  0.41532994956E+02  0.51100000000E-03 0. -1.
        -11    1    3    3    0    0 -0.94998629394E+01 -0.14681292106E+01  0.19266113002E+01  0.98038069447E+01  0.51100000000E-03 0.  1.
        -12    1    3    3    0    0 -0.17302509971E+02  0.15563970869E+02 -0.30884164377E+02  0.38670992356E+02  0.00000000000E+00 0.  1.
</event>
<event>
 7    1  0.1501154E-015  0.9000766E+02  0.7816164E-02  0.1186339E+00
        -11   -1    0    0    0    0  0.00000000000E+00  0.00000000000E+00  0.45593999997E+02  0.45594000000E+02  0.51100000000E-03 0.  1.
         11   -1    0    0    0    0 -0.00000000000E+00 -0.00000000000E+00 -0.45593999997E+02  0.45594000000E+02  0.51100000000E-03 0. -1.
    9900012    2    1    2    0    0 -0.65641678440E+00  0.96089149177E+00 -0.19748241734E+00  0.90007663286E+02  0.89999923641E+02 0.  0.
         12    1    1    2    0    0  0.65641678440E+00 -0.96089149177E+00  0.19748241734E+00  0.11803367142E+01  0.00000000000E+00 0. -1.
         11    1    3    3    0    0  0.25427449966E+02  0.25291354579E+02 -0.10857897876E+02  0.37471346050E+02  0.51100000000E-03 0. -1.
        -11    1    3    3    0    0 -0.60515746153E+00  0.89481399829E+01  0.49298400284E+01  0.10234195018E+02  0.51100000000E-03 0.  1.
        -12    1    3    3    0    0 -0.25478709289E+02 -0.33278603070E+02  0.57305754306E+01  0.42302122218E+02  0.00000000000E+00 0.  1.
</event>
<event>
 7    1  0.1501154E-015  0.9000765E+02  0.7816164E-02  0.1186339E+00
        -11   -1    0    0    0    0  0.00000000000E+00  0.00000000000E+00  0.45593999997E+02  0.45594000000E+02  0.51100000000E-03 0.  1.
         11   -1    0    0    0    0 -0.00000000000E+00 -0.00000000000E+00 -0.45593999997E+02  0.45594000000E+02  0.51100000000E-03 0. -1.
    9900012    2    1    2    0    0  0.10105809277E+01  0.56222950418E+00  0.23632880618E+00  0.90007649573E+02  0.89999909747E+02 0.  0.
         12    1    1    2    0    0 -0.10105809277E+01 -0.56222950418E+00 -0.23632880618E+00  0.11803504274E+01  0.00000000000E+00 0. -1.
         11    1    3    3    0    0 -0.20976174415E+01  0.10315124469E+02  0.14518198810E+00  0.10527244170E+02  0.51100000000E-03 0. -1.
        -11    1    3    3    0    0 -0.73841659414E+01  0.31723279702E+02  0.12573417135E+02  0.34913939915E+02  0.51100000000E-03 0.  1.
         12    1    3    3    0    0  0.10492364311E+02 -0.41476174666E+02 -0.12482270317E+02  0.44566465488E+02  0.00000000000E+00 0. -1.
</event>
<event>
 7    1  0.1501154E-015  0.9000783E+02  0.7816164E-02  0.1186339E+00
        -11   -1    0    0    0    0  0.00000000000E+00  0.00000000000E+00  0.45593999997E+02  0.45594000000E+02  0.51100000000E-03 0. -1.
         11   -1    0    0    0    0 -0.00000000000E+00 -0.00000000000E+00 -0.45593999997E+02  0.45594000000E+02  0.51100000000E-03 0.  1.
    9900012    2    1    2    0    0 -0.55740747298E+00 -0.68326249379E+00 -0.78437947342E+00  0.90007829722E+02  0.90000092274E+02 0.  0.
         12    1    1    2    0    0  0.55740747298E+00  0.68326249379E+00  0.78437947342E+00  0.11801702778E+01  0.00000000000E+00 0. -1.
         11    1    3    3    0    0  0.38922549643E+00 -0.53585972224E+01 -0.61637606667E+01  0.81766745378E+01  0.51100000000E-03 0. -1.
        -11    1    3    3    0    0 -0.10852393440E+02 -0.26403318979E+02 -0.24482655731E+02  0.37607314826E+02  0.51100000000E-03 0.  1.
         12    1    3    3    0    0  0.99057604705E+01  0.31078653708E+02  0.29862036925E+02  0.44223840359E+02  0.00000000000E+00 0. -1.
</event>
<event>
 7    1  0.1501154E-015  0.9000775E+02  0.7816164E-02  0.1186339E+00
        -11   -1    0    0    0    0  0.00000000000E+00  0.00000000000E+00  0.45593999997E+02  0.45594000000E+02  0.51100000000E-03 0. -1.
         11   -1    0    0    0    0 -0.00000000000E+00 -0.00000000000E+00 -0.45593999997E+02  0.45594000000E+02  0.51100000000E-03 0.  1.
    9900012    2    1    2    0    0 -0.71747031891E+00 -0.15371732120E+00 -0.92444124795E+00  0.90007752444E+02  0.90000013976E+02 0.  0.
         12    1    1    2    0    0  0.71747031891E+00  0.15371732120E+00  0.92444124795E+00  0.11802475563E+01  0.00000000000E+00 0. -1.
         11    1    3    3    0    0  0.26717929674E+02 -0.13842654942E+02 -0.19411406357E+02  0.35808791643E+02  0.51100000000E-03 0. -1.
        -11    1    3    3    0    0  0.58302572531E+01 -0.76716486794E+01 -0.17402285874E+01  0.97915519145E+01  0.51100000000E-03 0.  1.
        -12    1    3    3    0    0 -0.33265657246E+02  0.21360586300E+02  0.20227193697E+02  0.44407408886E+02  0.00000000000E+00 0.  1.
</event>
<event>
 7    1  0.1501154E-015  0.9000772E+02  0.7816164E-02  0.1186339E+00
        -11   -1    0    0    0    0  0.00000000000E+00  0.00000000000E+00  0.45593999997E+02  0.45594000000E+02  0.51100000000E-03 0.  1.
         11   -1    0    0    0    0 -0.00000000000E+00 -0.00000000000E+00 -0.45593999997E+02  0.45594000000E+02  0.51100000000E-03 0. -1.
    9900012    2    1    2    0    0 -0.20482604553E+00  0.30621443093E+00  0.11213097172E+01  0.90007721868E+02  0.89999982997E+02 0.  0.
         12    1    1    2    0    0  0.20482604553E+00 -0.30621443093E+00 -0.11213097172E+01  0.11802781318E+01  0.00000000000E+00 0. -1.
         11    1    3    3    0    0  0.37712153782E+01  0.21589553244E+00  0.91968237678E+01  0.99423460001E+01  0.51100000000E-03 0. -1.
        -11    1    3    3    0    0 -0.14414252115E+02  0.10028339562E+02  0.32536143725E+02  0.36972136903E+02  0.51100000000E-03 0.  1.
         12    1    3    3    0    0  0.10438210691E+02 -0.99380206637E+01 -0.40611657776E+02  0.43093238965E+02  0.00000000000E+00 0. -1.
</event>
<event>
 7    1  0.1501154E-015  0.9000784E+02  0.7816164E-02  0.1186339E+00
        -11   -1    0    0    0    0  0.00000000000E+00  0.00000000000E+00  0.45593999997E+02  0.45594000000E+02  0.51100000000E-03 0. -1.
         11   -1    0    0    0    0 -0.00000000000E+00 -0.00000000000E+00 -0.45593999997E+02  0.45594000000E+02  0.51100000000E-03 0.  1.
    9900012    2    1    2    0    0  0.60563026881E+00  0.88108191811E+00 -0.49969327433E+00  0.90007836140E+02  0.90000098777E+02 0.  0.
         12    1    1    2    0    0 -0.60563026881E+00 -0.88108191811E+00  0.49969327433E+00  0.11801638604E+01  0.00000000000E+00 0. -1.
         11    1    3    3    0    0  0.17182898943E+02  0.24945918631E+02  0.25799550542E+02  0.39789039707E+02  0.51100000000E-03 0. -1.
        -11    1    3    3    0    0  0.67576591259E+01 -0.72876248816E+01  0.17134574017E+01  0.10085205492E+02  0.51100000000E-03 0.  1.
        -12    1    3    3    0    0 -0.23334927800E+02 -0.16777211831E+02 -0.28012701218E+02  0.40133590941E+02  0.00000000000E+00 0.  1.
</event>
<event>
 7    1  0.1501154E-015  0.9000777E+02  0.7816164E-02  0.1186339E+00
        -11   -1    0    0    0    0  0.00000000000E+00  0.00000000000E+00  0.45593999997E+02  0.45594000000E+02  0.51100000000E-03 0.  1.
         11   -1    0    0    0    0 -0.00000000000E+00 -0.00000000000E+00 -0.45593999997E+02  0.45594000000E+02  0.51100000000E-03 0. -1.
    9900012    2    1    2    0    0  0.72051428363E+00  0.73932289061E+00  0.57200892832E+00  0.90007774012E+02  0.90000035829E+02 0.  0.
         12    1    1    2    0    0 -0.72051428363E+00 -0.73932289061E+00 -0.57200892832E+00  0.11802259884E+01  0.00000000000E+00 0. -1.
         11    1    3    3    0    0  0.15325934867E+02 -0.19024409252E+02 -0.30017756745E+02  0.38702430766E+02  0.51100000000E-03 0. -1.
        -11    1    3    3    0    0  0.60546851775E+01  0.57207824161E+01 -0.35059471940E+01  0.90376009007E+01  0.51100000000E-03 0.  1.
        -12    1    3    3    0    0 -0.20660105761E+02  0.14042949726E+02  0.34095712867E+02  0.42267742345E+02  0.00000000000E+00 0.  1.
</event>
<event>
 7    1  0.1501154E-015  0.9000779E+02  0.7816164E-02  0.1186339E+00
        -11   -1    0    0    0    0  0.00000000000E+00  0.00000000000E+00  0.45593999997E+02  0.45594000000E+02  0.51100000000E-03 0. -1.
         11   -1    0    0    0    0 -0.00000000000E+00 -0.00000000000E+00 -0.45593999997E+02  0.45594000000E+02  0.51100000000E-03 0.  1.
    9900012    2    1    2    0    0 -0.94468999234E+00  0.70600749000E+00  0.44953975018E-01  0.90007785351E+02  0.90000047318E+02 0.  0.
         12    1    1    2    0    0  0.94468999234E+00 -0.70600749000E+00 -0.44953975018E-01  0.11802146489E+01  0.00000000000E+00 0. -1.
         11    1    3    3    0    0  0.33014475336E+01 -0.34344791652E+01  0.58250102378E+01  0.75250214276E+01  0.51100000000E-03 0. -1.
        -11    1    3    3    0    0  0.16267274510E+02 -0.11805723693E+02 -0.36853266972E+02  0.41978120714E+02  0.51100000000E-03 0.  1.
         12    1    3    3    0    0 -0.20513412036E+02  0.15946210348E+02  0.31073210709E+02  0.40504643210E+02  0.00000000000E+00 0. -1.
</event>
<event>
 7    1  0.1501154E-015  0.9000772E+02  0.7816164E-02  0.1186339E+00
        -11   -1    0    0    0    0  0.00000000000E+00  0.00000000000E+00  0.45593999997E+02  0.45594000000E+02  0.51100000000E-03 0.  1.
         11   -1    0    0    0    0 -0.00000000000E+00 -0.00000000000E+00 -0.45593999997E+02  0.45594000000E+02  0.51100000000E-03 0. -1.
    9900012    2    1    2    0    0  0.31790567051E+00 -0.11350212008E+01  0.61057471789E-01  0.90007718188E+02  0.89999979268E+02 0.  0.
         12    1    1    2    0    0 -0.31790567051E+00  0.11350212008E+01 -0.61057471789E-01  0.11802818123E+01  0.00000000000E+00 0. -1.
         11    1    3    3    0    0 -0.18770419696E+01 -0.55755514518E+01 -0.63493406083E+01  0.86558758638E+01  0.51100000000E-03 0. -1.
        -11    1    3    3    0    0 -0.28194277878E+02 -0.22490558140E+02  0.16271294033E+02  0.39566368550E+02  0.51100000000E-03 0.  1.
         12    1    3    3    0    0  0.30389225518E+02  0.26931088391E+02 -0.98608959525E+01  0.41785473774E+02  0.00000000000E+00 0. -1.
</event>
<event>
 7    1  0.1501154E-015  0.9000775E+02  0.7816164E-02  0.1186339E+00
        -11   -1    0    0    0    0  0.00000000000E+00  0.00000000000E+00  0.45593999997E+02  0.45594000000E+02  0.51100000000E-03 0.  1.
         11   -1    0    0    0    0 -0.00000000000E+00 -0.00000000000E+00 -0.45593999997E+02  0.45594000000E+02  0.51100000000E-03 0. -1.
    9900012    2    1    2    0    0 -0.10520867407E+01 -0.35772407232E+00  0.39765517404E+00  0.90007753136E+02  0.90000014678E+02 0.  0.
         12    1    1    2    0    0  0.10520867407E+01  0.35772407232E+00 -0.39765517404E+00  0.11802468637E+01  0.00000000000E+00 0. -1.
         11    1    3    3    0    0 -0.10973133073E+01 -0.78054021939E+01 -0.50281481361E+01  0.93493675637E+01  0.51100000000E-03 0. -1.
        -11    1    3    3    0    0 -0.49561936032E+01 -0.32827478541E+02  0.18517542333E+02  0.38014557431E+02  0.51100000000E-03 0.  1.
         12    1    3    3    0    0  0.50014201698E+01  0.40275156663E+02 -0.13091739022E+02  0.42643828141E+02  0.00000000000E+00 0. -1.
</event>
<event>
 7    1  0.1501154E-015  0.9000835E+02  0.7816164E-02  0.1186338E+00
        -11   -1    0    0    0    0  0.00000000000E+00  0.00000000000E+00  0.45593999997E+02  0.45594000000E+02  0.51100000000E-03 0.  1.
         11   -1    0    0    0    0 -0.00000000000E+00 -0.00000000000E+00 -0.45593999997E+02  0.45594000000E+02  0.51100000000E-03 0. -1.
    9900012    2    1    2    0    0 -0.10693854453E+01 -0.40409618268E+00  0.29102715669E+00  0.90008349305E+02  0.90000618714E+02 0.  0.
         12    1    1    2    0    0  0.10693854453E+01  0.40409618268E+00 -0.29102715669E+00  0.11796506947E+01  0.00000000000E+00 0. -1.
         11    1    3    3    0    0 -0.59344598960E+01  0.28353100453E+01  0.57180505969E+01  0.87150961096E+01  0.51100000000E-03 0. -1.
        -11    1    3    3    0    0  0.16273190637E+02  0.35318399458E+02 -0.11672272679E+02  0.40601084019E+02  0.51100000000E-03 0.  1.
         12    1    3    3    0    0 -0.11408116186E+02 -0.38557805686E+02  0.62452492386E+01  0.40692169177E+02  0.00000000000E+00 0. -1.
</event>
<event>
 7    1  0.1501154E-015  0.9000768E+02  0.7816164E-02  0.1186339E+00
        -11   -1    0    0    0    0  0.00000000000E+00  0.00000000000E+00  0.45593999997E+02  0.45594000000E+02  0.51100000000E-03 0.  1.
         11   -1    0    0    0    0 -0.00000000000E+00 -0.00000000000E+00 -0.45593999997E+02  0.45594000000E+02  0.51100000000E-03 0. -1.
    9900012    2    1    2    0    0  0.47166538369E+00 -0.10527049430E+01  0.24997834958E+00  0.90007684319E+02  0.89999944952E+02 0.  0.
         12    1    1    2    0    0 -0.47166538369E+00  0.10527049430E+01 -0.24997834958E+00  0.11803156809E+01  0.00000000000E+00 0. -1.
         11    1    3    3    0    0  0.32050998822E+01  0.14206180304E+01  0.99442546460E+01  0.10544146318E+02  0.51100000000E-03 0. -1.
        -11    1    3    3    0    0 -0.27396356546E+02 -0.24417127687E+02  0.13516794790E+02  0.39108313926E+02  0.51100000000E-03 0.  1.
         12    1    3    3    0    0  0.24662922047E+02  0.21943804714E+02 -0.23211071086E+02  0.40355224076E+02  0.00000000000E+00 0. -1.
</event>
<event>
 7    1  0.1501154E-015  0.9000778E+02  0.7816164E-02  0.1186339E+00
        -11   -1    0    0    0    0  0.00000000000E+00  0.00000000000E+00  0.45593999997E+02  0.45594000000E+02  0.51100000000E-03 0. -1.
         11   -1    0    0    0    0 -0.00000000000E+00 -0.00000000000E+00 -0.45593999997E+02  0.45594000000E+02  0.51100000000E-03 0.  1.
    9900012    2    1    2    0    0 -0.10143125255E+01 -0.55166953226E+00 -0.24445288200E+00  0.90007776977E+02  0.90000038833E+02 0.  0.
         12    1    1    2    0    0  0.10143125255E+01  0.55166953226E+00  0.24445288200E+00  0.11802230229E+01  0.00000000000E+00 0. -1.
         11    1    3    3    0    0 -0.18136624142E+02 -0.31552875890E+02  0.16510173145E+02  0.39963820260E+02  0.51100000000E-03 0. -1.
        -11    1    3    3    0    0 -0.54646771152E+01  0.66269850368E+00  0.40894114594E+01  0.68574887259E+01  0.51100000000E-03 0.  1.
        -12    1    3    3    0    0  0.22586988732E+02  0.30338507855E+02 -0.20844037486E+02  0.43186467991E+02  0.00000000000E+00 0.  1.
</event>
<event>
 7    1  0.1501154E-015  0.9000804E+02  0.7816164E-02  0.1186338E+00
        -11   -1    0    0    0    0  0.00000000000E+00  0.00000000000E+00  0.45593999997E+02  0.45594000000E+02  0.51100000000E-03 0.  1.
         11   -1    0    0    0    0 -0.00000000000E+00 -0.00000000000E+00 -0.45593999997E+02  0.45594000000E+02  0.51100000000E-03 0. -1.
    9900012    2    1    2    0    0 -0.11175314163E+00  0.10960200225E+01  0.42256300180E+00  0.90008038922E+02  0.90000304236E+02 0.  0.
         12    1    1    2    0    0  0.11175314163E+00 -0.10960200225E+01 -0.42256300180E+00  0.11799610777E+01  0.00000000000E+00 0. -1.
         11    1    3    3    0    0 -0.31998270577E+01  0.80973287569E+01 -0.84201698412E+00  0.87472635183E+01  0.51100000000E-03 0. -1.
        -11    1    3    3    0    0  0.34625520758E+02 -0.17830304250E+02  0.19174048024E+02  0.43410719359E+02  0.51100000000E-03 0.  1.
         12    1    3    3    0    0 -0.31537446842E+02  0.10828995516E+02 -0.17909468038E+02  0.37850056045E+02  0.00000000000E+00 0. -1.
</event>
<event>
 7    1  0.1501154E-015  0.9000771E+02  0.7816164E-02  0.1186339E+00
        -11   -1    0    0    0    0  0.00000000000E+00  0.00000000000E+00  0.45593999997E+02  0.45594000000E+02  0.51100000000E-03 0.  1.
         11   -1    0    0    0    0 -0.00000000000E+00 -0.00000000000E+00 -0.45593999997E+02  0.45594000000E+02  0.51100000000E-03 0. -1.
    9900012    2    1    2    0    0 -0.67309550904E+00 -0.87239276271E+00  0.42304051350E+00  0.90007707675E+02  0.89999968616E+02 0.  0.
         12    1    1    2    0    0  0.67309550904E+00  0.87239276271E+00 -0.42304051350E+00  0.11802923251E+01  0.00000000000E+00 0. -1.
         11    1    3    3    0    0 -0.17390032548E+01  0.37057394398E+01  0.11975191697E+02  0.12655506847E+02  0.51100000000E-03 0. -1.
        -11    1    3    3    0    0  0.21717660010E+02 -0.31991976108E+02  0.54506120593E+01  0.39049359325E+02  0.51100000000E-03 0.  1.
         12    1    3    3    0    0 -0.20651752264E+02  0.27413843905E+02 -0.17002763243E+02  0.38302841502E+02  0.00000000000E+00 0. -1.
</event>
<event>
 7    1  0.1777990E-015  0.9000764E+02  0.7816164E-02  0.1186339E+00
        -11   -1    0    0    0    0  0.00000000000E+00  0.00000000000E+00  0.45593999997E+02  0.45594000000E+02  0.51100000000E-03 0.  1.
         11   -1    0    0    0    0 -0.00000000000E+00 -0.00000000000E+00 -0.45593999997E+02  0.45594000000E+02  0.51100000000E-03 0. -1.
    9900012    2    1    2    0    0 -0.95707556962E+00 -0.61915775385E+00 -0.30641824351E+00  0.90007643228E+02  0.89999903318E+02 0.  0.
         12    1    1    2    0    0  0.95707556962E+00  0.61915775385E+00  0.30641824351E+00  0.11803567724E+01  0.00000000000E+00 0. -1.
         11    1    3    3    0    0 -0.17266212997E+02  0.28468689800E+02  0.17088917109E+02  0.37424851348E+02  0.51100000000E-03 0. -1.
        -11    1    3    3    0    0  0.17534329362E+01  0.86743810249E+01 -0.95746777733E+00  0.89014694311E+01  0.51100000000E-03 0.  1.
        -12    1    3    3    0    0  0.14555704492E+02 -0.37762228578E+02 -0.16437867575E+02  0.43681322449E+02  0.00000000000E+00 0.  1.
</event>
<event>
 7    1  0.1501154E-015  0.9000742E+02  0.7816164E-02  0.1186340E+00
        -11   -1    0    0    0    0  0.00000000000E+00  0.00000000000E+00  0.45593999997E+02  0.45594000000E+02  0.51100000000E-03 0.  1.
         11   -1    0    0    0    0 -0.00000000000E+00 -0.00000000000E+00 -0.45593999997E+02  0.45594000000E+02  0.51100000000E-03 0. -1.
    9900012    2    1    2    0    0 -0.20410933811E+00  0.34862818893E+00  0.11093114212E+01  0.90007417913E+02  0.89999675028E+02 0.  0.
         12    1    1    2    0    0  0.20410933811E+00 -0.34862818893E+00 -0.11093114212E+01  0.11805820874E+01  0.00000000000E+00 0. -1.
         11    1    3    3    0    0  0.29912560648E+02 -0.17089246344E+02  0.19905801365E+01  0.34507477953E+02  0.51100000000E-03 0. -1.
        -11    1    3    3    0    0  0.90575385544E+01 -0.49203660079E+01 -0.13227548493E+01  0.10392241672E+02  0.51100000000E-03 0.  1.
        -12    1    3    3    0    0 -0.39174208540E+02  0.22358240541E+02  0.44148613397E+00  0.45107698288E+02  0.00000000000E+00 0.  1.
</event>
<event>
 7    1  0.1501154E-015  0.9000776E+02  0.7816164E-02  0.1186339E+00
        -11   -1    0    0    0    0  0.00000000000E+00  0.00000000000E+00  0.45593999997E+02  0.45594000000E+02  0.51100000000E-03 0. -1.
         11   -1    0    0    0    0 -0.00000000000E+00 -0.00000000000E+00 -0.45593999997E+02  0.45594000000E+02  0.51100000000E-03 0.  1.
    9900012    2    1    2    0    0 -0.11433460303E+01  0.14446636287E+00 -0.25468305564E+00  0.90007756748E+02  0.90000018337E+02 0.  0.
         12    1    1    2    0    0  0.11433460303E+01 -0.14446636287E+00  0.25468305564E+00  0.11802432520E+01  0.00000000000E+00 0. -1.
         11    1    3    3    0    0  0.41216695301E+01  0.14209544666E+01  0.90413881461E+01  0.10037627767E+02  0.51100000000E-03 0. -1.
        -11    1    3    3    0    0  0.30136907482E+02  0.21521194303E+02 -0.77486861826E+01  0.37834338036E+02  0.51100000000E-03 0.  1.
         12    1    3    3    0    0 -0.35401923042E+02 -0.22797682406E+02 -0.15473850191E+01  0.42135790946E+02  0.00000000000E+00 0. -1.
</event>
<event>
 7    1  0.1501154E-015  0.9000769E+02  0.7816164E-02  0.1186339E+00
        -11   -1    0    0    0    0  0.00000000000E+00  0.00000000000E+00  0.45593999997E+02  0.45594000000E+02  0.51100000000E-03 0. -1.
         11   -1    0    0    0    0 -0.00000000000E+00 -0.00000000000E+00 -0.45593999997E+02  0.45594000000E+02  0.51100000000E-03 0.  1.
    9900012    2    1    2    0    0 -0.41607741452E+00  0.87327674913E+00 -0.67631564940E+00  0.90007688366E+02  0.89999949053E+02 0.  0.
         12    1    1    2    0    0  0.41607741452E+00 -0.87327674913E+00  0.67631564940E+00  0.11803116339E+01  0.00000000000E+00 0. -1.
         11    1    3    3    0    0  0.74791345072E+00 -0.62437967553E+01 -0.72077977538E+01  0.95653918462E+01  0.51100000000E-03 0. -1.
        -11    1    3    3    0    0  0.27492126699E+02  0.31109814494E+02 -0.37331978608E+01  0.41684221893E+02  0.51100000000E-03 0.  1.
         12    1    3    3    0    0 -0.28656117564E+02 -0.23992740989E+02  0.10264679965E+02  0.38758074627E+02  0.00000000000E+00 0. -1.
</event>
<event>
 7    1  0.1501154E-015  0.9000795E+02  0.7816164E-02  0.1186339E+00
        -11   -1    0    0    0    0  0.00000000000E+00  0.00000000000E+00  0.45593999997E+02  0.45594000000E+02  0.51100000000E-03 0.  1.
         11   -1    0    0    0    0 -0.00000000000E+00 -0.00000000000E+00 -0.45593999997E+02  0.45594000000E+02  0.51100000000E-03 0. -1.
    9900012    2    1    2    0    0 -0.94875162438E+00 -0.67553170434E+00 -0.18982787581E+00  0.90007954513E+02  0.90000218713E+02 0.  0.
         12    1    1    2    0    0  0.94875162438E+00  0.67553170434E+00  0.18982787581E+00  0.11800454867E+01  0.00000000000E+00 0. -1.
         11    1    3    3    0    0  0.14203887137E+02 -0.67106869558E+01 -0.40509134604E+01  0.16223243491E+02  0.51100000000E-03 0. -1.
        -11    1    3    3    0    0  0.15738372667E+02 -0.13173315103E+02  0.24500645942E+02  0.31961136664E+02  0.51100000000E-03 0.  1.
         12    1    3    3    0    0 -0.30891011429E+02  0.19208470355E+02 -0.20639560357E+02  0.41823574359E+02  0.00000000000E+00 0. -1.
</event>
<event>
 7    1  0.1501154E-015  0.9000771E+02  0.7816164E-02  0.1186339E+00
        -11   -1    0    0    0    0  0.00000000000E+00  0.00000000000E+00  0.45593999997E+02  0.45594000000E+02  0.51100000000E-03 0. -1.
         11   -1    0    0    0    0 -0.00000000000E+00 -0.00000000000E+00 -0.45593999997E+02  0.45594000000E+02  0.51100000000E-03 0.  1.
    9900012    2    1    2    0    0  0.45157223042E+00 -0.10899174519E+01 -0.35184893276E-01  0.90007713802E+02  0.89999974825E+02 0.  0.
         12    1    1    2    0    0 -0.45157223042E+00  0.10899174519E+01  0.35184893276E-01  0.11802861975E+01  0.00000000000E+00 0. -1.
         11    1    3    3    0    0 -0.84045665732E+01  0.40081504078E+01  0.20306397190E+01  0.95302417023E+01  0.51100000000E-03 0. -1.
        -11    1    3    3    0    0 -0.62055911467E+01 -0.33574600741E+01 -0.39481224844E+02  0.40106720323E+02  0.51100000000E-03 0.  1.
         12    1    3    3    0    0  0.15061729950E+02 -0.17406077856E+01  0.37415400232E+02  0.40370751777E+02  0.00000000000E+00 0. -1.
</event>
<event>
 7    1  0.1501154E-015  0.9000753E+02  0.7816164E-02  0.1186339E+00
        -11   -1    0    0    0    0  0.00000000000E+00  0.00000000000E+00  0.45593999997E+02  0.45594000000E+02  0.51100000000E-03 0. -1.
         11   -1    0    0    0    0 -0.00000000000E+00 -0.00000000000E+00 -0.45593999997E+02  0.45594000000E+02  0.51100000000E-03 0.  1.
    9900012    2    1    2    0    0  0.28512887873E+00 -0.42878652583E+00 -0.10622368170E+01  0.90007532543E+02  0.89999791172E+02 0.  0.
         12    1    1    2    0    0 -0.28512887873E+00  0.42878652583E+00  0.10622368170E+01  0.11804674572E+01  0.00000000000E+00 0. -1.
         11    1    3    3    0    0 -0.48185962318E+01 -0.38501593138E+01  0.38402575707E+02  0.38894735088E+02  0.51100000000E-03 0. -1.
        -11    1    3    3    0    0  0.67333788749E+01 -0.23040407659E-01  0.37655604161E+01  0.77148148028E+01  0.51100000000E-03 0.  1.
        -12    1    3    3    0    0 -0.16296537644E+01  0.34444131956E+01 -0.43230372940E+02  0.43397982651E+02  0.00000000000E+00 0.  1.
</event>
<event>
 7    1  0.1501154E-015  0.9000775E+02  0.7816164E-02  0.1186339E+00
        -11   -1    0    0    0    0  0.00000000000E+00  0.00000000000E+00  0.45593999997E+02  0.45594000000E+02  0.51100000000E-03 0. -1.
         11   -1    0    0    0    0 -0.00000000000E+00 -0.00000000000E+00 -0.45593999997E+02  0.45594000000E+02  0.51100000000E-03 0.  1.
    9900012    2    1    2    0    0  0.43914068862E+00  0.10684751623E+01  0.24186426057E+00  0.90007753400E+02  0.90000014945E+02 0.  0.
         12    1    1    2    0    0 -0.43914068862E+00 -0.10684751623E+01 -0.24186426057E+00  0.11802466002E+01  0.00000000000E+00 0. -1.
         11    1    3    3    0    0  0.30175616433E+02  0.52335928927E+01  0.19815679755E+02  0.36477657354E+02  0.51100000000E-03 0. -1.
        -11    1    3    3    0    0  0.80548168716E+01  0.32258071934E+01  0.26468944802E+01  0.90714914724E+01  0.51100000000E-03 0.  1.
        -12    1    3    3    0    0 -0.37791292616E+02 -0.73909249238E+01 -0.22220709974E+02  0.44458604573E+02  0.00000000000E+00 0.  1.
</event>
<event>
 7    1  0.1501154E-015  0.9000796E+02  0.7816164E-02  0.1186339E+00
        -11   -1    0    0    0    0  0.00000000000E+00  0.00000000000E+00  0.45593999997E+02  0.45594000000E+02  0.51100000000E-03 0. -1.
         11   -1    0    0    0    0 -0.00000000000E+00 -0.00000000000E+00 -0.45593999997E+02  0.45594000000E+02  0.51100000000E-03 0.  1.
    9900012    2    1    2    0    0  0.45075938455E-01  0.93509164226E+00 -0.71838417289E+00  0.90007955916E+02  0.90000220134E+02 0.  0.
         12    1    1    2    0    0 -0.45075938455E-01 -0.93509164226E+00  0.71838417289E+00  0.11800440837E+01  0.00000000000E+00 0. -1.
         11    1    3    3    0    0  0.26415707018E+01 -0.48145847162E+01 -0.77565109452E+01  0.95037668356E+01  0.51100000000E-03 0. -1.
        -11    1    3    3    0    0  0.80780691833E+01 -0.35820478930E+02 -0.14731167548E+01  0.36749584837E+02  0.51100000000E-03 0.  1.
         12    1    3    3    0    0 -0.10674563947E+02  0.41570155288E+02  0.85112435272E+01  0.43754604243E+02  0.00000000000E+00 0. -1.
</event>
<event>
 7    1  0.1501154E-015  0.9000780E+02  0.7816164E-02  0.1186339E+00
        -11   -1    0    0    0    0  0.00000000000E+00  0.00000000000E+00  0.45593999997E+02  0.45594000000E+02  0.51100000000E-03 0. -1.
         11   -1    0    0    0    0 -0.00000000000E+00 -0.00000000000E+00 -0.45593999997E+02  0.45594000000E+02  0.51100000000E-03 0.  1.
    9900012    2    1    2    0    0  0.13469703187E+00 -0.93212040568E+00 -0.71124993642E+00  0.90007801621E+02  0.90000063803E+02 0.  0.
         12    1    1    2    0    0 -0.13469703187E+00  0.93212040568E+00  0.71124993642E+00  0.11801983787E+01  0.00000000000E+00 0. -1.
         11    1    3    3    0    0 -0.44592818908E+01  0.37456333253E+01 -0.77870964440E+01  0.97238796413E+01  0.51100000000E-03 0. -1.
        -11    1    3    3    0    0 -0.18155144914E+02 -0.29781480931E+02 -0.16922205768E+02  0.38767343753E+02  0.51100000000E-03 0.  1.
         12    1    3    3    0    0  0.22749123837E+02  0.25103727200E+02  0.23998052275E+02  0.41516578227E+02  0.00000000000E+00 0. -1.
</event>
<event>
 7    1  0.1501154E-015  0.9000773E+02  0.7816164E-02  0.1186339E+00
        -11   -1    0    0    0    0  0.00000000000E+00  0.00000000000E+00  0.45593999997E+02  0.45594000000E+02  0.51100000000E-03 0.  1.
         11   -1    0    0    0    0 -0.00000000000E+00 -0.00000000000E+00 -0.45593999997E+02  0.45594000000E+02  0.51100000000E-03 0. -1.
    9900012    2    1    2    0    0  0.24181253491E+00  0.11261832895E+01  0.25744492673E+00  0.90007728847E+02  0.89999990068E+02 0.  0.
         12    1    1    2    0    0 -0.24181253491E+00 -0.11261832895E+01 -0.25744492673E+00  0.11802711527E+01  0.00000000000E+00 0. -1.
         11    1    3    3    0    0  0.41928222994E+01 -0.10289509493E+02 -0.91309545947E+00  0.11148430743E+02  0.51100000000E-03 0. -1.
        -11    1    3    3    0    0 -0.21115850589E+01 -0.29611910071E+02  0.17728984545E+02  0.34578040759E+02  0.51100000000E-03 0.  1.
         12    1    3    3    0    0 -0.18394247056E+01  0.41027602854E+02 -0.16558444158E+02  0.44281257345E+02  0.00000000000E+00 0. -1.
</event>
<event>
 7    1  0.1501154E-015  0.9000775E+02  0.7816164E-02  0.1186339E+00
        -11   -1    0    0    0    0  0.00000000000E+00  0.00000000000E+00  0.45593999997E+02  0.45594000000E+02  0.51100000000E-03 0. -1.
         11   -1    0    0    0    0 -0.00000000000E+00 -0.00000000000E+00 -0.45593999997E+02  0.45594000000E+02  0.51100000000E-03 0.  1.
    9900012    2    1    2    0    0 -0.93824316485E+00  0.66660808505E+00 -0.26139785529E+00  0.90007747733E+02  0.90000009203E+02 0.  0.
         12    1    1    2    0    0  0.93824316485E+00 -0.66660808505E+00  0.26139785529E+00  0.11802522672E+01  0.00000000000E+00 0. -1.
         11    1    3    3    0    0 -0.29263033881E+02 -0.18841408537E+02 -0.14000420391E+02  0.37514471861E+02  0.51100000000E-03 0. -1.
        -11    1    3    3    0    0 -0.78603612261E+00 -0.95203400195E+01  0.26179203307E+01  0.99049600702E+01  0.51100000000E-03 0.  1.
        -12    1    3    3    0    0  0.29110826839E+02  0.29028356642E+02  0.11121102205E+02  0.42588315802E+02  0.00000000000E+00 0.  1.
</event>
<event>
 7    1  0.1501154E-015  0.9000770E+02  0.7816164E-02  0.1186339E+00
        -11   -1    0    0    0    0  0.00000000000E+00  0.00000000000E+00  0.45593999997E+02  0.45594000000E+02  0.51100000000E-03 0.  1.
         11   -1    0    0    0    0 -0.00000000000E+00 -0.00000000000E+00 -0.45593999997E+02  0.45594000000E+02  0.51100000000E-03 0. -1.
    9900012    2    1    2    0    0 -0.57448858899E+00  0.65247383981E+00  0.79833768903E+00  0.90007702446E+02  0.89999963318E+02 0.  0.
         12    1    1    2    0    0  0.57448858899E+00 -0.65247383981E+00 -0.79833768903E+00  0.11802975541E+01  0.00000000000E+00 0. -1.
         11    1    3    3    0    0 -0.12012292364E+02  0.12512454807E+02 -0.33314699053E+02  0.37559630808E+02  0.51100000000E-03 0. -1.
        -11    1    3    3    0    0 -0.40144482495E+01 -0.78032942888E+01 -0.50690260736E+01  0.10134210482E+02  0.51100000000E-03 0.  1.
        -12    1    3    3    0    0  0.15452252025E+02 -0.40566866788E+01  0.39182062815E+02  0.42313861156E+02  0.00000000000E+00 0.  1.
</event>
<event>
 7    1  0.1501154E-015  0.9000767E+02  0.7816164E-02  0.1186339E+00
        -11   -1    0    0    0    0  0.00000000000E+00  0.00000000000E+00  0.45593999997E+02  0.45594000000E+02  0.51100000000E-03 0.  1.
         11   -1    0    0    0    0 -0.00000000000E+00 -0.00000000000E+00 -0.45593999997E+02  0.45594000000E+02  0.51100000000E-03 0. -1.
    9900012    2    1    2    0    0  0.55864152704E+00 -0.84633316310E+00 -0.60400921071E+00  0.90007666443E+02  0.89999926840E+02 0.  0.
         12    1    1    2    0    0 -0.55864152704E+00  0.84633316310E+00  0.60400921071E+00  0.11803335568E+01  0.00000000000E+00 0. -1.
         11    1    3    3    0    0  0.36814809128E+01  0.17108098323E+02  0.37644321583E+02  0.41513073575E+02  0.51100000000E-03 0. -1.
        -11    1    3    3    0    0  0.26737802127E+01  0.52149726174E+01 -0.62796564279E+01  0.85894775824E+01  0.51100000000E-03 0.  1.
        -12    1    3    3    0    0 -0.57966195985E+01 -0.23169404103E+02 -0.31968674366E+02  0.39905115286E+02  0.00000000000E+00 0.  1.
</event>
<event>
 8    1  0.1501154E-015  0.9000776E+02  0.7816164E-02  0.1186339E+00
        -11   -1    0    0    0    0  0.00000000000E+00  0.00000000000E+00  0.45593999997E+02  0.45594000000E+02  0.51100000000E-03 0.  1.
         11   -1    0    0    0    0 -0.00000000000E+00 -0.00000000000E+00 -0.45593999997E+02  0.45594000000E+02  0.51100000000E-03 0. -1.
    9900012    2    1    2    0    0 -0.10013457400E+01 -0.50010052240E+00  0.37438621532E+00  0.90007763218E+02  0.90000024892E+02 0.  0.
         23    2    3    3    0    0  0.18485222957E+02 -0.20026806441E+02  0.61084174221E+01  0.61831572604E+02  0.55163884591E+02 0.  0.
         12    1    1    2    0    0  0.10013457400E+01  0.50010052240E+00 -0.37438621532E+00  0.11802367821E+01  0.00000000000E+00 0. -1.
         11    1    4    4    0    0  0.36078159321E+02 -0.24164645265E+02  0.33889394937E+01  0.43555121075E+02  0.51100000000E-03 0. -1.
        -11    1    4    4    0    0 -0.17592936363E+02  0.41378388234E+01  0.27194779284E+01  0.18276451528E+02  0.51100000000E-03 0.  1.
        -12    1    3    3    0    0 -0.19486568697E+02  0.19526705919E+02 -0.57340312068E+01  0.28176190614E+02  0.00000000000E+00 0.  1.
</event>
<event>
 7    1  0.1501154E-015  0.9000782E+02  0.7816164E-02  0.1186339E+00
        -11   -1    0    0    0    0  0.00000000000E+00  0.00000000000E+00  0.45593999997E+02  0.45594000000E+02  0.51100000000E-03 0.  1.
         11   -1    0    0    0    0 -0.00000000000E+00 -0.00000000000E+00 -0.45593999997E+02  0.45594000000E+02  0.51100000000E-03 0. -1.
    9900012    2    1    2    0    0  0.83214421933E+00 -0.70421451887E+00 -0.45215636786E+00  0.90007818882E+02  0.90000081291E+02 0.  0.
         12    1    1    2    0    0 -0.83214421933E+00  0.70421451887E+00  0.45215636786E+00  0.11801811180E+01  0.00000000000E+00 0. -1.
         11    1    3    3    0    0  0.45108248601E+01 -0.32417822555E+02 -0.12619090463E+02  0.35078543363E+02  0.51100000000E-03 0. -1.
        -11    1    3    3    0    0  0.11512699184E+02 -0.54122632829E+01 -0.86762962095E+00  0.12750984972E+02  0.51100000000E-03 0.  1.
        -12    1    3    3    0    0 -0.15191379825E+02  0.37125871319E+02  0.13034563716E+02  0.42178290546E+02  0.00000000000E+00 0.  1.
</event>
<event>
 7    1  0.1501154E-015  0.9000774E+02  0.7816164E-02  0.1186339E+00
        -11   -1    0    0    0    0  0.00000000000E+00  0.00000000000E+00  0.45593999997E+02  0.45594000000E+02  0.51100000000E-03 0. -1.
         11   -1    0    0    0    0 -0.00000000000E+00 -0.00000000000E+00 -0.45593999997E+02  0.45594000000E+02  0.51100000000E-03 0.  1.
    9900012    2    1    2    0    0  0.58390176179E+00  0.10236817602E+01  0.64321792917E-01  0.90007744559E+02  0.90000005987E+02 0.  0.
         12    1    1    2    0    0 -0.58390176179E+00 -0.10236817602E+01 -0.64321792917E-01  0.11802554413E+01  0.00000000000E+00 0. -1.
         11    1    3    3    0    0 -0.87966605667E+01 -0.22079258051E+01  0.14167295294E+01  0.91795041428E+01  0.51100000000E-03 0. -1.
        -11    1    3    3    0    0 -0.27406950735E+02  0.24604590778E+02 -0.82061322398E+01  0.37734168105E+02  0.51100000000E-03 0.  1.
         12    1    3    3    0    0  0.36787513063E+02 -0.21372983213E+02  0.68537245034E+01  0.43094072311E+02  0.00000000000E+00 0. -1.
</event>
<event>
 7    1  0.1501154E-015  0.9000737E+02  0.7816164E-02  0.1186340E+00
        -11   -1    0    0    0    0  0.00000000000E+00  0.00000000000E+00  0.45593999997E+02  0.45594000000E+02  0.51100000000E-03 0.  1.
         11   -1    0    0    0    0 -0.00000000000E+00 -0.00000000000E+00 -0.45593999997E+02  0.45594000000E+02  0.51100000000E-03 0. -1.
    9900012    2    1    2    0    0 -0.94370164327E+00  0.37250277092E+00  0.60379103096E+00  0.90007366816E+02  0.89999623257E+02 0.  0.
         12    1    1    2    0    0  0.94370164327E+00 -0.37250277092E+00 -0.60379103096E+00  0.11806331839E+01  0.00000000000E+00 0. -1.
         11    1    3    3    0    0  0.29384996309E+01  0.33866586902E+01  0.90593273876E+01  0.10108197176E+02  0.51100000000E-03 0. -1.
        -11    1    3    3    0    0  0.16134536015E+02 -0.28164230023E+02  0.19013639585E+02  0.37617357640E+02  0.51100000000E-03 0.  1.
         12    1    3    3    0    0 -0.20016737290E+02  0.25150074104E+02 -0.27469175942E+02  0.42281812001E+02  0.00000000000E+00 0. -1.
</event>
<event>
 7    1  0.1501154E-015  0.9000782E+02  0.7816164E-02  0.1186339E+00
        -11   -1    0    0    0    0  0.00000000000E+00  0.00000000000E+00  0.45593999997E+02  0.45594000000E+02  0.51100000000E-03 0.  1.
         11   -1    0    0    0    0 -0.00000000000E+00 -0.00000000000E+00 -0.45593999997E+02  0.45594000000E+02  0.51100000000E-03 0. -1.
    9900012    2    1    2    0    0 -0.67790646887E+00 -0.22929088993E+00  0.93845573593E+00  0.90007817531E+02  0.90000079922E+02 0.  0.
         12    1    1    2    0    0  0.67790646887E+00  0.22929088993E+00 -0.93845573593E+00  0.11801824694E+01  0.00000000000E+00 0. -1.
         11    1    3    3    0    0 -0.35674214429E+02 -0.89216324223E+01  0.84864706047E+01  0.37739439368E+02  0.51100000000E-03 0. -1.
        -11    1    3    3    0    0 -0.65288336536E+01 -0.18292931809E+01  0.40382928890E+01  0.78917546932E+01  0.51100000000E-03 0.  1.
        -12    1    3    3    0    0  0.41525141614E+02  0.10521634713E+02 -0.11586307758E+02  0.44376623470E+02  0.00000000000E+00 0.  1.
</event>
<event>
 7    1  0.1501154E-015  0.9000774E+02  0.7816164E-02  0.1186339E+00
        -11   -1    0    0    0    0  0.00000000000E+00  0.00000000000E+00  0.45593999997E+02  0.45594000000E+02  0.51100000000E-03 0. -1.
         11   -1    0    0    0    0 -0.00000000000E+00 -0.00000000000E+00 -0.45593999997E+02  0.45594000000E+02  0.51100000000E-03 0.  1.
    9900012    2    1    2    0    0 -0.86764019253E+00  0.48625734812E+00 -0.63543413721E+00  0.90007736362E+02  0.89999997682E+02 0.  0.
         12    1    1    2    0    0  0.86764019253E+00 -0.48625734812E+00  0.63543413721E+00  0.11802636379E+01  0.00000000000E+00 0. -1.
         11    1    3    3    0    0 -0.30281049649E+02  0.12248805951E+02  0.20706959624E+02  0.38674971134E+02  0.51100000000E-03 0. -1.
        -11    1    3    3    0    0  0.30483426679E+01  0.33093330650E+01  0.79525470132E+01  0.91371266060E+01  0.51100000000E-03 0.  1.
        -12    1    3    3    0    0  0.26365066789E+02 -0.15071881668E+02 -0.29294940774E+02  0.42195638622E+02  0.00000000000E+00 0.  1.
</event>
<event>
 7    1  0.1501154E-015  0.9000779E+02  0.7816164E-02  0.1186339E+00
        -11   -1    0    0    0    0  0.00000000000E+00  0.00000000000E+00  0.45593999997E+02  0.45594000000E+02  0.51100000000E-03 0.  1.
         11   -1    0    0    0    0 -0.00000000000E+00 -0.00000000000E+00 -0.45593999997E+02  0.45594000000E+02  0.51100000000E-03 0. -1.
    9900012    2    1    2    0    0  0.83425675329E+00 -0.56017160741E+00  0.61896928328E+00  0.90007788352E+02  0.90000050358E+02 0.  0.
         12    1    1    2    0    0 -0.83425675329E+00  0.56017160741E+00 -0.61896928328E+00  0.11802116479E+01  0.00000000000E+00 0. -1.
         11    1    3    3    0    0 -0.84021172710E+01 -0.25890239032E+02 -0.24386554974E+02  0.36545917905E+02  0.51100000000E-03 0. -1.
        -11    1    3    3    0    0  0.55150294936E+01  0.12903351765E+01 -0.96091907252E+01  0.11154239635E+02  0.51100000000E-03 0.  1.
        -12    1    3    3    0    0  0.37213445307E+01  0.24039732248E+02  0.34614714982E+02  0.42307630812E+02  0.00000000000E+00 0.  1.
</event>
<event>
 7    1  0.1501154E-015  0.9000766E+02  0.7816164E-02  0.1186339E+00
        -11   -1    0    0    0    0  0.00000000000E+00  0.00000000000E+00  0.45593999997E+02  0.45594000000E+02  0.51100000000E-03 0. -1.
         11   -1    0    0    0    0 -0.00000000000E+00 -0.00000000000E+00 -0.45593999997E+02  0.45594000000E+02  0.51100000000E-03 0.  1.
    9900012    2    1    2    0    0 -0.31147393237E+00 -0.11362374941E+01  0.71834241217E-01  0.90007656062E+02  0.89999916322E+02 0.  0.
         12    1    1    2    0    0  0.31147393237E+00  0.11362374941E+01 -0.71834241217E-01  0.11803439379E+01  0.00000000000E+00 0. -1.
         11    1    3    3    0    0  0.50108612697E+01 -0.16407305907E+01  0.86932637218E+01  0.10167278984E+02  0.51100000000E-03 0. -1.
        -11    1    3    3    0    0  0.32536472308E+02 -0.39096897093E+01 -0.21971827766E+02  0.39454643827E+02  0.51100000000E-03 0.  1.
         12    1    3    3    0    0 -0.37858807510E+02  0.44141828060E+01  0.13350398286E+02  0.40385733252E+02  0.00000000000E+00 0. -1.
</event>
<event>
 7    1  0.1501154E-015  0.9000734E+02  0.7816164E-02  0.1186340E+00
        -11   -1    0    0    0    0  0.00000000000E+00  0.00000000000E+00  0.45593999997E+02  0.45594000000E+02  0.51100000000E-03 0.  1.
         11   -1    0    0    0    0 -0.00000000000E+00 -0.00000000000E+00 -0.45593999997E+02  0.45594000000E+02  0.51100000000E-03 0. -1.
    9900012    2    1    2    0    0 -0.73825803490E+00  0.36389098185E+00 -0.84647733831E+00  0.90007336857E+02  0.89999592903E+02 0.  0.
         12    1    1    2    0    0  0.73825803490E+00 -0.36389098185E+00  0.84647733831E+00  0.11806631429E+01  0.00000000000E+00 0. -1.
         11    1    3    3    0    0 -0.11227168680E+02 -0.22335453834E+02 -0.31326667021E+02  0.40078446594E+02  0.51100000000E-03 0. -1.
        -11    1    3    3    0    0 -0.99067587352E+00  0.90121214140E+01 -0.48917854551E+01  0.10301909350E+02  0.51100000000E-03 0.  1.
        -12    1    3    3    0    0  0.11479586519E+02  0.13687223402E+02  0.35371975137E+02  0.39626980912E+02  0.00000000000E+00 0.  1.
</event>
<event>
 7    1  0.1501154E-015  0.9000774E+02  0.7816164E-02  0.1186339E+00
        -11   -1    0    0    0    0  0.00000000000E+00  0.00000000000E+00  0.45593999997E+02  0.45594000000E+02  0.51100000000E-03 0.  1.
         11   -1    0    0    0    0 -0.00000000000E+00 -0.00000000000E+00 -0.45593999997E+02  0.45594000000E+02  0.51100000000E-03 0. -1.
    9900012    2    1    2    0    0  0.61245608648E+00 -0.35134861703E+00  0.94576333322E+00  0.90007738762E+02  0.90000000113E+02 0.  0.
         12    1    1    2    0    0 -0.61245608648E+00  0.35134861703E+00 -0.94576333322E+00  0.11802612385E+01  0.00000000000E+00 0. -1.
         11    1    3    3    0    0  0.11773333267E+02  0.12945228052E+02 -0.35929536528E+02  0.39964007568E+02  0.51100000000E-03 0. -1.
        -11    1    3    3    0    0 -0.78840319730E+01 -0.28713318749E+01 -0.28354414684E+01  0.88567621323E+01  0.51100000000E-03 0.  1.
        -12    1    3    3    0    0 -0.32768452079E+01 -0.10425244794E+02  0.39710741329E+02  0.41186969061E+02  0.00000000000E+00 0.  1.
</event>
<event>
 7    1  0.1501154E-015  0.9000769E+02  0.7816164E-02  0.1186339E+00
        -11   -1    0    0    0    0  0.00000000000E+00  0.00000000000E+00  0.45593999997E+02  0.45594000000E+02  0.51100000000E-03 0. -1.
         11   -1    0    0    0    0 -0.00000000000E+00 -0.00000000000E+00 -0.45593999997E+02  0.45594000000E+02  0.51100000000E-03 0.  1.
    9900012    2    1    2    0    0 -0.60417275075E+00  0.90415772025E+00  0.45891637446E+00  0.90007690661E+02  0.89999951378E+02 0.  0.
         12    1    1    2    0    0  0.60417275075E+00 -0.90415772025E+00 -0.45891637446E+00  0.11803093385E+01  0.00000000000E+00 0. -1.
         11    1    3    3    0    0 -0.31211456558E+02 -0.62206425649E+00 -0.11486019308E+02  0.33263653200E+02  0.51100000000E-03 0. -1.
        -11    1    3    3    0    0  0.43893101727E+01 -0.87569277304E+01 -0.14903497919E+02  0.17834351055E+02  0.51100000000E-03 0.  1.
        -12    1    3    3    0    0  0.26217973635E+02  0.10283149707E+02  0.26848433601E+02  0.38909686406E+02  0.00000000000E+00 0.  1.
</event>
<event>
 7    1  0.1501154E-015  0.9000772E+02  0.7816164E-02  0.1186339E+00
        -11   -1    0    0    0    0  0.00000000000E+00  0.00000000000E+00  0.45593999997E+02  0.45594000000E+02  0.51100000000E-03 0. -1.
         11   -1    0    0    0    0 -0.00000000000E+00 -0.00000000000E+00 -0.45593999997E+02  0.45594000000E+02  0.51100000000E-03 0.  1.
    9900012    2    1    2    0    0 -0.10396460533E+01  0.53760212530E+00  0.15222254989E+00  0.90007723903E+02  0.89999985058E+02 0.  0.
         12    1    1    2    0    0  0.10396460533E+01 -0.53760212530E+00 -0.15222254989E+00  0.11802760974E+01  0.00000000000E+00 0. -1.
         11    1    3    3    0    0  0.22352713468E+02 -0.28733531253E+02  0.15488607027E+02  0.39562059673E+02  0.51100000000E-03 0. -1.
        -11    1    3    3    0    0 -0.63380353272E+01 -0.60928288815E+01 -0.30824928867E+01  0.93163843977E+01  0.51100000000E-03 0.  1.
        -12    1    3    3    0    0 -0.17054324194E+02  0.35363962260E+02 -0.12253891590E+02  0.41129279832E+02  0.00000000000E+00 0.  1.
</event>
<event>
 7    1  0.1501154E-015  0.9000777E+02  0.7816164E-02  0.1186339E+00
        -11   -1    0    0    0    0  0.00000000000E+00  0.00000000000E+00  0.45593999997E+02  0.45594000000E+02  0.51100000000E-03 0.  1.
         11   -1    0    0    0    0 -0.00000000000E+00 -0.00000000000E+00 -0.45593999997E+02  0.45594000000E+02  0.51100000000E-03 0. -1.
    9900012    2    1    2    0    0  0.73520411787E+00 -0.19510421789E+00  0.90241712597E+00  0.90007768065E+02  0.90000029804E+02 0.  0.
         12    1    1    2    0    0 -0.73520411787E+00  0.19510421789E+00 -0.90241712597E+00  0.11802319348E+01  0.00000000000E+00 0. -1.
         11    1    3    3    0    0  0.88304341588E+01 -0.65790155071E+01 -0.32655394612E+01  0.11485806925E+02  0.51100000000E-03 0. -1.
        -11    1    3    3    0    0  0.15837405832E+01 -0.25645105777E+02  0.27573054921E+02  0.37688898133E+02  0.51100000000E-03 0.  1.
         12    1    3    3    0    0 -0.96789706241E+01  0.32029017066E+02 -0.23405098334E+02  0.40833063008E+02  0.00000000000E+00 0. -1.
</event>
<event>
 7    1  0.1501154E-015  0.9000787E+02  0.7816164E-02  0.1186339E+00
        -11   -1    0    0    0    0  0.00000000000E+00  0.00000000000E+00  0.45593999997E+02  0.45594000000E+02  0.51100000000E-03 0.  1.
         11   -1    0    0    0    0 -0.00000000000E+00 -0.00000000000E+00 -0.45593999997E+02  0.45594000000E+02  0.51100000000E-03 0. -1.
    9900012    2    1    2    0    0  0.24616073245E+00 -0.11379809915E+01 -0.19265264752E+00  0.90007868276E+02  0.90000131337E+02 0.  0.
         12    1    1    2    0    0 -0.24616073245E+00  0.11379809915E+01  0.19265264752E+00  0.11801317239E+01  0.00000000000E+00 0. -1.
         11    1    3    3    0    0  0.28020332678E+01  0.56292146118E+01  0.74623841294E+01  0.97584130234E+01  0.51100000000E-03 0. -1.
        -11    1    3    3    0    0  0.11643515192E+02  0.33777909598E+02 -0.10373635481E+02  0.37203910227E+02  0.51100000000E-03 0.  1.
         12    1    3    3    0    0 -0.14199387728E+02 -0.40545105201E+02  0.27185987042E+01  0.43045545025E+02  0.00000000000E+00 0. -1.
</event>
<event>
 7    1  0.1501154E-015  0.9000774E+02  0.7816164E-02  0.1186339E+00
        -11   -1    0    0    0    0  0.00000000000E+00  0.00000000000E+00  0.45593999997E+02  0.45594000000E+02  0.51100000000E-03 0. -1.
         11   -1    0    0    0    0 -0.00000000000E+00 -0.00000000000E+00 -0.45593999997E+02  0.45594000000E+02  0.51100000000E-03 0.  1.
    9900012    2    1    2    0    0  0.30950191821E+00  0.10844179671E+01 -0.34823309701E+00  0.90007737294E+02  0.89999998627E+02 0.  0.
         12    1    1    2    0    0 -0.30950191821E+00 -0.10844179671E+01  0.34823309701E+00  0.11802627058E+01  0.00000000000E+00 0. -1.
         11    1    3    3    0    0 -0.64543741017E+00 -0.91600168310E+01 -0.54234312467E+01  0.10664713055E+02  0.51100000000E-03 0. -1.
        -11    1    3    3    0    0 -0.17208966104E+02 -0.28195423200E+02 -0.95457808483E+01  0.34383896464E+02  0.51100000000E-03 0.  1.
         12    1    3    3    0    0  0.18163905433E+02  0.38439857998E+02  0.14620978998E+02  0.44959127775E+02  0.00000000000E+00 0. -1.
</event>
<event>
 7    1  0.1501154E-015  0.9000775E+02  0.7816164E-02  0.1186339E+00
        -11   -1    0    0    0    0  0.00000000000E+00  0.00000000000E+00  0.45593999997E+02  0.45594000000E+02  0.51100000000E-03 0.  1.
         11   -1    0    0    0    0 -0.00000000000E+00 -0.00000000000E+00 -0.45593999997E+02  0.45594000000E+02  0.51100000000E-03 0. -1.
    9900012    2    1    2    0    0 -0.48255043235E-01  0.50944714091E+00  0.10635386350E+01  0.90007754531E+02  0.90000016091E+02 0.  0.
         12    1    1    2    0    0  0.48255043235E-01 -0.50944714091E+00 -0.10635386350E+01  0.11802454688E+01  0.00000000000E+00 0. -1.
         11    1    3    3    0    0  0.20916965252E+02  0.29574474507E+02  0.11580408598E+02  0.38029920343E+02  0.51100000000E-03 0. -1.
        -11    1    3    3    0    0 -0.54911834165E+01  0.63049065025E+01  0.56835775409E+01  0.10109796993E+02  0.51100000000E-03 0.  1.
        -12    1    3    3    0    0 -0.15474036879E+02 -0.35369933869E+02 -0.16200447504E+02  0.41868037195E+02  0.00000000000E+00 0.  1.
</event>
<event>
 7    1  0.1501154E-015  0.9000776E+02  0.7816164E-02  0.1186339E+00
        -11   -1    0    0    0    0  0.00000000000E+00  0.00000000000E+00  0.45593999997E+02  0.45594000000E+02  0.51100000000E-03 0. -1.
         11   -1    0    0    0    0 -0.00000000000E+00 -0.00000000000E+00 -0.45593999997E+02  0.45594000000E+02  0.51100000000E-03 0.  1.
    9900012    2    1    2    0    0 -0.11196603882E+00 -0.72126037893E+00 -0.92748110903E+00  0.90007756747E+02  0.90000018336E+02 0.  0.
         12    1    1    2    0    0  0.11196603882E+00  0.72126037893E+00  0.92748110903E+00  0.11802432528E+01  0.00000000000E+00 0. -1.
         11    1    3    3    0    0 -0.40745015507E+01 -0.97062529005E+01  0.40665937640E+01  0.11284949861E+02  0.51100000000E-03 0. -1.
        -11    1    3    3    0    0 -0.26195473378E+02  0.22890294401E+02 -0.22253375522E+02  0.41296260432E+02  0.51100000000E-03 0.  1.
         12    1    3    3    0    0  0.30158008890E+02 -0.13905301880E+02  0.17259300649E+02  0.37426546454E+02  0.00000000000E+00 0. -1.
</event>
<event>
 7    1  0.1501154E-015  0.9000789E+02  0.7816164E-02  0.1186339E+00
        -11   -1    0    0    0    0  0.00000000000E+00  0.00000000000E+00  0.45593999997E+02  0.45594000000E+02  0.51100000000E-03 0.  1.
         11   -1    0    0    0    0 -0.00000000000E+00 -0.00000000000E+00 -0.45593999997E+02  0.45594000000E+02  0.51100000000E-03 0. -1.
    9900012    2    1    2    0    0 -0.74086255776E+00 -0.51727597915E+00  0.75907963658E+00  0.90007892521E+02  0.90000155902E+02 0.  0.
         12    1    1    2    0    0  0.74086255776E+00  0.51727597915E+00 -0.75907963658E+00  0.11801074793E+01  0.00000000000E+00 0. -1.
         11    1    3    3    0    0  0.20704866783E+02  0.29848631024E+02 -0.19974891877E+02  0.41456345572E+02  0.51100000000E-03 0. -1.
        -11    1    3    3    0    0  0.51046893378E+01 -0.56150577132E+01  0.40743580484E+01  0.86131945366E+01  0.51100000000E-03 0.  1.
        -12    1    3    3    0    0 -0.26550418678E+02 -0.24750849290E+02  0.16659613465E+02  0.39938352412E+02  0.00000000000E+00 0.  1.
</event>
<event>
 7    1  0.1501154E-015  0.9000781E+02  0.7816164E-02  0.1186339E+00
        -11   -1    0    0    0    0  0.00000000000E+00  0.00000000000E+00  0.45593999997E+02  0.45594000000E+02  0.51100000000E-03 0.  1.
         11   -1    0    0    0    0 -0.00000000000E+00 -0.00000000000E+00 -0.45593999997E+02  0.45594000000E+02  0.51100000000E-03 0. -1.
    9900012    2    1    2    0    0 -0.43993025703E+00  0.10946467026E+01 -0.32377899048E-01  0.90007814268E+02  0.90000076616E+02 0.  0.
         12    1    1    2    0    0  0.43993025703E+00 -0.10946467026E+01  0.32377899048E-01  0.11801857324E+01  0.00000000000E+00 0. -1.
         11    1    3    3    0    0  0.23693816772E+01  0.14604748570E+01  0.13535480434E+02  0.13818689778E+02  0.51100000000E-03 0. -1.
        -11    1    3    3    0    0  0.73302840013E+01 -0.26263946654E+01  0.30209064940E+02  0.31196451998E+02  0.51100000000E-03 0.  1.
         12    1    3    3    0    0 -0.10139595936E+02  0.22605665110E+01 -0.43776923273E+02  0.44992672491E+02  0.00000000000E+00 0. -1.
</event>
<event>
 7    1  0.1501154E-015  0.9000775E+02  0.7816164E-02  0.1186339E+00
        -11   -1    0    0    0    0  0.00000000000E+00  0.00000000000E+00  0.45593999997E+02  0.45594000000E+02  0.51100000000E-03 0. -1.
         11   -1    0    0    0    0 -0.00000000000E+00 -0.00000000000E+00 -0.45593999997E+02  0.45594000000E+02  0.51100000000E-03 0.  1.
    9900012    2    1    2    0    0  0.53438119499E+00  0.21280960995E+00 -0.10305967996E+01  0.90007753858E+02  0.90000015409E+02 0.  0.
         12    1    1    2    0    0 -0.53438119499E+00 -0.21280960995E+00  0.10305967996E+01  0.11802461417E+01  0.00000000000E+00 0. -1.
         11    1    3    3    0    0 -0.33633526239E+02  0.14082549365E+01 -0.11532692073E+02  0.35583707732E+02  0.51100000000E-03 0. -1.
        -11    1    3    3    0    0 -0.43786606816E+01 -0.28851662992E+01 -0.95843903585E+01  0.10925080903E+02  0.51100000000E-03 0.  1.
        -12    1    3    3    0    0  0.38546568116E+02  0.16897209726E+01  0.20086485631E+02  0.43498965223E+02  0.00000000000E+00 0.  1.
</event>
<event>
 7    1  0.1501154E-015  0.9000792E+02  0.7816164E-02  0.1186339E+00
        -11   -1    0    0    0    0  0.00000000000E+00  0.00000000000E+00  0.45593999997E+02  0.45594000000E+02  0.51100000000E-03 0.  1.
         11   -1    0    0    0    0 -0.00000000000E+00 -0.00000000000E+00 -0.45593999997E+02  0.45594000000E+02  0.51100000000E-03 0. -1.
    9900012    2    1    2    0    0  0.12518821823E+00 -0.53133062593E+00  0.10462390541E+01  0.90007915053E+02  0.90000178731E+02 0.  0.
         12    1    1    2    0    0 -0.12518821823E+00  0.53133062593E+00 -0.10462390541E+01  0.11800849471E+01  0.00000000000E+00 0. -1.
         11    1    3    3    0    0 -0.14309312794E+01 -0.46577294292E+01  0.12857873779E+02  0.13750160950E+02  0.51100000000E-03 0. -1.
        -11    1    3    3    0    0 -0.25442268674E+02 -0.11778662938E+02  0.17746808036E+02  0.33181246686E+02  0.51100000000E-03 0.  1.
         12    1    3    3    0    0  0.26998388171E+02  0.15905061742E+02 -0.29558442761E+02  0.43076507418E+02  0.00000000000E+00 0. -1.
</event>
<event>
 7    1  0.1501154E-015  0.9000775E+02  0.7816164E-02  0.1186339E+00
        -11   -1    0    0    0    0  0.00000000000E+00  0.00000000000E+00  0.45593999997E+02  0.45594000000E+02  0.51100000000E-03 0. -1.
         11   -1    0    0    0    0 -0.00000000000E+00 -0.00000000000E+00 -0.45593999997E+02  0.45594000000E+02  0.51100000000E-03 0.  1.
    9900012    2    1    2    0    0  0.15326003503E+00 -0.81963213308E+00 -0.83528463047E+00  0.90007751769E+02  0.90000013293E+02 0.  0.
         12    1    1    2    0    0 -0.15326003503E+00  0.81963213308E+00  0.83528463047E+00  0.11802482306E+01  0.00000000000E+00 0. -1.
         11    1    3    3    0    0  0.19124712616E+02  0.92078402265E+00 -0.29080448776E+00  0.19149074217E+02  0.51100000000E-03 0. -1.
        -11    1    3    3    0    0  0.60767675930E+01 -0.13562089522E+02  0.27615229953E+02  0.31360138747E+02  0.51100000000E-03 0.  1.
         12    1    3    3    0    0 -0.25048220174E+02  0.11821673366E+02 -0.28159710096E+02  0.39498538805E+02  0.00000000000E+00 0. -1.
</event>
<event>
 7    1  0.1501154E-015  0.9000771E+02  0.7816164E-02  0.1186339E+00
        -11   -1    0    0    0    0  0.00000000000E+00  0.00000000000E+00  0.45593999997E+02  0.45594000000E+02  0.51100000000E-03 0. -1.
         11   -1    0    0    0    0 -0.00000000000E+00 -0.00000000000E+00 -0.45593999997E+02  0.45594000000E+02  0.51100000000E-03 0.  1.
    9900012    2    1    2    0    0  0.11157108478E+01 -0.37886923405E+00  0.68858680470E-01  0.90007705922E+02  0.89999966840E+02 0.  0.
         12    1    1    2    0    0 -0.11157108478E+01  0.37886923405E+00 -0.68858680470E-01  0.11802940779E+01  0.00000000000E+00 0. -1.
         11    1    3    3    0    0  0.11130385873E+02 -0.22798384388E+02  0.30726328731E+02  0.39846694943E+02  0.51100000000E-03 0. -1.
        -11    1    3    3    0    0 -0.14078606542E+01 -0.79758812785E+01 -0.57578979979E+01  0.99373106727E+01  0.51100000000E-03 0.  1.
        -12    1    3    3    0    0 -0.86068143705E+01  0.30395396432E+02 -0.24899572053E+02  0.40223700306E+02  0.00000000000E+00 0.  1.
</event>
<event>
 7    1  0.1501154E-015  0.9000771E+02  0.7816164E-02  0.1186339E+00
        -11   -1    0    0    0    0  0.00000000000E+00  0.00000000000E+00  0.45593999997E+02  0.45594000000E+02  0.51100000000E-03 0. -1.
         11   -1    0    0    0    0 -0.00000000000E+00 -0.00000000000E+00 -0.45593999997E+02  0.45594000000E+02  0.51100000000E-03 0.  1.
    9900012    2    1    2    0    0  0.94721979808E-01  0.11641068396E+01  0.17020031493E+00  0.90007709724E+02  0.89999970693E+02 0.  0.
         12    1    1    2    0    0 -0.94721979808E-01 -0.11641068396E+01 -0.17020031493E+00  0.11802902756E+01  0.00000000000E+00 0. -1.
         11    1    3    3    0    0  0.50457392968E+01  0.12749182209E+02  0.39417806611E+02  0.41734453516E+02  0.51100000000E-03 0. -1.
        -11    1    3    3    0    0 -0.84152677159E+01  0.21631742843E+01 -0.27422194366E+01  0.91113018507E+01  0.51100000000E-03 0.  1.
        -12    1    3    3    0    0  0.34642503989E+01 -0.13748249654E+02 -0.36505386859E+02  0.39161954357E+02  0.00000000000E+00 0.  1.
</event>
<event>
 7    1  0.1501154E-015  0.9000775E+02  0.7816164E-02  0.1186339E+00
        -11   -1    0    0    0    0  0.00000000000E+00  0.00000000000E+00  0.45593999997E+02  0.45594000000E+02  0.51100000000E-03 0.  1.
         11   -1    0    0    0    0 -0.00000000000E+00 -0.00000000000E+00 -0.45593999997E+02  0.45594000000E+02  0.51100000000E-03 0. -1.
    9900012    2    1    2    0    0 -0.11519998950E+01  0.16995122186E+00  0.19234456708E+00  0.90007752734E+02  0.90000014270E+02 0.  0.
         12    1    1    2    0    0  0.11519998950E+01 -0.16995122186E+00 -0.19234456708E+00  0.11802472658E+01  0.00000000000E+00 0. -1.
         11    1    3    3    0    0  0.69653771450E+01  0.41564188994E+01  0.32329994231E+01  0.87318143802E+01  0.51100000000E-03 0. -1.
        -11    1    3    3    0    0  0.21545896575E+02  0.22725535094E+02  0.18033074670E+02  0.36136787168E+02  0.51100000000E-03 0.  1.
         12    1    3    3    0    0 -0.29663273615E+02 -0.26712002771E+02 -0.21073729526E+02  0.45139151186E+02  0.00000000000E+00 0. -1.
</event>
<event>
 7    1  0.1501154E-015  0.9000771E+02  0.7816164E-02  0.1186339E+00
        -11   -1    0    0    0    0  0.00000000000E+00  0.00000000000E+00  0.45593999997E+02  0.45594000000E+02  0.51100000000E-03 0.  1.
         11   -1    0    0    0    0 -0.00000000000E+00 -0.00000000000E+00 -0.45593999997E+02  0.45594000000E+02  0.51100000000E-03 0. -1.
    9900012    2    1    2    0    0  0.18591139299E+00 -0.10115619145E+01  0.57902837498E+00  0.90007705794E+02  0.89999966711E+02 0.  0.
         12    1    1    2    0    0 -0.18591139299E+00  0.10115619145E+01 -0.57902837498E+00  0.11802942057E+01  0.00000000000E+00 0. -1.
         11    1    3    3    0    0 -0.41472635621E+01 -0.56362635992E+01  0.12521842709E+01  0.71088134117E+01  0.51100000000E-03 0. -1.
        -11    1    3    3    0    0  0.20609367314E+02  0.67961298606E+01  0.36385361317E+02  0.42365409482E+02  0.51100000000E-03 0.  1.
         12    1    3    3    0    0 -0.16276192359E+02 -0.21714281760E+01 -0.37058517213E+02  0.40533482900E+02  0.00000000000E+00 0. -1.
</event>
<event>
 7    1  0.1501154E-015  0.9000759E+02  0.7816164E-02  0.1186339E+00
        -11   -1    0    0    0    0  0.00000000000E+00  0.00000000000E+00  0.45593999997E+02  0.45594000000E+02  0.51100000000E-03 0. -1.
         11   -1    0    0    0    0 -0.00000000000E+00 -0.00000000000E+00 -0.45593999997E+02  0.45594000000E+02  0.51100000000E-03 0.  1.
    9900012    2    1    2    0    0 -0.56214823372E+00  0.70243141715E+00 -0.76416145131E+00  0.90007591911E+02  0.89999851324E+02 0.  0.
         12    1    1    2    0    0  0.56214823372E+00 -0.70243141715E+00  0.76416145131E+00  0.11804080888E+01  0.00000000000E+00 0. -1.
         11    1    3    3    0    0 -0.14101923628E+02 -0.29802557219E+02  0.15890449182E+02  0.36600041561E+02  0.51100000000E-03 0. -1.
        -11    1    3    3    0    0 -0.82657982049E+01  0.38502305385E+01  0.71126464435E+01  0.11564490255E+02  0.51100000000E-03 0.  1.
        -12    1    3    3    0    0  0.21805573599E+02  0.26654758097E+02 -0.23767257076E+02  0.41843060096E+02  0.00000000000E+00 0.  1.
</event>
<event>
 7    1  0.1501154E-015  0.9000775E+02  0.7816164E-02  0.1186339E+00
        -11   -1    0    0    0    0  0.00000000000E+00  0.00000000000E+00  0.45593999997E+02  0.45594000000E+02  0.51100000000E-03 0.  1.
         11   -1    0    0    0    0 -0.00000000000E+00 -0.00000000000E+00 -0.45593999997E+02  0.45594000000E+02  0.51100000000E-03 0. -1.
    9900012    2    1    2    0    0 -0.66003102262E+00  0.96042047186E+00  0.18695784672E+00  0.90007745083E+02  0.90000006518E+02 0.  0.
         12    1    1    2    0    0  0.66003102262E+00 -0.96042047186E+00 -0.18695784672E+00  0.11802549174E+01  0.00000000000E+00 0. -1.
         11    1    3    3    0    0 -0.73521744886E+01 -0.68388422478E+00 -0.71062256248E+01  0.10247956393E+02  0.51100000000E-03 0. -1.
        -11    1    3    3    0    0 -0.32775695401E+02 -0.63492996442E+01 -0.11514641774E+02  0.35314965530E+02  0.51100000000E-03 0.  1.
         12    1    3    3    0    0  0.39467838867E+02  0.79936043408E+01  0.18807825246E+02  0.44444823159E+02  0.00000000000E+00 0. -1.
</event>
<event>
 7    1  0.1501154E-015  0.9000780E+02  0.7816164E-02  0.1186339E+00
        -11   -1    0    0    0    0  0.00000000000E+00  0.00000000000E+00  0.45593999997E+02  0.45594000000E+02  0.51100000000E-03 0. -1.
         11   -1    0    0    0    0 -0.00000000000E+00 -0.00000000000E+00 -0.45593999997E+02  0.45594000000E+02  0.51100000000E-03 0.  1.
    9900012    2    1    2    0    0  0.64458215865E+00 -0.95474337093E+00 -0.25659765238E+00  0.90007803652E+02  0.90000065861E+02 0.  0.
         12    1    1    2    0    0 -0.64458215865E+00  0.95474337093E+00  0.25659765238E+00  0.11801963476E+01  0.00000000000E+00 0. -1.
         11    1    3    3    0    0  0.92439450740E+01 -0.71916026905E+01  0.82038534557E+01  0.14299401441E+02  0.51100000000E-03 0. -1.
        -11    1    3    3    0    0  0.20528909703E+02 -0.21512026550E+02  0.10098928128E+02  0.31403690381E+02  0.51100000000E-03 0.  1.
         12    1    3    3    0    0 -0.29128272619E+02  0.27748885870E+02 -0.18559379236E+02  0.44304711831E+02  0.00000000000E+00 0. -1.
</event>
<event>
 7    1  0.1501154E-015  0.9000771E+02  0.7816164E-02  0.1186339E+00
        -11   -1    0    0    0    0  0.00000000000E+00  0.00000000000E+00  0.45593999997E+02  0.45594000000E+02  0.51100000000E-03 0. -1.
         11   -1    0    0    0    0 -0.00000000000E+00 -0.00000000000E+00 -0.45593999997E+02  0.45594000000E+02  0.51100000000E-03 0.  1.
    9900012    2    1    2    0    0  0.23885013461E+00  0.68139867789E-01 -0.11538608907E+01  0.90007708772E+02  0.89999969728E+02 0.  0.
         12    1    1    2    0    0 -0.23885013461E+00 -0.68139867789E-01  0.11538608907E+01  0.11802912282E+01  0.00000000000E+00 0. -1.
         11    1    3    3    0    0  0.24698719610E+01  0.43322015488E+01 -0.86741277201E+01  0.10005435009E+02  0.51100000000E-03 0. -1.
        -11    1    3    3    0    0  0.40711913918E+01  0.14029092878E+02 -0.32454904570E+02  0.35590881940E+02  0.51100000000E-03 0.  1.
         12    1    3    3    0    0 -0.63022132182E+01 -0.18293154559E+02  0.39975171400E+02  0.44411391822E+02  0.00000000000E+00 0. -1.
</event>
<event>
 7    1  0.1501154E-015  0.9000765E+02  0.7816164E-02  0.1186339E+00
        -11   -1    0    0    0    0  0.00000000000E+00  0.00000000000E+00  0.45593999997E+02  0.45594000000E+02  0.51100000000E-03 0.  1.
         11   -1    0    0    0    0 -0.00000000000E+00 -0.00000000000E+00 -0.45593999997E+02  0.45594000000E+02  0.51100000000E-03 0. -1.
    9900012    2    1    2    0    0 -0.90515570378E+00  0.14514870954E+00  0.74354123145E+00  0.90007648968E+02  0.89999909134E+02 0.  0.
         12    1    1    2    0    0  0.90515570378E+00 -0.14514870954E+00 -0.74354123145E+00  0.11803510320E+01  0.00000000000E+00 0. -1.
         11    1    3    3    0    0 -0.11442101396E+02 -0.19581402652E+02 -0.36089478284E+02  0.42623977492E+02  0.51100000000E-03 0. -1.
        -11    1    3    3    0    0  0.87193848810E+01  0.31074229010E+01  0.31464442998E+01  0.97766999433E+01  0.51100000000E-03 0.  1.
        -12    1    3    3    0    0  0.18175608108E+01  0.16619128460E+02  0.33686575216E+02  0.37606971533E+02  0.00000000000E+00 0.  1.
</event>
<event>
 8    1  0.1501154E-015  0.9000790E+02  0.7816164E-02  0.1186339E+00
        -11   -1    0    0    0    0  0.00000000000E+00  0.00000000000E+00  0.45593999997E+02  0.45594000000E+02  0.51100000000E-03 0. -1.
         11   -1    0    0    0    0 -0.00000000000E+00 -0.00000000000E+00 -0.45593999997E+02  0.45594000000E+02  0.51100000000E-03 0.  1.
    9900012    2    1    2    0    0 -0.26000795083E+00  0.83457708130E+00 -0.79278844962E+00  0.90007899765E+02  0.90000163242E+02 0.  0.
         23    2    3    3    0    0 -0.52540149668E+01  0.71046830545E+01 -0.27307499092E+02  0.62308004180E+02  0.55303767355E+02 0.  0.
         12    1    1    2    0    0  0.26000795083E+00 -0.83457708130E+00  0.79278844962E+00  0.11801002351E+01  0.00000000000E+00 0. -1.
         11    1    4    4    0    0  0.15066309998E+02 -0.16644859720E+02 -0.28723988202E+01  0.22633950767E+02  0.51100000000E-03 0. -1.
        -11    1    4    4    0    0 -0.20320324965E+02  0.23749542775E+02 -0.24435100271E+02  0.39674053413E+02  0.51100000000E-03 0.  1.
         12    1    3    3    0    0  0.49940070160E+01 -0.62701059732E+01  0.26514710642E+02  0.27699895585E+02  0.00000000000E+00 0. -1.
</event>
<event>
 7    1  0.1501154E-015  0.9000781E+02  0.7816164E-02  0.1186339E+00
        -11   -1    0    0    0    0  0.00000000000E+00  0.00000000000E+00  0.45593999997E+02  0.45594000000E+02  0.51100000000E-03 0. -1.
         11   -1    0    0    0    0 -0.00000000000E+00 -0.00000000000E+00 -0.45593999997E+02  0.45594000000E+02  0.51100000000E-03 0.  1.
    9900012    2    1    2    0    0  0.48595286264E+00 -0.95042702742E+00 -0.50336821549E+00  0.90007813032E+02  0.90000075364E+02 0.  0.
         12    1    1    2    0    0 -0.48595286264E+00  0.95042702742E+00  0.50336821549E+00  0.11801869680E+01  0.00000000000E+00 0. -1.
         11    1    3    3    0    0 -0.13433654665E+02  0.35127325155E+02  0.33876043519E+01  0.37760666225E+02  0.51100000000E-03 0. -1.
        -11    1    3    3    0    0  0.38433174626E+01  0.54102511149E+01 -0.67390531687E+01  0.94581575435E+01  0.51100000000E-03 0.  1.
        -12    1    3    3    0    0  0.10076290065E+02 -0.41488003298E+02  0.28480806013E+01  0.42788989264E+02  0.00000000000E+00 0.  1.
</event>
<event>
 7    1  0.1501154E-015  0.9000773E+02  0.7816164E-02  0.1186339E+00
        -11   -1    0    0    0    0  0.00000000000E+00  0.00000000000E+00  0.45593999997E+02  0.45594000000E+02  0.51100000000E-03 0.  1.
         11   -1    0    0    0    0 -0.00000000000E+00 -0.00000000000E+00 -0.45593999997E+02  0.45594000000E+02  0.51100000000E-03 0. -1.
    9900012    2    1    2    0    0  0.55867689366E+00 -0.10376071184E+01 -0.65480896799E-01  0.90007730475E+02  0.89999991717E+02 0.  0.
         12    1    1    2    0    0 -0.55867689366E+00  0.10376071184E+01  0.65480896799E-01  0.11802695249E+01  0.00000000000E+00 0. -1.
         11    1    3    3    0    0  0.37576503877E+00  0.37214479691E+02 -0.47596057426E+01  0.37519495534E+02  0.51100000000E-03 0. -1.
        -11    1    3    3    0    0 -0.21980516515E+01  0.66693385259E+01  0.24871157701E+01  0.74496478139E+01  0.51100000000E-03 0.  1.
        -12    1    3    3    0    0  0.23809635064E+01 -0.44921425335E+02  0.22070090757E+01  0.45038587127E+02  0.00000000000E+00 0.  1.
</event>
<event>
 7    1  0.1501154E-015  0.9000766E+02  0.7816164E-02  0.1186339E+00
        -11   -1    0    0    0    0  0.00000000000E+00  0.00000000000E+00  0.45593999997E+02  0.45594000000E+02  0.51100000000E-03 0. -1.
         11   -1    0    0    0    0 -0.00000000000E+00 -0.00000000000E+00 -0.45593999997E+02  0.45594000000E+02  0.51100000000E-03 0.  1.
    9900012    2    1    2    0    0  0.10608476467E+01 -0.89898805616E-01 -0.50962180899E+00  0.90007663644E+02  0.89999924004E+02 0.  0.
         12    1    1    2    0    0 -0.10608476467E+01  0.89898805616E-01  0.50962180899E+00  0.11803363558E+01  0.00000000000E+00 0. -1.
         11    1    3    3    0    0  0.11104605453E+02 -0.69401181095E+01  0.10934040039E+02  0.17059622899E+02  0.51100000000E-03 0. -1.
        -11    1    3    3    0    0 -0.20871024790E+02  0.84763933985E+01  0.25728753171E+02  0.34196749272E+02  0.51100000000E-03 0.  1.
         12    1    3    3    0    0  0.10827266983E+02 -0.16261740946E+01 -0.37172415018E+02  0.38751291473E+02  0.00000000000E+00 0. -1.
</event>
<event>
 7    1  0.1501154E-015  0.9000800E+02  0.7816164E-02  0.1186339E+00
        -11   -1    0    0    0    0  0.00000000000E+00  0.00000000000E+00  0.45593999997E+02  0.45594000000E+02  0.51100000000E-03 0.  1.
         11   -1    0    0    0    0 -0.00000000000E+00 -0.00000000000E+00 -0.45593999997E+02  0.45594000000E+02  0.51100000000E-03 0. -1.
    9900012    2    1    2    0    0 -0.11174344720E+01  0.34777211769E+00  0.15094695685E+00  0.90008004140E+02  0.90000268995E+02 0.  0.
         12    1    1    2    0    0  0.11174344720E+01 -0.34777211769E+00 -0.15094695685E+00  0.11799958596E+01  0.00000000000E+00 0. -1.
         11    1    3    3    0    0 -0.16651388280E+02  0.34889718664E+02  0.13238882176E+02  0.40863543674E+02  0.51100000000E-03 0. -1.
        -11    1    3    3    0    0 -0.83279817060E+01 -0.66650658468E+01 -0.33285590901E+01  0.11173973685E+02  0.51100000000E-03 0.  1.
        -12    1    3    3    0    0  0.23861935514E+02 -0.27876880699E+02 -0.97593761286E+01  0.37970486781E+02  0.00000000000E+00 0.  1.
</event>
<event>
 7    1  0.1501154E-015  0.9000786E+02  0.7816164E-02  0.1186339E+00
        -11   -1    0    0    0    0  0.00000000000E+00  0.00000000000E+00  0.45593999997E+02  0.45594000000E+02  0.51100000000E-03 0. -1.
         11   -1    0    0    0    0 -0.00000000000E+00 -0.00000000000E+00 -0.45593999997E+02  0.45594000000E+02  0.51100000000E-03 0.  1.
    9900012    2    1    2    0    0  0.97955178926E+00  0.32079269728E+00  0.57472429606E+00  0.90007856924E+02  0.90000119836E+02 0.  0.
         12    1    1    2    0    0 -0.97955178926E+00 -0.32079269728E+00 -0.57472429606E+00  0.11801430756E+01  0.00000000000E+00 0. -1.
         11    1    3    3    0    0 -0.56726070559E+01 -0.95296937535E+01 -0.51537787755E+01  0.12229266935E+02  0.51100000000E-03 0. -1.
        -11    1    3    3    0    0  0.18963965792E+02 -0.20811876644E+02 -0.21125710549E+02  0.35200310432E+02  0.51100000000E-03 0.  1.
         12    1    3    3    0    0 -0.12311806947E+02  0.30662363095E+02  0.26854213621E+02  0.42578279557E+02  0.00000000000E+00 0. -1.
</event>
<event>
 7    1  0.1501154E-015  0.9000765E+02  0.7816164E-02  0.1186339E+00
        -11   -1    0    0    0    0  0.00000000000E+00  0.00000000000E+00  0.45593999997E+02  0.45594000000E+02  0.51100000000E-03 0. -1.
         11   -1    0    0    0    0 -0.00000000000E+00 -0.00000000000E+00 -0.45593999997E+02  0.45594000000E+02  0.51100000000E-03 0.  1.
    9900012    2    1    2    0    0  0.25263781293E+00 -0.10957492434E+01 -0.35879573304E+00  0.90007649778E+02  0.89999909955E+02 0.  0.
         12    1    1    2    0    0 -0.25263781293E+00  0.10957492434E+01  0.35879573304E+00  0.11803502221E+01  0.00000000000E+00 0. -1.
         11    1    3    3    0    0 -0.20477253548E+02 -0.33775527383E+02 -0.51782092057E+01  0.39836139543E+02  0.51100000000E-03 0. -1.
        -11    1    3    3    0    0  0.61901557537E+01 -0.46251708223E+01  0.65006534283E+01  0.10097956657E+02  0.51100000000E-03 0.  1.
        -12    1    3    3    0    0  0.14539735608E+02  0.37304948962E+02 -0.16812399557E+01  0.40073553578E+02  0.00000000000E+00 0.  1.
</event>
<event>
 7    1  0.1501154E-015  0.9000776E+02  0.7816164E-02  0.1186339E+00
        -11   -1    0    0    0    0  0.00000000000E+00  0.00000000000E+00  0.45593999997E+02  0.45594000000E+02  0.51100000000E-03 0. -1.
         11   -1    0    0    0    0 -0.00000000000E+00 -0.00000000000E+00 -0.45593999997E+02  0.45594000000E+02  0.51100000000E-03 0.  1.
    9900012    2    1    2    0    0  0.31113519760E+00  0.92651860253E+00 -0.66160815813E+00  0.90007759691E+02  0.90000021319E+02 0.  0.
         12    1    1    2    0    0 -0.31113519760E+00 -0.92651860253E+00  0.66160815813E+00  0.11802403090E+01  0.00000000000E+00 0. -1.
         11    1    3    3    0    0  0.11672249168E+02  0.71812729553E+01  0.48546099446E+00  0.13713050519E+02  0.51100000000E-03 0. -1.
        -11    1    3    3    0    0 -0.30284520654E+02 -0.23568615048E+02 -0.21105130510E+02  0.43795642941E+02  0.51100000000E-03 0.  1.
         12    1    3    3    0    0  0.18923406683E+02  0.17313860695E+02  0.19958061358E+02  0.32499066230E+02  0.00000000000E+00 0. -1.
</event>
<event>
 7    1  0.1501154E-015  0.9000770E+02  0.7816164E-02  0.1186339E+00
        -11   -1    0    0    0    0  0.00000000000E+00  0.00000000000E+00  0.45593999997E+02  0.45594000000E+02  0.51100000000E-03 0.  1.
         11   -1    0    0    0    0 -0.00000000000E+00 -0.00000000000E+00 -0.45593999997E+02  0.45594000000E+02  0.51100000000E-03 0. -1.
    9900012    2    1    2    0    0  0.17732932855E+00  0.10528631589E+01  0.50312949430E+00  0.90007700966E+02  0.89999961819E+02 0.  0.
         12    1    1    2    0    0 -0.17732932855E+00 -0.10528631589E+01 -0.50312949430E+00  0.11802990342E+01  0.00000000000E+00 0. -1.
         11    1    3    3    0    0  0.23710879994E+02 -0.74519513239E+01 -0.28063522512E+02  0.37487313916E+02  0.51100000000E-03 0. -1.
        -11    1    3    3    0    0  0.80534938045E+01  0.71040502446E+01  0.13915606832E+01  0.10828791887E+02  0.51100000000E-03 0.  1.
        -12    1    3    3    0    0 -0.31587044470E+02  0.14007642382E+01  0.27175091323E+02  0.41691595163E+02  0.00000000000E+00 0.  1.
</event>
<event>
 7    1  0.1501154E-015  0.9000749E+02  0.7816164E-02  0.1186340E+00
        -11   -1    0    0    0    0  0.00000000000E+00  0.00000000000E+00  0.45593999997E+02  0.45594000000E+02  0.51100000000E-03 0.  1.
         11   -1    0    0    0    0 -0.00000000000E+00 -0.00000000000E+00 -0.45593999997E+02  0.45594000000E+02  0.51100000000E-03 0. -1.
    9900012    2    1    2    0    0 -0.15772933913E+00  0.28600914099E+00  0.11344275970E+01  0.90007489201E+02  0.89999747258E+02 0.  0.
         12    1    1    2    0    0  0.15772933913E+00 -0.28600914099E+00 -0.11344275970E+01  0.11805107988E+01  0.00000000000E+00 0. -1.
         11    1    3    3    0    0 -0.39303126043E+01 -0.72587960196E+00 -0.76277165234E+01  0.86114062723E+01  0.51100000000E-03 0. -1.
        -11    1    3    3    0    0  0.37994854844E+02  0.14926886100E+02 -0.66630068443E+01  0.41362018612E+02  0.51100000000E-03 0.  1.
         12    1    3    3    0    0 -0.34222271578E+02 -0.13914997357E+02  0.15425150965E+02  0.40034064317E+02  0.00000000000E+00 0. -1.
</event>
<event>
 7    1  0.1501154E-015  0.9000779E+02  0.7816164E-02  0.1186339E+00
        -11   -1    0    0    0    0  0.00000000000E+00  0.00000000000E+00  0.45593999997E+02  0.45594000000E+02  0.51100000000E-03 0.  1.
         11   -1    0    0    0    0 -0.00000000000E+00 -0.00000000000E+00 -0.45593999997E+02  0.45594000000E+02  0.51100000000E-03 0. -1.
    9900012    2    1    2    0    0  0.10621414556E+01  0.26164589191E+00 -0.44304417882E+00  0.90007791887E+02  0.90000053940E+02 0.  0.
         12    1    1    2    0    0 -0.10621414556E+01 -0.26164589191E+00  0.44304417882E+00  0.11802081125E+01  0.00000000000E+00 0. -1.
         11    1    3    3    0    0 -0.18516743376E+02 -0.28838493236E+02 -0.10337203770E+02  0.35796455962E+02  0.51100000000E-03 0. -1.
        -11    1    3    3    0    0 -0.10675203206E+02  0.76492864590E-01 -0.14637507447E+01  0.10775359908E+02  0.51100000000E-03 0.  1.
        -12    1    3    3    0    0  0.30254088038E+02  0.29023646264E+02  0.11357910335E+02  0.43435976018E+02  0.00000000000E+00 0.  1.
</event>
<event>
 7    1  0.1501154E-015  0.9000774E+02  0.7816164E-02  0.1186339E+00
        -11   -1    0    0    0    0  0.00000000000E+00  0.00000000000E+00  0.45593999997E+02  0.45594000000E+02  0.51100000000E-03 0.  1.
         11   -1    0    0    0    0 -0.00000000000E+00 -0.00000000000E+00 -0.45593999997E+02  0.45594000000E+02  0.51100000000E-03 0. -1.
    9900012    2    1    2    0    0 -0.77989995496E+00  0.59575137722E+00  0.65562128099E+00  0.90007744558E+02  0.90000005987E+02 0.  0.
         12    1    1    2    0    0  0.77989995496E+00 -0.59575137722E+00 -0.65562128099E+00  0.11802554415E+01  0.00000000000E+00 0. -1.
         11    1    3    3    0    0 -0.21342247221E+02 -0.22913233184E+02 -0.27558981737E+02  0.41713370111E+02  0.51100000000E-03 0. -1.
        -11    1    3    3    0    0 -0.53071835933E+01  0.47205226669E+01  0.66440837531E+01  0.97259128682E+01  0.51100000000E-03 0.  1.
        -12    1    3    3    0    0  0.25869530859E+02  0.18788461895E+02  0.21570519265E+02  0.38568461579E+02  0.00000000000E+00 0.  1.
</event>
<event>
 7    1  0.1501154E-015  0.9000778E+02  0.7816164E-02  0.1186339E+00
        -11   -1    0    0    0    0  0.00000000000E+00  0.00000000000E+00  0.45593999997E+02  0.45594000000E+02  0.51100000000E-03 0. -1.
         11   -1    0    0    0    0 -0.00000000000E+00 -0.00000000000E+00 -0.45593999997E+02  0.45594000000E+02  0.51100000000E-03 0.  1.
    9900012    2    1    2    0    0  0.92241527396E+00  0.63443668700E+00 -0.37358348049E+00  0.90007777790E+02  0.90000039657E+02 0.  0.
         12    1    1    2    0    0 -0.92241527396E+00 -0.63443668700E+00  0.37358348049E+00  0.11802222097E+01  0.00000000000E+00 0. -1.
         11    1    3    3    0    0 -0.10477261571E+02  0.59382024728E+00  0.34862994807E+02  0.36408158971E+02  0.51100000000E-03 0. -1.
        -11    1    3    3    0    0 -0.95703650544E+01  0.19932236462E+01  0.27588934897E+01  0.10157574579E+02  0.51100000000E-03 0.  1.
        -12    1    3    3    0    0  0.20970041899E+02 -0.19526072064E+01 -0.37995471777E+02  0.43442044240E+02  0.00000000000E+00 0.  1.
</event>
<event>
 7    1  0.1501154E-015  0.9000782E+02  0.7816164E-02  0.1186339E+00
        -11   -1    0    0    0    0  0.00000000000E+00  0.00000000000E+00  0.45593999997E+02  0.45594000000E+02  0.51100000000E-03 0.  1.
         11   -1    0    0    0    0 -0.00000000000E+00 -0.00000000000E+00 -0.45593999997E+02  0.45594000000E+02  0.51100000000E-03 0. -1.
    9900012    2    1    2    0    0  0.92375081992E+00  0.58552726861E+00  0.44347132125E+00  0.90007820110E+02  0.90000082536E+02 0.  0.
         12    1    1    2    0    0 -0.92375081992E+00 -0.58552726861E+00 -0.44347132125E+00  0.11801798898E+01  0.00000000000E+00 0. -1.
         11    1    3    3    0    0  0.27732236603E+02 -0.10790431148E+02 -0.29547877241E+01  0.29903864669E+02  0.51100000000E-03 0. -1.
        -11    1    3    3    0    0  0.50261414966E+01 -0.16713426848E+02  0.25660473815E+01  0.17640445991E+02  0.51100000000E-03 0.  1.
        -12    1    3    3    0    0 -0.31834627279E+02  0.28089385265E+02  0.83221166385E+00  0.42463509450E+02  0.00000000000E+00 0.  1.
</event>
<event>
 7    1  0.1501154E-015  0.9000769E+02  0.7816164E-02  0.1186339E+00
        -11   -1    0    0    0    0  0.00000000000E+00  0.00000000000E+00  0.45593999997E+02  0.45594000000E+02  0.51100000000E-03 0.  1.
         11   -1    0    0    0    0 -0.00000000000E+00 -0.00000000000E+00 -0.45593999997E+02  0.45594000000E+02  0.51100000000E-03 0. -1.
    9900012    2    1    2    0    0  0.30622248503E+00  0.80394760594E+00  0.80810764662E+00  0.90007685664E+02  0.89999946315E+02 0.  0.
         12    1    1    2    0    0 -0.30622248503E+00 -0.80394760594E+00 -0.80810764662E+00  0.11803143361E+01  0.00000000000E+00 0. -1.
         11    1    3    3    0    0  0.32192393733E+02  0.10774539845E+02 -0.66161861675E+01  0.34586338962E+02  0.51100000000E-03 0. -1.
        -11    1    3    3    0    0  0.41563219762E+01  0.88772298701E+01  0.10828474469E+02  0.14606028965E+02  0.51100000000E-03 0.  1.
        -12    1    3    3    0    0 -0.36042493224E+02 -0.18847822110E+02 -0.34041806548E+01  0.40815317737E+02  0.00000000000E+00 0.  1.
</event>
<event>
 7    1  0.1501154E-015  0.9000784E+02  0.7816164E-02  0.1186339E+00
        -11   -1    0    0    0    0  0.00000000000E+00  0.00000000000E+00  0.45593999997E+02  0.45594000000E+02  0.51100000000E-03 0.  1.
         11   -1    0    0    0    0 -0.00000000000E+00 -0.00000000000E+00 -0.45593999997E+02  0.45594000000E+02  0.51100000000E-03 0. -1.
    9900012    2    1    2    0    0  0.87151312269E+00 -0.66532603938E+00 -0.43657202029E+00  0.90007835185E+02  0.90000097809E+02 0.  0.
         12    1    1    2    0    0 -0.87151312269E+00  0.66532603938E+00  0.43657202029E+00  0.11801648150E+01  0.00000000000E+00 0. -1.
         11    1    3    3    0    0  0.76839795810E+01  0.59292740750E+01 -0.16532648926E+01  0.98454618137E+01  0.51100000000E-03 0. -1.
        -11    1    3    3    0    0 -0.19530831849E+02 -0.56771800875E+01  0.36974216395E+02  0.42199246969E+02  0.51100000000E-03 0.  1.
         12    1    3    3    0    0  0.12718365391E+02 -0.91742002683E+00 -0.35757523523E+02  0.37963126402E+02  0.00000000000E+00 0. -1.
</event>
<event>
 7    1  0.1501154E-015  0.9000771E+02  0.7816164E-02  0.1186339E+00
        -11   -1    0    0    0    0  0.00000000000E+00  0.00000000000E+00  0.45593999997E+02  0.45594000000E+02  0.51100000000E-03 0.  1.
         11   -1    0    0    0    0 -0.00000000000E+00 -0.00000000000E+00 -0.45593999997E+02  0.45594000000E+02  0.51100000000E-03 0. -1.
    9900012    2    1    2    0    0  0.24688964070E+00  0.93980707182E+00  0.66999620680E+00  0.90007709043E+02  0.89999970002E+02 0.  0.
         12    1    1    2    0    0 -0.24688964070E+00 -0.93980707182E+00 -0.66999620680E+00  0.11802909574E+01  0.00000000000E+00 0. -1.
         11    1    3    3    0    0 -0.29035850476E+01 -0.27135324542E+02 -0.22407964909E+02  0.35311096497E+02  0.51100000000E-03 0. -1.
        -11    1    3    3    0    0  0.78708732590E+01 -0.88949895276E+01  0.25536700155E+01  0.12148774233E+02  0.51100000000E-03 0.  1.
        -12    1    3    3    0    0 -0.47203985707E+01  0.36970121142E+02  0.20524291101E+02  0.42547838313E+02  0.00000000000E+00 0.  1.
</event>
<event>
 7    1  0.1501154E-015  0.9000744E+02  0.7816164E-02  0.1186340E+00
        -11   -1    0    0    0    0  0.00000000000E+00  0.00000000000E+00  0.45593999997E+02  0.45594000000E+02  0.51100000000E-03 0. -1.
         11   -1    0    0    0    0 -0.00000000000E+00 -0.00000000000E+00 -0.45593999997E+02  0.45594000000E+02  0.51100000000E-03 0.  1.
    9900012    2    1    2    0    0 -0.87198590681E+00 -0.41904563595E+00  0.67658420656E+00  0.90007438754E+02  0.89999696145E+02 0.  0.
         12    1    1    2    0    0  0.87198590681E+00  0.41904563595E+00 -0.67658420656E+00  0.11805612459E+01  0.00000000000E+00 0. -1.
         11    1    3    3    0    0  0.56336098063E+00 -0.84957237056E+01  0.63825166639E+01  0.10641015746E+02  0.51100000000E-03 0. -1.
        -11    1    3    3    0    0  0.20617210516E+02  0.36804718884E+02 -0.85319096123E+01  0.43040099715E+02  0.51100000000E-03 0.  1.
         12    1    3    3    0    0 -0.22052557404E+02 -0.28728040815E+02  0.28259771549E+01  0.36326323293E+02  0.00000000000E+00 0. -1.
</event>
<event>
 7    1  0.1501154E-015  0.9000771E+02  0.7816164E-02  0.1186339E+00
        -11   -1    0    0    0    0  0.00000000000E+00  0.00000000000E+00  0.45593999997E+02  0.45594000000E+02  0.51100000000E-03 0. -1.
         11   -1    0    0    0    0 -0.00000000000E+00 -0.00000000000E+00 -0.45593999997E+02  0.45594000000E+02  0.51100000000E-03 0.  1.
    9900012    2    1    2    0    0  0.14433834024E+00 -0.11402438054E+01  0.26849405078E+00  0.90007712515E+02  0.89999973520E+02 0.  0.
         12    1    1    2    0    0 -0.14433834024E+00  0.11402438054E+01 -0.26849405078E+00  0.11802874851E+01  0.00000000000E+00 0. -1.
         11    1    3    3    0    0 -0.24670895995E+01  0.17596624096E+02  0.32313013510E+02  0.36876260019E+02  0.51100000000E-03 0. -1.
        -11    1    3    3    0    0 -0.43669947890E+01  0.10007008120E+02 -0.22498773054E+01  0.11147771219E+02  0.51100000000E-03 0.  1.
        -12    1    3    3    0    0  0.69784227288E+01 -0.28743876021E+02 -0.29794642153E+02  0.41983681277E+02  0.00000000000E+00 0.  1.
</event>
<event>
 7    1  0.1703630E-015  0.9000772E+02  0.7816164E-02  0.1186339E+00
        -11   -1    0    0    0    0  0.00000000000E+00  0.00000000000E+00  0.45593999997E+02  0.45594000000E+02  0.51100000000E-03 0.  1.
         11   -1    0    0    0    0 -0.00000000000E+00 -0.00000000000E+00 -0.45593999997E+02  0.45594000000E+02  0.51100000000E-03 0. -1.
    9900012    2    1    2    0    0 -0.56040388331E+00  0.10385521654E+01  0.20509851588E-01  0.90007718776E+02  0.89999979864E+02 0.  0.
         12    1    1    2    0    0  0.56040388331E+00 -0.10385521654E+01 -0.20509851588E-01  0.11802812235E+01  0.00000000000E+00 0. -1.
         11    1    3    3    0    0  0.28901414724E+01 -0.12954475297E+02 -0.34089760173E+02  0.36582551809E+02  0.51100000000E-03 0. -1.
        -11    1    3    3    0    0 -0.22213076963E+01  0.42118687524E+01 -0.84710256730E+01  0.97176294683E+01  0.51100000000E-03 0.  1.
        -12    1    3    3    0    0 -0.12292376593E+01  0.97811587099E+01  0.42581295698E+02  0.43707537499E+02  0.00000000000E+00 0.  1.
</event>
<event>
 7    1  0.1501154E-015  0.9000784E+02  0.7816164E-02  0.1186339E+00
        -11   -1    0    0    0    0  0.00000000000E+00  0.00000000000E+00  0.45593999997E+02  0.45594000000E+02  0.51100000000E-03 0.  1.
         11   -1    0    0    0    0 -0.00000000000E+00 -0.00000000000E+00 -0.45593999997E+02  0.45594000000E+02  0.51100000000E-03 0. -1.
    9900012    2    1    2    0    0  0.13519024755E+00  0.11392122522E+01  0.27692927256E+00  0.90007842900E+02  0.90000105626E+02 0.  0.
         12    1    1    2    0    0 -0.13519024755E+00 -0.11392122522E+01 -0.27692927256E+00  0.11801571000E+01  0.00000000000E+00 0. -1.
         11    1    3    3    0    0  0.35841714522E+02  0.15953339414E+01  0.12407649284E+02  0.37962130489E+02  0.51100000000E-03 0. -1.
        -11    1    3    3    0    0  0.58966074862E+01 -0.36817273094E+01 -0.72317742932E+01  0.10031134309E+02  0.51100000000E-03 0.  1.
        -12    1    3    3    0    0 -0.41603131761E+02  0.32256056202E+01 -0.48989457181E+01  0.42014578102E+02  0.00000000000E+00 0.  1.
</event>
<event>
 7    1  0.1501154E-015  0.9000773E+02  0.7816164E-02  0.1186339E+00
        -11   -1    0    0    0    0  0.00000000000E+00  0.00000000000E+00  0.45593999997E+02  0.45594000000E+02  0.51100000000E-03 0.  1.
         11   -1    0    0    0    0 -0.00000000000E+00 -0.00000000000E+00 -0.45593999997E+02  0.45594000000E+02  0.51100000000E-03 0. -1.
    9900012    2    1    2    0    0  0.80990234600E+00  0.84936233456E+00  0.12520627438E+00  0.90007731049E+02  0.89999992299E+02 0.  0.
         12    1    1    2    0    0 -0.80990234600E+00 -0.84936233456E+00 -0.12520627438E+00  0.11802689509E+01  0.00000000000E+00 0. -1.
         11    1    3    3    0    0  0.30144893384E+02 -0.13113022763E+02 -0.12474345277E+02  0.35160706100E+02  0.51100000000E-03 0. -1.
        -11    1    3    3    0    0  0.84482467461E+01 -0.56619025339E+00 -0.59200660650E+01  0.10331535557E+02  0.51100000000E-03 0.  1.
        -12    1    3    3    0    0 -0.37783237784E+02  0.14528575350E+02  0.18519617616E+02  0.44515489392E+02  0.00000000000E+00 0.  1.
</event>
<event>
 7    1  0.1501154E-015  0.9000774E+02  0.7816164E-02  0.1186339E+00
        -11   -1    0    0    0    0  0.00000000000E+00  0.00000000000E+00  0.45593999997E+02  0.45594000000E+02  0.51100000000E-03 0.  1.
         11   -1    0    0    0    0 -0.00000000000E+00 -0.00000000000E+00 -0.45593999997E+02  0.45594000000E+02  0.51100000000E-03 0. -1.
    9900012    2    1    2    0    0  0.11757262656E+01  0.10267130200E+00  0.11896813302E-01  0.90007739358E+02  0.90000000718E+02 0.  0.
         12    1    1    2    0    0 -0.11757262656E+01 -0.10267130200E+00 -0.11896813302E-01  0.11802606416E+01  0.00000000000E+00 0. -1.
         11    1    3    3    0    0 -0.96517454250E+01  0.31807330035E+01 -0.47027393057E+01  0.11197723404E+02  0.51100000000E-03 0. -1.
        -11    1    3    3    0    0 -0.30338425191E+02 -0.13933882250E+02 -0.80927201464E+01  0.34352077627E+02  0.51100000000E-03 0.  1.
         12    1    3    3    0    0  0.41165896882E+02  0.10855820548E+02  0.12807356265E+02  0.44457938328E+02  0.00000000000E+00 0. -1.
</event>
<event>
 7    1  0.1501154E-015  0.9000771E+02  0.7816164E-02  0.1186339E+00
        -11   -1    0    0    0    0  0.00000000000E+00  0.00000000000E+00  0.45593999997E+02  0.45594000000E+02  0.51100000000E-03 0.  1.
         11   -1    0    0    0    0 -0.00000000000E+00 -0.00000000000E+00 -0.45593999997E+02  0.45594000000E+02  0.51100000000E-03 0. -1.
    9900012    2    1    2    0    0 -0.38276447188E+00 -0.10996876399E+01 -0.19301567479E+00  0.90007713341E+02  0.89999974357E+02 0.  0.
         12    1    1    2    0    0  0.38276447188E+00  0.10996876399E+01  0.19301567479E+00  0.11802866588E+01  0.00000000000E+00 0. -1.
         11    1    3    3    0    0  0.11758784313E+02 -0.53485062287E+01 -0.42061641826E+02  0.44000650459E+02  0.51100000000E-03 0. -1.
        -11    1    3    3    0    0  0.14639062898E+01 -0.31629358544E+01  0.95640970618E+01  0.10179348590E+02  0.51100000000E-03 0.  1.
        -12    1    3    3    0    0 -0.13605455075E+02  0.74117544433E+01  0.32304529090E+02  0.35827714293E+02  0.00000000000E+00 0.  1.
</event>
<event>
 7    1  0.1501154E-015  0.9000782E+02  0.7816164E-02  0.1186339E+00
        -11   -1    0    0    0    0  0.00000000000E+00  0.00000000000E+00  0.45593999997E+02  0.45594000000E+02  0.51100000000E-03 0.  1.
         11   -1    0    0    0    0 -0.00000000000E+00 -0.00000000000E+00 -0.45593999997E+02  0.45594000000E+02  0.51100000000E-03 0. -1.
    9900012    2    1    2    0    0  0.53023805496E+00  0.10512737558E+01  0.80567295748E-01  0.90007822050E+02  0.90000084501E+02 0.  0.
         12    1    1    2    0    0 -0.53023805496E+00 -0.10512737558E+01 -0.80567295748E-01  0.11801779500E+01  0.00000000000E+00 0. -1.
         11    1    3    3    0    0 -0.26090998175E+02 -0.21482657203E+02 -0.54829684378E+01  0.34238979094E+02  0.51100000000E-03 0. -1.
        -11    1    3    3    0    0 -0.77519204279E+01 -0.45092935328E+00 -0.90388994523E+01  0.11916262467E+02  0.51100000000E-03 0.  1.
        -12    1    3    3    0    0  0.34373156658E+02  0.22984860312E+02  0.14602435186E+02  0.43852580489E+02  0.00000000000E+00 0.  1.
</event>
<event>
 7    1  0.1501154E-015  0.9000772E+02  0.7816164E-02  0.1186339E+00
        -11   -1    0    0    0    0  0.00000000000E+00  0.00000000000E+00  0.45593999997E+02  0.45594000000E+02  0.51100000000E-03 0.  1.
         11   -1    0    0    0    0 -0.00000000000E+00 -0.00000000000E+00 -0.45593999997E+02  0.45594000000E+02  0.51100000000E-03 0. -1.
    9900012    2    1    2    0    0  0.68309610231E+00  0.90682471620E+00  0.32264186952E+00  0.90007724978E+02  0.89999986148E+02 0.  0.
         12    1    1    2    0    0 -0.68309610231E+00 -0.90682471620E+00 -0.32264186952E+00  0.11802750217E+01  0.00000000000E+00 0. -1.
         11    1    3    3    0    0 -0.25549608881E+02 -0.25016492277E+02 -0.53653615929E+01  0.36157910685E+02  0.51100000000E-03 0. -1.
        -11    1    3    3    0    0 -0.91733796884E+00 -0.24300905281E+01 -0.10920314010E+02  0.11224976938E+02  0.51100000000E-03 0.  1.
        -12    1    3    3    0    0  0.27150042952E+02  0.28353407521E+02  0.16608317472E+02  0.42624837356E+02  0.00000000000E+00 0.  1.
</event>
<event>
 7    1  0.1501154E-015  0.9000777E+02  0.7816164E-02  0.1186339E+00
        -11   -1    0    0    0    0  0.00000000000E+00  0.00000000000E+00  0.45593999997E+02  0.45594000000E+02  0.51100000000E-03 0. -1.
         11   -1    0    0    0    0 -0.00000000000E+00 -0.00000000000E+00 -0.45593999997E+02  0.45594000000E+02  0.51100000000E-03 0.  1.
    9900012    2    1    2    0    0 -0.34685907572E+00  0.84949989893E+00  0.74228780406E+00  0.90007765921E+02  0.90000027631E+02 0.  0.
         12    1    1    2    0    0  0.34685907572E+00 -0.84949989893E+00 -0.74228780406E+00  0.11802340788E+01  0.00000000000E+00 0. -1.
         11    1    3    3    0    0 -0.99181048248E+01  0.13672513293E+01 -0.15690272447E+01  0.10134102144E+02  0.51100000000E-03 0. -1.
        -11    1    3    3    0    0 -0.46272138073E+01 -0.37539890455E+02 -0.85154387437E+01  0.38770700023E+02  0.51100000000E-03 0.  1.
         12    1    3    3    0    0  0.14198459556E+02  0.37022139024E+02  0.10826753792E+02  0.41102963754E+02  0.00000000000E+00 0. -1.
</event>
<event>
 7    1  0.1501154E-015  0.9000774E+02  0.7816164E-02  0.1186339E+00
        -11   -1    0    0    0    0  0.00000000000E+00  0.00000000000E+00  0.45593999997E+02  0.45594000000E+02  0.51100000000E-03 0. -1.
         11   -1    0    0    0    0 -0.00000000000E+00 -0.00000000000E+00 -0.45593999997E+02  0.45594000000E+02  0.51100000000E-03 0.  1.
    9900012    2    1    2    0    0 -0.36225803760E+00  0.88738095328E+00 -0.68871396872E+00  0.90007744615E+02  0.90000006044E+02 0.  0.
         12    1    1    2    0    0  0.36225803760E+00 -0.88738095328E+00  0.68871396872E+00  0.11802553846E+01  0.00000000000E+00 0. -1.
         11    1    3    3    0    0  0.50508559787E+01  0.30687356139E+01  0.64668534586E+01  0.87606208857E+01  0.51100000000E-03 0. -1.
        -11    1    3    3    0    0  0.12514794400E+01  0.38048429683E+02 -0.12616108440E+02  0.40105054477E+02  0.51100000000E-03 0.  1.
         12    1    3    3    0    0 -0.66645934563E+01 -0.40229784344E+02  0.54605410126E+01  0.41142069253E+02  0.00000000000E+00 0. -1.
</event>
<event>
 7    1  0.1501154E-015  0.9000776E+02  0.7816164E-02  0.1186339E+00
        -11   -1    0    0    0    0  0.00000000000E+00  0.00000000000E+00  0.45593999997E+02  0.45594000000E+02  0.51100000000E-03 0. -1.
         11   -1    0    0    0    0 -0.00000000000E+00 -0.00000000000E+00 -0.45593999997E+02  0.45594000000E+02  0.51100000000E-03 0.  1.
    9900012    2    1    2    0    0 -0.10754392518E+01 -0.52271682915E-01 -0.48339302544E+00  0.90007758190E+02  0.90000019798E+02 0.  0.
         12    1    1    2    0    0  0.10754392518E+01  0.52271682915E-01  0.48339302544E+00  0.11802418101E+01  0.00000000000E+00 0. -1.
         11    1    3    3    0    0 -0.61905063882E+01 -0.70111867826E+01  0.29658811934E+01  0.98120110557E+01  0.51100000000E-03 0. -1.
        -11    1    3    3    0    0 -0.66404588088E+01  0.40775037150E+02 -0.12697253734E+02  0.43219435448E+02  0.51100000000E-03 0.  1.
         12    1    3    3    0    0  0.11755525945E+02 -0.33816122051E+02  0.92479795149E+01  0.36976311686E+02  0.00000000000E+00 0. -1.
</event>
<event>
 7    1  0.1501154E-015  0.9000772E+02  0.7816164E-02  0.1186339E+00
        -11   -1    0    0    0    0  0.00000000000E+00  0.00000000000E+00  0.45593999997E+02  0.45594000000E+02  0.51100000000E-03 0. -1.
         11   -1    0    0    0    0 -0.00000000000E+00 -0.00000000000E+00 -0.45593999997E+02  0.45594000000E+02  0.51100000000E-03 0.  1.
    9900012    2    1    2    0    0  0.37542738819E+00 -0.10225492014E+00 -0.11142941807E+01  0.90007723205E+02  0.89999984351E+02 0.  0.
         12    1    1    2    0    0 -0.37542738819E+00  0.10225492014E+00  0.11142941807E+01  0.11802767954E+01  0.00000000000E+00 0. -1.
         11    1    3    3    0    0  0.33653836539E+02 -0.60979127845E+01  0.15171822106E+02  0.37415898230E+02  0.51100000000E-03 0. -1.
        -11    1    3    3    0    0  0.46628638238E+01  0.59218607408E+01  0.50405783733E+01  0.90674232432E+01  0.51100000000E-03 0.  1.
        -12    1    3    3    0    0 -0.37941272974E+02  0.73797123580E-01 -0.21326694660E+02  0.43524401731E+02  0.00000000000E+00 0.  1.
</event>
<event>
 7    1  0.1501154E-015  0.9000778E+02  0.7816164E-02  0.1186339E+00
        -11   -1    0    0    0    0  0.00000000000E+00  0.00000000000E+00  0.45593999997E+02  0.45594000000E+02  0.51100000000E-03 0. -1.
         11   -1    0    0    0    0 -0.00000000000E+00 -0.00000000000E+00 -0.45593999997E+02  0.45594000000E+02  0.51100000000E-03 0.  1.
    9900012    2    1    2    0    0 -0.97468791100E+00 -0.59657637410E+00 -0.29496845324E+00  0.90007777020E+02  0.90000038877E+02 0.  0.
         12    1    1    2    0    0  0.97468791100E+00  0.59657637410E+00  0.29496845324E+00  0.11802229799E+01  0.00000000000E+00 0. -1.
         11    1    3    3    0    0  0.37458321824E+02  0.91010492838E+01  0.78039374016E+00  0.38555985095E+02  0.51100000000E-03 0. -1.
        -11    1    3    3    0    0 -0.94446956900E+01  0.11479141396E+02  0.34723818557E+01  0.15265333271E+02  0.51100000000E-03 0.  1.
        -12    1    3    3    0    0 -0.28988314045E+02 -0.21176767054E+02 -0.45477440491E+01  0.36186458655E+02  0.00000000000E+00 0.  1.
</event>
<event>
 7    1  0.1501154E-015  0.9000771E+02  0.7816164E-02  0.1186339E+00
        -11   -1    0    0    0    0  0.00000000000E+00  0.00000000000E+00  0.45593999997E+02  0.45594000000E+02  0.51100000000E-03 0. -1.
         11   -1    0    0    0    0 -0.00000000000E+00 -0.00000000000E+00 -0.45593999997E+02  0.45594000000E+02  0.51100000000E-03 0.  1.
    9900012    2    1    2    0    0 -0.22164879283E+00 -0.95892126099E+00 -0.65147489166E+00  0.90007712871E+02  0.89999973881E+02 0.  0.
         12    1    1    2    0    0  0.22164879283E+00  0.95892126099E+00  0.65147489166E+00  0.11802871289E+01  0.00000000000E+00 0. -1.
         11    1    3    3    0    0 -0.16197309292E+02  0.30281313221E+02 -0.13538185914E+02  0.36913320588E+02  0.51100000000E-03 0. -1.
        -11    1    3    3    0    0 -0.38843718132E+01 -0.20172248713E+01 -0.10055371061E+02  0.10966678075E+02  0.51100000000E-03 0.  1.
        -12    1    3    3    0    0  0.19860032313E+02 -0.29223009611E+02  0.22942082083E+02  0.42127714209E+02  0.00000000000E+00 0.  1.
</event>
<event>
 7    1  0.1501154E-015  0.9000777E+02  0.7816164E-02  0.1186339E+00
        -11   -1    0    0    0    0  0.00000000000E+00  0.00000000000E+00  0.45593999997E+02  0.45594000000E+02  0.51100000000E-03 0.  1.
         11   -1    0    0    0    0 -0.00000000000E+00 -0.00000000000E+00 -0.45593999997E+02  0.45594000000E+02  0.51100000000E-03 0. -1.
    9900012    2    1    2    0    0  0.41358120344E+00  0.22424514192E+00  0.10824092767E+01  0.90007769032E+02  0.90000030783E+02 0.  0.
         12    1    1    2    0    0 -0.41358120344E+00 -0.22424514192E+00 -0.10824092767E+01  0.11802309680E+01  0.00000000000E+00 0. -1.
         11    1    3    3    0    0  0.24536697781E+01  0.13747686090E+01  0.80439830037E+01  0.85215108363E+01  0.51100000000E-03 0. -1.
        -11    1    3    3    0    0 -0.79019557288E+01  0.90799114398E+01  0.35464874600E+02  0.37451876145E+02  0.51100000000E-03 0.  1.
         12    1    3    3    0    0  0.58618671542E+01 -0.10230434907E+02 -0.42426448327E+02  0.44034382051E+02  0.00000000000E+00 0. -1.
</event>
<event>
 8    1  0.1501154E-015  0.9000772E+02  0.7816164E-02  0.1186339E+00
        -11   -1    0    0    0    0  0.00000000000E+00  0.00000000000E+00  0.45593999997E+02  0.45594000000E+02  0.51100000000E-03 0. -1.
         11   -1    0    0    0    0 -0.00000000000E+00 -0.00000000000E+00 -0.45593999997E+02  0.45594000000E+02  0.51100000000E-03 0.  1.
    9900012    2    1    2    0    0  0.47663419558E+00  0.75944932934E+00 -0.76753823683E+00  0.90007721056E+02  0.89999982174E+02 0.  0.
         23    2    3    3    0    0 -0.17108381453E+02 -0.10249995502E+02  0.14961757813E+02  0.63972141456E+02  0.58913678903E+02 0.  0.
         12    1    1    2    0    0 -0.47663419558E+00 -0.75944932934E+00  0.76753823683E+00  0.11802789438E+01  0.00000000000E+00 0. -1.
         11    1    4    4    0    0 -0.38475838254E+02 -0.10340448656E+02  0.42420638623E+01  0.40066321441E+02  0.51100000000E-03 0. -1.
        -11    1    4    4    0    0  0.21367456801E+02  0.90453153735E-01  0.10719693951E+02  0.23905820015E+02  0.51100000000E-03 0.  1.
        -12    1    3    3    0    0  0.17585015649E+02  0.11009444832E+02 -0.15729296050E+02  0.26035579600E+02  0.00000000000E+00 0.  1.
</event>
<event>
 7    1  0.1501154E-015  0.9000757E+02  0.7816164E-02  0.1186339E+00
        -11   -1    0    0    0    0  0.00000000000E+00  0.00000000000E+00  0.45593999997E+02  0.45594000000E+02  0.51100000000E-03 0. -1.
         11   -1    0    0    0    0 -0.00000000000E+00 -0.00000000000E+00 -0.45593999997E+02  0.45594000000E+02  0.51100000000E-03 0.  1.
    9900012    2    1    2    0    0  0.45169617042E+00  0.10500591296E+01 -0.29454753200E+00  0.90007571326E+02  0.89999830467E+02 0.  0.
         12    1    1    2    0    0 -0.45169617042E+00 -0.10500591296E+01  0.29454753200E+00  0.11804286741E+01  0.00000000000E+00 0. -1.
         11    1    3    3    0    0 -0.14598815960E+02  0.21828769213E+02  0.34628311271E+02  0.43459642596E+02  0.51100000000E-03 0. -1.
        -11    1    3    3    0    0  0.46856819963E+01 -0.84368639266E+01 -0.19482563453E+01  0.98454045998E+01  0.51100000000E-03 0.  1.
        -12    1    3    3    0    0  0.10364830134E+02 -0.12341846157E+02 -0.32974602458E+02  0.36702524130E+02  0.00000000000E+00 0.  1.
</event>
<event>
 7    1  0.1501154E-015  0.9000772E+02  0.7816164E-02  0.1186339E+00
        -11   -1    0    0    0    0  0.00000000000E+00  0.00000000000E+00  0.45593999997E+02  0.45594000000E+02  0.51100000000E-03 0. -1.
         11   -1    0    0    0    0 -0.00000000000E+00 -0.00000000000E+00 -0.45593999997E+02  0.45594000000E+02  0.51100000000E-03 0.  1.
    9900012    2    1    2    0    0 -0.52723950000E+00  0.35704131820E+00 -0.99377550232E+00  0.90007724718E+02  0.89999985884E+02 0.  0.
         12    1    1    2    0    0  0.52723950000E+00 -0.35704131820E+00  0.99377550232E+00  0.11802752824E+01  0.00000000000E+00 0. -1.
         11    1    3    3    0    0 -0.28009220702E+01  0.44641666108E+01  0.79175701019E+01  0.95111442294E+01  0.51100000000E-03 0. -1.
        -11    1    3    3    0    0  0.31817249102E+02  0.64401447574E+01 -0.28763960238E+02  0.43372551386E+02  0.51100000000E-03 0.  1.
         12    1    3    3    0    0 -0.29543566532E+02 -0.10547270050E+02  0.19852614634E+02  0.37124029102E+02  0.00000000000E+00 0. -1.
</event>
<event>
 7    1  0.1501154E-015  0.9000771E+02  0.7816164E-02  0.1186339E+00
        -11   -1    0    0    0    0  0.00000000000E+00  0.00000000000E+00  0.45593999997E+02  0.45594000000E+02  0.51100000000E-03 0.  1.
         11   -1    0    0    0    0 -0.00000000000E+00 -0.00000000000E+00 -0.45593999997E+02  0.45594000000E+02  0.51100000000E-03 0. -1.
    9900012    2    1    2    0    0 -0.41273089163E+00  0.11016147929E+01 -0.95884710919E-01  0.90007705198E+02  0.89999966107E+02 0.  0.
         12    1    1    2    0    0  0.41273089163E+00 -0.11016147929E+01  0.95884710919E-01  0.11802948016E+01  0.00000000000E+00 0. -1.
         11    1    3    3    0    0  0.79297619158E+01  0.79934638327E+01 -0.37351425320E+02  0.39011608039E+02  0.51100000000E-03 0. -1.
        -11    1    3    3    0    0 -0.56059183708E+01 -0.41641131996E+01 -0.49844970358E+01  0.85797068994E+01  0.51100000000E-03 0.  1.
        -12    1    3    3    0    0 -0.27365744366E+01 -0.27277358402E+01  0.42240037645E+02  0.42416390260E+02  0.00000000000E+00 0.  1.
</event>
<event>
 7    1  0.1501154E-015  0.9000793E+02  0.7816164E-02  0.1186339E+00
        -11   -1    0    0    0    0  0.00000000000E+00  0.00000000000E+00  0.45593999997E+02  0.45594000000E+02  0.51100000000E-03 0. -1.
         11   -1    0    0    0    0 -0.00000000000E+00 -0.00000000000E+00 -0.45593999997E+02  0.45594000000E+02  0.51100000000E-03 0.  1.
    9900012    2    1    2    0    0  0.64344415938E+00  0.91535127596E+00 -0.37506415344E+00  0.90007931585E+02  0.90000195482E+02 0.  0.
         12    1    1    2    0    0 -0.64344415938E+00 -0.91535127596E+00  0.37506415344E+00  0.11800684149E+01  0.00000000000E+00 0. -1.
         11    1    3    3    0    0 -0.68043798204E+01 -0.23374933754E+02  0.27692271279E+02  0.36872062616E+02  0.51100000000E-03 0. -1.
        -11    1    3    3    0    0 -0.72609091788E+01  0.32870123728E+01  0.63684723901E+01  0.10202092593E+02  0.51100000000E-03 0.  1.
        -12    1    3    3    0    0  0.14708733159E+02  0.21003272657E+02 -0.34435807823E+02  0.42933776375E+02  0.00000000000E+00 0.  1.
</event>
<event>
 7    1  0.1501154E-015  0.9000787E+02  0.7816164E-02  0.1186339E+00
        -11   -1    0    0    0    0  0.00000000000E+00  0.00000000000E+00  0.45593999997E+02  0.45594000000E+02  0.51100000000E-03 0.  1.
         11   -1    0    0    0    0 -0.00000000000E+00 -0.00000000000E+00 -0.45593999997E+02  0.45594000000E+02  0.51100000000E-03 0. -1.
    9900012    2    1    2    0    0  0.31297923517E+00  0.20180272638E+00  0.11198335881E+01  0.90007869665E+02  0.90000132745E+02 0.  0.
         12    1    1    2    0    0 -0.31297923517E+00 -0.20180272638E+00 -0.11198335881E+01  0.11801303348E+01  0.00000000000E+00 0. -1.
         11    1    3    3    0    0 -0.32463938349E+02 -0.44757799228E+01 -0.18763450545E+02  0.37762507539E+02  0.51100000000E-03 0. -1.
        -11    1    3    3    0    0  0.15826589140E+01 -0.11577552798E+02 -0.30320382560E+00  0.11689160400E+02  0.51100000000E-03 0.  1.
        -12    1    3    3    0    0  0.31194258670E+02  0.16255135447E+02  0.20186487959E+02  0.40556201726E+02  0.00000000000E+00 0.  1.
</event>
<event>
 7    1  0.1501154E-015  0.9000765E+02  0.7816164E-02  0.1186339E+00
        -11   -1    0    0    0    0  0.00000000000E+00  0.00000000000E+00  0.45593999997E+02  0.45594000000E+02  0.51100000000E-03 0. -1.
         11   -1    0    0    0    0 -0.00000000000E+00 -0.00000000000E+00 -0.45593999997E+02  0.45594000000E+02  0.51100000000E-03 0.  1.
    9900012    2    1    2    0    0  0.36347274946E+00 -0.88282927038E+00 -0.69406933747E+00  0.90007647423E+02  0.89999907569E+02 0.  0.
         12    1    1    2    0    0 -0.36347274946E+00  0.88282927038E+00  0.69406933747E+00  0.11803525768E+01  0.00000000000E+00 0. -1.
         11    1    3    3    0    0  0.38426963499E+02  0.17699629063E+02 -0.27677398509E+00  0.42308214295E+02  0.51100000000E-03 0. -1.
        -11    1    3    3    0    0 -0.56289131587E+00 -0.89179196619E+01  0.64512801193E+00  0.89589244970E+01  0.51100000000E-03 0.  1.
        -12    1    3    3    0    0 -0.37500599434E+02 -0.96645386710E+01 -0.10624233643E+01  0.38740508631E+02  0.00000000000E+00 0.  1.
</event>
<event>
 7    1  0.1501154E-015  0.9000774E+02  0.7816164E-02  0.1186339E+00
        -11   -1    0    0    0    0  0.00000000000E+00  0.00000000000E+00  0.45593999997E+02  0.45594000000E+02  0.51100000000E-03 0.  1.
         11   -1    0    0    0    0 -0.00000000000E+00 -0.00000000000E+00 -0.45593999997E+02  0.45594000000E+02  0.51100000000E-03 0. -1.
    9900012    2    1    2    0    0  0.48601361186E+00  0.41287280699E+00  0.99314978147E+00  0.90007737455E+02  0.89999998790E+02 0.  0.
         12    1    1    2    0    0 -0.48601361186E+00 -0.41287280699E+00 -0.99314978147E+00  0.11802625446E+01  0.00000000000E+00 0. -1.
         11    1    3    3    0    0  0.46007299579E+01 -0.15587532237E+02 -0.42759345648E+01  0.16805400740E+02  0.51100000000E-03 0. -1.
        -11    1    3    3    0    0 -0.28911004637E+02 -0.12053001771E+02 -0.98330558275E+01  0.32830017179E+02  0.51100000000E-03 0.  1.
        -12    1    3    3    0    0  0.24796288291E+02  0.28053406815E+02  0.15102140174E+02  0.40372319536E+02  0.00000000000E+00 0.  1.
</event>
<event>
 7    1  0.1501154E-015  0.9000775E+02  0.7816164E-02  0.1186339E+00
        -11   -1    0    0    0    0  0.00000000000E+00  0.00000000000E+00  0.45593999997E+02  0.45594000000E+02  0.51100000000E-03 0. -1.
         11   -1    0    0    0    0 -0.00000000000E+00 -0.00000000000E+00 -0.45593999997E+02  0.45594000000E+02  0.51100000000E-03 0.  1.
    9900012    2    1    2    0    0 -0.55954652166E+00 -0.53776059290E-01 -0.10377862930E+01  0.90007752329E+02  0.90000013860E+02 0.  0.
         12    1    1    2    0    0  0.55954652166E+00  0.53776059290E-01  0.10377862930E+01  0.11802476708E+01  0.00000000000E+00 0. -1.
         11    1    3    3    0    0 -0.86118616010E+01  0.53673506523E+01  0.21112987923E+01  0.10364853888E+02  0.51100000000E-03 0. -1.
        -11    1    3    3    0    0 -0.11879292915E+02  0.20273926915E+01 -0.37415073041E+02  0.39307958637E+02  0.51100000000E-03 0.  1.
         12    1    3    3    0    0  0.19931607994E+02 -0.74485194030E+01  0.34265987955E+02  0.40334939805E+02  0.00000000000E+00 0. -1.
</event>
<event>
 7    1  0.1501154E-015  0.9000773E+02  0.7816164E-02  0.1186339E+00
        -11   -1    0    0    0    0  0.00000000000E+00  0.00000000000E+00  0.45593999997E+02  0.45594000000E+02  0.51100000000E-03 0.  1.
         11   -1    0    0    0    0 -0.00000000000E+00 -0.00000000000E+00 -0.45593999997E+02  0.45594000000E+02  0.51100000000E-03 0. -1.
    9900012    2    1    2    0    0  0.83106667385E+00 -0.57413028638E+00  0.61051535643E+00  0.90007734605E+02  0.89999995902E+02 0.  0.
         12    1    1    2    0    0 -0.83106667385E+00  0.57413028638E+00 -0.61051535643E+00  0.11802653950E+01  0.00000000000E+00 0. -1.
         11    1    3    3    0    0  0.65616084533E+01  0.22877720715E+01  0.35806633199E+01  0.78172729655E+01  0.51100000000E-03 0. -1.
        -11    1    3    3    0    0  0.10080644552E+01  0.38804827999E+02  0.53051646363E+01  0.39178765193E+02  0.51100000000E-03 0.  1.
         12    1    3    3    0    0 -0.67386062347E+01 -0.41666730357E+02 -0.82753125998E+01  0.43011696447E+02  0.00000000000E+00 0. -1.
</event>
<event>
 7    1  0.1501154E-015  0.9000769E+02  0.7816164E-02  0.1186339E+00
        -11   -1    0    0    0    0  0.00000000000E+00  0.00000000000E+00  0.45593999997E+02  0.45594000000E+02  0.51100000000E-03 0.  1.
         11   -1    0    0    0    0 -0.00000000000E+00 -0.00000000000E+00 -0.45593999997E+02  0.45594000000E+02  0.51100000000E-03 0. -1.
    9900012    2    1    2    0    0 -0.33293166637E+00  0.10808816832E+01 -0.33760864850E+00  0.90007691436E+02  0.89999952163E+02 0.  0.
         12    1    1    2    0    0  0.33293166637E+00 -0.10808816832E+01  0.33760864850E+00  0.11803085644E+01  0.00000000000E+00 0. -1.
         11    1    3    3    0    0 -0.64629712995E+01 -0.79338495611E+00 -0.64502397028E+01  0.91654268963E+01  0.51100000000E-03 0. -1.
        -11    1    3    3    0    0 -0.33832758606E+02 -0.50599569182E+01 -0.12227397722E+02  0.36328610960E+02  0.51100000000E-03 0.  1.
         12    1    3    3    0    0  0.39962798240E+02  0.69342235575E+01  0.18340028777E+02  0.44513653580E+02  0.00000000000E+00 0. -1.
</event>
<event>
 7    1  0.1501154E-015  0.9000764E+02  0.7816164E-02  0.1186339E+00
        -11   -1    0    0    0    0  0.00000000000E+00  0.00000000000E+00  0.45593999997E+02  0.45594000000E+02  0.51100000000E-03 0.  1.
         11   -1    0    0    0    0 -0.00000000000E+00 -0.00000000000E+00 -0.45593999997E+02  0.45594000000E+02  0.51100000000E-03 0. -1.
    9900012    2    1    2    0    0 -0.83346944942E+00  0.79255783111E+00  0.26540768519E+00  0.90007635447E+02  0.89999895435E+02 0.  0.
         12    1    1    2    0    0  0.83346944942E+00 -0.79255783111E+00 -0.26540768519E+00  0.11803645531E+01  0.00000000000E+00 0. -1.
         11    1    3    3    0    0 -0.14329034111E+02  0.11674070205E+02 -0.30913353366E+02  0.36017225744E+02  0.51100000000E-03 0. -1.
        -11    1    3    3    0    0 -0.77245723795E+01 -0.40157660679E+01 -0.60432169295E+01  0.10597918035E+02  0.51100000000E-03 0.  1.
        -12    1    3    3    0    0  0.21220137041E+02 -0.68657463061E+01  0.37221977980E+02  0.43392491668E+02  0.00000000000E+00 0.  1.
</event>
<event>
 7    1  0.1501154E-015  0.9000775E+02  0.7816164E-02  0.1186339E+00
        -11   -1    0    0    0    0  0.00000000000E+00  0.00000000000E+00  0.45593999997E+02  0.45594000000E+02  0.51100000000E-03 0. -1.
         11   -1    0    0    0    0 -0.00000000000E+00 -0.00000000000E+00 -0.45593999997E+02  0.45594000000E+02  0.51100000000E-03 0.  1.
    9900012    2    1    2    0    0 -0.72578320350E+00 -0.85761706821E+00  0.36156712020E+00  0.90007746181E+02  0.90000007631E+02 0.  0.
         12    1    1    2    0    0  0.72578320350E+00  0.85761706821E+00 -0.36156712020E+00  0.11802538187E+01  0.00000000000E+00 0. -1.
         11    1    3    3    0    0  0.22396432998E+01  0.24553689890E+02  0.30244650031E+02  0.39021001334E+02  0.51100000000E-03 0. -1.
        -11    1    3    3    0    0 -0.70944986097E+01 -0.72798487020E+01  0.50967590458E+01  0.11371238309E+02  0.51100000000E-03 0.  1.
        -12    1    3    3    0    0  0.41290721063E+01 -0.18131458256E+02 -0.34979841957E+02  0.39615506538E+02  0.00000000000E+00 0.  1.
</event>
<event>
 7    1  0.1501154E-015  0.9000771E+02  0.7816164E-02  0.1186339E+00
        -11   -1    0    0    0    0  0.00000000000E+00  0.00000000000E+00  0.45593999997E+02  0.45594000000E+02  0.51100000000E-03 0.  1.
         11   -1    0    0    0    0 -0.00000000000E+00 -0.00000000000E+00 -0.45593999997E+02  0.45594000000E+02  0.51100000000E-03 0. -1.
    9900012    2    1    2    0    0 -0.67706754343E+00  0.21041581805E+00  0.94360366939E+00  0.90007710561E+02  0.89999971540E+02 0.  0.
         12    1    1    2    0    0  0.67706754343E+00 -0.21041581805E+00 -0.94360366939E+00  0.11802894390E+01  0.00000000000E+00 0. -1.
         11    1    3    3    0    0 -0.29494238319E+01  0.80584989789E+01 -0.23825286015E+00  0.85845950061E+01  0.51100000000E-03 0. -1.
        -11    1    3    3    0    0  0.72215524920E+01 -0.34139086640E+02  0.27094343949E+02  0.44178405712E+02  0.51100000000E-03 0.  1.
         12    1    3    3    0    0 -0.49491962036E+01  0.26291003479E+02 -0.25912487419E+02  0.37244709843E+02  0.00000000000E+00 0. -1.
</event>
<event>
 7    1  0.1501154E-015  0.9000769E+02  0.7816164E-02  0.1186339E+00
        -11   -1    0    0    0    0  0.00000000000E+00  0.00000000000E+00  0.45593999997E+02  0.45594000000E+02  0.51100000000E-03 0. -1.
         11   -1    0    0    0    0 -0.00000000000E+00 -0.00000000000E+00 -0.45593999997E+02  0.45594000000E+02  0.51100000000E-03 0.  1.
    9900012    2    1    2    0    0  0.10530815305E+01 -0.68797525600E-01 -0.52860096607E+00  0.90007689536E+02  0.89999950238E+02 0.  0.
         12    1    1    2    0    0 -0.10530815305E+01  0.68797525600E-01  0.52860096607E+00  0.11803104637E+01  0.00000000000E+00 0. -1.
         11    1    3    3    0    0 -0.45433814375E+01 -0.31966625289E+01  0.67085865813E+01  0.87101148322E+01  0.51100000000E-03 0. -1.
        -11    1    3    3    0    0 -0.37248375992E+02  0.60120077940E+01 -0.68899737719E+01  0.38354367295E+02  0.51100000000E-03 0.  1.
         12    1    3    3    0    0  0.42844838960E+02 -0.28841427907E+01 -0.34721377555E+00  0.42943207409E+02  0.00000000000E+00 0. -1.
</event>
<event>
 7    1  0.1501154E-015  0.9000784E+02  0.7816164E-02  0.1186339E+00
        -11   -1    0    0    0    0  0.00000000000E+00  0.00000000000E+00  0.45593999997E+02  0.45594000000E+02  0.51100000000E-03 0. -1.
         11   -1    0    0    0    0 -0.00000000000E+00 -0.00000000000E+00 -0.45593999997E+02  0.45594000000E+02  0.51100000000E-03 0.  1.
    9900012    2    1    2    0    0 -0.73299628634E+00 -0.15533158806E+00 -0.91179423596E+00  0.90007838915E+02  0.90000101589E+02 0.  0.
         12    1    1    2    0    0  0.73299628634E+00  0.15533158806E+00  0.91179423596E+00  0.11801610851E+01  0.00000000000E+00 0. -1.
         11    1    3    3    0    0 -0.10439247729E+02  0.47103978275E+01  0.58021177738E+01  0.12838625774E+02  0.51100000000E-03 0. -1.
        -11    1    3    3    0    0 -0.31508680540E+02 -0.13011337710E+02 -0.84502125919E+01  0.35121189495E+02  0.51100000000E-03 0.  1.
         12    1    3    3    0    0  0.41214931983E+02  0.81456082949E+01  0.17363005822E+01  0.42048023646E+02  0.00000000000E+00 0. -1.
</event>
<event>
 7    1  0.1501154E-015  0.9000821E+02  0.7816164E-02  0.1186338E+00
        -11   -1    0    0    0    0  0.00000000000E+00  0.00000000000E+00  0.45593999997E+02  0.45594000000E+02  0.51100000000E-03 0. -1.
         11   -1    0    0    0    0 -0.00000000000E+00 -0.00000000000E+00 -0.45593999997E+02  0.45594000000E+02  0.51100000000E-03 0.  1.
    9900012    2    1    2    0    0 -0.76129422397E+00  0.36397866486E+00 -0.82453314359E+00  0.90008210074E+02  0.90000477646E+02 0.  0.
         12    1    1    2    0    0  0.76129422397E+00 -0.36397866486E+00  0.82453314359E+00  0.11797899257E+01  0.00000000000E+00 0. -1.
         11    1    3    3    0    0 -0.46059040409E+01  0.71763253779E+01  0.33045389911E+01  0.91451613527E+01  0.51100000000E-03 0. -1.
        -11    1    3    3    0    0 -0.36119210433E+02 -0.11662551331E+02 -0.12073848139E+02  0.39829515124E+02  0.51100000000E-03 0.  1.
         12    1    3    3    0    0  0.39963820250E+02  0.48502046181E+01  0.79447760047E+01  0.41033533598E+02  0.00000000000E+00 0. -1.
</event>
<event>
 7    1  0.1501154E-015  0.9000771E+02  0.7816164E-02  0.1186339E+00
        -11   -1    0    0    0    0  0.00000000000E+00  0.00000000000E+00  0.45593999997E+02  0.45594000000E+02  0.51100000000E-03 0.  1.
         11   -1    0    0    0    0 -0.00000000000E+00 -0.00000000000E+00 -0.45593999997E+02  0.45594000000E+02  0.51100000000E-03 0. -1.
    9900012    2    1    2    0    0 -0.11527938360E+01  0.62318962518E-01  0.24548875480E+00  0.90007711048E+02  0.89999972034E+02 0.  0.
         12    1    1    2    0    0  0.11527938360E+01 -0.62318962518E-01 -0.24548875480E+00  0.11802889519E+01  0.00000000000E+00 0. -1.
         11    1    3    3    0    0  0.62923970104E+01  0.82102101149E+00 -0.43584817236E+01  0.76983568918E+01  0.51100000000E-03 0. -1.
        -11    1    3    3    0    0  0.32979158529E+02  0.15197465575E+02  0.11960937698E+02  0.38231556181E+02  0.51100000000E-03 0.  1.
         12    1    3    3    0    0 -0.40424349375E+02 -0.15956167624E+02 -0.73569672191E+01  0.44077797975E+02  0.00000000000E+00 0. -1.
</event>
<event>
 7    1  0.1501154E-015  0.9000763E+02  0.7816164E-02  0.1186339E+00
        -11   -1    0    0    0    0  0.00000000000E+00  0.00000000000E+00  0.45593999997E+02  0.45594000000E+02  0.51100000000E-03 0.  1.
         11   -1    0    0    0    0 -0.00000000000E+00 -0.00000000000E+00 -0.45593999997E+02  0.45594000000E+02  0.51100000000E-03 0. -1.
    9900012    2    1    2    0    0  0.43389402313E+00  0.39460713986E+00  0.10243552831E+01  0.90007626091E+02  0.89999885956E+02 0.  0.
         12    1    1    2    0    0 -0.43389402313E+00 -0.39460713986E+00 -0.10243552831E+01  0.11803739086E+01  0.00000000000E+00 0. -1.
         11    1    3    3    0    0  0.29461895412E+01 -0.71665462745E+00 -0.90553625420E+01  0.95495140031E+01  0.51100000000E-03 0. -1.
        -11    1    3    3    0    0  0.30906443382E+02  0.24158122450E+02  0.47334695360E+01  0.39512388651E+02  0.51100000000E-03 0.  1.
         12    1    3    3    0    0 -0.33418738900E+02 -0.23046860683E+02  0.53462482891E+01  0.40945723437E+02  0.00000000000E+00 0. -1.
</event>
<event>
 7    1  0.1671727E-015  0.9000773E+02  0.7816164E-02  0.1186339E+00
        -11   -1    0    0    0    0  0.00000000000E+00  0.00000000000E+00  0.45593999997E+02  0.45594000000E+02  0.51100000000E-03 0.  1.
         11   -1    0    0    0    0 -0.00000000000E+00 -0.00000000000E+00 -0.45593999997E+02  0.45594000000E+02  0.51100000000E-03 0. -1.
    9900012    2    1    2    0    0  0.58584926494E+00  0.25250162688E-01  0.10242933951E+01  0.90007731433E+02  0.89999992687E+02 0.  0.
         12    1    1    2    0    0 -0.58584926494E+00 -0.25250162688E-01 -0.10242933951E+01  0.11802685674E+01  0.00000000000E+00 0. -1.
         11    1    3    3    0    0 -0.15766631621E+02  0.26951818501E+02 -0.16386004589E+02  0.35263130034E+02  0.51100000000E-03 0. -1.
        -11    1    3    3    0    0 -0.75930305477E+01  0.44231545020E+01 -0.42274945883E+01  0.97514162767E+01  0.51100000000E-03 0.  1.
        -12    1    3    3    0    0  0.23945511434E+02 -0.31349722840E+02  0.21637792572E+02  0.44993185121E+02  0.00000000000E+00 0.  1.
</event>
<event>
 7    1  0.1501154E-015  0.9000817E+02  0.7816164E-02  0.1186338E+00
        -11   -1    0    0    0    0  0.00000000000E+00  0.00000000000E+00  0.45593999997E+02  0.45594000000E+02  0.51100000000E-03 0. -1.
         11   -1    0    0    0    0 -0.00000000000E+00 -0.00000000000E+00 -0.45593999997E+02  0.45594000000E+02  0.51100000000E-03 0.  1.
    9900012    2    1    2    0    0 -0.64067966898E+00 -0.61239825202E+00 -0.77877752127E+00  0.90008170993E+02  0.90000438049E+02 0.  0.
         12    1    1    2    0    0  0.64067966898E+00  0.61239825202E+00  0.77877752127E+00  0.11798290067E+01  0.00000000000E+00 0. -1.
         11    1    3    3    0    0  0.83163763117E+01  0.12436360578E+02 -0.38087321677E+02  0.40920279229E+02  0.51100000000E-03 0. -1.
        -11    1    3    3    0    0 -0.14548014945E+00 -0.79936078941E+01 -0.22017193952E+01  0.82925569154E+01  0.51100000000E-03 0.  1.
        -12    1    3    3    0    0 -0.88115758313E+01 -0.50551509360E+01  0.39510263551E+02  0.40795334849E+02  0.00000000000E+00 0.  1.
</event>
<event>
 7    1  0.1501154E-015  0.9000780E+02  0.7816164E-02  0.1186339E+00
        -11   -1    0    0    0    0  0.00000000000E+00  0.00000000000E+00  0.45593999997E+02  0.45594000000E+02  0.51100000000E-03 0.  1.
         11   -1    0    0    0    0 -0.00000000000E+00 -0.00000000000E+00 -0.45593999997E+02  0.45594000000E+02  0.51100000000E-03 0. -1.
    9900012    2    1    2    0    0 -0.41445970569E+00 -0.23585603885E+00  0.10795718419E+01  0.90007796509E+02  0.90000058623E+02 0.  0.
         12    1    1    2    0    0  0.41445970569E+00  0.23585603885E+00 -0.10795718419E+01  0.11802034912E+01  0.00000000000E+00 0. -1.
         11    1    3    3    0    0  0.84331308564E+01  0.10452242010E+01  0.88552432782E+00  0.85436727037E+01  0.51100000000E-03 0. -1.
        -11    1    3    3    0    0  0.25695309153E+02 -0.26920840392E+02  0.71233053635E+01  0.37890922916E+02  0.51100000000E-03 0.  1.
         12    1    3    3    0    0 -0.34542899715E+02  0.25639760152E+02 -0.69292578494E+01  0.43573200889E+02  0.00000000000E+00 0. -1.
</event>
<event>
 7    1  0.1501154E-015  0.9000775E+02  0.7816164E-02  0.1186339E+00
        -11   -1    0    0    0    0  0.00000000000E+00  0.00000000000E+00  0.45593999997E+02  0.45594000000E+02  0.51100000000E-03 0.  1.
         11   -1    0    0    0    0 -0.00000000000E+00 -0.00000000000E+00 -0.45593999997E+02  0.45594000000E+02  0.51100000000E-03 0. -1.
    9900012    2    1    2    0    0  0.62918649296E+00 -0.38507450970E+00  0.92132176819E+00  0.90007749255E+02  0.90000010745E+02 0.  0.
         12    1    1    2    0    0 -0.62918649296E+00  0.38507450970E+00 -0.92132176819E+00  0.11802507452E+01  0.00000000000E+00 0. -1.
         11    1    3    3    0    0 -0.24098959893E+01 -0.20215353854E+02 -0.32914192891E+02  0.38701579090E+02  0.51100000000E-03 0. -1.
        -11    1    3    3    0    0  0.35765648632E+01  0.67099095132E+01 -0.57928314431E+01  0.95588492134E+01  0.51100000000E-03 0.  1.
        -12    1    3    3    0    0 -0.53748238095E+00  0.13120369831E+02  0.39628346102E+02  0.41747320951E+02  0.00000000000E+00 0.  1.
</event>
<event>
 7    1  0.1501154E-015  0.9000761E+02  0.7816164E-02  0.1186339E+00
        -11   -1    0    0    0    0  0.00000000000E+00  0.00000000000E+00  0.45593999997E+02  0.45594000000E+02  0.51100000000E-03 0. -1.
         11   -1    0    0    0    0 -0.00000000000E+00 -0.00000000000E+00 -0.45593999997E+02  0.45594000000E+02  0.51100000000E-03 0.  1.
    9900012    2    1    2    0    0  0.53018589473E+00 -0.92268492579E+00 -0.51074962814E+00  0.90007614581E+02  0.89999874293E+02 0.  0.
         12    1    1    2    0    0 -0.53018589473E+00  0.92268492579E+00  0.51074962814E+00  0.11803854192E+01  0.00000000000E+00 0. -1.
         11    1    3    3    0    0 -0.19138646155E+02  0.21955305633E+02  0.14166825024E+02  0.32388611480E+02  0.51100000000E-03 0. -1.
        -11    1    3    3    0    0 -0.11888773343E+02  0.54187215602E+01 -0.11016666629E+01  0.13111794105E+02  0.51100000000E-03 0.  1.
        -12    1    3    3    0    0  0.31557605393E+02 -0.28296712119E+02 -0.13575907989E+02  0.44507208996E+02  0.00000000000E+00 0.  1.
</event>
<event>
 7    1  0.1501154E-015  0.9000773E+02  0.7816164E-02  0.1186339E+00
        -11   -1    0    0    0    0  0.00000000000E+00  0.00000000000E+00  0.45593999997E+02  0.45594000000E+02  0.51100000000E-03 0.  1.
         11   -1    0    0    0    0 -0.00000000000E+00 -0.00000000000E+00 -0.45593999997E+02  0.45594000000E+02  0.51100000000E-03 0. -1.
    9900012    2    1    2    0    0  0.21983030243E-01 -0.26641694868E+00  0.11495939059E+01  0.90007734186E+02  0.89999995477E+02 0.  0.
         12    1    1    2    0    0 -0.21983030243E-01  0.26641694868E+00 -0.11495939059E+01  0.11802658144E+01  0.00000000000E+00 0. -1.
         11    1    3    3    0    0 -0.30679385829E+01 -0.85757132506E+01  0.24421358795E+01  0.94296942061E+01  0.51100000000E-03 0. -1.
        -11    1    3    3    0    0  0.37266091135E+02 -0.21458288656E+01  0.16313830072E+02  0.40737049253E+02  0.51100000000E-03 0.  1.
         12    1    3    3    0    0 -0.34176169522E+02  0.10455125168E+02 -0.17606372045E+02  0.39840990726E+02  0.00000000000E+00 0. -1.
</event>
<event>
 7    1  0.1501154E-015  0.9000772E+02  0.7816164E-02  0.1186339E+00
        -11   -1    0    0    0    0  0.00000000000E+00  0.00000000000E+00  0.45593999997E+02  0.45594000000E+02  0.51100000000E-03 0.  1.
         11   -1    0    0    0    0 -0.00000000000E+00 -0.00000000000E+00 -0.45593999997E+02  0.45594000000E+02  0.51100000000E-03 0. -1.
    9900012    2    1    2    0    0  0.29053798561E+00  0.96769349116E+00  0.61010318191E+00  0.90007716599E+02  0.89999977658E+02 0.  0.
         12    1    1    2    0    0 -0.29053798561E+00 -0.96769349116E+00 -0.61010318191E+00  0.11802834009E+01  0.00000000000E+00 0. -1.
         11    1    3    3    0    0  0.76823713081E+01  0.72835495718E+01  0.24233608785E+01  0.10860092149E+02  0.51100000000E-03 0. -1.
        -11    1    3    3    0    0  0.25175143446E+02  0.59366642743E+01  0.24419267319E+02  0.35571511732E+02  0.51100000000E-03 0.  1.
         12    1    3    3    0    0 -0.32566976769E+02 -0.12252520355E+02 -0.26232525015E+02  0.43576112718E+02  0.00000000000E+00 0. -1.
</event>
<event>
 7    1  0.1501154E-015  0.9000798E+02  0.7816164E-02  0.1186339E+00
        -11   -1    0    0    0    0  0.00000000000E+00  0.00000000000E+00  0.45593999997E+02  0.45594000000E+02  0.51100000000E-03 0.  1.
         11   -1    0    0    0    0 -0.00000000000E+00 -0.00000000000E+00 -0.45593999997E+02  0.45594000000E+02  0.51100000000E-03 0. -1.
    9900012    2    1    2    0    0  0.89717808384E+00 -0.37181918743E+00  0.67027542737E+00  0.90007980013E+02  0.90000244548E+02 0.  0.
         12    1    1    2    0    0 -0.89717808384E+00  0.37181918743E+00 -0.67027542737E+00  0.11800199875E+01  0.00000000000E+00 0. -1.
         11    1    3    3    0    0 -0.22558235761E+02 -0.12661189283E+02 -0.27910205991E+02  0.38054688456E+02  0.51100000000E-03 0. -1.
        -11    1    3    3    0    0  0.21310425263E+01 -0.38653770060E+01 -0.64869869236E+01  0.78462399439E+01  0.51100000000E-03 0.  1.
        -12    1    3    3    0    0  0.21324371319E+02  0.16154747101E+02  0.35067468342E+02  0.44107051613E+02  0.00000000000E+00 0.  1.
</event>
<event>
 7    1  0.1501154E-015  0.9000773E+02  0.7816164E-02  0.1186339E+00
        -11   -1    0    0    0    0  0.00000000000E+00  0.00000000000E+00  0.45593999997E+02  0.45594000000E+02  0.51100000000E-03 0.  1.
         11   -1    0    0    0    0 -0.00000000000E+00 -0.00000000000E+00 -0.45593999997E+02  0.45594000000E+02  0.51100000000E-03 0. -1.
    9900012    2    1    2    0    0  0.64195046136E+00  0.97511025858E+00  0.17350822757E+00  0.90007726508E+02  0.89999987698E+02 0.  0.
         12    1    1    2    0    0 -0.64195046136E+00 -0.97511025858E+00 -0.17350822757E+00  0.11802734921E+01  0.00000000000E+00 0. -1.
         11    1    3    3    0    0 -0.58058396216E+01 -0.74750161325E+01  0.17687790103E+01  0.96287184683E+01  0.51100000000E-03 0. -1.
        -11    1    3    3    0    0 -0.18099863307E+02  0.21710093230E+02  0.27944015073E+02  0.39746712801E+02  0.51100000000E-03 0.  1.
         12    1    3    3    0    0  0.24547653390E+02 -0.13259966839E+02 -0.29539285856E+02  0.40632295239E+02  0.00000000000E+00 0. -1.
</event>
<event>
 7    1  0.1501154E-015  0.9000877E+02  0.7816164E-02  0.1186337E+00
        -11   -1    0    0    0    0  0.00000000000E+00  0.00000000000E+00  0.45593999997E+02  0.45594000000E+02  0.51100000000E-03 0. -1.
         11   -1    0    0    0    0 -0.00000000000E+00 -0.00000000000E+00 -0.45593999997E+02  0.45594000000E+02  0.51100000000E-03 0.  1.
    9900012    2    1    2    0    0  0.72463672001E+00  0.51061313858E+00 -0.77766281485E+00  0.90008769909E+02  0.90001044866E+02 0.  0.
         12    1    1    2    0    0 -0.72463672001E+00 -0.51061313858E+00  0.77766281485E+00  0.11792300907E+01  0.00000000000E+00 0. -1.
         11    1    3    3    0    0  0.17024073483E+01 -0.86476173540E+01  0.52436852190E+01  0.10255521031E+02  0.51100000000E-03 0. -1.
        -11    1    3    3    0    0  0.24400897959E+02 -0.17335774722E+02 -0.24494370142E+02  0.38676957938E+02  0.51100000000E-03 0.  1.
         12    1    3    3    0    0 -0.25378668588E+02  0.26494005215E+02  0.18473022108E+02  0.41076290940E+02  0.00000000000E+00 0. -1.
</event>
<event>
 7    1  0.1501154E-015  0.9000783E+02  0.7816164E-02  0.1186339E+00
        -11   -1    0    0    0    0  0.00000000000E+00  0.00000000000E+00  0.45593999997E+02  0.45594000000E+02  0.51100000000E-03 0.  1.
         11   -1    0    0    0    0 -0.00000000000E+00 -0.00000000000E+00 -0.45593999997E+02  0.45594000000E+02  0.51100000000E-03 0. -1.
    9900012    2    1    2    0    0  0.63667589544E+00  0.28202549427E+00  0.95283906230E+00  0.90007831854E+02  0.90000094434E+02 0.  0.
         12    1    1    2    0    0 -0.63667589544E+00 -0.28202549427E+00 -0.95283906230E+00  0.11801681465E+01  0.00000000000E+00 0. -1.
         11    1    3    3    0    0  0.13065391298E+02  0.41799088108E+01 -0.28118265698E+01  0.14002944560E+02  0.51100000000E-03 0. -1.
        -11    1    3    3    0    0 -0.13995121729E+02 -0.11648456654E+02  0.37322878212E+02  0.41527668041E+02  0.51100000000E-03 0.  1.
         12    1    3    3    0    0  0.15664063262E+01  0.77505733374E+01 -0.33558212580E+02  0.34477219253E+02  0.00000000000E+00 0. -1.
</event>
<event>
 7    1  0.1501154E-015  0.9000777E+02  0.7816164E-02  0.1186339E+00
        -11   -1    0    0    0    0  0.00000000000E+00  0.00000000000E+00  0.45593999997E+02  0.45594000000E+02  0.51100000000E-03 0. -1.
         11   -1    0    0    0    0 -0.00000000000E+00 -0.00000000000E+00 -0.45593999997E+02  0.45594000000E+02  0.51100000000E-03 0.  1.
    9900012    2    1    2    0    0  0.50164680461E+00  0.10546654852E+01 -0.17025130997E+00  0.90007765146E+02  0.90000026846E+02 0.  0.
         12    1    1    2    0    0 -0.50164680461E+00 -0.10546654852E+01  0.17025130997E+00  0.11802348541E+01  0.00000000000E+00 0. -1.
         11    1    3    3    0    0 -0.12131020326E+02 -0.11354843813E+02  0.32528802832E+02  0.36526937267E+02  0.51100000000E-03 0. -1.
        -11    1    3    3    0    0 -0.31904027404E+00  0.14712211325E+01  0.86560016007E+01  0.87859343436E+01  0.51100000000E-03 0.  1.
        -12    1    3    3    0    0  0.12951707404E+02  0.10938288165E+02 -0.41355055743E+02  0.44694893536E+02  0.00000000000E+00 0.  1.
</event>
<event>
 8    1  0.1501154E-015  0.9000770E+02  0.7816164E-02  0.1186339E+00
        -11   -1    0    0    0    0  0.00000000000E+00  0.00000000000E+00  0.45593999997E+02  0.45594000000E+02  0.51100000000E-03 0.  1.
         11   -1    0    0    0    0 -0.00000000000E+00 -0.00000000000E+00 -0.45593999997E+02  0.45594000000E+02  0.51100000000E-03 0. -1.
    9900012    2    1    2    0    0 -0.68965405651E+00  0.95568132708E+00  0.64406870949E-01  0.90007704375E+02  0.89999965273E+02 0.  0.
         23    2    3    3    0    0 -0.18520516918E+02  0.15768013776E+02 -0.35978692250E+01  0.66539489080E+02  0.61829759329E+02 0.  0.
         12    1    1    2    0    0  0.68965405651E+00 -0.95568132708E+00 -0.64406870949E-01  0.11802956247E+01  0.00000000000E+00 0. -1.
         11    1    4    4    0    0 -0.16392352505E+02 -0.20269503423E+02 -0.13149267857E+02  0.29197007297E+02  0.51100000000E-03 0. -1.
        -11    1    4    4    0    0 -0.21281644128E+01  0.36037517199E+02  0.95513986317E+01  0.37342481783E+02  0.51100000000E-03 0.  1.
         12    1    3    3    0    0  0.17830862862E+02 -0.14812332449E+02  0.36622760959E+01  0.23468215296E+02  0.00000000000E+00 0. -1.
</event>
<event>
 7    1  0.1501154E-015  0.9000764E+02  0.7816164E-02  0.1186339E+00
        -11   -1    0    0    0    0  0.00000000000E+00  0.00000000000E+00  0.45593999997E+02  0.45594000000E+02  0.51100000000E-03 0. -1.
         11   -1    0    0    0    0 -0.00000000000E+00 -0.00000000000E+00 -0.45593999997E+02  0.45594000000E+02  0.51100000000E-03 0.  1.
    9900012    2    1    2    0    0 -0.31964125123E+00  0.87880300544E+00 -0.72025895110E+00  0.90007644880E+02  0.89999904993E+02 0.  0.
         12    1    1    2    0    0  0.31964125123E+00 -0.87880300544E+00  0.72025895110E+00  0.11803551197E+01  0.00000000000E+00 0. -1.
         11    1    3    3    0    0 -0.40763579741E+01  0.60999964053E+01  0.21763400090E+02  0.22966763687E+02  0.51100000000E-03 0. -1.
        -11    1    3    3    0    0 -0.66831671597E+01  0.92864719926E+01  0.18826166804E+02  0.22030157560E+02  0.51100000000E-03 0.  1.
        -12    1    3    3    0    0  0.10439883883E+02 -0.14507665392E+02 -0.41309825845E+02  0.45010723633E+02  0.00000000000E+00 0.  1.
</event>
<event>
 7    1  0.1501154E-015  0.9000773E+02  0.7816164E-02  0.1186339E+00
        -11   -1    0    0    0    0  0.00000000000E+00  0.00000000000E+00  0.45593999997E+02  0.45594000000E+02  0.51100000000E-03 0.  1.
         11   -1    0    0    0    0 -0.00000000000E+00 -0.00000000000E+00 -0.45593999997E+02  0.45594000000E+02  0.51100000000E-03 0. -1.
    9900012    2    1    2    0    0  0.70241093252E+00  0.78546045553E+00  0.53171367312E+00  0.90007725170E+02  0.89999986342E+02 0.  0.
         12    1    1    2    0    0 -0.70241093252E+00 -0.78546045553E+00 -0.53171367312E+00  0.11802748305E+01  0.00000000000E+00 0. -1.
         11    1    3    3    0    0 -0.40001033990E+01 -0.20434249012E+02  0.31413221320E+02  0.37687528890E+02  0.51100000000E-03 0. -1.
        -11    1    3    3    0    0 -0.13726578037E+02  0.14736946906E+00 -0.64631454115E+01  0.15172768740E+02  0.51100000000E-03 0.  1.
        -12    1    3    3    0    0  0.18429092368E+02  0.21072339998E+02 -0.24418362236E+02  0.37147427539E+02  0.00000000000E+00 0.  1.
</event>
<event>
 7    1  0.1501154E-015  0.9000776E+02  0.7816164E-02  0.1186339E+00
        -11   -1    0    0    0    0  0.00000000000E+00  0.00000000000E+00  0.45593999997E+02  0.45594000000E+02  0.51100000000E-03 0. -1.
         11   -1    0    0    0    0 -0.00000000000E+00 -0.00000000000E+00 -0.45593999997E+02  0.45594000000E+02  0.51100000000E-03 0.  1.
    9900012    2    1    2    0    0 -0.10681673932E+01  0.47764395180E+00  0.15444367321E+00  0.90007755037E+02  0.90000016603E+02 0.  0.
         12    1    1    2    0    0  0.10681673932E+01 -0.47764395180E+00 -0.15444367321E+00  0.11802449631E+01  0.00000000000E+00 0. -1.
         11    1    3    3    0    0  0.27308490091E+01  0.71111687494E+01 -0.56139590527E+01  0.94627054165E+01  0.51100000000E-03 0. -1.
        -11    1    3    3    0    0  0.12076687266E+01  0.25537247449E+02 -0.24993485220E+02  0.35753094618E+02  0.51100000000E-03 0.  1.
         12    1    3    3    0    0 -0.50066851289E+01 -0.32170772247E+02  0.30761887946E+02  0.44791955003E+02  0.00000000000E+00 0. -1.
</event>
<event>
 7    1  0.1501154E-015  0.9000781E+02  0.7816164E-02  0.1186339E+00
        -11   -1    0    0    0    0  0.00000000000E+00  0.00000000000E+00  0.45593999997E+02  0.45594000000E+02  0.51100000000E-03 0. -1.
         11   -1    0    0    0    0 -0.00000000000E+00 -0.00000000000E+00 -0.45593999997E+02  0.45594000000E+02  0.51100000000E-03 0.  1.
    9900012    2    1    2    0    0  0.50979217788E+00  0.73917029616E+00 -0.76589749912E+00  0.90007805198E+02  0.90000067427E+02 0.  0.
         12    1    1    2    0    0 -0.50979217788E+00 -0.73917029616E+00  0.76589749912E+00  0.11801948019E+01  0.00000000000E+00 0. -1.
         11    1    3    3    0    0  0.58167488441E+01 -0.61374227537E+01 -0.13446966393E+01  0.85621687957E+01  0.51100000000E-03 0. -1.
        -11    1    3    3    0    0 -0.20291320418E+02 -0.20703544784E+02 -0.27035548660E+02  0.39639567891E+02  0.51100000000E-03 0.  1.
         12    1    3    3    0    0  0.14984363752E+02  0.27580137834E+02  0.27614347800E+02  0.41806068512E+02  0.00000000000E+00 0. -1.
</event>
<event>
 7    1  0.1501154E-015  0.9000773E+02  0.7816164E-02  0.1186339E+00
        -11   -1    0    0    0    0  0.00000000000E+00  0.00000000000E+00  0.45593999997E+02  0.45594000000E+02  0.51100000000E-03 0.  1.
         11   -1    0    0    0    0 -0.00000000000E+00 -0.00000000000E+00 -0.45593999997E+02  0.45594000000E+02  0.51100000000E-03 0. -1.
    9900012    2    1    2    0    0 -0.14990172618E+00  0.10477430317E+01  0.52230021070E+00  0.90007731599E+02  0.89999992856E+02 0.  0.
         12    1    1    2    0    0  0.14990172618E+00 -0.10477430317E+01 -0.52230021070E+00  0.11802684009E+01  0.00000000000E+00 0. -1.
         11    1    3    3    0    0 -0.21861950609E+02 -0.17505212139E+02 -0.25771696999E+02  0.38059922530E+02  0.51100000000E-03 0. -1.
        -11    1    3    3    0    0 -0.59880940921E+00  0.41695596165E+01 -0.77242050208E+01  0.87981329593E+01  0.51100000000E-03 0.  1.
        -12    1    3    3    0    0  0.22310858292E+02  0.14383395554E+02  0.34018202231E+02  0.43149676110E+02  0.00000000000E+00 0.  1.
</event>
<event>
 7    1  0.1501154E-015  0.9000739E+02  0.7816164E-02  0.1186340E+00
        -11   -1    0    0    0    0  0.00000000000E+00  0.00000000000E+00  0.45593999997E+02  0.45594000000E+02  0.51100000000E-03 0.  1.
         11   -1    0    0    0    0 -0.00000000000E+00 -0.00000000000E+00 -0.45593999997E+02  0.45594000000E+02  0.51100000000E-03 0. -1.
    9900012    2    1    2    0    0  0.86914132542E+00  0.66690001660E+00 -0.44009902728E+00  0.90007385995E+02  0.89999642689E+02 0.  0.
         12    1    1    2    0    0 -0.86914132542E+00 -0.66690001660E+00  0.44009902728E+00  0.11806140053E+01  0.00000000000E+00 0. -1.
         11    1    3    3    0    0  0.43720084175E+01 -0.82548960854E+01  0.26401379545E+01  0.97071157232E+01  0.51100000000E-03 0. -1.
        -11    1    3    3    0    0 -0.61329171377E+01 -0.25287243784E+02  0.24909655771E+02  0.36021498049E+02  0.51100000000E-03 0.  1.
         12    1    3    3    0    0  0.26300500456E+01  0.34209039886E+02 -0.27989892753E+02  0.44278772222E+02  0.00000000000E+00 0. -1.
</event>
<event>
 7    1  0.1501154E-015  0.9000775E+02  0.7816164E-02  0.1186339E+00
        -11   -1    0    0    0    0  0.00000000000E+00  0.00000000000E+00  0.45593999997E+02  0.45594000000E+02  0.51100000000E-03 0. -1.
         11   -1    0    0    0    0 -0.00000000000E+00 -0.00000000000E+00 -0.45593999997E+02  0.45594000000E+02  0.51100000000E-03 0.  1.
    9900012    2    1    2    0    0  0.39328240661E+00  0.10814665513E+01 -0.26221489508E+00  0.90007746805E+02  0.90000008263E+02 0.  0.
         12    1    1    2    0    0 -0.39328240661E+00 -0.10814665513E+01  0.26221489508E+00  0.11802531949E+01  0.00000000000E+00 0. -1.
         11    1    3    3    0    0 -0.51034958622E+01 -0.16047221379E+01  0.19276361133E+01  0.56865265674E+01  0.51100000000E-03 0. -1.
        -11    1    3    3    0    0 -0.28797236036E+02 -0.25677779574E+02  0.60700529513E+01  0.39057325949E+02  0.51100000000E-03 0.  1.
         12    1    3    3    0    0  0.34294014305E+02  0.28363968263E+02 -0.82599039597E+01  0.45263894289E+02  0.00000000000E+00 0. -1.
</event>
<event>
 7    1  0.1501154E-015  0.9000777E+02  0.7816164E-02  0.1186339E+00
        -11   -1    0    0    0    0  0.00000000000E+00  0.00000000000E+00  0.45593999997E+02  0.45594000000E+02  0.51100000000E-03 0. -1.
         11   -1    0    0    0    0 -0.00000000000E+00 -0.00000000000E+00 -0.45593999997E+02  0.45594000000E+02  0.51100000000E-03 0.  1.
    9900012    2    1    2    0    0  0.15930875374E-01 -0.48754351345E+00 -0.10747098870E+01  0.90007765357E+02  0.90000027060E+02 0.  0.
         12    1    1    2    0    0 -0.15930875374E-01  0.48754351345E+00  0.10747098870E+01  0.11802346425E+01  0.00000000000E+00 0. -1.
         11    1    3    3    0    0  0.36990786139E+02  0.33824774567E+01 -0.81139187060E+01  0.38020982233E+02  0.51100000000E-03 0. -1.
        -11    1    3    3    0    0  0.63467199618E+01 -0.12668130207E+00  0.56237162226E+01  0.84807480117E+01  0.51100000000E-03 0.  1.
        -12    1    3    3    0    0 -0.43321575226E+02 -0.37433396681E+01  0.14154925965E+01  0.43506035112E+02  0.00000000000E+00 0.  1.
</event>
<event>
 7    1  0.1501154E-015  0.9000778E+02  0.7816164E-02  0.1186339E+00
        -11   -1    0    0    0    0  0.00000000000E+00  0.00000000000E+00  0.45593999997E+02  0.45594000000E+02  0.51100000000E-03 0.  1.
         11   -1    0    0    0    0 -0.00000000000E+00 -0.00000000000E+00 -0.45593999997E+02  0.45594000000E+02  0.51100000000E-03 0. -1.
    9900012    2    1    2    0    0 -0.87769479401E+00  0.31860577446E+00  0.72185361056E+00  0.90007775265E+02  0.90000037098E+02 0.  0.
         12    1    1    2    0    0  0.87769479401E+00 -0.31860577446E+00 -0.72185361056E+00  0.11802247354E+01  0.00000000000E+00 0. -1.
         11    1    3    3    0    0 -0.84895461179E+01 -0.39473153180E+01 -0.20446869555E+01  0.95830285669E+01  0.51100000000E-03 0. -1.
        -11    1    3    3    0    0 -0.29612555426E+02 -0.15376812761E+02 -0.12530300006E+02  0.35642085069E+02  0.51100000000E-03 0.  1.
         12    1    3    3    0    0  0.37224406750E+02  0.19642733854E+02  0.15296840572E+02  0.44782661629E+02  0.00000000000E+00 0. -1.
</event>
<event>
 7    1  0.1501154E-015  0.9000764E+02  0.7816164E-02  0.1186339E+00
        -11   -1    0    0    0    0  0.00000000000E+00  0.00000000000E+00  0.45593999997E+02  0.45594000000E+02  0.51100000000E-03 0. -1.
         11   -1    0    0    0    0 -0.00000000000E+00 -0.00000000000E+00 -0.45593999997E+02  0.45594000000E+02  0.51100000000E-03 0.  1.
    9900012    2    1    2    0    0  0.93882122276E+00 -0.66614682201E+00  0.26100168663E+00  0.90007636176E+02  0.89999896173E+02 0.  0.
         12    1    1    2    0    0 -0.93882122276E+00  0.66614682201E+00 -0.26100168663E+00  0.11803638241E+01  0.00000000000E+00 0. -1.
         11    1    3    3    0    0 -0.35819929773E+01  0.37097670737E+01  0.37157465105E+02  0.37513600983E+02  0.51100000000E-03 0. -1.
        -11    1    3    3    0    0  0.88068503933E+01 -0.58142921347E+00  0.50433707891E+01  0.10165346180E+02  0.51100000000E-03 0.  1.
        -12    1    3    3    0    0 -0.42860361932E+01 -0.37944846822E+01 -0.41939834207E+02  0.42328689013E+02  0.00000000000E+00 0.  1.
</event>
<event>
 7    1  0.1501154E-015  0.9000777E+02  0.7816164E-02  0.1186339E+00
        -11   -1    0    0    0    0  0.00000000000E+00  0.00000000000E+00  0.45593999997E+02  0.45594000000E+02  0.51100000000E-03 0.  1.
         11   -1    0    0    0    0 -0.00000000000E+00 -0.00000000000E+00 -0.45593999997E+02  0.45594000000E+02  0.51100000000E-03 0. -1.
    9900012    2    1    2    0    0 -0.62884243661E+00 -0.79443971987E+00  0.60528233094E+00  0.90007769523E+02  0.90000031281E+02 0.  0.
         12    1    1    2    0    0  0.62884243661E+00  0.79443971987E+00 -0.60528233094E+00  0.11802304770E+01  0.00000000000E+00 0. -1.
         11    1    3    3    0    0  0.13250340723E+00  0.76894375041E+01 -0.16784422282E+01  0.78716056086E+01  0.51100000000E-03 0. -1.
        -11    1    3    3    0    0  0.33133869797E+02 -0.18354772432E+02  0.19783788397E+02  0.42733467942E+02  0.51100000000E-03 0.  1.
         12    1    3    3    0    0 -0.33895215641E+02  0.98708952080E+01 -0.17500063838E+02  0.39402695972E+02  0.00000000000E+00 0. -1.
</event>
<event>
 7    1  0.1501154E-015  0.9000774E+02  0.7816164E-02  0.1186339E+00
        -11   -1    0    0    0    0  0.00000000000E+00  0.00000000000E+00  0.45593999997E+02  0.45594000000E+02  0.51100000000E-03 0.  1.
         11   -1    0    0    0    0 -0.00000000000E+00 -0.00000000000E+00 -0.45593999997E+02  0.45594000000E+02  0.51100000000E-03 0. -1.
    9900012    2    1    2    0    0 -0.69055808849E+00 -0.29833583607E+00  0.90947762083E+00  0.90007735501E+02  0.89999996810E+02 0.  0.
         12    1    1    2    0    0  0.69055808849E+00  0.29833583607E+00 -0.90947762083E+00  0.11802644989E+01  0.00000000000E+00 0. -1.
         11    1    3    3    0    0 -0.13327205157E+01 -0.86561715436E+01 -0.71586017620E+01  0.11311544069E+02  0.51100000000E-03 0. -1.
        -11    1    3    3    0    0  0.27797698506E+01 -0.33816346197E+02  0.12667953139E+02  0.36218081500E+02  0.51100000000E-03 0.  1.
         12    1    3    3    0    0 -0.21376074233E+01  0.42174181905E+02 -0.45998737561E+01  0.42478109932E+02  0.00000000000E+00 0. -1.
</event>
<event>
 7    1  0.1501154E-015  0.9000788E+02  0.7816164E-02  0.1186339E+00
        -11   -1    0    0    0    0  0.00000000000E+00  0.00000000000E+00  0.45593999997E+02  0.45594000000E+02  0.51100000000E-03 0.  1.
         11   -1    0    0    0    0 -0.00000000000E+00 -0.00000000000E+00 -0.45593999997E+02  0.45594000000E+02  0.51100000000E-03 0. -1.
    9900012    2    1    2    0    0  0.27157179904E+00  0.60714878416E+00  0.97483652350E+00  0.90007878339E+02  0.90000141533E+02 0.  0.
         12    1    1    2    0    0 -0.27157179904E+00 -0.60714878416E+00 -0.97483652350E+00  0.11801216614E+01  0.00000000000E+00 0. -1.
         11    1    3    3    0    0  0.11449415659E+02 -0.87146043412E+00 -0.93424856328E+00  0.11520476677E+02  0.51100000000E-03 0. -1.
        -11    1    3    3    0    0 -0.66567985062E+01 -0.12732657971E+02  0.37359960795E+02  0.40027493255E+02  0.51100000000E-03 0.  1.
         12    1    3    3    0    0 -0.45210453536E+01  0.14211267189E+02 -0.35450875708E+02  0.38459908407E+02  0.00000000000E+00 0. -1.
</event>
<event>
 7    1  0.1501154E-015  0.9000771E+02  0.7816164E-02  0.1186339E+00
        -11   -1    0    0    0    0  0.00000000000E+00  0.00000000000E+00  0.45593999997E+02  0.45594000000E+02  0.51100000000E-03 0.  1.
         11   -1    0    0    0    0 -0.00000000000E+00 -0.00000000000E+00 -0.45593999997E+02  0.45594000000E+02  0.51100000000E-03 0. -1.
    9900012    2    1    2    0    0  0.60129365371E+00  0.74745125462E+00  0.68764069459E+00  0.90007708866E+02  0.89999969823E+02 0.  0.
         12    1    1    2    0    0 -0.60129365371E+00 -0.74745125462E+00 -0.68764069459E+00  0.11802911340E+01  0.00000000000E+00 0. -1.
         11    1    3    3    0    0 -0.25880776260E+02 -0.10228770487E+02 -0.24456861163E+02  0.37048351971E+02  0.51100000000E-03 0. -1.
        -11    1    3    3    0    0  0.77801281004E+01 -0.63482369304E+01 -0.67717980789E+01  0.12111472035E+02  0.51100000000E-03 0.  1.
        -12    1    3    3    0    0  0.18701941814E+02  0.17324458672E+02  0.31916299937E+02  0.40847884860E+02  0.00000000000E+00 0.  1.
</event>
<event>
 7    1  0.1501154E-015  0.9000773E+02  0.7816164E-02  0.1186339E+00
        -11   -1    0    0    0    0  0.00000000000E+00  0.00000000000E+00  0.45593999997E+02  0.45594000000E+02  0.51100000000E-03 0.  1.
         11   -1    0    0    0    0 -0.00000000000E+00 -0.00000000000E+00 -0.45593999997E+02  0.45594000000E+02  0.51100000000E-03 0. -1.
    9900012    2    1    2    0    0 -0.52538204142E+00  0.60163110096E+00  0.86893608976E+00  0.90007730455E+02  0.89999991697E+02 0.  0.
         12    1    1    2    0    0  0.52538204142E+00 -0.60163110096E+00 -0.86893608976E+00  0.11802695451E+01  0.00000000000E+00 0. -1.
         11    1    3    3    0    0  0.24396077147E+02  0.15571026523E+02 -0.16466085176E+02  0.33298009076E+02  0.51100000000E-03 0. -1.
        -11    1    3    3    0    0  0.65699963151E+01  0.10192197843E+01  0.20209582898E+02  0.21275124011E+02  0.51100000000E-03 0.  1.
        -12    1    3    3    0    0 -0.31491455504E+02 -0.15988615207E+02 -0.28745616319E+01  0.35434597367E+02  0.00000000000E+00 0.  1.
</event>
<event>
 7    1  0.1501154E-015  0.9000776E+02  0.7816164E-02  0.1186339E+00
        -11   -1    0    0    0    0  0.00000000000E+00  0.00000000000E+00  0.45593999997E+02  0.45594000000E+02  0.51100000000E-03 0.  1.
         11   -1    0    0    0    0 -0.00000000000E+00 -0.00000000000E+00 -0.45593999997E+02  0.45594000000E+02  0.51100000000E-03 0. -1.
    9900012    2    1    2    0    0 -0.10542412417E+01 -0.65916740125E-02  0.53056373709E+00  0.90007760226E+02  0.90000021861E+02 0.  0.
         12    1    1    2    0    0  0.10542412417E+01  0.65916740125E-02 -0.53056373709E+00  0.11802397744E+01  0.00000000000E+00 0. -1.
         11    1    3    3    0    0  0.53639341418E+01 -0.49211711469E+01 -0.58038117552E+00  0.73025035094E+01  0.51100000000E-03 0. -1.
        -11    1    3    3    0    0 -0.69851250370E+01 -0.38415304625E+02  0.41505787781E+01  0.39265186943E+02  0.51100000000E-03 0.  1.
         12    1    3    3    0    0  0.56694965346E+00  0.43329884098E+02 -0.30396338655E+01  0.43440069773E+02  0.00000000000E+00 0. -1.
</event>
<event>
 7    1  0.1501154E-015  0.9000725E+02  0.7816164E-02  0.1186340E+00
        -11   -1    0    0    0    0  0.00000000000E+00  0.00000000000E+00  0.45593999997E+02  0.45594000000E+02  0.51100000000E-03 0.  1.
         11   -1    0    0    0    0 -0.00000000000E+00 -0.00000000000E+00 -0.45593999997E+02  0.45594000000E+02  0.51100000000E-03 0. -1.
    9900012    2    1    2    0    0 -0.38013446426E+00 -0.17473682045E+00  0.11041473512E+01  0.90007247469E+02  0.89999502334E+02 0.  0.
         12    1    1    2    0    0  0.38013446426E+00  0.17473682045E+00 -0.11041473512E+01  0.11807525314E+01  0.00000000000E+00 0. -1.
         11    1    3    3    0    0  0.15530805497E+02  0.20616469322E+02 -0.16186735626E+02  0.30467279779E+02  0.51100000000E-03 0. -1.
        -11    1    3    3    0    0 -0.24268975186E+02  0.10326852087E+01 -0.75469827308E+01  0.25436323317E+02  0.51100000000E-03 0.  1.
        -12    1    3    3    0    0  0.83580352251E+01 -0.21823891351E+02  0.24837865708E+02  0.34103644372E+02  0.00000000000E+00 0.  1.
</event>
<event>
 7    1  0.1501154E-015  0.9000855E+02  0.7816164E-02  0.1186337E+00
        -11   -1    0    0    0    0  0.00000000000E+00  0.00000000000E+00  0.45593999997E+02  0.45594000000E+02  0.51100000000E-03 0.  1.
         11   -1    0    0    0    0 -0.00000000000E+00 -0.00000000000E+00 -0.45593999997E+02  0.45594000000E+02  0.51100000000E-03 0. -1.
    9900012    2    1    2    0    0  0.36321375465E+00  0.25789086962E+00  0.10920949900E+01  0.90008549535E+02  0.90000821585E+02 0.  0.
         12    1    1    2    0    0 -0.36321375465E+00 -0.25789086962E+00 -0.10920949900E+01  0.11794504650E+01  0.00000000000E+00 0. -1.
         11    1    3    3    0    0 -0.32500572065E+02  0.12559364483E+02 -0.40146106694E+01  0.35073379076E+02  0.51100000000E-03 0. -1.
        -11    1    3    3    0    0 -0.91147578647E+01  0.24790762214E-01  0.64460861769E+01  0.11163845788E+02  0.51100000000E-03 0.  1.
        -12    1    3    3    0    0  0.41978543684E+02 -0.12326264376E+02 -0.13393805175E+01  0.43771324671E+02  0.00000000000E+00 0.  1.
</event>
<event>
 7    1  0.1501154E-015  0.9000775E+02  0.7816164E-02  0.1186339E+00
        -11   -1    0    0    0    0  0.00000000000E+00  0.00000000000E+00  0.45593999997E+02  0.45594000000E+02  0.51100000000E-03 0.  1.
         11   -1    0    0    0    0 -0.00000000000E+00 -0.00000000000E+00 -0.45593999997E+02  0.45594000000E+02  0.51100000000E-03 0. -1.
    9900012    2    1    2    0    0  0.60570769859E+00 -0.87140770863E+00  0.51648218569E+00  0.90007751272E+02  0.90000012789E+02 0.  0.
         12    1    1    2    0    0 -0.60570769859E+00  0.87140770863E+00 -0.51648218569E+00  0.11802487276E+01  0.00000000000E+00 0. -1.
         11    1    3    3    0    0 -0.74962111338E+01 -0.47406669876E+01  0.35284794164E+01  0.95455367635E+01  0.51100000000E-03 0. -1.
        -11    1    3    3    0    0 -0.34928450557E+02  0.10633305303E+02  0.22849533193E+01  0.36582575797E+02  0.51100000000E-03 0.  1.
         12    1    3    3    0    0  0.43030369389E+02 -0.67640460237E+01 -0.52969505499E+01  0.43879638712E+02  0.00000000000E+00 0. -1.
</event>
<event>
 7    1  0.1501154E-015  0.9000771E+02  0.7816164E-02  0.1186339E+00
        -11   -1    0    0    0    0  0.00000000000E+00  0.00000000000E+00  0.45593999997E+02  0.45594000000E+02  0.51100000000E-03 0.  1.
         11   -1    0    0    0    0 -0.00000000000E+00 -0.00000000000E+00 -0.45593999997E+02  0.45594000000E+02  0.51100000000E-03 0. -1.
    9900012    2    1    2    0    0  0.29151143626E+00 -0.76412805508E+00  0.85100098058E+00  0.90007714750E+02  0.89999975785E+02 0.  0.
         12    1    1    2    0    0 -0.29151143626E+00  0.76412805508E+00 -0.85100098058E+00  0.11802852498E+01  0.00000000000E+00 0. -1.
         11    1    3    3    0    0  0.21859429718E+01  0.34373952061E+01  0.81043685472E+01  0.90705469675E+01  0.51100000000E-03 0. -1.
        -11    1    3    3    0    0 -0.21788502766E+02 -0.36594112475E+02 -0.32595530555E+01  0.42714079728E+02  0.51100000000E-03 0.  1.
         12    1    3    3    0    0  0.19894071231E+02  0.32392589214E+02 -0.39938145111E+01  0.38223088055E+02  0.00000000000E+00 0. -1.
</event>
<event>
 7    1  0.1501154E-015  0.9000789E+02  0.7816164E-02  0.1186339E+00
        -11   -1    0    0    0    0  0.00000000000E+00  0.00000000000E+00  0.45593999997E+02  0.45594000000E+02  0.51100000000E-03 0.  1.
         11   -1    0    0    0    0 -0.00000000000E+00 -0.00000000000E+00 -0.45593999997E+02  0.45594000000E+02  0.51100000000E-03 0. -1.
    9900012    2    1    2    0    0  0.42002354050E+00  0.44568300263E+00  0.10087616581E+01  0.90007892718E+02  0.90000156102E+02 0.  0.
         12    1    1    2    0    0 -0.42002354050E+00 -0.44568300263E+00 -0.10087616581E+01  0.11801072817E+01  0.00000000000E+00 0. -1.
         11    1    3    3    0    0 -0.29316476138E+01  0.25326911480E+02  0.27874662266E+02  0.37776233263E+02  0.51100000000E-03 0. -1.
        -11    1    3    3    0    0 -0.83904630330E+01  0.51706683595E+01  0.58002868859E+00  0.98727967027E+01  0.51100000000E-03 0.  1.
        -12    1    3    3    0    0  0.11742134187E+02 -0.30051896837E+02 -0.27445929296E+02  0.42358862753E+02  0.00000000000E+00 0.  1.
</event>
<event>
 7    1  0.1501154E-015  0.9000775E+02  0.7816164E-02  0.1186339E+00
        -11   -1    0    0    0    0  0.00000000000E+00  0.00000000000E+00  0.45593999997E+02  0.45594000000E+02  0.51100000000E-03 0. -1.
         11   -1    0    0    0    0 -0.00000000000E+00 -0.00000000000E+00 -0.45593999997E+02  0.45594000000E+02  0.51100000000E-03 0.  1.
    9900012    2    1    2    0    0  0.15198511462E+00  0.91121149603E+00 -0.73456901337E+00  0.90007746849E+02  0.90000008307E+02 0.  0.
         12    1    1    2    0    0 -0.15198511462E+00 -0.91121149603E+00  0.73456901337E+00  0.11802531512E+01  0.00000000000E+00 0. -1.
         11    1    3    3    0    0  0.26614149218E+02  0.67362470801E+01  0.27537517432E+02  0.38884506297E+02  0.51100000000E-03 0. -1.
        -11    1    3    3    0    0  0.76879529959E+01 -0.18829059030E+01 -0.30343929540E+01  0.84768801317E+01  0.51100000000E-03 0.  1.
        -12    1    3    3    0    0 -0.34150117100E+02 -0.39421296811E+01 -0.25237693491E+02  0.42646360421E+02  0.00000000000E+00 0.  1.
</event>
<event>
 7    1  0.1501154E-015  0.9000775E+02  0.7816164E-02  0.1186339E+00
        -11   -1    0    0    0    0  0.00000000000E+00  0.00000000000E+00  0.45593999997E+02  0.45594000000E+02  0.51100000000E-03 0. -1.
         11   -1    0    0    0    0 -0.00000000000E+00 -0.00000000000E+00 -0.45593999997E+02  0.45594000000E+02  0.51100000000E-03 0.  1.
    9900012    2    1    2    0    0  0.63082544084E+00 -0.96540514030E+00 -0.25106206921E+00  0.90007754270E+02  0.90000015826E+02 0.  0.
         12    1    1    2    0    0 -0.63082544084E+00  0.96540514030E+00  0.25106206921E+00  0.11802457305E+01  0.00000000000E+00 0. -1.
         11    1    3    3    0    0  0.17668735856E+02  0.11222547809E+02  0.30762748335E+02  0.37208554009E+02  0.51100000000E-03 0. -1.
        -11    1    3    3    0    0  0.81489411888E+01  0.54678850792E+01 -0.10691404837E+01  0.98714776692E+01  0.51100000000E-03 0.  1.
        -12    1    3    3    0    0 -0.25186851604E+02 -0.17655838028E+02 -0.29944669921E+02  0.42927722591E+02  0.00000000000E+00 0.  1.
</event>
<event>
 7    1  0.1501154E-015  0.9000771E+02  0.7816164E-02  0.1186339E+00
        -11   -1    0    0    0    0  0.00000000000E+00  0.00000000000E+00  0.45593999997E+02  0.45594000000E+02  0.51100000000E-03 0.  1.
         11   -1    0    0    0    0 -0.00000000000E+00 -0.00000000000E+00 -0.45593999997E+02  0.45594000000E+02  0.51100000000E-03 0. -1.
    9900012    2    1    2    0    0  0.51203936721E+00 -0.10463127079E+01  0.19007886164E+00  0.90007709964E+02  0.89999970935E+02 0.  0.
         12    1    1    2    0    0 -0.51203936721E+00  0.10463127079E+01 -0.19007886164E+00  0.11802900364E+01  0.00000000000E+00 0. -1.
         11    1    3    3    0    0  0.83810256788E+00  0.32883138591E+02  0.24015940476E+02  0.40727983214E+02  0.51100000000E-03 0. -1.
        -11    1    3    3    0    0  0.35974757941E+01 -0.50454567143E+01 -0.18678404569E+02  0.19679462977E+02  0.51100000000E-03 0.  1.
        -12    1    3    3    0    0 -0.39235389948E+01 -0.28883994584E+02 -0.51474570444E+01  0.29600263773E+02  0.00000000000E+00 0.  1.
</event>
<event>
 7    1  0.1501154E-015  0.9000773E+02  0.7816164E-02  0.1186339E+00
        -11   -1    0    0    0    0  0.00000000000E+00  0.00000000000E+00  0.45593999997E+02  0.45594000000E+02  0.51100000000E-03 0.  1.
         11   -1    0    0    0    0 -0.00000000000E+00 -0.00000000000E+00 -0.45593999997E+02  0.45594000000E+02  0.51100000000E-03 0. -1.
    9900012    2    1    2    0    0  0.11275261051E+01 -0.14688979325E+00  0.31644019060E+00  0.90007734723E+02  0.89999996022E+02 0.  0.
         12    1    1    2    0    0 -0.11275261051E+01  0.14688979325E+00 -0.31644019060E+00  0.11802652767E+01  0.00000000000E+00 0. -1.
         11    1    3    3    0    0 -0.70481316466E+01  0.45537561945E+01  0.66989571335E+01  0.10737266045E+02  0.51100000000E-03 0. -1.
        -11    1    3    3    0    0  0.12566010676E+02  0.13262440271E+02  0.31896772143E+02  0.36758686316E+02  0.51100000000E-03 0.  1.
         12    1    3    3    0    0 -0.43903529242E+01 -0.17963086259E+02 -0.38279289086E+02  0.42511782363E+02  0.00000000000E+00 0. -1.
</event>
<event>
 7    1  0.1501154E-015  0.9000767E+02  0.7816164E-02  0.1186339E+00
        -11   -1    0    0    0    0  0.00000000000E+00  0.00000000000E+00  0.45593999997E+02  0.45594000000E+02  0.51100000000E-03 0.  1.
         11   -1    0    0    0    0 -0.00000000000E+00 -0.00000000000E+00 -0.45593999997E+02  0.45594000000E+02  0.51100000000E-03 0. -1.
    9900012    2    1    2    0    0 -0.68908951028E+00  0.64255802432E+00  0.71096063909E+00  0.90007665218E+02  0.89999925599E+02 0.  0.
         12    1    1    2    0    0  0.68908951028E+00 -0.64255802432E+00 -0.71096063909E+00  0.11803347822E+01  0.00000000000E+00 0. -1.
         11    1    3    3    0    0  0.38725548207E+01 -0.17694593995E+02 -0.32617389645E+02  0.37309374760E+02  0.51100000000E-03 0. -1.
        -11    1    3    3    0    0 -0.27618393385E+01  0.60684295591E+01 -0.74960888380E+01  0.10032195272E+02  0.51100000000E-03 0.  1.
        -12    1    3    3    0    0 -0.17998049925E+01  0.12268722460E+02  0.40824439122E+02  0.42666095186E+02  0.00000000000E+00 0.  1.
</event>
<event>
 7    1  0.1501154E-015  0.9000766E+02  0.7816164E-02  0.1186339E+00
        -11   -1    0    0    0    0  0.00000000000E+00  0.00000000000E+00  0.45593999997E+02  0.45594000000E+02  0.51100000000E-03 0.  1.
         11   -1    0    0    0    0 -0.00000000000E+00 -0.00000000000E+00 -0.45593999997E+02  0.45594000000E+02  0.51100000000E-03 0. -1.
    9900012    2    1    2    0    0  0.56500256122E-01 -0.11265115539E+01  0.34781535280E+00  0.90007662726E+02  0.89999923074E+02 0.  0.
         12    1    1    2    0    0 -0.56500256122E-01  0.11265115539E+01 -0.34781535280E+00  0.11803372737E+01  0.00000000000E+00 0. -1.
         11    1    3    3    0    0  0.16826451473E+01  0.63548114743E+01  0.69684856155E+01  0.95799120873E+01  0.51100000000E-03 0. -1.
        -11    1    3    3    0    0  0.37814535502E+02 -0.11592795974E+02  0.28628261989E+01  0.39655110489E+02  0.51100000000E-03 0.  1.
         12    1    3    3    0    0 -0.39440680394E+02  0.41114729455E+01 -0.94834964616E+01  0.40772640150E+02  0.00000000000E+00 0. -1.
</event>
<event>
 7    1  0.1501154E-015  0.9000771E+02  0.7816164E-02  0.1186339E+00
        -11   -1    0    0    0    0  0.00000000000E+00  0.00000000000E+00  0.45593999997E+02  0.45594000000E+02  0.51100000000E-03 0. -1.
         11   -1    0    0    0    0 -0.00000000000E+00 -0.00000000000E+00 -0.45593999997E+02  0.45594000000E+02  0.51100000000E-03 0.  1.
    9900012    2    1    2    0    0 -0.48496570013E+00  0.46349738157E+00 -0.97111209270E+00  0.90007711794E+02  0.89999972790E+02 0.  0.
         12    1    1    2    0    0  0.48496570013E+00 -0.46349738157E+00  0.97111209270E+00  0.11802882062E+01  0.00000000000E+00 0. -1.
         11    1    3    3    0    0  0.75224394896E+01  0.42938775914E+01 -0.60945374154E+01  0.10590933255E+02  0.51100000000E-03 0. -1.
        -11    1    3    3    0    0  0.22171642554E+02 -0.30069044047E+02  0.11119735638E+02  0.38979195276E+02  0.51100000000E-03 0.  1.
         12    1    3    3    0    0 -0.30179047744E+02  0.26238663838E+02 -0.59963103149E+01  0.40437583262E+02  0.00000000000E+00 0. -1.
</event>
<event>
 7    1  0.1501154E-015  0.9000773E+02  0.7816164E-02  0.1186339E+00
        -11   -1    0    0    0    0  0.00000000000E+00  0.00000000000E+00  0.45593999997E+02  0.45594000000E+02  0.51100000000E-03 0.  1.
         11   -1    0    0    0    0 -0.00000000000E+00 -0.00000000000E+00 -0.45593999997E+02  0.45594000000E+02  0.51100000000E-03 0. -1.
    9900012    2    1    2    0    0 -0.10127791701E+01 -0.18070585794E+00  0.57850310294E+00  0.90007727957E+02  0.89999989166E+02 0.  0.
         12    1    1    2    0    0  0.10127791701E+01  0.18070585794E+00 -0.57850310294E+00  0.11802720426E+01  0.00000000000E+00 0. -1.
         11    1    3    3    0    0  0.30701706249E+02  0.26187395003E+01 -0.24285630742E+01  0.30908744427E+02  0.51100000000E-03 0. -1.
        -11    1    3    3    0    0  0.12381525075E+02  0.12910276222E+01 -0.61374533361E+01  0.13879382163E+02  0.51100000000E-03 0.  1.
        -12    1    3    3    0    0 -0.44096010494E+02 -0.40904729805E+01  0.91445195132E+01  0.45219601368E+02  0.00000000000E+00 0.  1.
</event>
<event>
 7    1  0.1501154E-015  0.9000770E+02  0.7816164E-02  0.1186339E+00
        -11   -1    0    0    0    0  0.00000000000E+00  0.00000000000E+00  0.45593999997E+02  0.45594000000E+02  0.51100000000E-03 0. -1.
         11   -1    0    0    0    0 -0.00000000000E+00 -0.00000000000E+00 -0.45593999997E+02  0.45594000000E+02  0.51100000000E-03 0.  1.
    9900012    2    1    2    0    0 -0.50914760008E+00  0.10563111264E+01  0.13445474937E+00  0.90007702345E+02  0.89999963216E+02 0.  0.
         12    1    1    2    0    0  0.50914760008E+00 -0.10563111264E+01 -0.13445474937E+00  0.11802976548E+01  0.00000000000E+00 0. -1.
         11    1    3    3    0    0 -0.36271714115E+02 -0.18668878313E+02  0.15279894695E+02  0.43561903590E+02  0.51100000000E-03 0. -1.
        -11    1    3    3    0    0  0.45385313157E+01  0.23326958591E+00 -0.76253114187E+01  0.88768268935E+01  0.51100000000E-03 0.  1.
        -12    1    3    3    0    0  0.31224035199E+02  0.19491919853E+02 -0.75201285266E+01  0.37568971861E+02  0.00000000000E+00 0.  1.
</event>
<event>
 7    1  0.1501154E-015  0.9000769E+02  0.7816164E-02  0.1186339E+00
        -11   -1    0    0    0    0  0.00000000000E+00  0.00000000000E+00  0.45593999997E+02  0.45594000000E+02  0.51100000000E-03 0.  1.
         11   -1    0    0    0    0 -0.00000000000E+00 -0.00000000000E+00 -0.45593999997E+02  0.45594000000E+02  0.51100000000E-03 0. -1.
    9900012    2    1    2    0    0 -0.57643696703E+00  0.10070837198E+01 -0.21595104809E+00  0.90007689850E+02  0.89999950556E+02 0.  0.
         12    1    1    2    0    0  0.57643696703E+00 -0.10070837198E+01  0.21595104809E+00  0.11803101502E+01  0.00000000000E+00 0. -1.
         11    1    3    3    0    0  0.58208141071E+01 -0.16116148441E+01  0.86297155855E+01  0.10533336158E+02  0.51100000000E-03 0. -1.
        -11    1    3    3    0    0 -0.20762834592E+02  0.35179233275E+02  0.52710197861E+01  0.41188073565E+02  0.51100000000E-03 0.  1.
         12    1    3    3    0    0  0.14365583518E+02 -0.32560534711E+02 -0.14116686420E+02  0.38286280127E+02  0.00000000000E+00 0. -1.
</event>
<event>
 7    1  0.1501154E-015  0.9000772E+02  0.7816164E-02  0.1186339E+00
        -11   -1    0    0    0    0  0.00000000000E+00  0.00000000000E+00  0.45593999997E+02  0.45594000000E+02  0.51100000000E-03 0.  1.
         11   -1    0    0    0    0 -0.00000000000E+00 -0.00000000000E+00 -0.45593999997E+02  0.45594000000E+02  0.51100000000E-03 0. -1.
    9900012    2    1    2    0    0 -0.58752917573E+00 -0.58030183884E+00  0.84328624783E+00  0.90007715097E+02  0.89999976136E+02 0.  0.
         12    1    1    2    0    0  0.58752917573E+00  0.58030183884E+00 -0.84328624783E+00  0.11802849030E+01  0.00000000000E+00 0. -1.
         11    1    3    3    0    0 -0.16933554437E+02 -0.32773002520E+02 -0.20702916550E+02  0.42301604154E+02  0.51100000000E-03 0. -1.
        -11    1    3    3    0    0  0.33784559060E+01 -0.32654605088E+01  0.35058194423E+01  0.58624198815E+01  0.51100000000E-03 0.  1.
        -12    1    3    3    0    0  0.12967569355E+02  0.35458161190E+02  0.18040383356E+02  0.41843691061E+02  0.00000000000E+00 0.  1.
</event>
<event>
 7    1  0.1501154E-015  0.9000780E+02  0.7816164E-02  0.1186339E+00
        -11   -1    0    0    0    0  0.00000000000E+00  0.00000000000E+00  0.45593999997E+02  0.45594000000E+02  0.51100000000E-03 0. -1.
         11   -1    0    0    0    0 -0.00000000000E+00 -0.00000000000E+00 -0.45593999997E+02  0.45594000000E+02  0.51100000000E-03 0.  1.
    9900012    2    1    2    0    0  0.73063261605E+00 -0.70997885523E+00 -0.59580258018E+00  0.90007798869E+02  0.90000061014E+02 0.  0.
         12    1    1    2    0    0 -0.73063261605E+00  0.70997885523E+00  0.59580258018E+00  0.11802011308E+01  0.00000000000E+00 0. -1.
         11    1    3    3    0    0 -0.27458739061E+02 -0.17518689588E+02  0.12888887599E+02  0.35028706220E+02  0.51100000000E-03 0. -1.
        -11    1    3    3    0    0 -0.93862850360E+01 -0.23821411969E+01  0.22607534220E+01  0.99442420403E+01  0.51100000000E-03 0.  1.
        -12    1    3    3    0    0  0.37575656713E+02  0.19190851929E+02 -0.15745443601E+02  0.45034850609E+02  0.00000000000E+00 0.  1.
</event>
<event>
 7    1  0.1501154E-015  0.9000680E+02  0.7816164E-02  0.1186341E+00
        -11   -1    0    0    0    0  0.00000000000E+00  0.00000000000E+00  0.45593999997E+02  0.45594000000E+02  0.51100000000E-03 0.  1.
         11   -1    0    0    0    0 -0.00000000000E+00 -0.00000000000E+00 -0.45593999997E+02  0.45594000000E+02  0.51100000000E-03 0. -1.
    9900012    2    1    2    0    0  0.62987240804E+00  0.95054425800E+00 -0.30816729414E+00  0.90006796919E+02  0.89999045834E+02 0.  0.
         12    1    1    2    0    0 -0.62987240804E+00 -0.95054425800E+00  0.30816729414E+00  0.11812030808E+01  0.00000000000E+00 0. -1.
         11    1    3    3    0    0  0.37230273691E+00 -0.66057704465E+01 -0.11675376329E+02  0.13419732680E+02  0.51100000000E-03 0. -1.
        -11    1    3    3    0    0 -0.35221118445E+02 -0.28031865756E+01 -0.58498704651E+01  0.35813489417E+02  0.51100000000E-03 0.  1.
         12    1    3    3    0    0  0.35478688116E+02  0.10359501280E+02  0.17217079500E+02  0.40773574822E+02  0.00000000000E+00 0. -1.
</event>
<event>
 7    1  0.1501154E-015  0.9000763E+02  0.7816164E-02  0.1186339E+00
        -11   -1    0    0    0    0  0.00000000000E+00  0.00000000000E+00  0.45593999997E+02  0.45594000000E+02  0.51100000000E-03 0.  1.
         11   -1    0    0    0    0 -0.00000000000E+00 -0.00000000000E+00 -0.45593999997E+02  0.45594000000E+02  0.51100000000E-03 0. -1.
    9900012    2    1    2    0    0  0.21803541800E+00  0.92223899876E+00  0.70371477286E+00  0.90007627730E+02  0.89999887616E+02 0.  0.
         12    1    1    2    0    0 -0.21803541800E+00 -0.92223899876E+00 -0.70371477286E+00  0.11803722700E+01  0.00000000000E+00 0. -1.
         11    1    3    3    0    0 -0.26645288838E+01  0.48059504743E-01 -0.87337822827E+01  0.91313184761E+01  0.51100000000E-03 0. -1.
        -11    1    3    3    0    0 -0.13556299936E+02  0.37612974291E+02  0.27523489547E+01  0.40075984430E+02  0.51100000000E-03 0.  1.
         12    1    3    3    0    0  0.16438864238E+02 -0.36738794797E+02  0.66851481009E+01  0.40800324824E+02  0.00000000000E+00 0. -1.
</event>
<event>
 7    1  0.1501154E-015  0.9000775E+02  0.7816164E-02  0.1186339E+00
        -11   -1    0    0    0    0  0.00000000000E+00  0.00000000000E+00  0.45593999997E+02  0.45594000000E+02  0.51100000000E-03 0.  1.
         11   -1    0    0    0    0 -0.00000000000E+00 -0.00000000000E+00 -0.45593999997E+02  0.45594000000E+02  0.51100000000E-03 0. -1.
    9900012    2    1    2    0    0  0.10039760045E+01 -0.57766126042E+00  0.22655083023E+00  0.90007751879E+02  0.90000013403E+02 0.  0.
         12    1    1    2    0    0 -0.10039760045E+01  0.57766126042E+00 -0.22655083023E+00  0.11802481214E+01  0.00000000000E+00 0. -1.
         11    1    3    3    0    0  0.48846925225E+01 -0.88368439320E+01  0.28572874500E+01  0.10493527698E+02  0.51100000000E-03 0. -1.
        -11    1    3    3    0    0  0.22966654948E+02  0.65707924262E+01  0.29273148445E+02  0.37783061982E+02  0.51100000000E-03 0.  1.
         12    1    3    3    0    0 -0.26847371466E+02  0.16883902454E+01 -0.31903885065E+02  0.41731162199E+02  0.00000000000E+00 0. -1.
</event>
<event>
 7    1  0.1501154E-015  0.9000787E+02  0.7816164E-02  0.1186339E+00
        -11   -1    0    0    0    0  0.00000000000E+00  0.00000000000E+00  0.45593999997E+02  0.45594000000E+02  0.51100000000E-03 0. -1.
         11   -1    0    0    0    0 -0.00000000000E+00 -0.00000000000E+00 -0.45593999997E+02  0.45594000000E+02  0.51100000000E-03 0.  1.
    9900012    2    1    2    0    0 -0.80672788261E+00  0.72121373147E+00 -0.47089973230E+00  0.90007870481E+02  0.90000133572E+02 0.  0.
         12    1    1    2    0    0  0.80672788261E+00 -0.72121373147E+00  0.47089973230E+00  0.11801295187E+01  0.00000000000E+00 0. -1.
         11    1    3    3    0    0  0.45768525381E+01  0.70568638370E+01 -0.48192988731E+01  0.96939438960E+01  0.51100000000E-03 0. -1.
        -11    1    3    3    0    0 -0.50538273257E+01 -0.10046987270E+02 -0.37064785595E+02  0.38733466864E+02  0.51100000000E-03 0.  1.
         12    1    3    3    0    0 -0.32975309506E+00  0.37113371647E+01  0.41413184736E+02  0.41580459721E+02  0.00000000000E+00 0. -1.
</event>
<event>
 7    1  0.1501154E-015  0.9000779E+02  0.7816164E-02  0.1186339E+00
        -11   -1    0    0    0    0  0.00000000000E+00  0.00000000000E+00  0.45593999997E+02  0.45594000000E+02  0.51100000000E-03 0.  1.
         11   -1    0    0    0    0 -0.00000000000E+00 -0.00000000000E+00 -0.45593999997E+02  0.45594000000E+02  0.51100000000E-03 0. -1.
    9900012    2    1    2    0    0  0.56286365501E+00  0.28362547164E+00  0.99781455444E+00  0.90007791210E+02  0.90000053254E+02 0.  0.
         12    1    1    2    0    0 -0.56286365501E+00 -0.28362547164E+00 -0.99781455444E+00  0.11802087897E+01  0.00000000000E+00 0. -1.
         11    1    3    3    0    0  0.20672702857E+02  0.30998813683E+02 -0.21036668660E+02  0.42788182034E+02  0.51100000000E-03 0. -1.
        -11    1    3    3    0    0 -0.73873443703E+01 -0.33997313219E+01 -0.23405035776E+01  0.84622093548E+01  0.51100000000E-03 0.  1.
        -12    1    3    3    0    0 -0.12722494832E+02 -0.27315456890E+02  0.24374986792E+02  0.38757399822E+02  0.00000000000E+00 0.  1.
</event>
<event>
 7    1  0.1501154E-015  0.9000752E+02  0.7816164E-02  0.1186339E+00
        -11   -1    0    0    0    0  0.00000000000E+00  0.00000000000E+00  0.45593999997E+02  0.45594000000E+02  0.51100000000E-03 0.  1.
         11   -1    0    0    0    0 -0.00000000000E+00 -0.00000000000E+00 -0.45593999997E+02  0.45594000000E+02  0.51100000000E-03 0. -1.
    9900012    2    1    2    0    0  0.74392030500E+00  0.10651872373E+00  0.91036339122E+00  0.90007523332E+02  0.89999781840E+02 0.  0.
         12    1    1    2    0    0 -0.74392030500E+00 -0.10651872373E+00 -0.91036339122E+00  0.11804766676E+01  0.00000000000E+00 0. -1.
         11    1    3    3    0    0  0.26455253861E+02  0.26662611674E+02 -0.94569103629E+01  0.38732524731E+02  0.51100000000E-03 0. -1.
        -11    1    3    3    0    0 -0.15837240919E+01  0.73678010194E+01  0.55687690749E+01  0.93703715578E+01  0.51100000000E-03 0.  1.
        -12    1    3    3    0    0 -0.24127609464E+02 -0.33923893970E+02  0.47985046792E+01  0.41904627044E+02  0.00000000000E+00 0.  1.
</event>
<event>
 7    1  0.2166514E-015  0.9000770E+02  0.7816164E-02  0.1186339E+00
        -11   -1    0    0    0    0  0.00000000000E+00  0.00000000000E+00  0.45593999997E+02  0.45594000000E+02  0.51100000000E-03 0.  1.
         11   -1    0    0    0    0 -0.00000000000E+00 -0.00000000000E+00 -0.45593999997E+02  0.45594000000E+02  0.51100000000E-03 0. -1.
    9900012    2    1    2    0    0 -0.24776125124E+00  0.10967522146E+01  0.35897361670E+00  0.90007697871E+02  0.89999958683E+02 0.  0.
         12    1    1    2    0    0  0.24776125124E+00 -0.10967522146E+01 -0.35897361670E+00  0.11803021289E+01  0.00000000000E+00 0. -1.
         11    1    3    3    0    0 -0.24680067656E+02  0.28976152226E+02 -0.17567478996E+02  0.41920632818E+02  0.51100000000E-03 0. -1.
        -11    1    3    3    0    0  0.82159051411E+01  0.37839342425E+01  0.37576095625E+01  0.97948397396E+01  0.51100000000E-03 0.  1.
        -12    1    3    3    0    0  0.16216401264E+02 -0.31663334254E+02  0.14168843051E+02  0.38292225313E+02  0.00000000000E+00 0.  1.
</event>
<event>
 7    1  0.1501154E-015  0.9000769E+02  0.7816164E-02  0.1186339E+00
        -11   -1    0    0    0    0  0.00000000000E+00  0.00000000000E+00  0.45593999997E+02  0.45594000000E+02  0.51100000000E-03 0.  1.
         11   -1    0    0    0    0 -0.00000000000E+00 -0.00000000000E+00 -0.45593999997E+02  0.45594000000E+02  0.51100000000E-03 0. -1.
    9900012    2    1    2    0    0 -0.38724990872E-02  0.67622848395E+00  0.96738420975E+00  0.90007689800E+02  0.89999950505E+02 0.  0.
         12    1    1    2    0    0  0.38724990872E-02 -0.67622848395E+00 -0.96738420975E+00  0.11803101999E+01  0.00000000000E+00 0. -1.
         11    1    3    3    0    0  0.22524490272E+01  0.70728890258E+01  0.52513690483E+01  0.90926433414E+01  0.51100000000E-03 0. -1.
        -11    1    3    3    0    0  0.33740719385E+02  0.98620627974E+01 -0.17495460916E+02  0.39265603015E+02  0.51100000000E-03 0.  1.
         12    1    3    3    0    0 -0.35997040911E+02 -0.16258723339E+02  0.13211476078E+02  0.41649443443E+02  0.00000000000E+00 0. -1.
</event>
<event>
 7    1  0.1501154E-015  0.9000770E+02  0.7816164E-02  0.1186339E+00
        -11   -1    0    0    0    0  0.00000000000E+00  0.00000000000E+00  0.45593999997E+02  0.45594000000E+02  0.51100000000E-03 0. -1.
         11   -1    0    0    0    0 -0.00000000000E+00 -0.00000000000E+00 -0.45593999997E+02  0.45594000000E+02  0.51100000000E-03 0.  1.
    9900012    2    1    2    0    0  0.46098966760E+00 -0.10784535877E+01 -0.13238594000E+00  0.90007703575E+02  0.89999964462E+02 0.  0.
         12    1    1    2    0    0 -0.46098966760E+00  0.10784535877E+01  0.13238594000E+00  0.11802964253E+01  0.00000000000E+00 0. -1.
         11    1    3    3    0    0 -0.36588186066E+01  0.10130161577E+02 -0.37325546306E+01  0.11399082924E+02  0.51100000000E-03 0. -1.
        -11    1    3    3    0    0 -0.31553511506E+02  0.13890927997E+02  0.56799437202E+01  0.34940574264E+02  0.51100000000E-03 0.  1.
         12    1    3    3    0    0  0.35673319780E+02 -0.25099543162E+02 -0.20797750296E+01  0.43668046387E+02  0.00000000000E+00 0. -1.
</event>
<event>
 7    1  0.1501154E-015  0.9000772E+02  0.7816164E-02  0.1186339E+00
        -11   -1    0    0    0    0  0.00000000000E+00  0.00000000000E+00  0.45593999997E+02  0.45594000000E+02  0.51100000000E-03 0. -1.
         11   -1    0    0    0    0 -0.00000000000E+00 -0.00000000000E+00 -0.45593999997E+02  0.45594000000E+02  0.51100000000E-03 0.  1.
    9900012    2    1    2    0    0  0.12960304871E+00  0.11698939233E+01  0.87222089960E-01  0.90007721882E+02  0.89999983011E+02 0.  0.
         12    1    1    2    0    0 -0.12960304871E+00 -0.11698939233E+01 -0.87222089960E-01  0.11802781176E+01  0.00000000000E+00 0. -1.
         11    1    3    3    0    0  0.12861304051E+02 -0.33710692431E+02 -0.15645381955E+01  0.36114702077E+02  0.51100000000E-03 0. -1.
        -11    1    3    3    0    0  0.77822650138E+00 -0.58509090912E+01  0.85897763124E+01  0.10422237334E+02  0.51100000000E-03 0.  1.
        -12    1    3    3    0    0 -0.13509927504E+02  0.40731495445E+02 -0.69380160270E+01  0.43470782472E+02  0.00000000000E+00 0.  1.
</event>
<event>
 7    1  0.1501154E-015  0.9000771E+02  0.7816164E-02  0.1186339E+00
        -11   -1    0    0    0    0  0.00000000000E+00  0.00000000000E+00  0.45593999997E+02  0.45594000000E+02  0.51100000000E-03 0.  1.
         11   -1    0    0    0    0 -0.00000000000E+00 -0.00000000000E+00 -0.45593999997E+02  0.45594000000E+02  0.51100000000E-03 0. -1.
    9900012    2    1    2    0    0  0.27515878039E+00 -0.10327069295E+01  0.50088835217E+00  0.90007709740E+02  0.89999970708E+02 0.  0.
         12    1    1    2    0    0 -0.27515878039E+00  0.10327069295E+01 -0.50088835217E+00  0.11802902601E+01  0.00000000000E+00 0. -1.
         11    1    3    3    0    0 -0.21189388998E+02  0.16567534515E+02 -0.32691716056E+02  0.42334639540E+02  0.51100000000E-03 0. -1.
        -11    1    3    3    0    0 -0.19168693802E+01 -0.64052073088E+00  0.11168110284E+02  0.11349508474E+02  0.51100000000E-03 0.  1.
        -12    1    3    3    0    0  0.23381417159E+02 -0.16959720713E+02  0.22024494125E+02  0.36323561726E+02  0.00000000000E+00 0.  1.
</event>
<event>
 7    1  0.1501154E-015  0.9000771E+02  0.7816164E-02  0.1186339E+00
        -11   -1    0    0    0    0  0.00000000000E+00  0.00000000000E+00  0.45593999997E+02  0.45594000000E+02  0.51100000000E-03 0. -1.
         11   -1    0    0    0    0 -0.00000000000E+00 -0.00000000000E+00 -0.45593999997E+02  0.45594000000E+02  0.51100000000E-03 0.  1.
    9900012    2    1    2    0    0 -0.64742280565E-01 -0.70239749171E+00 -0.94632782727E+00  0.90007707597E+02  0.89999968538E+02 0.  0.
         12    1    1    2    0    0  0.64742280565E-01  0.70239749171E+00  0.94632782727E+00  0.11802924027E+01  0.00000000000E+00 0. -1.
         11    1    3    3    0    0 -0.13713145268E+02  0.14949200011E+02  0.34482842838E+01  0.20577162071E+02  0.51100000000E-03 0. -1.
        -11    1    3    3    0    0 -0.17683707779E+02 -0.18378833040E+02 -0.21740824890E+02  0.33513556837E+02  0.51100000000E-03 0.  1.
         12    1    3    3    0    0  0.31332110767E+02  0.27272355367E+01  0.17346212779E+02  0.35916988690E+02  0.00000000000E+00 0. -1.
</event>
<event>
 7    1  0.1501154E-015  0.9000767E+02  0.7816164E-02  0.1186339E+00
        -11   -1    0    0    0    0  0.00000000000E+00  0.00000000000E+00  0.45593999997E+02  0.45594000000E+02  0.51100000000E-03 0.  1.
         11   -1    0    0    0    0 -0.00000000000E+00 -0.00000000000E+00 -0.45593999997E+02  0.45594000000E+02  0.51100000000E-03 0. -1.
    9900012    2    1    2    0    0  0.59807648581E+00 -0.72851837707E+00 -0.71045536427E+00  0.90007668973E+02  0.89999929403E+02 0.  0.
         12    1    1    2    0    0 -0.59807648581E+00  0.72851837707E+00  0.71045536427E+00  0.11803310270E+01  0.00000000000E+00 0. -1.
         11    1    3    3    0    0 -0.58891189441E+01  0.57830814022E+01 -0.56439410611E+01  0.99989911193E+01  0.51100000000E-03 0. -1.
        -11    1    3    3    0    0  0.32295330893E+00  0.11192998207E+02  0.39298523034E+02  0.40862714308E+02  0.51100000000E-03 0.  1.
         12    1    3    3    0    0  0.61642421209E+01 -0.17704597986E+02 -0.34365037337E+02  0.39145963546E+02  0.00000000000E+00 0. -1.
</event>
<event>
 7    1  0.1501154E-015  0.9000780E+02  0.7816164E-02  0.1186339E+00
        -11   -1    0    0    0    0  0.00000000000E+00  0.00000000000E+00  0.45593999997E+02  0.45594000000E+02  0.51100000000E-03 0. -1.
         11   -1    0    0    0    0 -0.00000000000E+00 -0.00000000000E+00 -0.45593999997E+02  0.45594000000E+02  0.51100000000E-03 0.  1.
    9900012    2    1    2    0    0 -0.11216296035E+01 -0.21091769887E+00  0.30053717192E+00  0.90007804323E+02  0.90000066540E+02 0.  0.
         12    1    1    2    0    0  0.11216296035E+01  0.21091769887E+00 -0.30053717192E+00  0.11801956765E+01  0.00000000000E+00 0. -1.
         11    1    3    3    0    0 -0.39264977731E+02 -0.45873791197E+01  0.46426103643E+01  0.39803722875E+02  0.51100000000E-03 0. -1.
        -11    1    3    3    0    0  0.31666974443E+01  0.34055019837E+01  0.11042035916E+02  0.11981317703E+02  0.51100000000E-03 0.  1.
        -12    1    3    3    0    0  0.34976650684E+02  0.97095943707E+00 -0.15384109109E+02  0.38222763745E+02  0.00000000000E+00 0.  1.
</event>
<event>
 7    1  0.1501154E-015  0.9000774E+02  0.7816164E-02  0.1186339E+00
        -11   -1    0    0    0    0  0.00000000000E+00  0.00000000000E+00  0.45593999997E+02  0.45594000000E+02  0.51100000000E-03 0.  1.
         11   -1    0    0    0    0 -0.00000000000E+00 -0.00000000000E+00 -0.45593999997E+02  0.45594000000E+02  0.51100000000E-03 0. -1.
    9900012    2    1    2    0    0  0.54095178004E+00  0.70449198559E+00  0.77722694149E+00  0.90007737527E+02  0.89999998863E+02 0.  0.
         12    1    1    2    0    0 -0.54095178004E+00 -0.70449198559E+00 -0.77722694149E+00  0.11802624728E+01  0.00000000000E+00 0. -1.
         11    1    3    3    0    0 -0.39645973080E+02  0.47778828093E+00  0.46963179419E+01  0.39926017402E+02  0.51100000000E-03 0. -1.
        -11    1    3    3    0    0  0.15195282580E+01 -0.82830268796E+01  0.45813491284E+01  0.95867752926E+01  0.51100000000E-03 0.  1.
        -12    1    3    3    0    0  0.38667396602E+02  0.85097305842E+01 -0.85004401287E+01  0.40494944833E+02  0.00000000000E+00 0.  1.
</event>
<event>
 7    1  0.1501154E-015  0.9000773E+02  0.7816164E-02  0.1186339E+00
        -11   -1    0    0    0    0  0.00000000000E+00  0.00000000000E+00  0.45593999997E+02  0.45594000000E+02  0.51100000000E-03 0.  1.
         11   -1    0    0    0    0 -0.00000000000E+00 -0.00000000000E+00 -0.45593999997E+02  0.45594000000E+02  0.51100000000E-03 0. -1.
    9900012    2    1    2    0    0  0.49002423976E+00 -0.46782376084E+00  0.96646274491E+00  0.90007731783E+02  0.89999993043E+02 0.  0.
         12    1    1    2    0    0 -0.49002423976E+00  0.46782376084E+00 -0.96646274491E+00  0.11802682170E+01  0.00000000000E+00 0. -1.
         11    1    3    3    0    0 -0.74455324544E+00 -0.43858863606E+01  0.86747251355E+01  0.97489084077E+01  0.51100000000E-03 0. -1.
        -11    1    3    3    0    0  0.11737848416E+02  0.11354181944E+01  0.34612089501E+02  0.36565872064E+02  0.51100000000E-03 0.  1.
         12    1    3    3    0    0 -0.10503270931E+02  0.27826444053E+01 -0.42320351891E+02  0.43692951312E+02  0.00000000000E+00 0. -1.
</event>
<event>
 7    1  0.1501154E-015  0.9000759E+02  0.7816164E-02  0.1186339E+00
        -11   -1    0    0    0    0  0.00000000000E+00  0.00000000000E+00  0.45593999997E+02  0.45594000000E+02  0.51100000000E-03 0. -1.
         11   -1    0    0    0    0 -0.00000000000E+00 -0.00000000000E+00 -0.45593999997E+02  0.45594000000E+02  0.51100000000E-03 0.  1.
    9900012    2    1    2    0    0 -0.49933924323E-01  0.79880676162E-01 -0.11766499827E+01  0.90007585030E+02  0.89999844352E+02 0.  0.
         12    1    1    2    0    0  0.49933924323E-01 -0.79880676162E-01  0.11766499827E+01  0.11804149698E+01  0.00000000000E+00 0. -1.
         11    1    3    3    0    0 -0.21248934661E+02  0.29828131391E+02  0.30816734547E+01  0.36752297317E+02  0.51100000000E-03 0. -1.
        -11    1    3    3    0    0 -0.91798897903E+00  0.54745104280E+01 -0.98338025226E+01  0.11292326621E+02  0.51100000000E-03 0.  1.
        -12    1    3    3    0    0  0.22116989715E+02 -0.35222761143E+02  0.55754790852E+01  0.41962961093E+02  0.00000000000E+00 0.  1.
</event>
<event>
 7    1  0.1501154E-015  0.9000768E+02  0.7816164E-02  0.1186339E+00
        -11   -1    0    0    0    0  0.00000000000E+00  0.00000000000E+00  0.45593999997E+02  0.45594000000E+02  0.51100000000E-03 0. -1.
         11   -1    0    0    0    0 -0.00000000000E+00 -0.00000000000E+00 -0.45593999997E+02  0.45594000000E+02  0.51100000000E-03 0.  1.
    9900012    2    1    2    0    0  0.10753030147E+01 -0.20152113920E+00 -0.44302686588E+00  0.90007677948E+02  0.89999938497E+02 0.  0.
         12    1    1    2    0    0 -0.10753030147E+01  0.20152113920E+00  0.44302686588E+00  0.11803220522E+01  0.00000000000E+00 0. -1.
         11    1    3    3    0    0  0.29005191782E+01  0.11101201722E+02 -0.28396014349E+01  0.11820026554E+02  0.51100000000E-03 0. -1.
        -11    1    3    3    0    0  0.13196710186E+02 -0.11594210007E+02 -0.34298782780E+02  0.38535507858E+02  0.51100000000E-03 0.  1.
         12    1    3    3    0    0 -0.15021926350E+02  0.29148714639E+00  0.36695357349E+02  0.39652143536E+02  0.00000000000E+00 0. -1.
</event>
<event>
 7    1  0.1501154E-015  0.9000789E+02  0.7816164E-02  0.1186339E+00
        -11   -1    0    0    0    0  0.00000000000E+00  0.00000000000E+00  0.45593999997E+02  0.45594000000E+02  0.51100000000E-03 0. -1.
         11   -1    0    0    0    0 -0.00000000000E+00 -0.00000000000E+00 -0.45593999997E+02  0.45594000000E+02  0.51100000000E-03 0.  1.
    9900012    2    1    2    0    0  0.20994279624E+00 -0.61195416221E+00 -0.98695696559E+00  0.90007894951E+02  0.90000158364E+02 0.  0.
         12    1    1    2    0    0 -0.20994279624E+00  0.61195416221E+00  0.98695696559E+00  0.11801050488E+01  0.00000000000E+00 0. -1.
         11    1    3    3    0    0 -0.27113004259E+02 -0.26892160778E+02  0.11793499962E+02  0.39967361095E+02  0.51100000000E-03 0. -1.
        -11    1    3    3    0    0  0.77774925888E+01  0.29963533966E+01 -0.17398389701E+02  0.19291746658E+02  0.51100000000E-03 0.  1.
        -12    1    3    3    0    0  0.19545454467E+02  0.23283853220E+02  0.46179327736E+01  0.30748787198E+02  0.00000000000E+00 0.  1.
</event>
<event>
 7    1  0.1501154E-015  0.9000769E+02  0.7816164E-02  0.1186339E+00
        -11   -1    0    0    0    0  0.00000000000E+00  0.00000000000E+00  0.45593999997E+02  0.45594000000E+02  0.51100000000E-03 0.  1.
         11   -1    0    0    0    0 -0.00000000000E+00 -0.00000000000E+00 -0.45593999997E+02  0.45594000000E+02  0.51100000000E-03 0. -1.
    9900012    2    1    2    0    0 -0.11646855618E+01  0.19096623726E+00 -0.13119126624E-01  0.90007689586E+02  0.89999950289E+02 0.  0.
         12    1    1    2    0    0  0.11646855618E+01 -0.19096623726E+00  0.13119126624E-01  0.11803104139E+01  0.00000000000E+00 0. -1.
         11    1    3    3    0    0 -0.75048259607E+01 -0.58269752794E+01 -0.72113805627E+01  0.11928120702E+02  0.51100000000E-03 0. -1.
        -11    1    3    3    0    0  0.14855863422E+02  0.13748775088E+02  0.39176023001E+02  0.44096329471E+02  0.51100000000E-03 0.  1.
         12    1    3    3    0    0 -0.85157230227E+01 -0.77308335712E+01 -0.31977761565E+02  0.33983239413E+02  0.00000000000E+00 0. -1.
</event>
<event>
 7    1  0.1501154E-015  0.9000781E+02  0.7816164E-02  0.1186339E+00
        -11   -1    0    0    0    0  0.00000000000E+00  0.00000000000E+00  0.45593999997E+02  0.45594000000E+02  0.51100000000E-03 0.  1.
         11   -1    0    0    0    0 -0.00000000000E+00 -0.00000000000E+00 -0.45593999997E+02  0.45594000000E+02  0.51100000000E-03 0. -1.
    9900012    2    1    2    0    0 -0.67635694482E+00 -0.94100204354E+00  0.22337050998E+00  0.90007814444E+02  0.90000076794E+02 0.  0.
         12    1    1    2    0    0  0.67635694482E+00  0.94100204354E+00 -0.22337050998E+00  0.11801855564E+01  0.00000000000E+00 0. -1.
         11    1    3    3    0    0  0.12384806855E+02 -0.31855315478E+02  0.13865767724E+02  0.36883655999E+02  0.51100000000E-03 0. -1.
        -11    1    3    3    0    0 -0.70745861498E+00 -0.92406343540E+01 -0.34861807488E+01  0.99016805357E+01  0.51100000000E-03 0.  1.
        -12    1    3    3    0    0 -0.12353705185E+02  0.40154947788E+02 -0.10156216465E+02  0.43222477909E+02  0.00000000000E+00 0.  1.
</event>
<event>
 7    1  0.1501154E-015  0.9000777E+02  0.7816164E-02  0.1186339E+00
        -11   -1    0    0    0    0  0.00000000000E+00  0.00000000000E+00  0.45593999997E+02  0.45594000000E+02  0.51100000000E-03 0.  1.
         11   -1    0    0    0    0 -0.00000000000E+00 -0.00000000000E+00 -0.45593999997E+02  0.45594000000E+02  0.51100000000E-03 0. -1.
    9900012    2    1    2    0    0 -0.71532738821E+00  0.73790780748E+00  0.58029106044E+00  0.90007771666E+02  0.90000033452E+02 0.  0.
         12    1    1    2    0    0  0.71532738821E+00 -0.73790780748E+00 -0.58029106044E+00  0.11802283336E+01  0.00000000000E+00 0. -1.
         11    1    3    3    0    0  0.23995326734E+02 -0.24036392340E+02  0.11774933011E+01  0.33983971995E+02  0.51100000000E-03 0. -1.
        -11    1    3    3    0    0  0.86770301299E+01 -0.35126698444E+01 -0.71461884148E+01  0.11776999212E+02  0.51100000000E-03 0.  1.
        -12    1    3    3    0    0 -0.33387684252E+02  0.28286969992E+02  0.65489861741E+01  0.44246800460E+02  0.00000000000E+00 0.  1.
</event>
<event>
 7    1  0.1501154E-015  0.9000760E+02  0.7816164E-02  0.1186339E+00
        -11   -1    0    0    0    0  0.00000000000E+00  0.00000000000E+00  0.45593999997E+02  0.45594000000E+02  0.51100000000E-03 0. -1.
         11   -1    0    0    0    0 -0.00000000000E+00 -0.00000000000E+00 -0.45593999997E+02  0.45594000000E+02  0.51100000000E-03 0.  1.
    9900012    2    1    2    0    0 -0.11421826150E+01 -0.79065736484E-01 -0.28724789360E+00  0.90007600123E+02  0.89999859645E+02 0.  0.
         12    1    1    2    0    0  0.11421826150E+01  0.79065736484E-01  0.28724789360E+00  0.11803998767E+01  0.00000000000E+00 0. -1.
         11    1    3    3    0    0  0.17526567683E+02 -0.31052442898E+02 -0.16411869645E+02  0.39252824741E+02  0.51100000000E-03 0. -1.
        -11    1    3    3    0    0  0.86403068058E+01  0.33950468136E+01  0.24088453906E+01  0.95908175325E+01  0.51100000000E-03 0.  1.
        -12    1    3    3    0    0 -0.27309057104E+02  0.27578330348E+02  0.13715776361E+02  0.41163957850E+02  0.00000000000E+00 0.  1.
</event>
<event>
 7    1  0.1501154E-015  0.9000778E+02  0.7816164E-02  0.1186339E+00
        -11   -1    0    0    0    0  0.00000000000E+00  0.00000000000E+00  0.45593999997E+02  0.45594000000E+02  0.51100000000E-03 0.  1.
         11   -1    0    0    0    0 -0.00000000000E+00 -0.00000000000E+00 -0.45593999997E+02  0.45594000000E+02  0.51100000000E-03 0. -1.
    9900012    2    1    2    0    0  0.24210580722E+00 -0.11467986585E+01  0.13837003758E+00  0.90007784489E+02  0.90000046444E+02 0.  0.
         12    1    1    2    0    0 -0.24210580722E+00  0.11467986585E+01 -0.13837003758E+00  0.11802155110E+01  0.00000000000E+00 0. -1.
         11    1    3    3    0    0 -0.69596441335E+01  0.15914461368E+01  0.72403350615E+01  0.10168175812E+02  0.51100000000E-03 0. -1.
        -11    1    3    3    0    0  0.26462249770E+02  0.24404017491E+02  0.15931088013E+02  0.39365039033E+02  0.51100000000E-03 0.  1.
         12    1    3    3    0    0 -0.19260499829E+02 -0.27142262286E+02 -0.23033053037E+02  0.40474569644E+02  0.00000000000E+00 0. -1.
</event>
<event>
 7    1  0.1501154E-015  0.9000771E+02  0.7816164E-02  0.1186339E+00
        -11   -1    0    0    0    0  0.00000000000E+00  0.00000000000E+00  0.45593999997E+02  0.45594000000E+02  0.51100000000E-03 0.  1.
         11   -1    0    0    0    0 -0.00000000000E+00 -0.00000000000E+00 -0.45593999997E+02  0.45594000000E+02  0.51100000000E-03 0. -1.
    9900012    2    1    2    0    0  0.11051319378E+01  0.28654810307E+00  0.29942864689E+00  0.90007710235E+02  0.89999971210E+02 0.  0.
         12    1    1    2    0    0 -0.11051319378E+01 -0.28654810307E+00 -0.29942864689E+00  0.11802897653E+01  0.00000000000E+00 0. -1.
         11    1    3    3    0    0  0.22688748624E+02  0.14673596689E+02 -0.10967234703E+02  0.29161172665E+02  0.51100000000E-03 0. -1.
        -11    1    3    3    0    0  0.16976079429E+02 -0.11953627906E+02  0.62664485879E+00  0.20771836147E+02  0.51100000000E-03 0.  1.
        -12    1    3    3    0    0 -0.38559696114E+02 -0.24334206791E+01  0.10640018491E+02  0.40074701423E+02  0.00000000000E+00 0.  1.
</event>
<event>
 7    1  0.1501154E-015  0.9000773E+02  0.7816164E-02  0.1186339E+00
        -11   -1    0    0    0    0  0.00000000000E+00  0.00000000000E+00  0.45593999997E+02  0.45594000000E+02  0.51100000000E-03 0.  1.
         11   -1    0    0    0    0 -0.00000000000E+00 -0.00000000000E+00 -0.45593999997E+02  0.45594000000E+02  0.51100000000E-03 0. -1.
    9900012    2    1    2    0    0  0.10263173725E+01  0.31562647365E+00  0.48999856406E+00  0.90007726297E+02  0.89999987485E+02 0.  0.
         12    1    1    2    0    0 -0.10263173725E+01 -0.31562647365E+00 -0.48999856406E+00  0.11802737025E+01  0.00000000000E+00 0. -1.
         11    1    3    3    0    0  0.89330690052E+01 -0.11475922680E+01  0.39031482611E+01  0.98158675864E+01  0.51100000000E-03 0. -1.
        -11    1    3    3    0    0 -0.38968959322E+02 -0.18252656672E+02  0.15960704347E+01  0.43061429462E+02  0.51100000000E-03 0.  1.
         12    1    3    3    0    0  0.31062207690E+02  0.19715875413E+02 -0.50092201318E+01  0.37130429249E+02  0.00000000000E+00 0. -1.
</event>
<event>
 7    1  0.1501154E-015  0.9000768E+02  0.7816164E-02  0.1186339E+00
        -11   -1    0    0    0    0  0.00000000000E+00  0.00000000000E+00  0.45593999997E+02  0.45594000000E+02  0.51100000000E-03 0.  1.
         11   -1    0    0    0    0 -0.00000000000E+00 -0.00000000000E+00 -0.45593999997E+02  0.45594000000E+02  0.51100000000E-03 0. -1.
    9900012    2    1    2    0    0 -0.88607613647E+00 -0.75857127691E+00 -0.18055403269E+00  0.90007677561E+02  0.89999938105E+02 0.  0.
         12    1    1    2    0    0  0.88607613647E+00  0.75857127691E+00  0.18055403269E+00  0.11803224392E+01  0.00000000000E+00 0. -1.
         11    1    3    3    0    0  0.33198349042E+02 -0.12968641130E+02 -0.40107057499E+01  0.35866443827E+02  0.51100000000E-03 0. -1.
        -11    1    3    3    0    0  0.52048603880E+01 -0.25047311726E+01 -0.86218992010E+01  0.10377928310E+02  0.51100000000E-03 0.  1.
        -12    1    3    3    0    0 -0.39289285567E+02  0.14714801026E+02  0.12452050918E+02  0.43763305424E+02  0.00000000000E+00 0.  1.
</event>
<event>
 7    1  0.1501154E-015  0.9000762E+02  0.7816164E-02  0.1186339E+00
        -11   -1    0    0    0    0  0.00000000000E+00  0.00000000000E+00  0.45593999997E+02  0.45594000000E+02  0.51100000000E-03 0. -1.
         11   -1    0    0    0    0 -0.00000000000E+00 -0.00000000000E+00 -0.45593999997E+02  0.45594000000E+02  0.51100000000E-03 0.  1.
    9900012    2    1    2    0    0  0.74848923926E+00  0.90514908475E+00 -0.11729146008E+00  0.90007623664E+02  0.89999883497E+02 0.  0.
         12    1    1    2    0    0 -0.74848923926E+00 -0.90514908475E+00  0.11729146008E+00  0.11803763355E+01  0.00000000000E+00 0. -1.
         11    1    3    3    0    0 -0.41258394604E+01  0.26951288993E+02  0.35066796723E+02  0.44419306189E+02  0.51100000000E-03 0. -1.
        -11    1    3    3    0    0  0.49340261459E+01 -0.26685854494E+01 -0.70286901984E+01  0.89926886122E+01  0.51100000000E-03 0.  1.
        -12    1    3    3    0    0 -0.59697446198E-01 -0.23377554459E+02 -0.28155397984E+02  0.36595628864E+02  0.00000000000E+00 0.  1.
</event>
<event>
 7    1  0.1501154E-015  0.9000772E+02  0.7816164E-02  0.1186339E+00
        -11   -1    0    0    0    0  0.00000000000E+00  0.00000000000E+00  0.45593999997E+02  0.45594000000E+02  0.51100000000E-03 0.  1.
         11   -1    0    0    0    0 -0.00000000000E+00 -0.00000000000E+00 -0.45593999997E+02  0.45594000000E+02  0.51100000000E-03 0. -1.
    9900012    2    1    2    0    0 -0.85836197869E+00 -0.72018223071E+00  0.37096597282E+00  0.90007718896E+02  0.89999979985E+02 0.  0.
         12    1    1    2    0    0  0.85836197869E+00  0.72018223071E+00 -0.37096597282E+00  0.11802811042E+01  0.00000000000E+00 0. -1.
         11    1    3    3    0    0 -0.71444138326E+00 -0.67577869890E+01 -0.82759614657E+01  0.10708391566E+02  0.51100000000E-03 0. -1.
        -11    1    3    3    0    0 -0.22457501003E+02 -0.95933196649E+01  0.34148755148E+02  0.41982241626E+02  0.51100000000E-03 0.  1.
         12    1    3    3    0    0  0.22313580408E+02  0.15630924423E+02 -0.25501827710E+02  0.37317085704E+02  0.00000000000E+00 0. -1.
</event>
<event>
 7    1  0.1501154E-015  0.9000772E+02  0.7816164E-02  0.1186339E+00
        -11   -1    0    0    0    0  0.00000000000E+00  0.00000000000E+00  0.45593999997E+02  0.45594000000E+02  0.51100000000E-03 0. -1.
         11   -1    0    0    0    0 -0.00000000000E+00 -0.00000000000E+00 -0.45593999997E+02  0.45594000000E+02  0.51100000000E-03 0.  1.
    9900012    2    1    2    0    0  0.57047504340E+00  0.58794968391E+00 -0.84967293249E+00  0.90007715840E+02  0.89999976889E+02 0.  0.
         12    1    1    2    0    0 -0.57047504340E+00 -0.58794968391E+00  0.84967293249E+00  0.11802841599E+01  0.00000000000E+00 0. -1.
         11    1    3    3    0    0  0.34082381705E+02 -0.18946538211E+02  0.14468085545E+02  0.41592133300E+02  0.51100000000E-03 0. -1.
        -11    1    3    3    0    0 -0.55342166702E+01  0.38891050797E+01  0.67051146868E+01  0.95242456761E+01  0.51100000000E-03 0.  1.
        -12    1    3    3    0    0 -0.27977689991E+02  0.15645382815E+02 -0.22022873164E+02  0.38891336864E+02  0.00000000000E+00 0.  1.
</event>
<event>
 7    1  0.1772969E-015  0.9000789E+02  0.7816164E-02  0.1186339E+00
        -11   -1    0    0    0    0  0.00000000000E+00  0.00000000000E+00  0.45593999997E+02  0.45594000000E+02  0.51100000000E-03 0.  1.
         11   -1    0    0    0    0 -0.00000000000E+00 -0.00000000000E+00 -0.45593999997E+02  0.45594000000E+02  0.51100000000E-03 0. -1.
    9900012    2    1    2    0    0 -0.75916854736E+00  0.28750604313E+00  0.85654035357E+00  0.90007890689E+02  0.90000154046E+02 0.  0.
         12    1    1    2    0    0  0.75916854736E+00 -0.28750604313E+00 -0.85654035357E+00  0.11801093108E+01  0.00000000000E+00 0. -1.
         11    1    3    3    0    0  0.20469352365E+02 -0.10804692291E+01 -0.28505441962E+02  0.35110141294E+02  0.51100000000E-03 0. -1.
        -11    1    3    3    0    0  0.83788063050E+01 -0.86643082683E+00 -0.47526175136E+01  0.96717356749E+01  0.51100000000E-03 0.  1.
        -12    1    3    3    0    0 -0.29607327217E+02  0.22344060991E+01  0.34114599829E+02  0.45226013720E+02  0.00000000000E+00 0.  1.
</event>
<event>
 7    1  0.1501154E-015  0.9000777E+02  0.7816164E-02  0.1186339E+00
        -11   -1    0    0    0    0  0.00000000000E+00  0.00000000000E+00  0.45593999997E+02  0.45594000000E+02  0.51100000000E-03 0.  1.
         11   -1    0    0    0    0 -0.00000000000E+00 -0.00000000000E+00 -0.45593999997E+02  0.45594000000E+02  0.51100000000E-03 0. -1.
    9900012    2    1    2    0    0 -0.94640581555E+00 -0.68726551388E+00  0.15790266044E+00  0.90007766504E+02  0.90000028222E+02 0.  0.
         12    1    1    2    0    0  0.94640581555E+00  0.68726551388E+00 -0.15790266044E+00  0.11802334957E+01  0.00000000000E+00 0. -1.
         11    1    3    3    0    0 -0.36660899053E+01 -0.21655639740E+01  0.88519740305E+01  0.98227962932E+01  0.51100000000E-03 0. -1.
        -11    1    3    3    0    0 -0.13883747951E+02 -0.24085784483E+02  0.23095162967E+02  0.36142357755E+02  0.51100000000E-03 0.  1.
         12    1    3    3    0    0  0.16603432041E+02  0.25564082943E+02 -0.31789234337E+02  0.44042612456E+02  0.00000000000E+00 0. -1.
</event>
<event>
 7    1  0.1543085E-015  0.9000782E+02  0.7816164E-02  0.1186339E+00
        -11   -1    0    0    0    0  0.00000000000E+00  0.00000000000E+00  0.45593999997E+02  0.45594000000E+02  0.51100000000E-03 0.  1.
         11   -1    0    0    0    0 -0.00000000000E+00 -0.00000000000E+00 -0.45593999997E+02  0.45594000000E+02  0.51100000000E-03 0. -1.
    9900012    2    1    2    0    0 -0.12236014722E-01  0.95066024830E+00  0.69922301824E+00  0.90007823125E+02  0.90000085590E+02 0.  0.
         12    1    1    2    0    0  0.12236014722E-01 -0.95066024830E+00 -0.69922301824E+00  0.11801768753E+01  0.00000000000E+00 0. -1.
         11    1    3    3    0    0 -0.15547862274E+02  0.32627411711E+02 -0.19826270385E+02  0.41223355200E+02  0.51100000000E-03 0. -1.
        -11    1    3    3    0    0 -0.73701173200E+01 -0.42002338344E+01  0.37772928622E+01  0.92859321127E+01  0.51100000000E-03 0.  1.
        -12    1    3    3    0    0  0.22905743580E+02 -0.27476517629E+02  0.16748200541E+02  0.39498535812E+02  0.00000000000E+00 0.  1.
</event>
<event>
 7    1  0.1501154E-015  0.9000774E+02  0.7816164E-02  0.1186339E+00
        -11   -1    0    0    0    0  0.00000000000E+00  0.00000000000E+00  0.45593999997E+02  0.45594000000E+02  0.51100000000E-03 0.  1.
         11   -1    0    0    0    0 -0.00000000000E+00 -0.00000000000E+00 -0.45593999997E+02  0.45594000000E+02  0.51100000000E-03 0. -1.
    9900012    2    1    2    0    0  0.10151628921E+01  0.46297474641E+00  0.38484207165E+00  0.90007743785E+02  0.90000005203E+02 0.  0.
         12    1    1    2    0    0 -0.10151628921E+01 -0.46297474641E+00 -0.38484207165E+00  0.11802562152E+01  0.00000000000E+00 0. -1.
         11    1    3    3    0    0 -0.11147386636E+02  0.71100065970E+00  0.56966849477E+01  0.12538818541E+02  0.51100000000E-03 0. -1.
        -11    1    3    3    0    0 -0.25715351364E+02 -0.85359237344E+01  0.17715524841E+02  0.32372536361E+02  0.51100000000E-03 0.  1.
         12    1    3    3    0    0  0.37877900892E+02  0.82878978211E+01 -0.23027367717E+02  0.45096388883E+02  0.00000000000E+00 0. -1.
</event>
<event>
 7    1  0.1501154E-015  0.9000773E+02  0.7816164E-02  0.1186339E+00
        -11   -1    0    0    0    0  0.00000000000E+00  0.00000000000E+00  0.45593999997E+02  0.45594000000E+02  0.51100000000E-03 0.  1.
         11   -1    0    0    0    0 -0.00000000000E+00 -0.00000000000E+00 -0.45593999997E+02  0.45594000000E+02  0.51100000000E-03 0. -1.
    9900012    2    1    2    0    0  0.39069349311E+00 -0.11136370562E+01 -0.14498016307E-01  0.90007729230E+02  0.89999990456E+02 0.  0.
         12    1    1    2    0    0 -0.39069349311E+00  0.11136370562E+01  0.14498016307E-01  0.11802707702E+01  0.00000000000E+00 0. -1.
         11    1    3    3    0    0 -0.25448360682E+01  0.65590180586E+01 -0.43178338274E+01  0.82547318388E+01  0.51100000000E-03 0. -1.
        -11    1    3    3    0    0  0.86151279085E+01  0.21689758458E+02  0.32924877094E+02  0.40357323781E+02  0.51100000000E-03 0.  1.
         12    1    3    3    0    0 -0.56795983472E+01 -0.29362413573E+02 -0.28621541283E+02  0.41395673610E+02  0.00000000000E+00 0. -1.
</event>
<event>
 7    1  0.1501154E-015  0.9000763E+02  0.7816164E-02  0.1186339E+00
        -11   -1    0    0    0    0  0.00000000000E+00  0.00000000000E+00  0.45593999997E+02  0.45594000000E+02  0.51100000000E-03 0.  1.
         11   -1    0    0    0    0 -0.00000000000E+00 -0.00000000000E+00 -0.45593999997E+02  0.45594000000E+02  0.51100000000E-03 0. -1.
    9900012    2    1    2    0    0  0.80152306118E+00 -0.18635064622E+00  0.84622775162E+00  0.90007632604E+02  0.89999892555E+02 0.  0.
         12    1    1    2    0    0 -0.80152306118E+00  0.18635064622E+00 -0.84622775162E+00  0.11803673956E+01  0.00000000000E+00 0. -1.
         11    1    3    3    0    0 -0.39213750611E+01  0.35615765822E+02  0.11364265358E+02  0.37589978516E+02  0.51100000000E-03 0. -1.
        -11    1    3    3    0    0  0.33856461567E+01  0.30346917550E+01  0.81300469438E+01  0.93150210690E+01  0.51100000000E-03 0.  1.
        -12    1    3    3    0    0  0.13372519656E+01 -0.38836808223E+02 -0.18648084550E+02  0.43102633019E+02  0.00000000000E+00 0.  1.
</event>
<event>
 7    1  0.1501154E-015  0.9000773E+02  0.7816164E-02  0.1186339E+00
        -11   -1    0    0    0    0  0.00000000000E+00  0.00000000000E+00  0.45593999997E+02  0.45594000000E+02  0.51100000000E-03 0.  1.
         11   -1    0    0    0    0 -0.00000000000E+00 -0.00000000000E+00 -0.45593999997E+02  0.45594000000E+02  0.51100000000E-03 0. -1.
    9900012    2    1    2    0    0 -0.11179477862E+01  0.10133358995E+00  0.36462316526E+00  0.90007734860E+02  0.89999996160E+02 0.  0.
         12    1    1    2    0    0  0.11179477862E+01 -0.10133358995E+00 -0.36462316526E+00  0.11802651404E+01  0.00000000000E+00 0. -1.
         11    1    3    3    0    0  0.55922762091E+01 -0.86686566019E+01  0.46670367412E+01  0.11322561225E+02  0.51100000000E-03 0. -1.
        -11    1    3    3    0    0  0.67712807006E+01  0.21433274861E+02  0.31317710271E+02  0.38549117895E+02  0.51100000000E-03 0.  1.
         12    1    3    3    0    0 -0.13481504696E+02 -0.12663284669E+02 -0.35620123847E+02  0.40136055740E+02  0.00000000000E+00 0. -1.
</event>
<event>
 7    1  0.1501154E-015  0.9000779E+02  0.7816164E-02  0.1186339E+00
        -11   -1    0    0    0    0  0.00000000000E+00  0.00000000000E+00  0.45593999997E+02  0.45594000000E+02  0.51100000000E-03 0.  1.
         11   -1    0    0    0    0 -0.00000000000E+00 -0.00000000000E+00 -0.45593999997E+02  0.45594000000E+02  0.51100000000E-03 0. -1.
    9900012    2    1    2    0    0  0.84062109947E+00 -0.82594548985E+00 -0.63712645154E-01  0.90007792778E+02  0.90000054843E+02 0.  0.
         12    1    1    2    0    0 -0.84062109947E+00  0.82594548985E+00  0.63712645154E-01  0.11802072217E+01  0.00000000000E+00 0. -1.
         11    1    3    3    0    0 -0.11845909411E+01 -0.33066104347E+01 -0.83032631833E+01  0.90156035859E+01  0.51100000000E-03 0. -1.
        -11    1    3    3    0    0 -0.38019308241E+02  0.14862378801E+01 -0.59204518844E+01  0.38506213173E+02  0.51100000000E-03 0.  1.
         12    1    3    3    0    0  0.40044520281E+02  0.99442706480E+00  0.14160002423E+02  0.42485976020E+02  0.00000000000E+00 0. -1.
</event>
<event>
 7    1  0.1501154E-015  0.9000737E+02  0.7816164E-02  0.1186340E+00
        -11   -1    0    0    0    0  0.00000000000E+00  0.00000000000E+00  0.45593999997E+02  0.45594000000E+02  0.51100000000E-03 0.  1.
         11   -1    0    0    0    0 -0.00000000000E+00 -0.00000000000E+00 -0.45593999997E+02  0.45594000000E+02  0.51100000000E-03 0. -1.
    9900012    2    1    2    0    0  0.46009851968E+00  0.10268054591E+01  0.35757424843E+00  0.90007373284E+02  0.89999629811E+02 0.  0.
         12    1    1    2    0    0 -0.46009851968E+00 -0.10268054591E+01 -0.35757424843E+00  0.11806267157E+01  0.00000000000E+00 0. -1.
         11    1    3    3    0    0  0.10313284772E+01  0.10179692514E+02  0.39976539136E+01  0.10985035966E+02  0.51100000000E-03 0. -1.
        -11    1    3    3    0    0 -0.14556291829E+02 -0.13048574189E+02  0.33699950130E+02  0.38959434791E+02  0.51100000000E-03 0.  1.
         12    1    3    3    0    0  0.13985061872E+02  0.38956871335E+01 -0.37340029795E+02  0.40062902527E+02  0.00000000000E+00 0. -1.
</event>
<event>
 7    1  0.1501154E-015  0.9000775E+02  0.7816164E-02  0.1186339E+00
        -11   -1    0    0    0    0  0.00000000000E+00  0.00000000000E+00  0.45593999997E+02  0.45594000000E+02  0.51100000000E-03 0. -1.
         11   -1    0    0    0    0 -0.00000000000E+00 -0.00000000000E+00 -0.45593999997E+02  0.45594000000E+02  0.51100000000E-03 0.  1.
    9900012    2    1    2    0    0 -0.24748227305E+00  0.45713060095E-01 -0.11531009280E+01  0.90007754725E+02  0.90000016287E+02 0.  0.
         12    1    1    2    0    0  0.24748227305E+00 -0.45713060095E-01  0.11531009280E+01  0.11802452752E+01  0.00000000000E+00 0. -1.
         11    1    3    3    0    0 -0.18801898886E+02  0.18031331437E+02  0.23125450664E+02  0.34834275990E+02  0.51100000000E-03 0. -1.
        -11    1    3    3    0    0 -0.11802869499E+01  0.29905778886E+01  0.99405696844E+01  0.10447562362E+02  0.51100000000E-03 0.  1.
        -12    1    3    3    0    0  0.19734703562E+02 -0.20976196266E+02 -0.34219121276E+02  0.44725916373E+02  0.00000000000E+00 0.  1.
</event>
<event>
 7    1  0.1501154E-015  0.9000776E+02  0.7816164E-02  0.1186339E+00
        -11   -1    0    0    0    0  0.00000000000E+00  0.00000000000E+00  0.45593999997E+02  0.45594000000E+02  0.51100000000E-03 0. -1.
         11   -1    0    0    0    0 -0.00000000000E+00 -0.00000000000E+00 -0.45593999997E+02  0.45594000000E+02  0.51100000000E-03 0.  1.
    9900012    2    1    2    0    0  0.32715105880E+00 -0.42761821847E+00 -0.10502730058E+01  0.90007763353E+02  0.90000025029E+02 0.  0.
         12    1    1    2    0    0 -0.32715105880E+00  0.42761821847E+00  0.10502730058E+01  0.11802366469E+01  0.00000000000E+00 0. -1.
         11    1    3    3    0    0  0.31946115788E+02  0.19530808501E+02 -0.56482737963E+01  0.37867001357E+02  0.51100000000E-03 0. -1.
        -11    1    3    3    0    0  0.27076661055E+01 -0.58754338462E+01 -0.10296009070E+02  0.12159768980E+02  0.51100000000E-03 0.  1.
        -12    1    3    3    0    0 -0.34326630835E+02 -0.14082992874E+02  0.14894009861E+02  0.39980993015E+02  0.00000000000E+00 0.  1.
</event>
<event>
 7    1  0.1501154E-015  0.9000775E+02  0.7816164E-02  0.1186339E+00
        -11   -1    0    0    0    0  0.00000000000E+00  0.00000000000E+00  0.45593999997E+02  0.45594000000E+02  0.51100000000E-03 0.  1.
         11   -1    0    0    0    0 -0.00000000000E+00 -0.00000000000E+00 -0.45593999997E+02  0.45594000000E+02  0.51100000000E-03 0. -1.
    9900012    2    1    2    0    0  0.34649560824E+00  0.89990780185E+00  0.68051036426E+00  0.90007751037E+02  0.90000012551E+02 0.  0.
         12    1    1    2    0    0 -0.34649560824E+00 -0.89990780185E+00 -0.68051036426E+00  0.11802489628E+01  0.00000000000E+00 0. -1.
         11    1    3    3    0    0  0.46885952194E+00 -0.87216994676E+01  0.43572615117E+01  0.97608195863E+01  0.51100000000E-03 0. -1.
        -11    1    3    3    0    0 -0.21513325348E+02 -0.12870120541E+02  0.26834298935E+02  0.36722510397E+02  0.51100000000E-03 0.  1.
         12    1    3    3    0    0  0.21390961434E+02  0.22491727810E+02 -0.30511050082E+02  0.43524421054E+02  0.00000000000E+00 0. -1.
</event>
<event>
 7    1  0.1501154E-015  0.9000775E+02  0.7816164E-02  0.1186339E+00
        -11   -1    0    0    0    0  0.00000000000E+00  0.00000000000E+00  0.45593999997E+02  0.45594000000E+02  0.51100000000E-03 0. -1.
         11   -1    0    0    0    0 -0.00000000000E+00 -0.00000000000E+00 -0.45593999997E+02  0.45594000000E+02  0.51100000000E-03 0.  1.
    9900012    2    1    2    0    0  0.66248529702E+00  0.97848889751E-01 -0.97186656286E+00  0.90007751810E+02  0.90000013334E+02 0.  0.
         12    1    1    2    0    0 -0.66248529702E+00 -0.97848889751E-01  0.97186656286E+00  0.11802481900E+01  0.00000000000E+00 0. -1.
         11    1    3    3    0    0  0.34472131398E+00  0.82451507474E+01  0.78416060384E+01  0.11383853880E+02  0.51100000000E-03 0. -1.
        -11    1    3    3    0    0 -0.18611434140E+02  0.29356244169E+02 -0.11275542600E+02  0.36541926792E+02  0.51100000000E-03 0.  1.
         12    1    3    3    0    0  0.18929198123E+02 -0.37503546027E+02  0.24620699989E+01  0.42081971138E+02  0.00000000000E+00 0. -1.
</event>
<event>
 7    1  0.1501154E-015  0.9000741E+02  0.7816164E-02  0.1186340E+00
        -11   -1    0    0    0    0  0.00000000000E+00  0.00000000000E+00  0.45593999997E+02  0.45594000000E+02  0.51100000000E-03 0. -1.
         11   -1    0    0    0    0 -0.00000000000E+00 -0.00000000000E+00 -0.45593999997E+02  0.45594000000E+02  0.51100000000E-03 0.  1.
    9900012    2    1    2    0    0  0.99655049025E+00  0.26669551312E+00 -0.57406985791E+00  0.90007408801E+02  0.89999665797E+02 0.  0.
         12    1    1    2    0    0 -0.99655049025E+00 -0.26669551312E+00  0.57406985791E+00  0.11805911986E+01  0.00000000000E+00 0. -1.
         11    1    3    3    0    0 -0.17547283907E+02 -0.29562551999E+02 -0.27155111690E+01  0.34485151216E+02  0.51100000000E-03 0. -1.
        -11    1    3    3    0    0 -0.27246787648E+01 -0.96827867206E+01  0.34402061956E+01  0.10630863181E+02  0.51100000000E-03 0.  1.
        -12    1    3    3    0    0  0.21268513162E+02  0.39512034233E+02 -0.12987648845E+01  0.44891394404E+02  0.00000000000E+00 0.  1.
</event>
<event>
 7    1  0.1501154E-015  0.9000756E+02  0.7816164E-02  0.1186339E+00
        -11   -1    0    0    0    0  0.00000000000E+00  0.00000000000E+00  0.45593999997E+02  0.45594000000E+02  0.51100000000E-03 0.  1.
         11   -1    0    0    0    0 -0.00000000000E+00 -0.00000000000E+00 -0.45593999997E+02  0.45594000000E+02  0.51100000000E-03 0. -1.
    9900012    2    1    2    0    0 -0.47323533286E+00  0.98006865598E+00  0.45711227699E+00  0.90007560300E+02  0.89999819296E+02 0.  0.
         12    1    1    2    0    0  0.47323533286E+00 -0.98006865598E+00 -0.45711227699E+00  0.11804396996E+01  0.00000000000E+00 0. -1.
         11    1    3    3    0    0  0.12691754601E+01  0.79316805637E+01 -0.11970987368E+02  0.14416202751E+02  0.51100000000E-03 0. -1.
        -11    1    3    3    0    0 -0.11762789483E+02  0.27409715419E+02  0.23666704105E+02  0.38075826967E+02  0.51100000000E-03 0.  1.
         12    1    3    3    0    0  0.10020378690E+02 -0.34361327326E+02 -0.11238604460E+02  0.37515530583E+02  0.00000000000E+00 0. -1.
</event>
<event>
 7    1  0.1501154E-015  0.9000791E+02  0.7816164E-02  0.1186339E+00
        -11   -1    0    0    0    0  0.00000000000E+00  0.00000000000E+00  0.45593999997E+02  0.45594000000E+02  0.51100000000E-03 0. -1.
         11   -1    0    0    0    0 -0.00000000000E+00 -0.00000000000E+00 -0.45593999997E+02  0.45594000000E+02  0.51100000000E-03 0.  1.
    9900012    2    1    2    0    0 -0.99553610317E+00 -0.59178683062E+00 -0.22650949004E+00  0.90007910878E+02  0.90000174502E+02 0.  0.
         12    1    1    2    0    0  0.99553610317E+00  0.59178683062E+00  0.22650949004E+00  0.11800891215E+01  0.00000000000E+00 0. -1.
         11    1    3    3    0    0 -0.45528560862E+01  0.39768092715E+00  0.88794943553E+01  0.99865944610E+01  0.51100000000E-03 0. -1.
        -11    1    3    3    0    0 -0.53533912864E+01  0.38171858049E+02  0.11774098895E+01  0.38563400258E+02  0.51100000000E-03 0.  1.
         12    1    3    3    0    0  0.89107112695E+01 -0.39161325806E+02 -0.10283413735E+02  0.41457916159E+02  0.00000000000E+00 0. -1.
</event>
<event>
 7    1  0.1501154E-015  0.9000762E+02  0.7816164E-02  0.1186339E+00
        -11   -1    0    0    0    0  0.00000000000E+00  0.00000000000E+00  0.45593999997E+02  0.45594000000E+02  0.51100000000E-03 0. -1.
         11   -1    0    0    0    0 -0.00000000000E+00 -0.00000000000E+00 -0.45593999997E+02  0.45594000000E+02  0.51100000000E-03 0.  1.
    9900012    2    1    2    0    0  0.10828056659E+01 -0.41586376959E+00  0.21882644723E+00  0.90007620485E+02  0.89999880275E+02 0.  0.
         12    1    1    2    0    0 -0.10828056659E+01  0.41586376959E+00 -0.21882644723E+00  0.11803795148E+01  0.00000000000E+00 0. -1.
         11    1    3    3    0    0  0.35263524110E+01  0.79904019215E+00  0.10115874142E+02  0.10742650347E+02  0.51100000000E-03 0. -1.
        -11    1    3    3    0    0  0.11715700184E+02 -0.34144670076E+02 -0.20971563956E+02  0.41748324762E+02  0.51100000000E-03 0.  1.
         12    1    3    3    0    0 -0.14159246929E+02  0.32929766114E+02  0.11074516262E+02  0.37516645377E+02  0.00000000000E+00 0. -1.
</event>
<event>
 7    1  0.1501154E-015  0.9000774E+02  0.7816164E-02  0.1186339E+00
        -11   -1    0    0    0    0  0.00000000000E+00  0.00000000000E+00  0.45593999997E+02  0.45594000000E+02  0.51100000000E-03 0. -1.
         11   -1    0    0    0    0 -0.00000000000E+00 -0.00000000000E+00 -0.45593999997E+02  0.45594000000E+02  0.51100000000E-03 0.  1.
    9900012    2    1    2    0    0  0.92308488589E+00 -0.71547786770E+00  0.17034145199E+00  0.90007741344E+02  0.90000002729E+02 0.  0.
         12    1    1    2    0    0 -0.92308488589E+00  0.71547786770E+00 -0.17034145199E+00  0.11802586564E+01  0.00000000000E+00 0. -1.
         11    1    3    3    0    0 -0.17252412685E+01 -0.92082292365E+01  0.53493395489E+01  0.10788112763E+02  0.51100000000E-03 0. -1.
        -11    1    3    3    0    0 -0.17950037616E+02 -0.14564025434E+01 -0.36343530195E+02  0.40560783352E+02  0.51100000000E-03 0.  1.
         12    1    3    3    0    0  0.20598363770E+02  0.99491539122E+01  0.31164532098E+02  0.38658845230E+02  0.00000000000E+00 0. -1.
</event>
<event>
 7    1  0.1501154E-015  0.9000782E+02  0.7816164E-02  0.1186339E+00
        -11   -1    0    0    0    0  0.00000000000E+00  0.00000000000E+00  0.45593999997E+02  0.45594000000E+02  0.51100000000E-03 0. -1.
         11   -1    0    0    0    0 -0.00000000000E+00 -0.00000000000E+00 -0.45593999997E+02  0.45594000000E+02  0.51100000000E-03 0.  1.
    9900012    2    1    2    0    0  0.76621302055E+00  0.56690161480E+00 -0.69595672186E+00  0.90007823915E+02  0.90000086390E+02 0.  0.
         12    1    1    2    0    0 -0.76621302055E+00 -0.56690161480E+00  0.69595672186E+00  0.11801760853E+01  0.00000000000E+00 0. -1.
         11    1    3    3    0    0  0.70600256913E+01  0.76865994171E-01  0.74882725404E+01  0.10291943307E+02  0.51100000000E-03 0. -1.
        -11    1    3    3    0    0  0.10233148841E+02 -0.33234510784E+02  0.12362487352E+02  0.36906383405E+02  0.51100000000E-03 0.  1.
         12    1    3    3    0    0 -0.16526961512E+02  0.33724546405E+02 -0.20546716614E+02  0.42809497202E+02  0.00000000000E+00 0. -1.
</event>
<event>
 7    1  0.1501154E-015  0.9000765E+02  0.7816164E-02  0.1186339E+00
        -11   -1    0    0    0    0  0.00000000000E+00  0.00000000000E+00  0.45593999997E+02  0.45594000000E+02  0.51100000000E-03 0.  1.
         11   -1    0    0    0    0 -0.00000000000E+00 -0.00000000000E+00 -0.45593999997E+02  0.45594000000E+02  0.51100000000E-03 0. -1.
    9900012    2    1    2    0    0 -0.37215509501E+00 -0.11120126003E+01  0.13475042292E+00  0.90007648733E+02  0.89999908896E+02 0.  0.
         12    1    1    2    0    0  0.37215509501E+00  0.11120126003E+01 -0.13475042292E+00  0.11803512674E+01  0.00000000000E+00 0. -1.
         11    1    3    3    0    0 -0.61696985805E+00  0.20148847869E+01  0.29512890520E+01  0.36263645487E+01  0.51100000000E-03 0. -1.
        -11    1    3    3    0    0  0.14552999206E+02  0.27482090254E+02  0.27102567261E+02  0.41250505731E+02  0.51100000000E-03 0.  1.
         12    1    3    3    0    0 -0.14308184443E+02 -0.30608987642E+02 -0.29919105890E+02  0.45130778453E+02  0.00000000000E+00 0. -1.
</event>
<event>
 7    1  0.1501154E-015  0.9000780E+02  0.7816164E-02  0.1186339E+00
        -11   -1    0    0    0    0  0.00000000000E+00  0.00000000000E+00  0.45593999997E+02  0.45594000000E+02  0.51100000000E-03 0. -1.
         11   -1    0    0    0    0 -0.00000000000E+00 -0.00000000000E+00 -0.45593999997E+02  0.45594000000E+02  0.51100000000E-03 0.  1.
    9900012    2    1    2    0    0 -0.96647495145E+00 -0.48119701713E+00 -0.47669276809E+00  0.90007804933E+02  0.90000067158E+02 0.  0.
         12    1    1    2    0    0  0.96647495145E+00  0.48119701713E+00  0.47669276809E+00  0.11801950670E+01  0.00000000000E+00 0. -1.
         11    1    3    3    0    0 -0.59347466295E+01 -0.93230304972E+01  0.10822955902E+02  0.15468564572E+02  0.51100000000E-03 0. -1.
        -11    1    3    3    0    0 -0.15373401145E+02 -0.18148408266E+02 -0.28085066840E+02  0.36803222210E+02  0.51100000000E-03 0.  1.
         12    1    3    3    0    0  0.20341672823E+02  0.26990241746E+02  0.16785418170E+02  0.37736018151E+02  0.00000000000E+00 0. -1.
</event>
<event>
 7    1  0.1501154E-015  0.9000771E+02  0.7816164E-02  0.1186339E+00
        -11   -1    0    0    0    0  0.00000000000E+00  0.00000000000E+00  0.45593999997E+02  0.45594000000E+02  0.51100000000E-03 0.  1.
         11   -1    0    0    0    0 -0.00000000000E+00 -0.00000000000E+00 -0.45593999997E+02  0.45594000000E+02  0.51100000000E-03 0. -1.
    9900012    2    1    2    0    0 -0.70262713821E-02  0.11250123797E+01 -0.35690271148E+00  0.90007711150E+02  0.89999972138E+02 0.  0.
         12    1    1    2    0    0  0.70262713821E-02 -0.11250123797E+01  0.35690271148E+00  0.11802888496E+01  0.00000000000E+00 0. -1.
         11    1    3    3    0    0 -0.49414036636E+01  0.78668729274E+01 -0.42692112339E+01  0.10224056174E+02  0.51100000000E-03 0. -1.
        -11    1    3    3    0    0  0.15906344509E+02 -0.38852537122E+02 -0.99210896093E+01  0.43138839295E+02  0.51100000000E-03 0.  1.
         12    1    3    3    0    0 -0.10971967117E+02  0.32110676574E+02  0.13833398132E+02  0.36644815681E+02  0.00000000000E+00 0. -1.
</event>
<event>
 7    1  0.1501154E-015  0.9000780E+02  0.7816164E-02  0.1186339E+00
        -11   -1    0    0    0    0  0.00000000000E+00  0.00000000000E+00  0.45593999997E+02  0.45594000000E+02  0.51100000000E-03 0. -1.
         11   -1    0    0    0    0 -0.00000000000E+00 -0.00000000000E+00 -0.45593999997E+02  0.45594000000E+02  0.51100000000E-03 0.  1.
    9900012    2    1    2    0    0 -0.20597144368E-01 -0.31843034931E+00 -0.11362466043E+01  0.90007797274E+02  0.90000059398E+02 0.  0.
         12    1    1    2    0    0  0.20597144368E-01  0.31843034931E+00  0.11362466043E+01  0.11802027264E+01  0.00000000000E+00 0. -1.
         11    1    3    3    0    0  0.91770521211E+01 -0.26670713282E+02  0.21828908774E+02  0.35665760768E+02  0.51100000000E-03 0. -1.
        -11    1    3    3    0    0  0.17924092356E+01 -0.10262845553E+02 -0.15773277090E+01  0.10536920455E+02  0.51100000000E-03 0.  1.
        -12    1    3    3    0    0 -0.10990058501E+02  0.36615128485E+02 -0.21387827669E+02  0.43805116051E+02  0.00000000000E+00 0.  1.
</event>
<event>
 7    1  0.1501154E-015  0.9000778E+02  0.7816164E-02  0.1186339E+00
        -11   -1    0    0    0    0  0.00000000000E+00  0.00000000000E+00  0.45593999997E+02  0.45594000000E+02  0.51100000000E-03 0.  1.
         11   -1    0    0    0    0 -0.00000000000E+00 -0.00000000000E+00 -0.45593999997E+02  0.45594000000E+02  0.51100000000E-03 0. -1.
    9900012    2    1    2    0    0  0.37024578321E+00 -0.76156535901E+00  0.82209971754E+00  0.90007783206E+02  0.90000045144E+02 0.  0.
         12    1    1    2    0    0 -0.37024578321E+00  0.76156535901E+00 -0.82209971754E+00  0.11802167943E+01  0.00000000000E+00 0. -1.
         11    1    3    3    0    0  0.91918077711E+01  0.32871534261E+02 -0.12206763154E+02  0.36249581539E+02  0.51100000000E-03 0. -1.
        -11    1    3    3    0    0  0.79484409856E+01  0.33768539519E+01 -0.42254594139E+01  0.96143311901E+01  0.51100000000E-03 0.  1.
        -12    1    3    3    0    0 -0.16770002973E+02 -0.37009953572E+02  0.17254322286E+02  0.44143870477E+02  0.00000000000E+00 0.  1.
</event>
<event>
 7    1  0.1501154E-015  0.9000772E+02  0.7816164E-02  0.1186339E+00
        -11   -1    0    0    0    0  0.00000000000E+00  0.00000000000E+00  0.45593999997E+02  0.45594000000E+02  0.51100000000E-03 0. -1.
         11   -1    0    0    0    0 -0.00000000000E+00 -0.00000000000E+00 -0.45593999997E+02  0.45594000000E+02  0.51100000000E-03 0.  1.
    9900012    2    1    2    0    0  0.72041920859E+00  0.39364464836E+00 -0.84799217570E+00  0.90007724322E+02  0.89999985483E+02 0.  0.
         12    1    1    2    0    0 -0.72041920859E+00 -0.39364464836E+00  0.84799217570E+00  0.11802756777E+01  0.00000000000E+00 0. -1.
         11    1    3    3    0    0  0.54892580807E+01  0.15322203155E+01 -0.74855890139E+01  0.94081717947E+01  0.51100000000E-03 0. -1.
        -11    1    3    3    0    0  0.32097761688E+02  0.18111664567E+02 -0.55268595511E+01  0.37267209120E+02  0.51100000000E-03 0.  1.
         12    1    3    3    0    0 -0.36866600561E+02 -0.19250240235E+02  0.12164456389E+02  0.43332343408E+02  0.00000000000E+00 0. -1.
</event>
<event>
 7    1  0.1501154E-015  0.9000777E+02  0.7816164E-02  0.1186339E+00
        -11   -1    0    0    0    0  0.00000000000E+00  0.00000000000E+00  0.45593999997E+02  0.45594000000E+02  0.51100000000E-03 0. -1.
         11   -1    0    0    0    0 -0.00000000000E+00 -0.00000000000E+00 -0.45593999997E+02  0.45594000000E+02  0.51100000000E-03 0.  1.
    9900012    2    1    2    0    0  0.11185524172E+01 -0.16605264906E+00  0.33793818123E+00  0.90007773239E+02  0.90000035046E+02 0.  0.
         12    1    1    2    0    0 -0.11185524172E+01  0.16605264906E+00 -0.33793818123E+00  0.11802267607E+01  0.00000000000E+00 0. -1.
         11    1    3    3    0    0 -0.24049102659E+02  0.22629021222E+02  0.21846569147E+02  0.39594248621E+02  0.51100000000E-03 0. -1.
        -11    1    3    3    0    0  0.31180367857E+01  0.74786235099E+01 -0.46454809744E+01  0.93398317300E+01  0.51100000000E-03 0.  1.
        -12    1    3    3    0    0  0.22049618290E+02 -0.30273697381E+02 -0.16863149991E+02  0.41073692888E+02  0.00000000000E+00 0.  1.
</event>
<event>
 7    1  0.1501154E-015  0.9000768E+02  0.7816164E-02  0.1186339E+00
        -11   -1    0    0    0    0  0.00000000000E+00  0.00000000000E+00  0.45593999997E+02  0.45594000000E+02  0.51100000000E-03 0.  1.
         11   -1    0    0    0    0 -0.00000000000E+00 -0.00000000000E+00 -0.45593999997E+02  0.45594000000E+02  0.51100000000E-03 0. -1.
    9900012    2    1    2    0    0  0.64368751772E+00 -0.98508574271E+00 -0.91772225456E-01  0.90007682381E+02  0.89999942988E+02 0.  0.
         12    1    1    2    0    0 -0.64368751772E+00  0.98508574271E+00  0.91772225456E-01  0.11803176193E+01  0.00000000000E+00 0. -1.
         11    1    3    3    0    0  0.23255517778E+02  0.13919100956E+02 -0.23567100926E+02  0.35916134604E+02  0.51100000000E-03 0. -1.
        -11    1    3    3    0    0  0.54847689794E+01  0.36620439213E+01  0.19008254496E+02  0.20119815996E+02  0.51100000000E-03 0.  1.
        -12    1    3    3    0    0 -0.28096599240E+02 -0.18566230620E+02  0.44670742047E+01  0.33971731781E+02  0.00000000000E+00 0.  1.
</event>
<event>
 7    1  0.1501154E-015  0.9000777E+02  0.7816164E-02  0.1186339E+00
        -11   -1    0    0    0    0  0.00000000000E+00  0.00000000000E+00  0.45593999997E+02  0.45594000000E+02  0.51100000000E-03 0.  1.
         11   -1    0    0    0    0 -0.00000000000E+00 -0.00000000000E+00 -0.45593999997E+02  0.45594000000E+02  0.51100000000E-03 0. -1.
    9900012    2    1    2    0    0 -0.36471578188E+00  0.10287090423E+01  0.44908527652E+00  0.90007772276E+02  0.90000034070E+02 0.  0.
         12    1    1    2    0    0  0.36471578188E+00 -0.10287090423E+01 -0.44908527652E+00  0.11802277241E+01  0.00000000000E+00 0. -1.
         11    1    3    3    0    0 -0.16738781265E+02  0.79693961792E+01 -0.33167548491E+02  0.37997162353E+02  0.51100000000E-03 0. -1.
        -11    1    3    3    0    0  0.82886049597E+01  0.64596030669E+01 -0.40188203468E+01  0.11250704920E+02  0.51100000000E-03 0.  1.
        -12    1    3    3    0    0  0.80854605238E+01 -0.13400290204E+02  0.37635454114E+02  0.40759905003E+02  0.00000000000E+00 0.  1.
</event>
<event>
 7    1  0.1501154E-015  0.9000768E+02  0.7816164E-02  0.1186339E+00
        -11   -1    0    0    0    0  0.00000000000E+00  0.00000000000E+00  0.45593999997E+02  0.45594000000E+02  0.51100000000E-03 0. -1.
         11   -1    0    0    0    0 -0.00000000000E+00 -0.00000000000E+00 -0.45593999997E+02  0.45594000000E+02  0.51100000000E-03 0.  1.
    9900012    2    1    2    0    0  0.17707233502E+00 -0.25376775335E+00 -0.11390317634E+01  0.90007683923E+02  0.89999944550E+02 0.  0.
         12    1    1    2    0    0 -0.17707233502E+00  0.25376775335E+00  0.11390317634E+01  0.11803160774E+01  0.00000000000E+00 0. -1.
         11    1    3    3    0    0  0.39689977193E+02 -0.83700381970E+01 -0.50553598373E+01  0.40876747575E+02  0.51100000000E-03 0. -1.
        -11    1    3    3    0    0 -0.21379141269E+01 -0.64656059284E+00 -0.84967463286E+01  0.87854092590E+01  0.51100000000E-03 0.  1.
        -12    1    3    3    0    0 -0.37374990731E+02  0.87628310365E+01  0.12413074402E+02  0.40345527088E+02  0.00000000000E+00 0.  1.
</event>
<event>
 7    1  0.1501154E-015  0.9000779E+02  0.7816164E-02  0.1186339E+00
        -11   -1    0    0    0    0  0.00000000000E+00  0.00000000000E+00  0.45593999997E+02  0.45594000000E+02  0.51100000000E-03 0.  1.
         11   -1    0    0    0    0 -0.00000000000E+00 -0.00000000000E+00 -0.45593999997E+02  0.45594000000E+02  0.51100000000E-03 0. -1.
    9900012    2    1    2    0    0 -0.36891554535E+00 -0.42625223612E+00  0.10368775550E+01  0.90007786158E+02  0.90000048135E+02 0.  0.
         12    1    1    2    0    0  0.36891554535E+00  0.42625223612E+00 -0.10368775550E+01  0.11802138418E+01  0.00000000000E+00 0. -1.
         11    1    3    3    0    0  0.51196090634E+01  0.72535913927E+01  0.20353648843E+01  0.91086604683E+01  0.51100000000E-03 0. -1.
        -11    1    3    3    0    0 -0.28476428627E+00  0.35459163558E+02 -0.93043770576E+01  0.36660671075E+02  0.51100000000E-03 0.  1.
         12    1    3    3    0    0 -0.52037603225E+01 -0.43139007187E+02  0.83058897283E+01  0.44238454615E+02  0.00000000000E+00 0. -1.
</event>
<event>
 7    1  0.1501154E-015  0.9000776E+02  0.7816164E-02  0.1186339E+00
        -11   -1    0    0    0    0  0.00000000000E+00  0.00000000000E+00  0.45593999997E+02  0.45594000000E+02  0.51100000000E-03 0. -1.
         11   -1    0    0    0    0 -0.00000000000E+00 -0.00000000000E+00 -0.45593999997E+02  0.45594000000E+02  0.51100000000E-03 0.  1.
    9900012    2    1    2    0    0 -0.20098338157E+00  0.67235632898E+00 -0.94894728147E+00  0.90007763458E+02  0.90000025135E+02 0.  0.
         12    1    1    2    0    0  0.20098338157E+00 -0.67235632898E+00  0.94894728147E+00  0.11802365423E+01  0.00000000000E+00 0. -1.
         11    1    3    3    0    0 -0.23761855649E+01  0.24906256208E+01 -0.80903001607E+01  0.87921800922E+01  0.51100000000E-03 0. -1.
        -11    1    3    3    0    0  0.39282334858E+02 -0.30748281162E+01  0.16826241442E+02  0.42844822338E+02  0.51100000000E-03 0.  1.
         12    1    3    3    0    0 -0.37107132674E+02  0.12565588244E+01 -0.96848885629E+01  0.38370761028E+02  0.00000000000E+00 0. -1.
</event>
<event>
 7    1  0.1501154E-015  0.9000782E+02  0.7816164E-02  0.1186339E+00
        -11   -1    0    0    0    0  0.00000000000E+00  0.00000000000E+00  0.45593999997E+02  0.45594000000E+02  0.51100000000E-03 0. -1.
         11   -1    0    0    0    0 -0.00000000000E+00 -0.00000000000E+00 -0.45593999997E+02  0.45594000000E+02  0.51100000000E-03 0.  1.
    9900012    2    1    2    0    0 -0.40741301435E+00 -0.43027451890E-01 -0.11067933606E+01  0.90007818544E+02  0.90000080949E+02 0.  0.
         12    1    1    2    0    0  0.40741301435E+00  0.43027451890E-01  0.11067933606E+01  0.11801814559E+01  0.00000000000E+00 0. -1.
         11    1    3    3    0    0 -0.26106078376E+02 -0.18436002794E+02 -0.20227444750E+02  0.37822784781E+02  0.51100000000E-03 0. -1.
        -11    1    3    3    0    0 -0.96184135960E+01  0.37879784497E+01  0.39588755748E+01  0.11069568958E+02  0.51100000000E-03 0.  1.
        -12    1    3    3    0    0  0.35317078958E+02  0.14604996892E+02  0.15161775815E+02  0.41115464805E+02  0.00000000000E+00 0.  1.
</event>
<event>
 7    1  0.1501154E-015  0.9000777E+02  0.7816164E-02  0.1186339E+00
        -11   -1    0    0    0    0  0.00000000000E+00  0.00000000000E+00  0.45593999997E+02  0.45594000000E+02  0.51100000000E-03 0.  1.
         11   -1    0    0    0    0 -0.00000000000E+00 -0.00000000000E+00 -0.45593999997E+02  0.45594000000E+02  0.51100000000E-03 0. -1.
    9900012    2    1    2    0    0 -0.23467014043E+00 -0.45273029560E+00 -0.10643765344E+01  0.90007774512E+02  0.90000036336E+02 0.  0.
         12    1    1    2    0    0  0.23467014043E+00  0.45273029560E+00  0.10643765344E+01  0.11802254879E+01  0.00000000000E+00 0. -1.
         11    1    3    3    0    0  0.35952478893E+01  0.76782352460E+01 -0.53920527325E+01  0.10047653299E+02  0.51100000000E-03 0. -1.
        -11    1    3    3    0    0 -0.10240571543E+02 -0.26621937351E+01  0.40994258228E+02  0.42337758431E+02  0.51100000000E-03 0.  1.
         12    1    3    3    0    0  0.64106535133E+01 -0.54687718066E+01 -0.36666582030E+02  0.37622362782E+02  0.00000000000E+00 0. -1.
</event>
<event>
 7    1  0.1501154E-015  0.9000762E+02  0.7816164E-02  0.1186339E+00
        -11   -1    0    0    0    0  0.00000000000E+00  0.00000000000E+00  0.45593999997E+02  0.45594000000E+02  0.51100000000E-03 0. -1.
         11   -1    0    0    0    0 -0.00000000000E+00 -0.00000000000E+00 -0.45593999997E+02  0.45594000000E+02  0.51100000000E-03 0.  1.
    9900012    2    1    2    0    0  0.24799017115E+00  0.34480980866E+00  0.11013197869E+01  0.90007619467E+02  0.89999879244E+02 0.  0.
         12    1    1    2    0    0 -0.24799017115E+00 -0.34480980866E+00 -0.11013197869E+01  0.11803805328E+01  0.00000000000E+00 0. -1.
         11    1    3    3    0    0  0.17714968816E+02 -0.13864008430E+02  0.32036964889E+02  0.39145855073E+02  0.51100000000E-03 0. -1.
        -11    1    3    3    0    0 -0.44366902325E+00 -0.99855762507E+01 -0.37234565757E+01  0.10666428849E+02  0.51100000000E-03 0.  1.
        -12    1    3    3    0    0 -0.17023309621E+02  0.24194394489E+02 -0.27212188526E+02  0.40195335545E+02  0.00000000000E+00 0.  1.
</event>
<event>
 7    1  0.1501154E-015  0.9000786E+02  0.7816164E-02  0.1186339E+00
        -11   -1    0    0    0    0  0.00000000000E+00  0.00000000000E+00  0.45593999997E+02  0.45594000000E+02  0.51100000000E-03 0. -1.
         11   -1    0    0    0    0 -0.00000000000E+00 -0.00000000000E+00 -0.45593999997E+02  0.45594000000E+02  0.51100000000E-03 0.  1.
    9900012    2    1    2    0    0 -0.53100600420E+00  0.27652835843E+00 -0.10170035000E+01  0.90007859573E+02  0.90000122519E+02 0.  0.
         12    1    1    2    0    0  0.53100600420E+00 -0.27652835843E+00  0.10170035000E+01  0.11801404274E+01  0.00000000000E+00 0. -1.
         11    1    3    3    0    0  0.37689086107E+00  0.89697507490E+01  0.58606686682E+01  0.10721283166E+02  0.51100000000E-03 0. -1.
        -11    1    3    3    0    0  0.23291451152E+02  0.26609149276E+02 -0.88058865381E+01  0.36442861577E+02  0.51100000000E-03 0.  1.
         12    1    3    3    0    0 -0.24199348017E+02 -0.35302371667E+02  0.19282143698E+01  0.42843714830E+02  0.00000000000E+00 0. -1.
</event>
<event>
 7    1  0.1501154E-015  0.9000775E+02  0.7816164E-02  0.1186339E+00
        -11   -1    0    0    0    0  0.00000000000E+00  0.00000000000E+00  0.45593999997E+02  0.45594000000E+02  0.51100000000E-03 0.  1.
         11   -1    0    0    0    0 -0.00000000000E+00 -0.00000000000E+00 -0.45593999997E+02  0.45594000000E+02  0.51100000000E-03 0. -1.
    9900012    2    1    2    0    0  0.67448249948E-01 -0.11296579916E+01  0.33511771167E+00  0.90007754125E+02  0.90000015680E+02 0.  0.
         12    1    1    2    0    0 -0.67448249948E-01  0.11296579916E+01 -0.33511771167E+00  0.11802458748E+01  0.00000000000E+00 0. -1.
         11    1    3    3    0    0 -0.58967631923E+01  0.49763908428E+01 -0.24206452365E+01  0.80867673139E+01  0.51100000000E-03 0. -1.
        -11    1    3    3    0    0 -0.72443067905E+01  0.24382428681E+02  0.29728119662E+02  0.39124722467E+02  0.51100000000E-03 0.  1.
         12    1    3    3    0    0  0.13208518233E+02 -0.30488477515E+02 -0.26972356714E+02  0.42796264344E+02  0.00000000000E+00 0. -1.
</event>
<event>
 7    1  0.1501154E-015  0.9000776E+02  0.7816164E-02  0.1186339E+00
        -11   -1    0    0    0    0  0.00000000000E+00  0.00000000000E+00  0.45593999997E+02  0.45594000000E+02  0.51100000000E-03 0. -1.
         11   -1    0    0    0    0 -0.00000000000E+00 -0.00000000000E+00 -0.45593999997E+02  0.45594000000E+02  0.51100000000E-03 0.  1.
    9900012    2    1    2    0    0  0.67588515705E+00 -0.86067154924E+00 -0.44203346643E+00  0.90007758564E+02  0.90000020177E+02 0.  0.
         12    1    1    2    0    0 -0.67588515705E+00  0.86067154924E+00  0.44203346643E+00  0.11802414357E+01  0.00000000000E+00 0. -1.
         11    1    3    3    0    0 -0.82834579052E+01 -0.19519580799E+02 -0.27480159431E+01  0.21381798365E+02  0.51100000000E-03 0. -1.
        -11    1    3    3    0    0 -0.12849855929E+02 -0.19639632539E+02  0.65018061526E+01  0.24353797387E+02  0.51100000000E-03 0.  1.
         12    1    3    3    0    0  0.21809198991E+02  0.38298541789E+02 -0.41958236759E+01  0.44272162812E+02  0.00000000000E+00 0. -1.
</event>
<event>
 7    1  0.1501154E-015  0.9000777E+02  0.7816164E-02  0.1186339E+00
        -11   -1    0    0    0    0  0.00000000000E+00  0.00000000000E+00  0.45593999997E+02  0.45594000000E+02  0.51100000000E-03 0.  1.
         11   -1    0    0    0    0 -0.00000000000E+00 -0.00000000000E+00 -0.45593999997E+02  0.45594000000E+02  0.51100000000E-03 0. -1.
    9900012    2    1    2    0    0  0.51436946328E+00  0.10576461314E+01 -0.98701855796E-01  0.90007774030E+02  0.90000035847E+02 0.  0.
         12    1    1    2    0    0 -0.51436946328E+00 -0.10576461314E+01  0.98701855796E-01  0.11802259700E+01  0.00000000000E+00 0. -1.
         11    1    3    3    0    0  0.27189308446E+02  0.11179194488E+01 -0.23727396008E+02  0.36103982596E+02  0.51100000000E-03 0. -1.
        -11    1    3    3    0    0  0.83165248928E+01  0.56271485906E+01 -0.18977502960E+01  0.10219141060E+02  0.51100000000E-03 0.  1.
        -12    1    3    3    0    0 -0.34991463876E+02 -0.56874219081E+01  0.25526444448E+02  0.43684650374E+02  0.00000000000E+00 0.  1.
</event>
<event>
 7    1  0.1501154E-015  0.9000883E+02  0.7816164E-02  0.1186337E+00
        -11   -1    0    0    0    0  0.00000000000E+00  0.00000000000E+00  0.45593999997E+02  0.45594000000E+02  0.51100000000E-03 0. -1.
         11   -1    0    0    0    0 -0.00000000000E+00 -0.00000000000E+00 -0.45593999997E+02  0.45594000000E+02  0.51100000000E-03 0.  1.
    9900012    2    1    2    0    0 -0.29919516862E+00  0.80530184618E+00 -0.80772576650E+00  0.90008826677E+02  0.90001102382E+02 0.  0.
         12    1    1    2    0    0  0.29919516862E+00 -0.80530184618E+00  0.80772576650E+00  0.11791733232E+01  0.00000000000E+00 0. -1.
         11    1    3    3    0    0 -0.86812538945E+01 -0.15837234593E+01 -0.59537681530E+01  0.10645172834E+02  0.51100000000E-03 0. -1.
        -11    1    3    3    0    0 -0.28094561354E+02 -0.20760660973E+02  0.87470366168E+01  0.36011388081E+02  0.51100000000E-03 0.  1.
         12    1    3    3    0    0  0.36476620080E+02  0.23149686278E+02 -0.36009942302E+01  0.43352265762E+02  0.00000000000E+00 0. -1.
</event>
<event>
 7    1  0.1501154E-015  0.9000772E+02  0.7816164E-02  0.1186339E+00
        -11   -1    0    0    0    0  0.00000000000E+00  0.00000000000E+00  0.45593999997E+02  0.45594000000E+02  0.51100000000E-03 0. -1.
         11   -1    0    0    0    0 -0.00000000000E+00 -0.00000000000E+00 -0.45593999997E+02  0.45594000000E+02  0.51100000000E-03 0.  1.
    9900012    2    1    2    0    0  0.31128740272E+00 -0.67424688149E+00 -0.91736176034E+00  0.90007719820E+02  0.89999980921E+02 0.  0.
         12    1    1    2    0    0 -0.31128740272E+00  0.67424688149E+00  0.91736176034E+00  0.11802801801E+01  0.00000000000E+00 0. -1.
         11    1    3    3    0    0 -0.26277176551E+01 -0.65792314395E+01 -0.61691689055E+01  0.93941381539E+01  0.51100000000E-03 0. -1.
        -11    1    3    3    0    0  0.25362980608E+02 -0.11650155162E+02  0.31357935432E+02  0.41980078793E+02  0.51100000000E-03 0.  1.
         12    1    3    3    0    0 -0.22423975550E+02  0.17555139720E+02 -0.26106128287E+02  0.38633502873E+02  0.00000000000E+00 0. -1.
</event>
<event>
 7    1  0.1501154E-015  0.9000771E+02  0.7816164E-02  0.1186339E+00
        -11   -1    0    0    0    0  0.00000000000E+00  0.00000000000E+00  0.45593999997E+02  0.45594000000E+02  0.51100000000E-03 0.  1.
         11   -1    0    0    0    0 -0.00000000000E+00 -0.00000000000E+00 -0.45593999997E+02  0.45594000000E+02  0.51100000000E-03 0. -1.
    9900012    2    1    2    0    0 -0.38964246901E+00 -0.23654414326E+00  0.10887221791E+01  0.90007707507E+02  0.89999968446E+02 0.  0.
         12    1    1    2    0    0  0.38964246901E+00  0.23654414326E+00 -0.10887221791E+01  0.11802924929E+01  0.00000000000E+00 0. -1.
         11    1    3    3    0    0  0.26222041001E+02 -0.26449587977E+02 -0.11942812128E+02  0.39112746007E+02  0.51100000000E-03 0. -1.
        -11    1    3    3    0    0 -0.69063300762E+01 -0.73370493951E+01  0.79644610665E+00  0.10107621659E+02  0.51100000000E-03 0.  1.
        -12    1    3    3    0    0 -0.19705353394E+02  0.33550093228E+02  0.12235088201E+02  0.40787339841E+02  0.00000000000E+00 0.  1.
</event>
<event>
 7    1  0.1501154E-015  0.9000774E+02  0.7816164E-02  0.1186339E+00
        -11   -1    0    0    0    0  0.00000000000E+00  0.00000000000E+00  0.45593999997E+02  0.45594000000E+02  0.51100000000E-03 0.  1.
         11   -1    0    0    0    0 -0.00000000000E+00 -0.00000000000E+00 -0.45593999997E+02  0.45594000000E+02  0.51100000000E-03 0. -1.
    9900012    2    1    2    0    0  0.46758830199E+00  0.99737283679E+00  0.42383004718E+00  0.90007735917E+02  0.89999997232E+02 0.  0.
         12    1    1    2    0    0 -0.46758830199E+00 -0.99737283679E+00 -0.42383004718E+00  0.11802640826E+01  0.00000000000E+00 0. -1.
         11    1    3    3    0    0  0.72920732843E+01  0.24201207229E+01  0.55089336687E+01  0.94540820561E+01  0.51100000000E-03 0. -1.
        -11    1    3    3    0    0  0.31784990113E+01  0.12450819338E+02  0.34831920115E+02  0.37126653732E+02  0.51100000000E-03 0.  1.
         12    1    3    3    0    0 -0.10002983994E+02 -0.13873567224E+02 -0.39917023736E+02  0.43427000130E+02  0.00000000000E+00 0. -1.
</event>
<event>
 7    1  0.1501154E-015  0.9000788E+02  0.7816164E-02  0.1186339E+00
        -11   -1    0    0    0    0  0.00000000000E+00  0.00000000000E+00  0.45593999997E+02  0.45594000000E+02  0.51100000000E-03 0. -1.
         11   -1    0    0    0    0 -0.00000000000E+00 -0.00000000000E+00 -0.45593999997E+02  0.45594000000E+02  0.51100000000E-03 0.  1.
    9900012    2    1    2    0    0 -0.60032270091E+00 -0.54446226714E+00 -0.85781475518E+00  0.90007884472E+02  0.90000147747E+02 0.  0.
         12    1    1    2    0    0  0.60032270091E+00  0.54446226714E+00  0.85781475518E+00  0.11801155281E+01  0.00000000000E+00 0. -1.
         11    1    3    3    0    0  0.25605230866E+01  0.67692024762E+01 -0.57228960563E+01  0.92265876777E+01  0.51100000000E-03 0. -1.
        -11    1    3    3    0    0  0.13950211134E+02  0.16236068967E+00 -0.34498852973E+02  0.37212976344E+02  0.51100000000E-03 0.  1.
         12    1    3    3    0    0 -0.17111056921E+02 -0.74760254330E+01  0.39363934275E+02  0.43568320450E+02  0.00000000000E+00 0. -1.
</event>
<event>
 7    1  0.1501154E-015  0.9000789E+02  0.7816164E-02  0.1186339E+00
        -11   -1    0    0    0    0  0.00000000000E+00  0.00000000000E+00  0.45593999997E+02  0.45594000000E+02  0.51100000000E-03 0.  1.
         11   -1    0    0    0    0 -0.00000000000E+00 -0.00000000000E+00 -0.45593999997E+02  0.45594000000E+02  0.51100000000E-03 0. -1.
    9900012    2    1    2    0    0 -0.82758519264E+00 -0.10044595739E+00  0.83527356819E+00  0.90007886202E+02  0.90000149500E+02 0.  0.
         12    1    1    2    0    0  0.82758519264E+00  0.10044595739E+00 -0.83527356819E+00  0.11801137975E+01  0.00000000000E+00 0. -1.
         11    1    3    3    0    0  0.32050259457E+01 -0.86283693871E+01  0.35099073397E+01  0.98509085564E+01  0.51100000000E-03 0. -1.
        -11    1    3    3    0    0 -0.21430566957E+02 -0.50052467417E+01  0.32139349095E+02  0.38952014782E+02  0.51100000000E-03 0.  1.
         12    1    3    3    0    0  0.17397955819E+02  0.13533170171E+02 -0.34813982867E+02  0.41204962864E+02  0.00000000000E+00 0. -1.
</event>
<event>
 7    1  0.1501154E-015  0.9000773E+02  0.7816164E-02  0.1186339E+00
        -11   -1    0    0    0    0  0.00000000000E+00  0.00000000000E+00  0.45593999997E+02  0.45594000000E+02  0.51100000000E-03 0. -1.
         11   -1    0    0    0    0 -0.00000000000E+00 -0.00000000000E+00 -0.45593999997E+02  0.45594000000E+02  0.51100000000E-03 0.  1.
    9900012    2    1    2    0    0  0.16006400535E+00 -0.58267092132E-01 -0.11679145424E+01  0.90007728879E+02  0.89999990101E+02 0.  0.
         12    1    1    2    0    0 -0.16006400535E+00  0.58267092132E-01  0.11679145424E+01  0.11802711206E+01  0.00000000000E+00 0. -1.
         11    1    3    3    0    0  0.33686902157E+01  0.36879622760E+01  0.61480850977E+01  0.79213692092E+01  0.51100000000E-03 0. -1.
        -11    1    3    3    0    0  0.20882090085E+02  0.17167325616E+02 -0.31897934468E+02  0.41812163048E+02  0.51100000000E-03 0.  1.
         12    1    3    3    0    0 -0.24090716295E+02 -0.20913554984E+02  0.24581934828E+02  0.40274196623E+02  0.00000000000E+00 0. -1.
</event>
<event>
 7    1  0.1501154E-015  0.9000770E+02  0.7816164E-02  0.1186339E+00
        -11   -1    0    0    0    0  0.00000000000E+00  0.00000000000E+00  0.45593999997E+02  0.45594000000E+02  0.51100000000E-03 0. -1.
         11   -1    0    0    0    0 -0.00000000000E+00 -0.00000000000E+00 -0.45593999997E+02  0.45594000000E+02  0.51100000000E-03 0.  1.
    9900012    2    1    2    0    0 -0.25460661024E+00  0.94742294964E+00 -0.65626576456E+00  0.90007695156E+02  0.89999955932E+02 0.  0.
         12    1    1    2    0    0  0.25460661024E+00 -0.94742294964E+00  0.65626576456E+00  0.11803048442E+01  0.00000000000E+00 0. -1.
         11    1    3    3    0    0  0.24770566000E-01  0.80274996761E+01  0.65094941665E+01  0.10335128407E+02  0.51100000000E-03 0. -1.
        -11    1    3    3    0    0 -0.16556108312E+02  0.32346621061E+02 -0.70660174662E+01  0.37018066125E+02  0.51100000000E-03 0.  1.
         12    1    3    3    0    0  0.16276731136E+02 -0.39426697788E+02 -0.99742464779E-01  0.42654500624E+02  0.00000000000E+00 0. -1.
</event>
<event>
 7    1  0.1501154E-015  0.9000769E+02  0.7816164E-02  0.1186339E+00
        -11   -1    0    0    0    0  0.00000000000E+00  0.00000000000E+00  0.45593999997E+02  0.45594000000E+02  0.51100000000E-03 0. -1.
         11   -1    0    0    0    0 -0.00000000000E+00 -0.00000000000E+00 -0.45593999997E+02  0.45594000000E+02  0.51100000000E-03 0.  1.
    9900012    2    1    2    0    0 -0.65639292788E+00 -0.79319251366E+00 -0.57716920946E+00  0.90007690576E+02  0.89999951292E+02 0.  0.
         12    1    1    2    0    0  0.65639292788E+00  0.79319251366E+00  0.57716920946E+00  0.11803094238E+01  0.00000000000E+00 0. -1.
         11    1    3    3    0    0 -0.52186976149E+01  0.36161456794E+02  0.14687403919E+02  0.39377729701E+02  0.51100000000E-03 0. -1.
        -11    1    3    3    0    0  0.28525612249E+01  0.30540321628E+01  0.43559501898E+01  0.60364327471E+01  0.51100000000E-03 0.  1.
        -12    1    3    3    0    0  0.17097434622E+01 -0.40008681470E+02 -0.19620523318E+02  0.44593528129E+02  0.00000000000E+00 0.  1.
</event>
<event>
 7    1  0.1501154E-015  0.9000783E+02  0.7816164E-02  0.1186339E+00
        -11   -1    0    0    0    0  0.00000000000E+00  0.00000000000E+00  0.45593999997E+02  0.45594000000E+02  0.51100000000E-03 0.  1.
         11   -1    0    0    0    0 -0.00000000000E+00 -0.00000000000E+00 -0.45593999997E+02  0.45594000000E+02  0.51100000000E-03 0. -1.
    9900012    2    1    2    0    0  0.37642759332E+00 -0.13958189900E+00  0.11097840924E+01  0.90007829855E+02  0.90000092409E+02 0.  0.
         12    1    1    2    0    0 -0.37642759332E+00  0.13958189900E+00 -0.11097840924E+01  0.11801701451E+01  0.00000000000E+00 0. -1.
         11    1    3    3    0    0  0.50485363721E+01  0.95859135482E+01  0.43518125899E+01  0.11675432803E+02  0.51100000000E-03 0. -1.
        -11    1    3    3    0    0  0.13389222064E+02 -0.21604982980E+02  0.29599109354E+02  0.39014789912E+02  0.51100000000E-03 0.  1.
         12    1    3    3    0    0 -0.18061330842E+02  0.11879487533E+02 -0.32841137852E+02  0.39317607140E+02  0.00000000000E+00 0. -1.
</event>
<event>
 7    1  0.1501154E-015  0.9000755E+02  0.7816164E-02  0.1186339E+00
        -11   -1    0    0    0    0  0.00000000000E+00  0.00000000000E+00  0.45593999997E+02  0.45594000000E+02  0.51100000000E-03 0.  1.
         11   -1    0    0    0    0 -0.00000000000E+00 -0.00000000000E+00 -0.45593999997E+02  0.45594000000E+02  0.51100000000E-03 0. -1.
    9900012    2    1    2    0    0 -0.10563129445E+01  0.44341814177E-03  0.52693527383E+00  0.90007551773E+02  0.89999810656E+02 0.  0.
         12    1    1    2    0    0  0.10563129445E+01 -0.44341814177E-03 -0.52693527383E+00  0.11804482268E+01  0.00000000000E+00 0. -1.
         11    1    3    3    0    0 -0.28526591363E+02 -0.18026762625E+02 -0.34098343672E+01  0.33916921385E+02  0.51100000000E-03 0. -1.
        -11    1    3    3    0    0 -0.42279187967E+01 -0.11593640109E+02 -0.12227290220E+01  0.12400921532E+02  0.51100000000E-03 0.  1.
        -12    1    3    3    0    0  0.31698197215E+02  0.29620846152E+02  0.51594986631E+01  0.43689708856E+02  0.00000000000E+00 0.  1.
</event>
<event>
 7    1  0.1501154E-015  0.9000778E+02  0.7816164E-02  0.1186339E+00
        -11   -1    0    0    0    0  0.00000000000E+00  0.00000000000E+00  0.45593999997E+02  0.45594000000E+02  0.51100000000E-03 0.  1.
         11   -1    0    0    0    0 -0.00000000000E+00 -0.00000000000E+00 -0.45593999997E+02  0.45594000000E+02  0.51100000000E-03 0. -1.
    9900012    2    1    2    0    0 -0.33640257366E+00  0.11196844321E+01 -0.16145053956E+00  0.90007777057E+02  0.90000038914E+02 0.  0.
         12    1    1    2    0    0  0.33640257366E+00 -0.11196844321E+01  0.16145053956E+00  0.11802229432E+01  0.00000000000E+00 0. -1.
         11    1    3    3    0    0 -0.24489579761E+01 -0.26917849135E+02 -0.25345598608E+02  0.37053574271E+02  0.51100000000E-03 0. -1.
        -11    1    3    3    0    0  0.68661390915E+01  0.13789487252E+01 -0.76650107208E+01  0.10382569779E+02  0.51100000000E-03 0.  1.
        -12    1    3    3    0    0 -0.47535836891E+01  0.26658584842E+02  0.32849158789E+02  0.42571633006E+02  0.00000000000E+00 0.  1.
</event>
<event>
 7    1  0.1501154E-015  0.9000695E+02  0.7816164E-02  0.1186341E+00
        -11   -1    0    0    0    0  0.00000000000E+00  0.00000000000E+00  0.45593999997E+02  0.45594000000E+02  0.51100000000E-03 0.  1.
         11   -1    0    0    0    0 -0.00000000000E+00 -0.00000000000E+00 -0.45593999997E+02  0.45594000000E+02  0.51100000000E-03 0. -1.
    9900012    2    1    2    0    0  0.22697037932E-02  0.32831352887E+00  0.11344925790E+01  0.90006954558E+02  0.89999205554E+02 0.  0.
         12    1    1    2    0    0 -0.22697037932E-02 -0.32831352887E+00 -0.11344925790E+01  0.11810454422E+01  0.00000000000E+00 0. -1.
         11    1    3    3    0    0 -0.20928871011E+01  0.17216298670E+02 -0.68680323837E+01  0.18653444331E+02  0.51100000000E-03 0. -1.
        -11    1    3    3    0    0 -0.15229238546E+02  0.18164707622E+02  0.19394758889E+02  0.30627487365E+02  0.51100000000E-03 0.  1.
         12    1    3    3    0    0  0.17324395351E+02 -0.35052692764E+02 -0.11392233926E+02  0.40726022861E+02  0.00000000000E+00 0. -1.
</event>
<event>
 7    1  0.1501154E-015  0.9000778E+02  0.7816164E-02  0.1186339E+00
        -11   -1    0    0    0    0  0.00000000000E+00  0.00000000000E+00  0.45593999997E+02  0.45594000000E+02  0.51100000000E-03 0.  1.
         11   -1    0    0    0    0 -0.00000000000E+00 -0.00000000000E+00 -0.45593999997E+02  0.45594000000E+02  0.51100000000E-03 0. -1.
    9900012    2    1    2    0    0 -0.22517514989E+00 -0.75616121795E+00  0.87774839848E+00  0.90007777188E+02  0.90000039047E+02 0.  0.
         12    1    1    2    0    0  0.22517514989E+00  0.75616121795E+00 -0.87774839848E+00  0.11802228123E+01  0.00000000000E+00 0. -1.
         11    1    3    3    0    0 -0.23540301940E+02  0.24544783537E+02 -0.11877509515E+02  0.36023151539E+02  0.51100000000E-03 0. -1.
        -11    1    3    3    0    0 -0.33246670411E+01  0.72602168712E+01 -0.37126020243E+01  0.88061100381E+01  0.51100000000E-03 0.  1.
        -12    1    3    3    0    0  0.26639793831E+02 -0.32561161626E+02  0.16467859938E+02  0.45178515610E+02  0.00000000000E+00 0.  1.
</event>
<event>
 7    1  0.1501154E-015  0.9000803E+02  0.7816164E-02  0.1186338E+00
        -11   -1    0    0    0    0  0.00000000000E+00  0.00000000000E+00  0.45593999997E+02  0.45594000000E+02  0.51100000000E-03 0. -1.
         11   -1    0    0    0    0 -0.00000000000E+00 -0.00000000000E+00 -0.45593999997E+02  0.45594000000E+02  0.51100000000E-03 0.  1.
    9900012    2    1    2    0    0  0.91909080931E+00 -0.58991949750E+00 -0.44676489479E+00  0.90008028898E+02  0.90000294079E+02 0.  0.
         12    1    1    2    0    0 -0.91909080931E+00  0.58991949750E+00  0.44676489479E+00  0.11799711016E+01  0.00000000000E+00 0. -1.
         11    1    3    3    0    0  0.61800716082E+01  0.36408252676E+02  0.69619292188E+01  0.37579550380E+02  0.51100000000E-03 0. -1.
        -11    1    3    3    0    0 -0.70367673525E+01  0.28522606507E+01 -0.98816931099E+01  0.12461915766E+02  0.51100000000E-03 0.  1.
        -12    1    3    3    0    0  0.17757865535E+01 -0.39850432825E+02  0.24729989963E+01  0.39966562752E+02  0.00000000000E+00 0.  1.
</event>
<event>
 7    1  0.1501154E-015  0.9000778E+02  0.7816164E-02  0.1186339E+00
        -11   -1    0    0    0    0  0.00000000000E+00  0.00000000000E+00  0.45593999997E+02  0.45594000000E+02  0.51100000000E-03 0.  1.
         11   -1    0    0    0    0 -0.00000000000E+00 -0.00000000000E+00 -0.45593999997E+02  0.45594000000E+02  0.51100000000E-03 0. -1.
    9900012    2    1    2    0    0 -0.11443680058E+01 -0.23088769976E+00  0.17327431133E+00  0.90007783389E+02  0.90000045329E+02 0.  0.
         12    1    1    2    0    0  0.11443680058E+01  0.23088769976E+00 -0.17327431133E+00  0.11802166113E+01  0.00000000000E+00 0. -1.
         11    1    3    3    0    0 -0.35857962518E+01  0.23550977373E+01  0.48762814703E+01  0.64948088001E+01  0.51100000000E-03 0. -1.
        -11    1    3    3    0    0 -0.39082783205E+02 -0.92536685881E+01 -0.92409233864E+01  0.41212728503E+02  0.51100000000E-03 0.  1.
         12    1    3    3    0    0  0.41524211451E+02  0.66676831510E+01  0.45379162274E+01  0.42300246086E+02  0.00000000000E+00 0. -1.
</event>
<event>
 7    1  0.1501154E-015  0.9000775E+02  0.7816164E-02  0.1186339E+00
        -11   -1    0    0    0    0  0.00000000000E+00  0.00000000000E+00  0.45593999997E+02  0.45594000000E+02  0.51100000000E-03 0.  1.
         11   -1    0    0    0    0 -0.00000000000E+00 -0.00000000000E+00 -0.45593999997E+02  0.45594000000E+02  0.51100000000E-03 0. -1.
    9900012    2    1    2    0    0  0.15384102789E-01  0.85245318654E+00  0.81613099221E+00  0.90007753033E+02  0.90000014573E+02 0.  0.
         12    1    1    2    0    0 -0.15384102789E-01 -0.85245318654E+00 -0.81613099221E+00  0.11802469667E+01  0.00000000000E+00 0. -1.
         11    1    3    3    0    0 -0.24322556435E+02 -0.91424730350E+01  0.27870458810E+02  0.38104252246E+02  0.51100000000E-03 0. -1.
        -11    1    3    3    0    0 -0.81260146095E+01 -0.10913533540E+01  0.24603169458E-01  0.81990103765E+01  0.51100000000E-03 0.  1.
        -12    1    3    3    0    0  0.32463955147E+02  0.11086279576E+02 -0.27078930987E+02  0.43704490410E+02  0.00000000000E+00 0.  1.
</event>
<event>
 7    1  0.1501154E-015  0.9000781E+02  0.7816164E-02  0.1186339E+00
        -11   -1    0    0    0    0  0.00000000000E+00  0.00000000000E+00  0.45593999997E+02  0.45594000000E+02  0.51100000000E-03 0. -1.
         11   -1    0    0    0    0 -0.00000000000E+00 -0.00000000000E+00 -0.45593999997E+02  0.45594000000E+02  0.51100000000E-03 0.  1.
    9900012    2    1    2    0    0  0.90773288486E+00 -0.72362855154E+00 -0.21267554702E+00  0.90007810117E+02  0.90000072411E+02 0.  0.
         12    1    1    2    0    0 -0.90773288486E+00  0.72362855154E+00  0.21267554702E+00  0.11801898827E+01  0.00000000000E+00 0. -1.
         11    1    3    3    0    0  0.11775487543E+02 -0.67241021000E+00 -0.76569495180E+00  0.11819497933E+02  0.51100000000E-03 0. -1.
        -11    1    3    3    0    0  0.24845088450E+02  0.22435316584E+02 -0.95146179023E+01  0.34801577613E+02  0.51100000000E-03 0.  1.
         12    1    3    3    0    0 -0.35712843108E+02 -0.22486534925E+02  0.10067637307E+02  0.43386734571E+02  0.00000000000E+00 0. -1.
</event>
<event>
 7    1  0.1501154E-015  0.9000777E+02  0.7816164E-02  0.1186339E+00
        -11   -1    0    0    0    0  0.00000000000E+00  0.00000000000E+00  0.45593999997E+02  0.45594000000E+02  0.51100000000E-03 0. -1.
         11   -1    0    0    0    0 -0.00000000000E+00 -0.00000000000E+00 -0.45593999997E+02  0.45594000000E+02  0.51100000000E-03 0.  1.
    9900012    2    1    2    0    0 -0.18174969293E+00  0.92384774703E+00 -0.71163171786E+00  0.90007768111E+02  0.90000029850E+02 0.  0.
         12    1    1    2    0    0  0.18174969293E+00 -0.92384774703E+00  0.71163171786E+00  0.11802318893E+01  0.00000000000E+00 0. -1.
         11    1    3    3    0    0  0.58328683410E+01  0.39589584241E+01 -0.66598840566E+01  0.96979255924E+01  0.51100000000E-03 0. -1.
        -11    1    3    3    0    0  0.17195996704E+02  0.32966598448E+02  0.10654919093E+01  0.37197233622E+02  0.51100000000E-03 0.  1.
         12    1    3    3    0    0 -0.23210614738E+02 -0.36001709125E+02  0.48827604294E+01  0.43112608896E+02  0.00000000000E+00 0. -1.
</event>
<event>
 7    1  0.1501154E-015  0.9000773E+02  0.7816164E-02  0.1186339E+00
        -11   -1    0    0    0    0  0.00000000000E+00  0.00000000000E+00  0.45593999997E+02  0.45594000000E+02  0.51100000000E-03 0.  1.
         11   -1    0    0    0    0 -0.00000000000E+00 -0.00000000000E+00 -0.45593999997E+02  0.45594000000E+02  0.51100000000E-03 0. -1.
    9900012    2    1    2    0    0  0.76817866189E+00 -0.80957367091E+00  0.38409198616E+00  0.90007731116E+02  0.89999992367E+02 0.  0.
         12    1    1    2    0    0 -0.76817866189E+00  0.80957367091E+00 -0.38409198616E+00  0.11802688842E+01  0.00000000000E+00 0. -1.
         11    1    3    3    0    0 -0.76149418346E+01  0.51181575785E+01  0.16868410447E+01  0.93288964574E+01  0.51100000000E-03 0. -1.
        -11    1    3    3    0    0 -0.65794451473E+01 -0.17757003894E+02  0.34929622720E+02  0.39732591526E+02  0.51100000000E-03 0.  1.
         12    1    3    3    0    0  0.14962565644E+02  0.11829272644E+02 -0.36232371779E+02  0.40946243132E+02  0.00000000000E+00 0. -1.
</event>
<event>
 7    1  0.1501154E-015  0.9000767E+02  0.7816164E-02  0.1186339E+00
        -11   -1    0    0    0    0  0.00000000000E+00  0.00000000000E+00  0.45593999997E+02  0.45594000000E+02  0.51100000000E-03 0.  1.
         11   -1    0    0    0    0 -0.00000000000E+00 -0.00000000000E+00 -0.45593999997E+02  0.45594000000E+02  0.51100000000E-03 0. -1.
    9900012    2    1    2    0    0  0.14718775717E+00  0.52026788490E+00 -0.10492111063E+01  0.90007666635E+02  0.89999927034E+02 0.  0.
         12    1    1    2    0    0 -0.14718775717E+00 -0.52026788490E+00  0.10492111063E+01  0.11803333654E+01  0.00000000000E+00 0. -1.
         11    1    3    3    0    0 -0.43412801821E+01 -0.84284791237E+01  0.54707595182E+01  0.10946012238E+02  0.51100000000E-03 0. -1.
        -11    1    3    3    0    0  0.53282444246E+01 -0.33621375646E+02  0.62490403555E+01  0.34609790444E+02  0.51100000000E-03 0.  1.
         12    1    3    3    0    0 -0.83977648536E+00  0.42570122655E+02 -0.12769010980E+02  0.44451863952E+02  0.00000000000E+00 0. -1.
</event>
<event>
 7    1  0.1501154E-015  0.9000772E+02  0.7816164E-02  0.1186339E+00
        -11   -1    0    0    0    0  0.00000000000E+00  0.00000000000E+00  0.45593999997E+02  0.45594000000E+02  0.51100000000E-03 0. -1.
         11   -1    0    0    0    0 -0.00000000000E+00 -0.00000000000E+00 -0.45593999997E+02  0.45594000000E+02  0.51100000000E-03 0.  1.
    9900012    2    1    2    0    0 -0.12977660744E+00 -0.10972310992E+01 -0.41510291244E+00  0.90007716779E+02  0.89999977841E+02 0.  0.
         12    1    1    2    0    0  0.12977660744E+00  0.10972310992E+01  0.41510291244E+00  0.11802832206E+01  0.00000000000E+00 0. -1.
         11    1    3    3    0    0  0.51987544904E+01 -0.87907971496E+01  0.48227123299E+01  0.11294410886E+02  0.51100000000E-03 0. -1.
        -11    1    3    3    0    0  0.21560270460E+02 -0.32659338992E+00 -0.32883529500E+02  0.39322747083E+02  0.51100000000E-03 0.  1.
         12    1    3    3    0    0 -0.26888801557E+02  0.80201594403E+01  0.27645714257E+02  0.39390558811E+02  0.00000000000E+00 0. -1.
</event>
<event>
 7    1  0.1501154E-015  0.9000774E+02  0.7816164E-02  0.1186339E+00
        -11   -1    0    0    0    0  0.00000000000E+00  0.00000000000E+00  0.45593999997E+02  0.45594000000E+02  0.51100000000E-03 0. -1.
         11   -1    0    0    0    0 -0.00000000000E+00 -0.00000000000E+00 -0.45593999997E+02  0.45594000000E+02  0.51100000000E-03 0.  1.
    9900012    2    1    2    0    0 -0.21926344620E+00  0.51159234822E-02 -0.11597056154E+01  0.90007737425E+02  0.89999998759E+02 0.  0.
         12    1    1    2    0    0  0.21926344620E+00 -0.51159234822E-02  0.11597056154E+01  0.11802625750E+01  0.00000000000E+00 0. -1.
         11    1    3    3    0    0  0.11558716150E+01  0.84697035610E+00  0.10660815160E+02  0.10756689924E+02  0.51100000000E-03 0. -1.
        -11    1    3    3    0    0 -0.53047633315E+01 -0.32305850123E+02 -0.28515611210E+02  0.43415994163E+02  0.51100000000E-03 0.  1.
         12    1    3    3    0    0  0.39296282703E+01  0.31463995691E+02  0.16695090435E+02  0.35835053339E+02  0.00000000000E+00 0. -1.
</event>
<event>
 7    1  0.1501154E-015  0.9000769E+02  0.7816164E-02  0.1186339E+00
        -11   -1    0    0    0    0  0.00000000000E+00  0.00000000000E+00  0.45593999997E+02  0.45594000000E+02  0.51100000000E-03 0.  1.
         11   -1    0    0    0    0 -0.00000000000E+00 -0.00000000000E+00 -0.45593999997E+02  0.45594000000E+02  0.51100000000E-03 0. -1.
    9900012    2    1    2    0    0  0.49708884607E-01 -0.22577403919E-01  0.11790449506E+01  0.90007691689E+02  0.89999952420E+02 0.  0.
         12    1    1    2    0    0 -0.49708884607E-01  0.22577403919E-01 -0.11790449506E+01  0.11803083105E+01  0.00000000000E+00 0. -1.
         11    1    3    3    0    0 -0.64294875364E+01  0.22581767631E+01  0.54646387245E+01  0.87349841972E+01  0.51100000000E-03 0. -1.
        -11    1    3    3    0    0 -0.27560663270E+02  0.24144857507E+02 -0.95339548840E+01  0.37861069715E+02  0.51100000000E-03 0.  1.
         12    1    3    3    0    0  0.34039859691E+02 -0.26425611674E+02  0.52483611101E+01  0.43411637777E+02  0.00000000000E+00 0. -1.
</event>
<event>
 7    1  0.1501154E-015  0.9000791E+02  0.7816164E-02  0.1186339E+00
        -11   -1    0    0    0    0  0.00000000000E+00  0.00000000000E+00  0.45593999997E+02  0.45594000000E+02  0.51100000000E-03 0.  1.
         11   -1    0    0    0    0 -0.00000000000E+00 -0.00000000000E+00 -0.45593999997E+02  0.45594000000E+02  0.51100000000E-03 0. -1.
    9900012    2    1    2    0    0 -0.26354678330E+00 -0.25301769263E+00  0.11221108753E+01  0.90007912005E+02  0.90000175643E+02 0.  0.
         12    1    1    2    0    0  0.26354678330E+00  0.25301769263E+00 -0.11221108753E+01  0.11800879952E+01  0.00000000000E+00 0. -1.
         11    1    3    3    0    0  0.12520446189E+02 -0.13005303685E+02 -0.28783884228E+02  0.33976631502E+02  0.51100000000E-03 0. -1.
        -11    1    3    3    0    0  0.76650562175E+01  0.36272446239E+01 -0.82235668585E+01  0.11812579842E+02  0.51100000000E-03 0.  1.
        -12    1    3    3    0    0 -0.20449049189E+02  0.91250413682E+01  0.38129561962E+02  0.44218700661E+02  0.00000000000E+00 0.  1.
</event>
<event>
 7    1  0.1501154E-015  0.9000775E+02  0.7816164E-02  0.1186339E+00
        -11   -1    0    0    0    0  0.00000000000E+00  0.00000000000E+00  0.45593999997E+02  0.45594000000E+02  0.51100000000E-03 0. -1.
         11   -1    0    0    0    0 -0.00000000000E+00 -0.00000000000E+00 -0.45593999997E+02  0.45594000000E+02  0.51100000000E-03 0.  1.
    9900012    2    1    2    0    0 -0.34461782295E+00  0.10869974007E+01 -0.30441777801E+00  0.90007747918E+02  0.90000009391E+02 0.  0.
         12    1    1    2    0    0  0.34461782295E+00 -0.10869974007E+01  0.30441777801E+00  0.11802520818E+01  0.00000000000E+00 0. -1.
         11    1    3    3    0    0 -0.66342486705E+01 -0.38117781838E+00 -0.79565227654E+01  0.10366523368E+02  0.51100000000E-03 0. -1.
        -11    1    3    3    0    0  0.16292650997E+02  0.37850945781E+02  0.35939445488E+00  0.41210116933E+02  0.51100000000E-03 0.  1.
         12    1    3    3    0    0 -0.10003020149E+02 -0.36382770561E+02  0.72927105326E+01  0.38431107618E+02  0.00000000000E+00 0. -1.
</event>
<event>
 7    1  0.1501154E-015  0.9000773E+02  0.7816164E-02  0.1186339E+00
        -11   -1    0    0    0    0  0.00000000000E+00  0.00000000000E+00  0.45593999997E+02  0.45594000000E+02  0.51100000000E-03 0. -1.
         11   -1    0    0    0    0 -0.00000000000E+00 -0.00000000000E+00 -0.45593999997E+02  0.45594000000E+02  0.51100000000E-03 0.  1.
    9900012    2    1    2    0    0 -0.47048245212E+00  0.10803582549E+01 -0.67116563945E-01  0.90007732094E+02  0.89999993358E+02 0.  0.
         12    1    1    2    0    0  0.47048245212E+00 -0.10803582549E+01  0.67116563945E-01  0.11802679060E+01  0.00000000000E+00 0. -1.
         11    1    3    3    0    0  0.12835926130E+02  0.10204436297E+02  0.35115266259E+02  0.38755302146E+02  0.51100000000E-03 0. -1.
        -11    1    3    3    0    0  0.42343523482E+01  0.81178256311E+01 -0.10997232812E+01  0.92216172303E+01  0.51100000000E-03 0.  1.
        -12    1    3    3    0    0 -0.17540760930E+02 -0.17241903673E+02 -0.34082659542E+02  0.42030812718E+02  0.00000000000E+00 0.  1.
</event>
<event>
 7    1  0.1501154E-015  0.9000775E+02  0.7816164E-02  0.1186339E+00
        -11   -1    0    0    0    0  0.00000000000E+00  0.00000000000E+00  0.45593999997E+02  0.45594000000E+02  0.51100000000E-03 0.  1.
         11   -1    0    0    0    0 -0.00000000000E+00 -0.00000000000E+00 -0.45593999997E+02  0.45594000000E+02  0.51100000000E-03 0. -1.
    9900012    2    1    2    0    0 -0.66679918858E+00  0.96764226776E+00  0.10969553805E+00  0.90007751794E+02  0.90000013318E+02 0.  0.
         12    1    1    2    0    0  0.66679918858E+00 -0.96764226776E+00 -0.10969553805E+00  0.11802482058E+01  0.00000000000E+00 0. -1.
         11    1    3    3    0    0  0.85743226689E+01 -0.34337456882E+01 -0.11078715032E+02  0.14423853358E+02  0.51100000000E-03 0. -1.
        -11    1    3    3    0    0  0.22916142894E+02 -0.17684425769E+02  0.20508097891E+02  0.35474929165E+02  0.51100000000E-03 0.  1.
         12    1    3    3    0    0 -0.32157264752E+02  0.22085813725E+02 -0.93196873207E+01  0.40108969271E+02  0.00000000000E+00 0. -1.
</event>
<event>
 7    1  0.1501154E-015  0.9000773E+02  0.7816164E-02  0.1186339E+00
        -11   -1    0    0    0    0  0.00000000000E+00  0.00000000000E+00  0.45593999997E+02  0.45594000000E+02  0.51100000000E-03 0.  1.
         11   -1    0    0    0    0 -0.00000000000E+00 -0.00000000000E+00 -0.45593999997E+02  0.45594000000E+02  0.51100000000E-03 0. -1.
    9900012    2    1    2    0    0  0.53548416459E+00  0.60731626382E+00  0.85875816487E+00  0.90007728031E+02  0.89999989241E+02 0.  0.
         12    1    1    2    0    0 -0.53548416459E+00 -0.60731626382E+00 -0.85875816487E+00  0.11802719689E+01  0.00000000000E+00 0. -1.
         11    1    3    3    0    0 -0.14189288417E+02 -0.13278874056E+02 -0.27599653875E+02  0.33755078081E+02  0.51100000000E-03 0. -1.
        -11    1    3    3    0    0 -0.34999270615E+01 -0.91498032749E+01 -0.55947523873E+01  0.11281384841E+02  0.51100000000E-03 0.  1.
        -12    1    3    3    0    0  0.18224699643E+02  0.23035993595E+02  0.34053164427E+02  0.44971265109E+02  0.00000000000E+00 0.  1.
</event>
<event>
 7    1  0.1501154E-015  0.9000769E+02  0.7816164E-02  0.1186339E+00
        -11   -1    0    0    0    0  0.00000000000E+00  0.00000000000E+00  0.45593999997E+02  0.45594000000E+02  0.51100000000E-03 0. -1.
         11   -1    0    0    0    0 -0.00000000000E+00 -0.00000000000E+00 -0.45593999997E+02  0.45594000000E+02  0.51100000000E-03 0.  1.
    9900012    2    1    2    0    0  0.39896596722E+00  0.25111332659E+00 -0.10820795313E+01  0.90007691626E+02  0.89999952355E+02 0.  0.
         12    1    1    2    0    0 -0.39896596722E+00 -0.25111332659E+00  0.10820795313E+01  0.11803083741E+01  0.00000000000E+00 0. -1.
         11    1    3    3    0    0  0.25350207351E+01  0.13779177362E+02  0.38676346068E+02  0.41135772806E+02  0.51100000000E-03 0. -1.
        -11    1    3    3    0    0 -0.82665050012E+01 -0.83054468252E+01 -0.42553720145E+01  0.12466905917E+02  0.51100000000E-03 0.  1.
        -12    1    3    3    0    0  0.61304502333E+01 -0.52226172103E+01 -0.35503053585E+02  0.36405012903E+02  0.00000000000E+00 0.  1.
</event>
<event>
 7    1  0.1501154E-015  0.9000773E+02  0.7816164E-02  0.1186339E+00
        -11   -1    0    0    0    0  0.00000000000E+00  0.00000000000E+00  0.45593999997E+02  0.45594000000E+02  0.51100000000E-03 0. -1.
         11   -1    0    0    0    0 -0.00000000000E+00 -0.00000000000E+00 -0.45593999997E+02  0.45594000000E+02  0.51100000000E-03 0.  1.
    9900012    2    1    2    0    0 -0.65424688841E+00 -0.86783232471E-01 -0.97850381243E+00  0.90007728831E+02  0.89999990052E+02 0.  0.
         12    1    1    2    0    0  0.65424688841E+00  0.86783232471E-01  0.97850381243E+00  0.11802711686E+01  0.00000000000E+00 0. -1.
         11    1    3    3    0    0  0.87665316463E+01  0.98805738066E+01  0.29430025473E+02  0.32258397596E+02  0.51100000000E-03 0. -1.
        -11    1    3    3    0    0 -0.75811293149E+01  0.40991417199E+01  0.11002311221E+02  0.13975955674E+02  0.51100000000E-03 0.  1.
        -12    1    3    3    0    0 -0.18396492198E+01 -0.14066498759E+02 -0.41410840507E+02  0.43773375562E+02  0.00000000000E+00 0.  1.
</event>
<event>
 7    1  0.1501154E-015  0.9000779E+02  0.7816164E-02  0.1186339E+00
        -11   -1    0    0    0    0  0.00000000000E+00  0.00000000000E+00  0.45593999997E+02  0.45594000000E+02  0.51100000000E-03 0.  1.
         11   -1    0    0    0    0 -0.00000000000E+00 -0.00000000000E+00 -0.45593999997E+02  0.45594000000E+02  0.51100000000E-03 0. -1.
    9900012    2    1    2    0    0  0.78581205918E-01 -0.89782496877E+00  0.76198778175E+00  0.90007792366E+02  0.90000054425E+02 0.  0.
         12    1    1    2    0    0 -0.78581205918E-01  0.89782496877E+00 -0.76198778175E+00  0.11802076343E+01  0.00000000000E+00 0. -1.
         11    1    3    3    0    0  0.24189222001E+02  0.21382978322E+02  0.93265420786E+00  0.32298917428E+02  0.51100000000E-03 0. -1.
        -11    1    3    3    0    0  0.74285190046E+01  0.10053317236E+02  0.84631220648E+00  0.12528700119E+02  0.51100000000E-03 0.  1.
        -12    1    3    3    0    0 -0.31539159799E+02 -0.32334120527E+02 -0.10169786326E+01  0.45180174819E+02  0.00000000000E+00 0.  1.
</event>
<event>
 7    1  0.1501154E-015  0.9000771E+02  0.7816164E-02  0.1186339E+00
        -11   -1    0    0    0    0  0.00000000000E+00  0.00000000000E+00  0.45593999997E+02  0.45594000000E+02  0.51100000000E-03 0. -1.
         11   -1    0    0    0    0 -0.00000000000E+00 -0.00000000000E+00 -0.45593999997E+02  0.45594000000E+02  0.51100000000E-03 0.  1.
    9900012    2    1    2    0    0 -0.84593326666E+00  0.68563116791E+00  0.45539232111E+00  0.90007713867E+02  0.89999974890E+02 0.  0.
         12    1    1    2    0    0  0.84593326666E+00 -0.68563116791E+00 -0.45539232111E+00  0.11802861332E+01  0.00000000000E+00 0. -1.
         11    1    3    3    0    0  0.73133320757E+01 -0.30997350916E+01  0.38556944462E+02  0.39366624826E+02  0.51100000000E-03 0. -1.
        -11    1    3    3    0    0 -0.98679011691E+01 -0.18917332915E+01  0.18803410084E+01  0.10222025773E+02  0.51100000000E-03 0.  1.
        -12    1    3    3    0    0  0.17086358268E+01  0.56770995509E+01 -0.39981893149E+02  0.40419063268E+02  0.00000000000E+00 0.  1.
</event>
<event>
 7    1  0.1501154E-015  0.9000766E+02  0.7816164E-02  0.1186339E+00
        -11   -1    0    0    0    0  0.00000000000E+00  0.00000000000E+00  0.45593999997E+02  0.45594000000E+02  0.51100000000E-03 0. -1.
         11   -1    0    0    0    0 -0.00000000000E+00 -0.00000000000E+00 -0.45593999997E+02  0.45594000000E+02  0.51100000000E-03 0.  1.
    9900012    2    1    2    0    0 -0.29912181760E-01 -0.72737669949E+00 -0.92909848957E+00  0.90007662927E+02  0.89999923278E+02 0.  0.
         12    1    1    2    0    0  0.29912181760E-01  0.72737669949E+00  0.92909848957E+00  0.11803370726E+01  0.00000000000E+00 0. -1.
         11    1    3    3    0    0  0.25867378609E+02 -0.29122703520E+01  0.28409529231E+02  0.38531856250E+02  0.51100000000E-03 0. -1.
        -11    1    3    3    0    0 -0.67705018794E+01 -0.69856391642E+01  0.51340739162E+01  0.10999889339E+02  0.51100000000E-03 0.  1.
        -12    1    3    3    0    0 -0.19126788911E+02  0.91705328168E+01 -0.34472701637E+02  0.40475917338E+02  0.00000000000E+00 0.  1.
</event>
<event>
 7    1  0.1501154E-015  0.9000713E+02  0.7816164E-02  0.1186340E+00
        -11   -1    0    0    0    0  0.00000000000E+00  0.00000000000E+00  0.45593999997E+02  0.45594000000E+02  0.51100000000E-03 0.  1.
         11   -1    0    0    0    0 -0.00000000000E+00 -0.00000000000E+00 -0.45593999997E+02  0.45594000000E+02  0.51100000000E-03 0. -1.
    9900012    2    1    2    0    0 -0.23447556304E+00  0.87709848286E+00  0.75509122718E+00  0.90007134512E+02  0.89999387886E+02 0.  0.
         12    1    1    2    0    0  0.23447556304E+00 -0.87709848286E+00 -0.75509122718E+00  0.11808654875E+01  0.00000000000E+00 0. -1.
         11    1    3    3    0    0 -0.38993152192E+02 -0.38589842676E+00  0.66222364163E+01  0.39553367124E+02  0.51100000000E-03 0. -1.
        -11    1    3    3    0    0  0.19097428884E+01  0.10811059425E+02  0.29751255227E+01  0.11374422883E+02  0.51100000000E-03 0.  1.
        -12    1    3    3    0    0  0.36848933740E+02 -0.95480625151E+01 -0.88422707118E+01  0.39079344505E+02  0.00000000000E+00 0.  1.
</event>
<event>
 7    1  0.1501154E-015  0.9000789E+02  0.7816164E-02  0.1186339E+00
        -11   -1    0    0    0    0  0.00000000000E+00  0.00000000000E+00  0.45593999997E+02  0.45594000000E+02  0.51100000000E-03 0. -1.
         11   -1    0    0    0    0 -0.00000000000E+00 -0.00000000000E+00 -0.45593999997E+02  0.45594000000E+02  0.51100000000E-03 0.  1.
    9900012    2    1    2    0    0 -0.75775034962E+00 -0.85986144397E+00 -0.28126343817E+00  0.90007891354E+02  0.90000154720E+02 0.  0.
         12    1    1    2    0    0  0.75775034962E+00  0.85986144397E+00  0.28126343817E+00  0.11801086462E+01  0.00000000000E+00 0. -1.
         11    1    3    3    0    0  0.22750335197E+01  0.10949961991E+02 -0.14093757004E+01  0.11272257327E+02  0.51100000000E-03 0. -1.
        -11    1    3    3    0    0 -0.21905280528E+02  0.47976212457E+01 -0.30799930475E+02  0.38098480313E+02  0.51100000000E-03 0.  1.
         12    1    3    3    0    0  0.18872496659E+02 -0.16607444681E+02  0.31928042737E+02  0.40637153714E+02  0.00000000000E+00 0. -1.
</event>
<event>
 7    1  0.1501154E-015  0.9000774E+02  0.7816164E-02  0.1186339E+00
        -11   -1    0    0    0    0  0.00000000000E+00  0.00000000000E+00  0.45593999997E+02  0.45594000000E+02  0.51100000000E-03 0. -1.
         11   -1    0    0    0    0 -0.00000000000E+00 -0.00000000000E+00 -0.45593999997E+02  0.45594000000E+02  0.51100000000E-03 0.  1.
    9900012    2    1    2    0    0 -0.10056399226E+01  0.19914178913E+00 -0.58484731245E+00  0.90007739230E+02  0.90000000588E+02 0.  0.
         12    1    1    2    0    0  0.10056399226E+01 -0.19914178913E+00  0.58484731245E+00  0.11802607699E+01  0.00000000000E+00 0. -1.
         11    1    3    3    0    0  0.22142253856E+02  0.16320328362E+02  0.18918707332E+02  0.33384876981E+02  0.51100000000E-03 0. -1.
        -11    1    3    3    0    0  0.10864847530E+02  0.18981234303E+01  0.37541811050E+01  0.11650822308E+02  0.51100000000E-03 0.  1.
        -12    1    3    3    0    0 -0.34012741309E+02 -0.18019310003E+02 -0.23257735749E+02  0.44972039942E+02  0.00000000000E+00 0.  1.
</event>
<event>
 7    1  0.1501154E-015  0.9000769E+02  0.7816164E-02  0.1186339E+00
        -11   -1    0    0    0    0  0.00000000000E+00  0.00000000000E+00  0.45593999997E+02  0.45594000000E+02  0.51100000000E-03 0.  1.
         11   -1    0    0    0    0 -0.00000000000E+00 -0.00000000000E+00 -0.45593999997E+02  0.45594000000E+02  0.51100000000E-03 0. -1.
    9900012    2    1    2    0    0  0.82307860373E+00  0.58161831241E-02  0.84595616278E+00  0.90007689005E+02  0.89999949700E+02 0.  0.
         12    1    1    2    0    0 -0.82307860373E+00 -0.58161831241E-02 -0.84595616278E+00  0.11803109951E+01  0.00000000000E+00 0. -1.
         11    1    3    3    0    0 -0.21803403401E+01  0.12358671107E+02 -0.12496670677E+02  0.17710375880E+02  0.51100000000E-03 0. -1.
        -11    1    3    3    0    0 -0.99541305231E+01  0.23017447836E+02 -0.11066877717E+02  0.27411008774E+02  0.51100000000E-03 0.  1.
         12    1    3    3    0    0  0.12957549467E+02 -0.35370302760E+02  0.24409504557E+02  0.44886304351E+02  0.00000000000E+00 0. -1.
</event>
<event>
 7    1  0.1501154E-015  0.9000775E+02  0.7816164E-02  0.1186339E+00
        -11   -1    0    0    0    0  0.00000000000E+00  0.00000000000E+00  0.45593999997E+02  0.45594000000E+02  0.51100000000E-03 0. -1.
         11   -1    0    0    0    0 -0.00000000000E+00 -0.00000000000E+00 -0.45593999997E+02  0.45594000000E+02  0.51100000000E-03 0.  1.
    9900012    2    1    2    0    0 -0.42609564446E+00  0.55598708688E+00 -0.94990275580E+00  0.90007748169E+02  0.90000009645E+02 0.  0.
         12    1    1    2    0    0  0.42609564446E+00 -0.55598708688E+00  0.94990275580E+00  0.11802518310E+01  0.00000000000E+00 0. -1.
         11    1    3    3    0    0  0.14246213816E+02  0.68229350821E+01 -0.27289733816E+02  0.31531517935E+02  0.51100000000E-03 0. -1.
        -11    1    3    3    0    0  0.36169335074E+01  0.39197958066E+01 -0.12923279310E+02  0.13980635019E+02  0.51100000000E-03 0.  1.
        -12    1    3    3    0    0 -0.18289242968E+02 -0.10186743802E+02  0.39263110370E+02  0.44495595215E+02  0.00000000000E+00 0.  1.
</event>
<event>
 7    1  0.1501154E-015  0.9000716E+02  0.7816164E-02  0.1186340E+00
        -11   -1    0    0    0    0  0.00000000000E+00  0.00000000000E+00  0.45593999997E+02  0.45594000000E+02  0.51100000000E-03 0.  1.
         11   -1    0    0    0    0 -0.00000000000E+00 -0.00000000000E+00 -0.45593999997E+02  0.45594000000E+02  0.51100000000E-03 0. -1.
    9900012    2    1    2    0    0  0.67614849370E+00 -0.95486193240E+00 -0.15951962028E+00  0.90007159365E+02  0.89999413067E+02 0.  0.
         12    1    1    2    0    0 -0.67614849370E+00  0.95486193240E+00  0.15951962028E+00  0.11808406348E+01  0.00000000000E+00 0. -1.
         11    1    3    3    0    0  0.14758811377E+02 -0.40482757891E+01  0.53764540943E+00  0.15313396520E+02  0.51100000000E-03 0. -1.
        -11    1    3    3    0    0  0.29212141878E+02  0.41673429615E+01  0.78855532175E+01  0.30543377847E+02  0.51100000000E-03 0.  1.
         12    1    3    3    0    0 -0.43294804761E+02 -0.10739291048E+01 -0.85827182472E+01  0.44150384999E+02  0.00000000000E+00 0. -1.
</event>
<event>
 7    1  0.1501154E-015  0.9000780E+02  0.7816164E-02  0.1186339E+00
        -11   -1    0    0    0    0  0.00000000000E+00  0.00000000000E+00  0.45593999997E+02  0.45594000000E+02  0.51100000000E-03 0. -1.
         11   -1    0    0    0    0 -0.00000000000E+00 -0.00000000000E+00 -0.45593999997E+02  0.45594000000E+02  0.51100000000E-03 0.  1.
    9900012    2    1    2    0    0 -0.90126775167E+00  0.50838022206E+00 -0.56758124985E+00  0.90007795575E+02  0.90000057676E+02 0.  0.
         12    1    1    2    0    0  0.90126775167E+00 -0.50838022206E+00  0.56758124985E+00  0.11802044253E+01  0.00000000000E+00 0. -1.
         11    1    3    3    0    0  0.13443083030E+02  0.30879120217E+02 -0.22557320044E+02  0.40534790422E+02  0.51100000000E-03 0. -1.
        -11    1    3    3    0    0  0.56792164139E+01 -0.75105040267E+01 -0.32580209168E+01  0.99637277344E+01  0.51100000000E-03 0.  1.
        -12    1    3    3    0    0 -0.20023567195E+02 -0.22860235968E+02  0.25247759711E+02  0.39509277419E+02  0.00000000000E+00 0.  1.
</event>
<event>
 7    1  0.1501154E-015  0.9000737E+02  0.7816164E-02  0.1186340E+00
        -11   -1    0    0    0    0  0.00000000000E+00  0.00000000000E+00  0.45593999997E+02  0.45594000000E+02  0.51100000000E-03 0.  1.
         11   -1    0    0    0    0 -0.00000000000E+00 -0.00000000000E+00 -0.45593999997E+02  0.45594000000E+02  0.51100000000E-03 0. -1.
    9900012    2    1    2    0    0  0.70288487029E+00  0.50879304968E-01  0.94722802004E+00  0.90007374417E+02  0.89999630959E+02 0.  0.
         12    1    1    2    0    0 -0.70288487029E+00 -0.50879304968E-01 -0.94722802004E+00  0.11806255827E+01  0.00000000000E+00 0. -1.
         11    1    3    3    0    0  0.29919614327E+02 -0.12317645189E+02 -0.20412812559E+02  0.38256902923E+02  0.51100000000E-03 0. -1.
        -11    1    3    3    0    0  0.57443492057E+01  0.79017381207E+01 -0.12912465083E+01  0.98540514983E+01  0.51100000000E-03 0.  1.
        -12    1    3    3    0    0 -0.34961078662E+02  0.44667863736E+01  0.22651287087E+02  0.41896419996E+02  0.00000000000E+00 0.  1.
</event>
<event>
 7    1  0.1501154E-015  0.9000732E+02  0.7816164E-02  0.1186340E+00
        -11   -1    0    0    0    0  0.00000000000E+00  0.00000000000E+00  0.45593999997E+02  0.45594000000E+02  0.51100000000E-03 0.  1.
         11   -1    0    0    0    0 -0.00000000000E+00 -0.00000000000E+00 -0.45593999997E+02  0.45594000000E+02  0.51100000000E-03 0. -1.
    9900012    2    1    2    0    0  0.96898603692E+00  0.55730302416E-01  0.67227781800E+00  0.90007323384E+02  0.89999579252E+02 0.  0.
         12    1    1    2    0    0 -0.96898603692E+00 -0.55730302416E-01 -0.67227781800E+00  0.11806766157E+01  0.00000000000E+00 0. -1.
         11    1    3    3    0    0 -0.21436372506E+02 -0.31631052066E+02  0.58079193972E+01  0.38649365441E+02  0.51100000000E-03 0. -1.
        -11    1    3    3    0    0  0.57536231341E+01 -0.67495185701E+01  0.13477832513E+01  0.89708806731E+01  0.51100000000E-03 0.  1.
        -12    1    3    3    0    0  0.16651735408E+02  0.38436300939E+02 -0.64834248306E+01  0.42387077270E+02  0.00000000000E+00 0.  1.
</event>
<event>
 7    1  0.1501154E-015  0.9000759E+02  0.7816164E-02  0.1186339E+00
        -11   -1    0    0    0    0  0.00000000000E+00  0.00000000000E+00  0.45593999997E+02  0.45594000000E+02  0.51100000000E-03 0.  1.
         11   -1    0    0    0    0 -0.00000000000E+00 -0.00000000000E+00 -0.45593999997E+02  0.45594000000E+02  0.51100000000E-03 0. -1.
    9900012    2    1    2    0    0 -0.48380605640E+00 -0.80627369064E+00  0.71360037279E+00  0.90007588607E+02  0.89999847977E+02 0.  0.
         12    1    1    2    0    0  0.48380605640E+00  0.80627369064E+00 -0.71360037279E+00  0.11804113929E+01  0.00000000000E+00 0. -1.
         11    1    3    3    0    0  0.16867928686E+02  0.91347349818E+01  0.26358477195E+02  0.32599688981E+02  0.51100000000E-03 0. -1.
        -11    1    3    3    0    0  0.14530967742E+02 -0.32025698133E+01  0.15552445843E+01  0.14960757431E+02  0.51100000000E-03 0.  1.
        -12    1    3    3    0    0 -0.31882702485E+02 -0.67384388592E+01 -0.27200121407E+02  0.42447142195E+02  0.00000000000E+00 0.  1.
</event>
<event>
 7    1  0.1501154E-015  0.9000770E+02  0.7816164E-02  0.1186339E+00
        -11   -1    0    0    0    0  0.00000000000E+00  0.00000000000E+00  0.45593999997E+02  0.45594000000E+02  0.51100000000E-03 0.  1.
         11   -1    0    0    0    0 -0.00000000000E+00 -0.00000000000E+00 -0.45593999997E+02  0.45594000000E+02  0.51100000000E-03 0. -1.
    9900012    2    1    2    0    0 -0.10150574201E+00 -0.36221814062E+00  0.11187522686E+01  0.90007698329E+02  0.89999959147E+02 0.  0.
         12    1    1    2    0    0  0.10150574201E+00  0.36221814062E+00 -0.11187522686E+01  0.11803016714E+01  0.00000000000E+00 0. -1.
         11    1    3    3    0    0 -0.32794210084E+02  0.10641303607E+02 -0.14078176970E+02  0.37241007298E+02  0.51100000000E-03 0. -1.
        -11    1    3    3    0    0 -0.17899251501E+01  0.16820737801E+01 -0.86316021413E+01  0.89742832601E+01  0.51100000000E-03 0.  1.
        -12    1    3    3    0    0  0.34482629492E+02 -0.12685595528E+02  0.23828531380E+02  0.43792407770E+02  0.00000000000E+00 0.  1.
</event>
<event>
 7    1  0.1501154E-015  0.9000745E+02  0.7816164E-02  0.1186340E+00
        -11   -1    0    0    0    0  0.00000000000E+00  0.00000000000E+00  0.45593999997E+02  0.45594000000E+02  0.51100000000E-03 0. -1.
         11   -1    0    0    0    0 -0.00000000000E+00 -0.00000000000E+00 -0.45593999997E+02  0.45594000000E+02  0.51100000000E-03 0.  1.
    9900012    2    1    2    0    0 -0.73874371617E-02  0.11748779498E+01  0.11535960454E+00  0.90007449023E+02  0.89999706550E+02 0.  0.
         12    1    1    2    0    0  0.73874371617E-02 -0.11748779498E+01 -0.11535960454E+00  0.11805509771E+01  0.00000000000E+00 0. -1.
         11    1    3    3    0    0  0.29608890132E+02  0.25310959855E+02  0.10818192622E+02  0.40427272422E+02  0.51100000000E-03 0. -1.
        -11    1    3    3    0    0  0.98194893706E+00  0.42464211455E+01  0.33988600972E+01  0.55270757622E+01  0.51100000000E-03 0.  1.
        -12    1    3    3    0    0 -0.30598226507E+02 -0.28382503051E+02 -0.14101693115E+02  0.44053100838E+02  0.00000000000E+00 0.  1.
</event>
<event>
 7    1  0.1501154E-015  0.9000762E+02  0.7816164E-02  0.1186339E+00
        -11   -1    0    0    0    0  0.00000000000E+00  0.00000000000E+00  0.45593999997E+02  0.45594000000E+02  0.51100000000E-03 0.  1.
         11   -1    0    0    0    0 -0.00000000000E+00 -0.00000000000E+00 -0.45593999997E+02  0.45594000000E+02  0.51100000000E-03 0. -1.
    9900012    2    1    2    0    0  0.65734804440E+00  0.92486589358E+00 -0.32530583978E+00  0.90007615630E+02  0.89999875356E+02 0.  0.
         12    1    1    2    0    0 -0.65734804440E+00 -0.92486589358E+00  0.32530583978E+00  0.11803843704E+01  0.00000000000E+00 0. -1.
         11    1    3    3    0    0  0.28630996572E+02  0.13155934713E+02 -0.21305729782E+02  0.38036123681E+02  0.51100000000E-03 0. -1.
        -11    1    3    3    0    0  0.31420141332E+01  0.22151903643E+01 -0.68111371843E+01  0.78211834889E+01  0.51100000000E-03 0.  1.
        -12    1    3    3    0    0 -0.31115662661E+02 -0.14446259184E+02  0.27791561127E+02  0.44150308460E+02  0.00000000000E+00 0.  1.
</event>
<event>
 7    1  0.1501154E-015  0.9000771E+02  0.7816164E-02  0.1186339E+00
        -11   -1    0    0    0    0  0.00000000000E+00  0.00000000000E+00  0.45593999997E+02  0.45594000000E+02  0.51100000000E-03 0.  1.
         11   -1    0    0    0    0 -0.00000000000E+00 -0.00000000000E+00 -0.45593999997E+02  0.45594000000E+02  0.51100000000E-03 0. -1.
    9900012    2    1    2    0    0  0.29530735127E-01  0.11428724459E+01  0.29336688053E+00  0.90007706130E+02  0.89999967051E+02 0.  0.
         12    1    1    2    0    0 -0.29530735127E-01 -0.11428724459E+01 -0.29336688053E+00  0.11802938696E+01  0.00000000000E+00 0. -1.
         11    1    3    3    0    0  0.25173643144E+02  0.22332166496E+02 -0.21527035996E+02  0.39948106946E+02  0.51100000000E-03 0. -1.
        -11    1    3    3    0    0  0.68624235607E+01 -0.45723835080E+01  0.78499770466E+01  0.11385152083E+02  0.51100000000E-03 0.  1.
        -12    1    3    3    0    0 -0.32006535969E+02 -0.16616910542E+02  0.13970425830E+02  0.38674447101E+02  0.00000000000E+00 0.  1.
</event>
<event>
 7    1  0.1501154E-015  0.9000751E+02  0.7816164E-02  0.1186339E+00
        -11   -1    0    0    0    0  0.00000000000E+00  0.00000000000E+00  0.45593999997E+02  0.45594000000E+02  0.51100000000E-03 0. -1.
         11   -1    0    0    0    0 -0.00000000000E+00 -0.00000000000E+00 -0.45593999997E+02  0.45594000000E+02  0.51100000000E-03 0.  1.
    9900012    2    1    2    0    0 -0.54332683934E+00  0.10275781210E+01  0.20598836211E+00  0.90007511942E+02  0.89999770300E+02 0.  0.
         12    1    1    2    0    0  0.54332683934E+00 -0.10275781210E+01 -0.20598836211E+00  0.11804880578E+01  0.00000000000E+00 0. -1.
         11    1    3    3    0    0 -0.11293248652E+02  0.37645824995E+02 -0.17898724734E+02  0.43186918760E+02  0.51100000000E-03 0. -1.
        -11    1    3    3    0    0 -0.44675933509E+01 -0.32337357555E+01  0.60856036951E+01  0.82128563776E+01  0.51100000000E-03 0.  1.
        -12    1    3    3    0    0  0.15217515164E+02 -0.33384511118E+02  0.12019109401E+02  0.38607736804E+02  0.00000000000E+00 0.  1.
</event>
<event>
 7    1  0.1501154E-015  0.9000789E+02  0.7816164E-02  0.1186339E+00
        -11   -1    0    0    0    0  0.00000000000E+00  0.00000000000E+00  0.45593999997E+02  0.45594000000E+02  0.51100000000E-03 0. -1.
         11   -1    0    0    0    0 -0.00000000000E+00 -0.00000000000E+00 -0.45593999997E+02  0.45594000000E+02  0.51100000000E-03 0.  1.
    9900012    2    1    2    0    0 -0.90798112108E+00 -0.29831542141E+00 -0.69226705926E+00  0.90007891747E+02  0.90000155118E+02 0.  0.
         12    1    1    2    0    0  0.90798112108E+00  0.29831542141E+00  0.69226705926E+00  0.11801082528E+01  0.00000000000E+00 0. -1.
         11    1    3    3    0    0 -0.39463639343E+01  0.29204608106E+00 -0.16917844175E+02  0.17374479301E+02  0.51100000000E-03 0. -1.
        -11    1    3    3    0    0 -0.30639620239E+02 -0.26281553310E+01 -0.71687977390E+01  0.31576655778E+02  0.51100000000E-03 0.  1.
         12    1    3    3    0    0  0.33678003052E+02  0.20377938285E+01  0.23394374854E+02  0.41056756668E+02  0.00000000000E+00 0. -1.
</event>
<event>
 7    1  0.1501154E-015  0.9000778E+02  0.7816164E-02  0.1186339E+00
        -11   -1    0    0    0    0  0.00000000000E+00  0.00000000000E+00  0.45593999997E+02  0.45594000000E+02  0.51100000000E-03 0.  1.
         11   -1    0    0    0    0 -0.00000000000E+00 -0.00000000000E+00 -0.45593999997E+02  0.45594000000E+02  0.51100000000E-03 0. -1.
    9900012    2    1    2    0    0 -0.37480118651E+00  0.73573061701E+00  0.84329509203E+00  0.90007778799E+02  0.90000040679E+02 0.  0.
         12    1    1    2    0    0  0.37480118651E+00 -0.73573061701E+00 -0.84329509203E+00  0.11802212006E+01  0.00000000000E+00 0. -1.
         11    1    3    3    0    0 -0.78083114572E+01 -0.60702726247E+01 -0.15433284898E+01  0.10009985047E+02  0.51100000000E-03 0. -1.
        -11    1    3    3    0    0 -0.30094126889E+02 -0.16424830227E+02 -0.67074602727E+01  0.34934532268E+02  0.51100000000E-03 0.  1.
         12    1    3    3    0    0  0.37527637160E+02  0.23230833469E+02  0.90940838546E+01  0.45063261484E+02  0.00000000000E+00 0. -1.
</event>
<event>
 7    1  0.1501154E-015  0.9000776E+02  0.7816164E-02  0.1186339E+00
        -11   -1    0    0    0    0  0.00000000000E+00  0.00000000000E+00  0.45593999997E+02  0.45594000000E+02  0.51100000000E-03 0.  1.
         11   -1    0    0    0    0 -0.00000000000E+00 -0.00000000000E+00 -0.45593999997E+02  0.45594000000E+02  0.51100000000E-03 0. -1.
    9900012    2    1    2    0    0 -0.29983579405E+00  0.11188704957E+01 -0.22625738158E+00  0.90007760578E+02  0.90000022218E+02 0.  0.
         12    1    1    2    0    0  0.29983579405E+00 -0.11188704957E+01  0.22625738158E+00  0.11802394215E+01  0.00000000000E+00 0. -1.
         11    1    3    3    0    0 -0.78958459759E+01  0.37042735495E+01 -0.54091843613E+01  0.10262811599E+02  0.51100000000E-03 0. -1.
        -11    1    3    3    0    0 -0.95376874097E+01 -0.37862917274E+02 -0.46257269633E+01  0.39318765696E+02  0.51100000000E-03 0.  1.
         12    1    3    3    0    0  0.17133697592E+02  0.35277514220E+02  0.98086539429E+01  0.40426183284E+02  0.00000000000E+00 0. -1.
</event>
<event>
 7    1  0.1501154E-015  0.9000777E+02  0.7816164E-02  0.1186339E+00
        -11   -1    0    0    0    0  0.00000000000E+00  0.00000000000E+00  0.45593999997E+02  0.45594000000E+02  0.51100000000E-03 0.  1.
         11   -1    0    0    0    0 -0.00000000000E+00 -0.00000000000E+00 -0.45593999997E+02  0.45594000000E+02  0.51100000000E-03 0. -1.
    9900012    2    1    2    0    0 -0.11692389408E+01  0.13927745913E+00  0.80120421606E-01  0.90007772398E+02  0.90000034193E+02 0.  0.
         12    1    1    2    0    0  0.11692389408E+01 -0.13927745913E+00 -0.80120421606E-01  0.11802276023E+01  0.00000000000E+00 0. -1.
         11    1    3    3    0    0  0.22664946681E+01  0.87011974237E+01  0.52666359335E+01  0.10420426527E+02  0.51100000000E-03 0. -1.
        -11    1    3    3    0    0  0.34086163484E+02  0.12434646626E+02 -0.47080860799E+01  0.36587607910E+02  0.51100000000E-03 0.  1.
         12    1    3    3    0    0 -0.37521897093E+02 -0.20996566590E+02 -0.47842943202E+00  0.42999737961E+02  0.00000000000E+00 0. -1.
</event>
<event>
 7    1  0.1501154E-015  0.9000783E+02  0.7816164E-02  0.1186339E+00
        -11   -1    0    0    0    0  0.00000000000E+00  0.00000000000E+00  0.45593999997E+02  0.45594000000E+02  0.51100000000E-03 0. -1.
         11   -1    0    0    0    0 -0.00000000000E+00 -0.00000000000E+00 -0.45593999997E+02  0.45594000000E+02  0.51100000000E-03 0.  1.
    9900012    2    1    2    0    0 -0.11772105570E+01  0.50677676176E-01 -0.66380885204E-01  0.90007830798E+02  0.90000093365E+02 0.  0.
         12    1    1    2    0    0  0.11772105570E+01 -0.50677676176E-01  0.66380885204E-01  0.11801692015E+01  0.00000000000E+00 0. -1.
         11    1    3    3    0    0 -0.74363127048E+01 -0.31108679713E+01  0.34532308620E+02  0.35460634301E+02  0.51100000000E-03 0. -1.
        -11    1    3    3    0    0  0.15513070535E+02  0.11964825034E+02 -0.21908128707E+01  0.19713245720E+02  0.51100000000E-03 0.  1.
        -12    1    3    3    0    0 -0.92539683870E+01 -0.88032793863E+01 -0.32407876634E+02  0.34833950778E+02  0.00000000000E+00 0.  1.
</event>
<event>
 7    1  0.1501154E-015  0.9000762E+02  0.7816164E-02  0.1186339E+00
        -11   -1    0    0    0    0  0.00000000000E+00  0.00000000000E+00  0.45593999997E+02  0.45594000000E+02  0.51100000000E-03 0.  1.
         11   -1    0    0    0    0 -0.00000000000E+00 -0.00000000000E+00 -0.45593999997E+02  0.45594000000E+02  0.51100000000E-03 0. -1.
    9900012    2    1    2    0    0  0.34020492397E+00 -0.78344776357E-01  0.11275673285E+01  0.90007624901E+02  0.89999884749E+02 0.  0.
         12    1    1    2    0    0 -0.34020492397E+00  0.78344776357E-01 -0.11275673285E+01  0.11803750991E+01  0.00000000000E+00 0. -1.
         11    1    3    3    0    0  0.37950824073E+01 -0.18767937028E+02 -0.34775651455E+02  0.39698665534E+02  0.51100000000E-03 0. -1.
        -11    1    3    3    0    0  0.77929083791E+01  0.58001527304E+01 -0.86797484593E+00  0.97531827264E+01  0.51100000000E-03 0.  1.
        -12    1    3    3    0    0 -0.11247785862E+02  0.12889439521E+02  0.36771193630E+02  0.40555776641E+02  0.00000000000E+00 0.  1.
</event>
<event>
 7    1  0.1501154E-015  0.9000792E+02  0.7816164E-02  0.1186339E+00
        -11   -1    0    0    0    0  0.00000000000E+00  0.00000000000E+00  0.45593999997E+02  0.45594000000E+02  0.51100000000E-03 0.  1.
         11   -1    0    0    0    0 -0.00000000000E+00 -0.00000000000E+00 -0.45593999997E+02  0.45594000000E+02  0.51100000000E-03 0. -1.
    9900012    2    1    2    0    0  0.71579590452E+00 -0.93785992298E+00  0.25516092056E-01  0.90007916917E+02  0.90000180620E+02 0.  0.
         12    1    1    2    0    0 -0.71579590452E+00  0.93785992298E+00 -0.25516092056E-01  0.11800830831E+01  0.00000000000E+00 0. -1.
         11    1    3    3    0    0  0.88670178797E+01  0.49341401014E+00  0.29718387975E+01  0.93647898836E+01  0.51100000000E-03 0. -1.
        -11    1    3    3    0    0  0.55761055987E+01 -0.89421773116E+01  0.36614070196E+02  0.38100467521E+02  0.51100000000E-03 0.  1.
         12    1    3    3    0    0 -0.13727327574E+02  0.75109033785E+01 -0.39560392901E+02  0.42542659513E+02  0.00000000000E+00 0. -1.
</event>
<event>
 7    1  0.1501154E-015  0.9000773E+02  0.7816164E-02  0.1186339E+00
        -11   -1    0    0    0    0  0.00000000000E+00  0.00000000000E+00  0.45593999997E+02  0.45594000000E+02  0.51100000000E-03 0.  1.
         11   -1    0    0    0    0 -0.00000000000E+00 -0.00000000000E+00 -0.45593999997E+02  0.45594000000E+02  0.51100000000E-03 0. -1.
    9900012    2    1    2    0    0  0.11373093675E-01 -0.11798792716E+01 -0.28239067404E-01  0.90007728045E+02  0.89999989255E+02 0.  0.
         12    1    1    2    0    0 -0.11373093675E-01  0.11798792716E+01  0.28239067404E-01  0.11802719550E+01  0.00000000000E+00 0. -1.
         11    1    3    3    0    0  0.92545541886E+01  0.20892297964E+01 -0.63486880741E+01  0.11415668833E+02  0.51100000000E-03 0. -1.
        -11    1    3    3    0    0  0.16673361837E+02  0.29341878840E+02  0.13452857179E+02  0.36330788807E+02  0.51100000000E-03 0.  1.
         12    1    3    3    0    0 -0.25916542932E+02 -0.32610987908E+02 -0.71324081721E+01  0.42261270405E+02  0.00000000000E+00 0. -1.
</event>
<event>
 7    1  0.1501154E-015  0.9000773E+02  0.7816164E-02  0.1186339E+00
        -11   -1    0    0    0    0  0.00000000000E+00  0.00000000000E+00  0.45593999997E+02  0.45594000000E+02  0.51100000000E-03 0.  1.
         11   -1    0    0    0    0 -0.00000000000E+00 -0.00000000000E+00 -0.45593999997E+02  0.45594000000E+02  0.51100000000E-03 0. -1.
    9900012    2    1    2    0    0  0.99987362730E+00 -0.70874055305E-02  0.62709186256E+00  0.90007728122E+02  0.89999989333E+02 0.  0.
         12    1    1    2    0    0 -0.99987362730E+00  0.70874055305E-02 -0.62709186256E+00  0.11802718780E+01  0.00000000000E+00 0. -1.
         11    1    3    3    0    0 -0.68007930000E+01  0.10404718619E+02  0.47624587191E+01  0.13311272226E+02  0.51100000000E-03 0. -1.
        -11    1    3    3    0    0 -0.76671624662E+01 -0.31193364259E+02  0.22749022827E+02  0.39361521743E+02  0.51100000000E-03 0.  1.
         12    1    3    3    0    0  0.15467829093E+02  0.20781558235E+02 -0.26884389684E+02  0.37334934153E+02  0.00000000000E+00 0. -1.
</event>
<event>
 7    1  0.1501154E-015  0.9000777E+02  0.7816164E-02  0.1186339E+00
        -11   -1    0    0    0    0  0.00000000000E+00  0.00000000000E+00  0.45593999997E+02  0.45594000000E+02  0.51100000000E-03 0.  1.
         11   -1    0    0    0    0 -0.00000000000E+00 -0.00000000000E+00 -0.45593999997E+02  0.45594000000E+02  0.51100000000E-03 0. -1.
    9900012    2    1    2    0    0 -0.70946113574E+00 -0.93400342520E+00  0.13131807242E+00  0.90007770388E+02  0.90000032157E+02 0.  0.
         12    1    1    2    0    0  0.70946113574E+00  0.93400342520E+00 -0.13131807242E+00  0.11802296122E+01  0.00000000000E+00 0. -1.
         11    1    3    3    0    0  0.65019067356E+01  0.13139244664E+01  0.80375047245E+01  0.10421260536E+02  0.51100000000E-03 0. -1.
        -11    1    3    3    0    0 -0.17144942673E+02  0.20802803993E+02  0.25965275291E+02  0.37428615182E+02  0.51100000000E-03 0.  1.
         12    1    3    3    0    0  0.99335748021E+01 -0.23050731885E+02 -0.33871461943E+02  0.42157894669E+02  0.00000000000E+00 0. -1.
</event>
<event>
 7    1  0.1501154E-015  0.9000804E+02  0.7816164E-02  0.1186338E+00
        -11   -1    0    0    0    0  0.00000000000E+00  0.00000000000E+00  0.45593999997E+02  0.45594000000E+02  0.51100000000E-03 0.  1.
         11   -1    0    0    0    0 -0.00000000000E+00 -0.00000000000E+00 -0.45593999997E+02  0.45594000000E+02  0.51100000000E-03 0. -1.
    9900012    2    1    2    0    0  0.45708162805E+00 -0.69273955268E+00  0.83874466847E+00  0.90008040542E+02  0.90000305877E+02 0.  0.
         12    1    1    2    0    0 -0.45708162805E+00  0.69273955268E+00 -0.83874466847E+00  0.11799594575E+01  0.00000000000E+00 0. -1.
         11    1    3    3    0    0 -0.62115271788E+01  0.53095607084E+01  0.76309730759E+01  0.11180619623E+02  0.51100000000E-03 0. -1.
        -11    1    3    3    0    0 -0.30509038984E+00 -0.19747365642E+02  0.31708517096E+02  0.37356145232E+02  0.51100000000E-03 0.  1.
         12    1    3    3    0    0  0.69736991967E+01  0.13745065381E+02 -0.38500745503E+02  0.41471275687E+02  0.00000000000E+00 0. -1.
</event>
<event>
 7    1  0.1501154E-015  0.9000887E+02  0.7816164E-02  0.1186337E+00
        -11   -1    0    0    0    0  0.00000000000E+00  0.00000000000E+00  0.45593999997E+02  0.45594000000E+02  0.51100000000E-03 0.  1.
         11   -1    0    0    0    0 -0.00000000000E+00 -0.00000000000E+00 -0.45593999997E+02  0.45594000000E+02  0.51100000000E-03 0. -1.
    9900012    2    1    2    0    0 -0.63400729989E+00  0.99069082557E+00  0.83137551888E-01  0.90008870906E+02  0.90001147194E+02 0.  0.
         12    1    1    2    0    0  0.63400729989E+00 -0.99069082557E+00 -0.83137551888E-01  0.11791290942E+01  0.00000000000E+00 0. -1.
         11    1    3    3    0    0 -0.27931685411E+01  0.26886435078E+01  0.81827372135E+01  0.90547105408E+01  0.51100000000E-03 0. -1.
        -11    1    3    3    0    0 -0.74702797074E+01 -0.28451547287E+02  0.24077994787E+02  0.38013753500E+02  0.51100000000E-03 0.  1.
         12    1    3    3    0    0  0.96294409487E+01  0.26753594604E+02 -0.32177594449E+02  0.42940406865E+02  0.00000000000E+00 0. -1.
</event>
<event>
 7    1  0.1501154E-015  0.9000783E+02  0.7816164E-02  0.1186339E+00
        -11   -1    0    0    0    0  0.00000000000E+00  0.00000000000E+00  0.45593999997E+02  0.45594000000E+02  0.51100000000E-03 0.  1.
         11   -1    0    0    0    0 -0.00000000000E+00 -0.00000000000E+00 -0.45593999997E+02  0.45594000000E+02  0.51100000000E-03 0. -1.
    9900012    2    1    2    0    0  0.77898750667E+00 -0.71553931942E+00 -0.52343331913E+00  0.90007830312E+02  0.90000092872E+02 0.  0.
         12    1    1    2    0    0 -0.77898750667E+00  0.71553931942E+00  0.52343331913E+00  0.11801696881E+01  0.00000000000E+00 0. -1.
         11    1    3    3    0    0 -0.75516025861E+01 -0.11472697434E+02 -0.36860299741E+02  0.39336130787E+02  0.51100000000E-03 0. -1.
        -11    1    3    3    0    0  0.81081917028E+01  0.17943270631E+01 -0.40940097228E+01  0.92586877132E+01  0.51100000000E-03 0.  1.
        -12    1    3    3    0    0  0.22239838990E+00  0.89628310510E+01  0.40430876145E+02  0.41413011812E+02  0.00000000000E+00 0.  1.
</event>
<event>
 7    1  0.1501154E-015  0.9000762E+02  0.7816164E-02  0.1186339E+00
        -11   -1    0    0    0    0  0.00000000000E+00  0.00000000000E+00  0.45593999997E+02  0.45594000000E+02  0.51100000000E-03 0. -1.
         11   -1    0    0    0    0 -0.00000000000E+00 -0.00000000000E+00 -0.45593999997E+02  0.45594000000E+02  0.51100000000E-03 0.  1.
    9900012    2    1    2    0    0  0.11640110611E+01  0.68508854110E-01 -0.18352653270E+00  0.90007619891E+02  0.89999879674E+02 0.  0.
         12    1    1    2    0    0 -0.11640110611E+01 -0.68508854110E-01  0.18352653270E+00  0.11803801089E+01  0.00000000000E+00 0. -1.
         11    1    3    3    0    0  0.14934189541E+02 -0.28137498095E+02  0.18946508006E+02  0.37063715169E+02  0.51100000000E-03 0. -1.
        -11    1    3    3    0    0  0.83532298816E+01 -0.98837388022E+00  0.43146612573E+01  0.94535514177E+01  0.51100000000E-03 0.  1.
        -12    1    3    3    0    0 -0.22123408362E+02  0.29194380829E+02 -0.23444695796E+02  0.43490353304E+02  0.00000000000E+00 0.  1.
</event>
<event>
 7    1  0.1501154E-015  0.9000784E+02  0.7816164E-02  0.1186339E+00
        -11   -1    0    0    0    0  0.00000000000E+00  0.00000000000E+00  0.45593999997E+02  0.45594000000E+02  0.51100000000E-03 0. -1.
         11   -1    0    0    0    0 -0.00000000000E+00 -0.00000000000E+00 -0.45593999997E+02  0.45594000000E+02  0.51100000000E-03 0.  1.
    9900012    2    1    2    0    0  0.13647759919E+00 -0.10672405136E+01 -0.48491577799E+00  0.90007842485E+02  0.90000105206E+02 0.  0.
         12    1    1    2    0    0 -0.13647759919E+00  0.10672405136E+01  0.48491577799E+00  0.11801575152E+01  0.00000000000E+00 0. -1.
         11    1    3    3    0    0  0.10921816982E+02  0.38222986839E+01  0.24279718303E+01  0.11823328672E+02  0.51100000000E-03 0. -1.
        -11    1    3    3    0    0  0.20009233715E+02 -0.14676214855E+02 -0.27899536114E+02  0.37338248914E+02  0.51100000000E-03 0.  1.
         12    1    3    3    0    0 -0.30794573097E+02  0.97866756574E+01  0.24986648506E+02  0.40846264899E+02  0.00000000000E+00 0. -1.
</event>
<event>
 7    1  0.1501154E-015  0.9000779E+02  0.7816164E-02  0.1186339E+00
        -11   -1    0    0    0    0  0.00000000000E+00  0.00000000000E+00  0.45593999997E+02  0.45594000000E+02  0.51100000000E-03 0. -1.
         11   -1    0    0    0    0 -0.00000000000E+00 -0.00000000000E+00 -0.45593999997E+02  0.45594000000E+02  0.51100000000E-03 0.  1.
    9900012    2    1    2    0    0 -0.46566718031E+00  0.90672050080E+00 -0.59489631706E+00  0.90007792553E+02  0.90000054615E+02 0.  0.
         12    1    1    2    0    0  0.46566718031E+00 -0.90672050080E+00  0.59489631706E+00  0.11802074468E+01  0.00000000000E+00 0. -1.
         11    1    3    3    0    0 -0.35537822838E+01  0.66932182731E+01 -0.45877579198E+01  0.88586715914E+01  0.51100000000E-03 0. -1.
        -11    1    3    3    0    0  0.32297658631E+02  0.18399342260E+00 -0.24011431996E+02  0.40245763421E+02  0.51100000000E-03 0.  1.
         12    1    3    3    0    0 -0.29209543527E+02 -0.59704911949E+01  0.28004293598E+02  0.40903357541E+02  0.00000000000E+00 0. -1.
</event>
<event>
 7    1  0.1501154E-015  0.9000774E+02  0.7816164E-02  0.1186339E+00
        -11   -1    0    0    0    0  0.00000000000E+00  0.00000000000E+00  0.45593999997E+02  0.45594000000E+02  0.51100000000E-03 0.  1.
         11   -1    0    0    0    0 -0.00000000000E+00 -0.00000000000E+00 -0.45593999997E+02  0.45594000000E+02  0.51100000000E-03 0. -1.
    9900012    2    1    2    0    0  0.19474752574E+00 -0.11403985264E+01  0.23363899568E+00  0.90007736225E+02  0.89999997543E+02 0.  0.
         12    1    1    2    0    0 -0.19474752574E+00  0.11403985264E+01 -0.23363899568E+00  0.11802637748E+01  0.00000000000E+00 0. -1.
         11    1    3    3    0    0  0.11991987370E+02  0.96333730376E+01  0.39747219659E+01  0.15887355102E+02  0.51100000000E-03 0. -1.
        -11    1    3    3    0    0 -0.37727629203E+02  0.86640335022E+01 -0.12273702600E+02  0.40608906136E+02  0.51100000000E-03 0.  1.
         12    1    3    3    0    0  0.25930389358E+02 -0.19437805066E+02  0.85326196293E+01  0.33511474987E+02  0.00000000000E+00 0. -1.
</event>
<event>
 7    1  0.1501154E-015  0.9000775E+02  0.7816164E-02  0.1186339E+00
        -11   -1    0    0    0    0  0.00000000000E+00  0.00000000000E+00  0.45593999997E+02  0.45594000000E+02  0.51100000000E-03 0. -1.
         11   -1    0    0    0    0 -0.00000000000E+00 -0.00000000000E+00 -0.45593999997E+02  0.45594000000E+02  0.51100000000E-03 0.  1.
    9900012    2    1    2    0    0 -0.50798782328E+00  0.71917644902E+00 -0.78595173847E+00  0.90007751497E+02  0.90000013017E+02 0.  0.
         12    1    1    2    0    0  0.50798782328E+00 -0.71917644902E+00  0.78595173847E+00  0.11802485029E+01  0.00000000000E+00 0. -1.
         11    1    3    3    0    0  0.76162104580E+01  0.10341043990E+02  0.44788602683E+01  0.13601619099E+02  0.51100000000E-03 0. -1.
        -11    1    3    3    0    0  0.24148032282E+02 -0.18777676718E+02 -0.23176215937E+02  0.38377931047E+02  0.51100000000E-03 0.  1.
         12    1    3    3    0    0 -0.32272230564E+02  0.91558091771E+01  0.17911403930E+02  0.38028201351E+02  0.00000000000E+00 0. -1.
</event>
<event>
 7    1  0.1501154E-015  0.9000771E+02  0.7816164E-02  0.1186339E+00
        -11   -1    0    0    0    0  0.00000000000E+00  0.00000000000E+00  0.45593999997E+02  0.45594000000E+02  0.51100000000E-03 0.  1.
         11   -1    0    0    0    0 -0.00000000000E+00 -0.00000000000E+00 -0.45593999997E+02  0.45594000000E+02  0.51100000000E-03 0. -1.
    9900012    2    1    2    0    0 -0.35425682597E+00 -0.10900214084E+01  0.28183333150E+00  0.90007714189E+02  0.89999975216E+02 0.  0.
         12    1    1    2    0    0  0.35425682597E+00  0.10900214084E+01 -0.28183333150E+00  0.11802858112E+01  0.00000000000E+00 0. -1.
         11    1    3    3    0    0  0.10269819432E+02 -0.61119075593E+01 -0.72237827742E+00  0.11972737190E+02  0.51100000000E-03 0. -1.
        -11    1    3    3    0    0  0.36130405054E+01 -0.34372007113E+02  0.82322557666E+01  0.35528284084E+02  0.51100000000E-03 0.  1.
         12    1    3    3    0    0 -0.14237116763E+02  0.39393893264E+02 -0.72280441576E+01  0.42506692915E+02  0.00000000000E+00 0. -1.
</event>
<event>
 7    1  0.1501154E-015  0.9000759E+02  0.7816164E-02  0.1186339E+00
        -11   -1    0    0    0    0  0.00000000000E+00  0.00000000000E+00  0.45593999997E+02  0.45594000000E+02  0.51100000000E-03 0. -1.
         11   -1    0    0    0    0 -0.00000000000E+00 -0.00000000000E+00 -0.45593999997E+02  0.45594000000E+02  0.51100000000E-03 0.  1.
    9900012    2    1    2    0    0  0.66103431205E+00  0.96435345707E+00  0.16256198790E+00  0.90007588906E+02  0.89999848279E+02 0.  0.
         12    1    1    2    0    0 -0.66103431205E+00 -0.96435345707E+00 -0.16256198790E+00  0.11804110944E+01  0.00000000000E+00 0. -1.
         11    1    3    3    0    0 -0.83846131007E+01  0.51280304913E-01 -0.51307881672E+01  0.98300230924E+01  0.51100000000E-03 0. -1.
        -11    1    3    3    0    0 -0.30589763524E+02  0.62208581064E+01  0.20554303085E+02  0.37375287071E+02  0.51100000000E-03 0.  1.
         12    1    3    3    0    0  0.39635410937E+02 -0.53077849542E+01 -0.15260952930E+02  0.42802278743E+02  0.00000000000E+00 0. -1.
</event>
<event>
 7    1  0.1501154E-015  0.9000770E+02  0.7816164E-02  0.1186339E+00
        -11   -1    0    0    0    0  0.00000000000E+00  0.00000000000E+00  0.45593999997E+02  0.45594000000E+02  0.51100000000E-03 0. -1.
         11   -1    0    0    0    0 -0.00000000000E+00 -0.00000000000E+00 -0.45593999997E+02  0.45594000000E+02  0.51100000000E-03 0.  1.
    9900012    2    1    2    0    0  0.11577101399E+01  0.11948501619E+00 -0.19631989208E+00  0.90007698794E+02  0.89999959618E+02 0.  0.
         12    1    1    2    0    0 -0.11577101399E+01 -0.11948501619E+00  0.19631989208E+00  0.11803012061E+01  0.00000000000E+00 0. -1.
         11    1    3    3    0    0  0.36196747536E+02  0.13399784464E+01 -0.58460251932E+01  0.36690272352E+02  0.51100000000E-03 0. -1.
        -11    1    3    3    0    0  0.51415233862E+01 -0.99393264241E+01  0.48441427779E+01  0.12193899787E+02  0.51100000000E-03 0.  1.
        -12    1    3    3    0    0 -0.40180560783E+02  0.87188329939E+01  0.80556252330E+00  0.41123526655E+02  0.00000000000E+00 0.  1.
</event>
<event>
 7    1  0.1501154E-015  0.9000771E+02  0.7816164E-02  0.1186339E+00
        -11   -1    0    0    0    0  0.00000000000E+00  0.00000000000E+00  0.45593999997E+02  0.45594000000E+02  0.51100000000E-03 0.  1.
         11   -1    0    0    0    0 -0.00000000000E+00 -0.00000000000E+00 -0.45593999997E+02  0.45594000000E+02  0.51100000000E-03 0. -1.
    9900012    2    1    2    0    0  0.28755702461E+00  0.67607445645E+00  0.92375464123E+00  0.90007708362E+02  0.89999969313E+02 0.  0.
         12    1    1    2    0    0 -0.28755702461E+00 -0.67607445645E+00 -0.92375464123E+00  0.11802916378E+01  0.00000000000E+00 0. -1.
         11    1    3    3    0    0 -0.71699948037E+01  0.28347206735E+01 -0.26089494200E+00  0.77144366751E+01  0.51100000000E-03 0. -1.
        -11    1    3    3    0    0 -0.14057102305E+02 -0.37633854192E+02  0.56313443392E+01  0.40566256247E+02  0.51100000000E-03 0.  1.
         12    1    3    3    0    0  0.21514654133E+02  0.35475207975E+02 -0.44466947560E+01  0.41727015441E+02  0.00000000000E+00 0. -1.
</event>
<event>
 7    1  0.1501154E-015  0.9000775E+02  0.7816164E-02  0.1186339E+00
        -11   -1    0    0    0    0  0.00000000000E+00  0.00000000000E+00  0.45593999997E+02  0.45594000000E+02  0.51100000000E-03 0. -1.
         11   -1    0    0    0    0 -0.00000000000E+00 -0.00000000000E+00 -0.45593999997E+02  0.45594000000E+02  0.51100000000E-03 0.  1.
    9900012    2    1    2    0    0 -0.36108575160E+00  0.11150229645E+01 -0.13899440610E+00  0.90007754866E+02  0.90000016430E+02 0.  0.
         12    1    1    2    0    0  0.36108575160E+00 -0.11150229645E+01  0.13899440610E+00  0.11802451340E+01  0.00000000000E+00 0. -1.
         11    1    3    3    0    0  0.83105254918E+01 -0.35717645862E+02  0.34490079007E+01  0.36833554208E+02  0.51100000000E-03 0. -1.
        -11    1    3    3    0    0  0.50217963287E+01 -0.42223072379E+01 -0.72053094268E+01  0.97448858882E+01  0.51100000000E-03 0.  1.
        -12    1    3    3    0    0 -0.13693407572E+02  0.41054976064E+02  0.36173071200E+01  0.43429314770E+02  0.00000000000E+00 0.  1.
</event>
<event>
 7    1  0.1501154E-015  0.9000762E+02  0.7816164E-02  0.1186339E+00
        -11   -1    0    0    0    0  0.00000000000E+00  0.00000000000E+00  0.45593999997E+02  0.45594000000E+02  0.51100000000E-03 0.  1.
         11   -1    0    0    0    0 -0.00000000000E+00 -0.00000000000E+00 -0.45593999997E+02  0.45594000000E+02  0.51100000000E-03 0. -1.
    9900012    2    1    2    0    0  0.55378334623E+00 -0.50017463783E+00  0.91457538258E+00  0.90007619217E+02  0.89999878990E+02 0.  0.
         12    1    1    2    0    0 -0.55378334623E+00  0.50017463783E+00 -0.91457538258E+00  0.11803807832E+01  0.00000000000E+00 0. -1.
         11    1    3    3    0    0 -0.21570199861E+02  0.60131356101E+01 -0.24341440133E+01  0.22524572788E+02  0.51100000000E-03 0. -1.
        -11    1    3    3    0    0  0.17482755583E+01 -0.14177126336E+02  0.29906780756E+02  0.33143067360E+02  0.51100000000E-03 0.  1.
         12    1    3    3    0    0  0.20375707649E+02  0.76638160886E+01 -0.26558061360E+02  0.34339979069E+02  0.00000000000E+00 0. -1.
</event>
<event>
 7    1  0.1501154E-015  0.9000766E+02  0.7816164E-02  0.1186339E+00
        -11   -1    0    0    0    0  0.00000000000E+00  0.00000000000E+00  0.45593999997E+02  0.45594000000E+02  0.51100000000E-03 0.  1.
         11   -1    0    0    0    0 -0.00000000000E+00 -0.00000000000E+00 -0.45593999997E+02  0.45594000000E+02  0.51100000000E-03 0. -1.
    9900012    2    1    2    0    0 -0.41232139061E+00  0.56354987222E-01  0.11045418205E+01  0.90007662147E+02  0.89999922487E+02 0.  0.
         12    1    1    2    0    0  0.41232139061E+00 -0.56354987222E-01 -0.11045418205E+01  0.11803378529E+01  0.00000000000E+00 0. -1.
         11    1    3    3    0    0  0.88508692488E+01 -0.36173640165E+00  0.63773549179E+01  0.10915099436E+02  0.51100000000E-03 0. -1.
        -11    1    3    3    0    0 -0.19481846553E+02  0.31644220725E+02  0.15453682787E+02  0.40245687500E+02  0.51100000000E-03 0.  1.
         12    1    3    3    0    0  0.10218655914E+02 -0.31226129336E+02 -0.20726495884E+02  0.38846875211E+02  0.00000000000E+00 0. -1.
</event>
<event>
 7    1  0.1501154E-015  0.9000769E+02  0.7816164E-02  0.1186339E+00
        -11   -1    0    0    0    0  0.00000000000E+00  0.00000000000E+00  0.45593999997E+02  0.45594000000E+02  0.51100000000E-03 0.  1.
         11   -1    0    0    0    0 -0.00000000000E+00 -0.00000000000E+00 -0.45593999997E+02  0.45594000000E+02  0.51100000000E-03 0. -1.
    9900012    2    1    2    0    0  0.21093978628E+00  0.28522036398E+00  0.11257429093E+01  0.90007685064E+02  0.89999945707E+02 0.  0.
         12    1    1    2    0    0 -0.21093978628E+00 -0.28522036398E+00 -0.11257429093E+01  0.11803149357E+01  0.00000000000E+00 0. -1.
         11    1    3    3    0    0  0.84683935011E+01  0.90444792434E+00  0.10622649096E+02  0.13615152904E+02  0.51100000000E-03 0. -1.
        -11    1    3    3    0    0 -0.23264954992E+01  0.85963561715E+01  0.32133008914E+02  0.33344267617E+02  0.51100000000E-03 0.  1.
         12    1    3    3    0    0 -0.59309582156E+01 -0.92155837319E+01 -0.41629915101E+02  0.43048264543E+02  0.00000000000E+00 0. -1.
</event>
<event>
 7    1  0.1501154E-015  0.9000775E+02  0.7816164E-02  0.1186339E+00
        -11   -1    0    0    0    0  0.00000000000E+00  0.00000000000E+00  0.45593999997E+02  0.45594000000E+02  0.51100000000E-03 0. -1.
         11   -1    0    0    0    0 -0.00000000000E+00 -0.00000000000E+00 -0.45593999997E+02  0.45594000000E+02  0.51100000000E-03 0.  1.
    9900012    2    1    2    0    0 -0.47565445614E+00  0.10742767642E+01 -0.11258041845E+00  0.90007749146E+02  0.90000010635E+02 0.  0.
         12    1    1    2    0    0  0.47565445614E+00 -0.10742767642E+01  0.11258041845E+00  0.11802508540E+01  0.00000000000E+00 0. -1.
         11    1    3    3    0    0 -0.29487617693E+02  0.20840652371E+02 -0.97285598599E+01  0.37396487344E+02  0.51100000000E-03 0. -1.
        -11    1    3    3    0    0 -0.93903524416E+01 -0.39619622870E+01  0.15832209393E+01  0.10314186974E+02  0.51100000000E-03 0.  1.
        -12    1    3    3    0    0  0.38402315678E+02 -0.15804413319E+02  0.80327585022E+01  0.42297074828E+02  0.00000000000E+00 0.  1.
</event>
<event>
 7    1  0.1974373E-015  0.9000778E+02  0.7816164E-02  0.1186339E+00
        -11   -1    0    0    0    0  0.00000000000E+00  0.00000000000E+00  0.45593999997E+02  0.45594000000E+02  0.51100000000E-03 0. -1.
         11   -1    0    0    0    0 -0.00000000000E+00 -0.00000000000E+00 -0.45593999997E+02  0.45594000000E+02  0.51100000000E-03 0.  1.
    9900012    2    1    2    0    0 -0.80224020401E+00  0.53856145134E-03  0.86563817312E+00  0.90007780071E+02  0.90000041968E+02 0.  0.
         12    1    1    2    0    0  0.80224020401E+00 -0.53856145134E-03 -0.86563817312E+00  0.11802199294E+01  0.00000000000E+00 0. -1.
         11    1    3    3    0    0  0.15725070573E+02  0.29339011382E+02 -0.23851357857E+02  0.40950490904E+02  0.51100000000E-03 0. -1.
        -11    1    3    3    0    0 -0.73819936954E+01 -0.38829041998E+01 -0.43037648840E+01  0.93857960973E+01  0.51100000000E-03 0.  1.
        -12    1    3    3    0    0 -0.91453170817E+01 -0.25455568621E+02  0.29020760914E+02  0.39671493069E+02  0.00000000000E+00 0.  1.
</event>
<event>
 7    1  0.1501154E-015  0.9000772E+02  0.7816164E-02  0.1186339E+00
        -11   -1    0    0    0    0  0.00000000000E+00  0.00000000000E+00  0.45593999997E+02  0.45594000000E+02  0.51100000000E-03 0.  1.
         11   -1    0    0    0    0 -0.00000000000E+00 -0.00000000000E+00 -0.45593999997E+02  0.45594000000E+02  0.51100000000E-03 0. -1.
    9900012    2    1    2    0    0 -0.69003672045E+00  0.49574755897E+00  0.81923366095E+00  0.90007720326E+02  0.89999981434E+02 0.  0.
         12    1    1    2    0    0  0.69003672045E+00 -0.49574755897E+00 -0.81923366095E+00  0.11802796741E+01  0.00000000000E+00 0. -1.
         11    1    3    3    0    0 -0.70283267977E+01  0.61583048976E+01  0.32110207224E+01  0.98809286572E+01  0.51100000000E-03 0. -1.
        -11    1    3    3    0    0 -0.30461647234E+02  0.18768997231E+02 -0.34231708925E+01  0.35943084293E+02  0.51100000000E-03 0.  1.
         12    1    3    3    0    0  0.36799937312E+02 -0.24431554570E+02  0.10313838310E+01  0.44183707375E+02  0.00000000000E+00 0. -1.
</event>
<event>
 7    1  0.1501154E-015  0.9000766E+02  0.7816164E-02  0.1186339E+00
        -11   -1    0    0    0    0  0.00000000000E+00  0.00000000000E+00  0.45593999997E+02  0.45594000000E+02  0.51100000000E-03 0.  1.
         11   -1    0    0    0    0 -0.00000000000E+00 -0.00000000000E+00 -0.45593999997E+02  0.45594000000E+02  0.51100000000E-03 0. -1.
    9900012    2    1    2    0    0 -0.10179427169E+01  0.39877864043E+00  0.44492670410E+00  0.90007664645E+02  0.89999925018E+02 0.  0.
         12    1    1    2    0    0  0.10179427169E+01 -0.39877864043E+00 -0.44492670410E+00  0.11803353553E+01  0.00000000000E+00 0. -1.
         11    1    3    3    0    0  0.22396917823E+02  0.19217849093E+02 -0.35878277558E+00  0.29514003068E+02  0.51100000000E-03 0. -1.
        -11    1    3    3    0    0  0.15946082572E+02 -0.89909859818E+01 -0.61930486904E+01  0.19325352019E+02  0.51100000000E-03 0.  1.
        -12    1    3    3    0    0 -0.39360943112E+02 -0.98280844706E+01  0.69967581701E+01  0.41168309558E+02  0.00000000000E+00 0.  1.
</event>
<event>
 7    1  0.1501154E-015  0.9000783E+02  0.7816164E-02  0.1186339E+00
        -11   -1    0    0    0    0  0.00000000000E+00  0.00000000000E+00  0.45593999997E+02  0.45594000000E+02  0.51100000000E-03 0.  1.
         11   -1    0    0    0    0 -0.00000000000E+00 -0.00000000000E+00 -0.45593999997E+02  0.45594000000E+02  0.51100000000E-03 0. -1.
    9900012    2    1    2    0    0 -0.35623356457E+00 -0.68871088483E+00  0.88971035207E+00  0.90007826476E+02  0.90000088986E+02 0.  0.
         12    1    1    2    0    0  0.35623356457E+00  0.68871088483E+00 -0.88971035207E+00  0.11801735237E+01  0.00000000000E+00 0. -1.
         11    1    3    3    0    0  0.20270798219E+02  0.61658290965E+01 -0.26584372619E+02  0.33994875742E+02  0.51100000000E-03 0. -1.
        -11    1    3    3    0    0  0.21772195730E+01  0.24456272562E+01 -0.10362356420E+02  0.10867373582E+02  0.51100000000E-03 0.  1.
        -12    1    3    3    0    0 -0.22804251357E+02 -0.93001672375E+01  0.37836439391E+02  0.45145577152E+02  0.00000000000E+00 0.  1.
</event>
<event>
 7    1  0.1501154E-015  0.9000779E+02  0.7816164E-02  0.1186339E+00
        -11   -1    0    0    0    0  0.00000000000E+00  0.00000000000E+00  0.45593999997E+02  0.45594000000E+02  0.51100000000E-03 0.  1.
         11   -1    0    0    0    0 -0.00000000000E+00 -0.00000000000E+00 -0.45593999997E+02  0.45594000000E+02  0.51100000000E-03 0. -1.
    9900012    2    1    2    0    0 -0.46515100394E+00 -0.88116566401E+00  0.63251222204E+00  0.90007792351E+02  0.90000054410E+02 0.  0.
         12    1    1    2    0    0  0.46515100394E+00  0.88116566401E+00 -0.63251222204E+00  0.11802076491E+01  0.00000000000E+00 0. -1.
         11    1    3    3    0    0 -0.46219131815E+01 -0.17302785979E+01  0.69464064696E+01  0.85210626441E+01  0.51100000000E-03 0. -1.
        -11    1    3    3    0    0 -0.12637288553E+02  0.33630284793E+02 -0.21250560268E+02  0.41740668768E+02  0.51100000000E-03 0.  1.
         12    1    3    3    0    0  0.16794050731E+02 -0.32781171859E+02  0.14936666020E+02  0.39746060939E+02  0.00000000000E+00 0. -1.
</event>
<event>
 7    1  0.1501154E-015  0.9000774E+02  0.7816164E-02  0.1186339E+00
        -11   -1    0    0    0    0  0.00000000000E+00  0.00000000000E+00  0.45593999997E+02  0.45594000000E+02  0.51100000000E-03 0. -1.
         11   -1    0    0    0    0 -0.00000000000E+00 -0.00000000000E+00 -0.45593999997E+02  0.45594000000E+02  0.51100000000E-03 0.  1.
    9900012    2    1    2    0    0  0.11201629114E+01 -0.28229923888E+00 -0.24199462641E+00  0.90007737653E+02  0.89999998990E+02 0.  0.
         12    1    1    2    0    0 -0.11201629114E+01  0.28229923888E+00  0.24199462641E+00  0.11802623470E+01  0.00000000000E+00 0. -1.
         11    1    3    3    0    0  0.60369465455E+01  0.32297266256E+02  0.10209738771E+02  0.34406349665E+02  0.51100000000E-03 0. -1.
        -11    1    3    3    0    0  0.72517729792E+01 -0.15452332493E+01  0.12915360838E+02  0.14892363915E+02  0.51100000000E-03 0.  1.
        -12    1    3    3    0    0 -0.12168556613E+02 -0.31034332246E+02 -0.23367094235E+02  0.40709024073E+02  0.00000000000E+00 0.  1.
</event>
<event>
 7    1  0.1501154E-015  0.9000766E+02  0.7816164E-02  0.1186339E+00
        -11   -1    0    0    0    0  0.00000000000E+00  0.00000000000E+00  0.45593999997E+02  0.45594000000E+02  0.51100000000E-03 0.  1.
         11   -1    0    0    0    0 -0.00000000000E+00 -0.00000000000E+00 -0.45593999997E+02  0.45594000000E+02  0.51100000000E-03 0. -1.
    9900012    2    1    2    0    0  0.39964875083E+00 -0.14794229083E+00  0.11007273302E+01  0.90007658227E+02  0.89999918516E+02 0.  0.
         12    1    1    2    0    0 -0.39964875083E+00  0.14794229083E+00 -0.11007273302E+01  0.11803417730E+01  0.00000000000E+00 0. -1.
         11    1    3    3    0    0 -0.28824260968E+02  0.22216986586E+02 -0.43379075487E+00  0.36395338822E+02  0.51100000000E-03 0. -1.
        -11    1    3    3    0    0 -0.96727262013E+01 -0.31519608891E+01 -0.45733978618E+00  0.10183597083E+02  0.51100000000E-03 0.  1.
        -12    1    3    3    0    0  0.38896635920E+02 -0.19212967987E+02  0.19918578713E+01  0.43428722322E+02  0.00000000000E+00 0.  1.
</event>
<event>
 7    1  0.1501154E-015  0.9000773E+02  0.7816164E-02  0.1186339E+00
        -11   -1    0    0    0    0  0.00000000000E+00  0.00000000000E+00  0.45593999997E+02  0.45594000000E+02  0.51100000000E-03 0. -1.
         11   -1    0    0    0    0 -0.00000000000E+00 -0.00000000000E+00 -0.45593999997E+02  0.45594000000E+02  0.51100000000E-03 0.  1.
    9900012    2    1    2    0    0  0.31229158862E+00 -0.59804887218E+00 -0.96842345674E+00  0.90007732030E+02  0.89999993293E+02 0.  0.
         12    1    1    2    0    0 -0.31229158862E+00  0.59804887218E+00  0.96842345674E+00  0.11802679702E+01  0.00000000000E+00 0. -1.
         11    1    3    3    0    0  0.34083227898E+00  0.26772760559E+00  0.72608132545E+01  0.72737372850E+01  0.51100000000E-03 0. -1.
        -11    1    3    3    0    0  0.12665922706E+02  0.36625522318E+02 -0.16793449525E+02  0.42235937663E+02  0.51100000000E-03 0.  1.
         12    1    3    3    0    0 -0.12694463397E+02 -0.37491298795E+02  0.85642128141E+01  0.40498057082E+02  0.00000000000E+00 0. -1.
</event>
<event>
 8    1  0.1501154E-015  0.9000787E+02  0.7816164E-02  0.1186339E+00
        -11   -1    0    0    0    0  0.00000000000E+00  0.00000000000E+00  0.45593999997E+02  0.45594000000E+02  0.51100000000E-03 0. -1.
         11   -1    0    0    0    0 -0.00000000000E+00 -0.00000000000E+00 -0.45593999997E+02  0.45594000000E+02  0.51100000000E-03 0.  1.
    9900012    2    1    2    0    0 -0.10628083181E+01 -0.51227229374E+00 -0.26903500027E-01  0.90007869405E+02  0.90000132481E+02 0.  0.
         23    2    3    3    0    0  0.16110750055E+02 -0.18603583112E+02  0.66984271962E+01  0.64172685889E+02  0.58886459525E+02 0.  0.
         12    1    1    2    0    0  0.10628083181E+01  0.51227229374E+00  0.26903500027E-01  0.11801305954E+01  0.00000000000E+00 0. -1.
         11    1    4    4    0    0  0.23003236952E+02 -0.33711528526E+02  0.17454303912E+02  0.44387709911E+02  0.51100000000E-03 0. -1.
        -11    1    4    4    0    0 -0.68924868972E+01  0.15107945414E+02 -0.10755876715E+02  0.19784975978E+02  0.51100000000E-03 0.  1.
        -12    1    3    3    0    0 -0.17173558373E+02  0.18091310818E+02 -0.67253306962E+01  0.25835183516E+02  0.00000000000E+00 0.  1.
</event>
<event>
 7    1  0.1501154E-015  0.9000769E+02  0.7816164E-02  0.1186339E+00
        -11   -1    0    0    0    0  0.00000000000E+00  0.00000000000E+00  0.45593999997E+02  0.45594000000E+02  0.51100000000E-03 0. -1.
         11   -1    0    0    0    0 -0.00000000000E+00 -0.00000000000E+00 -0.45593999997E+02  0.45594000000E+02  0.51100000000E-03 0.  1.
    9900012    2    1    2    0    0 -0.82207599510E-01  0.10237797392E+01 -0.58159619156E+00  0.90007687680E+02  0.89999948357E+02 0.  0.
         12    1    1    2    0    0  0.82207599510E-01 -0.10237797392E+01  0.58159619156E+00  0.11803123205E+01  0.00000000000E+00 0. -1.
         11    1    3    3    0    0  0.75558076041E+01  0.31136966291E+01 -0.53366966526E+00  0.81896360616E+01  0.51100000000E-03 0. -1.
        -11    1    3    3    0    0 -0.13121620910E+02 -0.39949444429E+02 -0.78507288502E+01  0.42775799107E+02  0.51100000000E-03 0.  1.
         12    1    3    3    0    0  0.54836057063E+01  0.37859527539E+02  0.78028023239E+01  0.39042252511E+02  0.00000000000E+00 0. -1.
</event>
<event>
 7    1  0.1501154E-015  0.9000776E+02  0.7816164E-02  0.1186339E+00
        -11   -1    0    0    0    0  0.00000000000E+00  0.00000000000E+00  0.45593999997E+02  0.45594000000E+02  0.51100000000E-03 0. -1.
         11   -1    0    0    0    0 -0.00000000000E+00 -0.00000000000E+00 -0.45593999997E+02  0.45594000000E+02  0.51100000000E-03 0.  1.
    9900012    2    1    2    0    0 -0.11312091646E+01 -0.47250768233E-03 -0.33664771212E+00  0.90007760160E+02  0.90000021794E+02 0.  0.
         12    1    1    2    0    0  0.11312091646E+01  0.47250768232E-03  0.33664771212E+00  0.11802398397E+01  0.00000000000E+00 0. -1.
         11    1    3    3    0    0  0.10727300774E+02 -0.29074923598E+01  0.17011288969E+01  0.11243768652E+02  0.51100000000E-03 0. -1.
        -11    1    3    3    0    0  0.53984871513E+01  0.33813218920E+02  0.17369699222E+02  0.38395102404E+02  0.51100000000E-03 0.  1.
         12    1    3    3    0    0 -0.17256997090E+02 -0.30906199068E+02 -0.19407475831E+02  0.40368889104E+02  0.00000000000E+00 0. -1.
</event>
<event>
 7    1  0.1501154E-015  0.9000806E+02  0.7816164E-02  0.1186338E+00
        -11   -1    0    0    0    0  0.00000000000E+00  0.00000000000E+00  0.45593999997E+02  0.45594000000E+02  0.51100000000E-03 0.  1.
         11   -1    0    0    0    0 -0.00000000000E+00 -0.00000000000E+00 -0.45593999997E+02  0.45594000000E+02  0.51100000000E-03 0. -1.
    9900012    2    1    2    0    0  0.98708224443E+00  0.30319529351E+00  0.57097352784E+00  0.90008055292E+02  0.90000320822E+02 0.  0.
         12    1    1    2    0    0 -0.98708224443E+00 -0.30319529351E+00 -0.57097352784E+00  0.11799447075E+01  0.00000000000E+00 0. -1.
         11    1    3    3    0    0  0.72722099028E+01  0.26944135368E+01  0.23243892343E+01  0.80961525895E+01  0.51100000000E-03 0. -1.
        -11    1    3    3    0    0 -0.15753647001E+02  0.32080764505E+02 -0.20855180499E+02  0.41379842907E+02  0.51100000000E-03 0.  1.
        -12    1    3    3    0    0  0.94685193430E+01 -0.34471982748E+02  0.19101764792E+02  0.40532059796E+02  0.00000000000E+00 0.  1.
</event>
<event>
 7    1  0.1501154E-015  0.9000776E+02  0.7816164E-02  0.1186339E+00
        -11   -1    0    0    0    0  0.00000000000E+00  0.00000000000E+00  0.45593999997E+02  0.45594000000E+02  0.51100000000E-03 0. -1.
         11   -1    0    0    0    0 -0.00000000000E+00 -0.00000000000E+00 -0.45593999997E+02  0.45594000000E+02  0.51100000000E-03 0.  1.
    9900012    2    1    2    0    0  0.16067493416E+00  0.10993227476E+01 -0.39830478127E+00  0.90007756959E+02  0.90000018550E+02 0.  0.
         12    1    1    2    0    0 -0.16067493416E+00 -0.10993227476E+01  0.39830478127E+00  0.11802430414E+01  0.00000000000E+00 0. -1.
         11    1    3    3    0    0  0.21447213343E+02  0.30573185628E+02 -0.67417918324E+01  0.37949366226E+02  0.51100000000E-03 0. -1.
        -11    1    3    3    0    0  0.21913387636E+01  0.71306266972E+01 -0.21211663204E+01  0.77554593346E+01  0.51100000000E-03 0.  1.
        -12    1    3    3    0    0 -0.23477877172E+02 -0.36604489577E+02  0.84646533715E+01  0.44302931398E+02  0.00000000000E+00 0.  1.
</event>
<event>
 7    1  0.1501154E-015  0.9000776E+02  0.7816164E-02  0.1186339E+00
        -11   -1    0    0    0    0  0.00000000000E+00  0.00000000000E+00  0.45593999997E+02  0.45594000000E+02  0.51100000000E-03 0. -1.
         11   -1    0    0    0    0 -0.00000000000E+00 -0.00000000000E+00 -0.45593999997E+02  0.45594000000E+02  0.51100000000E-03 0.  1.
    9900012    2    1    2    0    0 -0.44881513643E+00  0.23646934255E+00 -0.10656486597E+01  0.90007762802E+02  0.90000024471E+02 0.  0.
         12    1    1    2    0    0  0.44881513643E+00 -0.23646934255E+00  0.10656486597E+01  0.11802371976E+01  0.00000000000E+00 0. -1.
         11    1    3    3    0    0  0.50738090429E+01 -0.40714992334E+02 -0.56212871233E+01  0.41413198478E+02  0.51100000000E-03 0. -1.
        -11    1    3    3    0    0 -0.65798858861E+01  0.20626166720E+01  0.67235920830E+01  0.96309904251E+01  0.51100000000E-03 0.  1.
        -12    1    3    3    0    0  0.10572617068E+01  0.38888845005E+02 -0.21679536194E+01  0.38963573899E+02  0.00000000000E+00 0.  1.
</event>
<event>
 7    1  0.1501154E-015  0.9000789E+02  0.7816164E-02  0.1186339E+00
        -11   -1    0    0    0    0  0.00000000000E+00  0.00000000000E+00  0.45593999997E+02  0.45594000000E+02  0.51100000000E-03 0. -1.
         11   -1    0    0    0    0 -0.00000000000E+00 -0.00000000000E+00 -0.45593999997E+02  0.45594000000E+02  0.51100000000E-03 0.  1.
    9900012    2    1    2    0    0 -0.59345295332E+00  0.67510527389E+00 -0.76465823197E+00  0.90007891636E+02  0.90000155006E+02 0.  0.
         12    1    1    2    0    0  0.59345295332E+00 -0.67510527389E+00  0.76465823197E+00  0.11801083638E+01  0.00000000000E+00 0. -1.
         11    1    3    3    0    0  0.65363299706E+01 -0.36438095689E+02  0.41718962764E+01  0.37254035295E+02  0.51100000000E-03 0. -1.
        -11    1    3    3    0    0  0.80508910239E+01 -0.37005151394E+01  0.47512304293E+00  0.88733534102E+01  0.51100000000E-03 0.  1.
        -12    1    3    3    0    0 -0.15180673948E+02  0.40813716102E+02 -0.54116775513E+01  0.43880502931E+02  0.00000000000E+00 0.  1.
</event>
<event>
 7    1  0.1501154E-015  0.9000779E+02  0.7816164E-02  0.1186339E+00
        -11   -1    0    0    0    0  0.00000000000E+00  0.00000000000E+00  0.45593999997E+02  0.45594000000E+02  0.51100000000E-03 0.  1.
         11   -1    0    0    0    0 -0.00000000000E+00 -0.00000000000E+00 -0.45593999997E+02  0.45594000000E+02  0.51100000000E-03 0. -1.
    9900012    2    1    2    0    0  0.10087794152E+01  0.51453552605E+00  0.33243228959E+00  0.90007790721E+02  0.90000052758E+02 0.  0.
         12    1    1    2    0    0 -0.10087794152E+01 -0.51453552605E+00 -0.33243228959E+00  0.11802092794E+01  0.00000000000E+00 0. -1.
         11    1    3    3    0    0 -0.79207485490E+01  0.26644784930E+01 -0.43074115543E+00  0.83679890906E+01  0.51100000000E-03 0. -1.
        -11    1    3    3    0    0 -0.14197533953E+02  0.29557981719E+02  0.19499498354E+02  0.38150684004E+02  0.51100000000E-03 0.  1.
         12    1    3    3    0    0  0.23127061917E+02 -0.31707924686E+02 -0.18736324909E+02  0.43489117626E+02  0.00000000000E+00 0. -1.
</event>
<event>
 7    1  0.1502274E-015  0.9000763E+02  0.7816164E-02  0.1186339E+00
        -11   -1    0    0    0    0  0.00000000000E+00  0.00000000000E+00  0.45593999997E+02  0.45594000000E+02  0.51100000000E-03 0.  1.
         11   -1    0    0    0    0 -0.00000000000E+00 -0.00000000000E+00 -0.45593999997E+02  0.45594000000E+02  0.51100000000E-03 0. -1.
    9900012    2    1    2    0    0 -0.50075947999E+00 -0.73686931871E-01  0.10663425981E+01  0.90007628721E+02  0.89999888620E+02 0.  0.
         12    1    1    2    0    0  0.50075947999E+00  0.73686931871E-01 -0.10663425981E+01  0.11803712794E+01  0.00000000000E+00 0. -1.
         11    1    3    3    0    0 -0.13924303875E+02 -0.60914617695E+01 -0.35153181306E+02  0.38298019545E+02  0.51100000000E-03 0. -1.
        -11    1    3    3    0    0  0.49883485222E+00 -0.89361619360E+01 -0.15477464597E+01  0.90829150454E+01  0.51100000000E-03 0.  1.
        -12    1    3    3    0    0  0.12924709542E+02  0.14953936774E+02  0.37767270363E+02  0.42626694130E+02  0.00000000000E+00 0.  1.
</event>
<event>
 7    1  0.1501154E-015  0.9000775E+02  0.7816164E-02  0.1186339E+00
        -11   -1    0    0    0    0  0.00000000000E+00  0.00000000000E+00  0.45593999997E+02  0.45594000000E+02  0.51100000000E-03 0.  1.
         11   -1    0    0    0    0 -0.00000000000E+00 -0.00000000000E+00 -0.45593999997E+02  0.45594000000E+02  0.51100000000E-03 0. -1.
    9900012    2    1    2    0    0  0.23696929461E-01  0.46603288967E-01  0.11790958185E+01  0.90007745638E+02  0.90000007080E+02 0.  0.
         12    1    1    2    0    0 -0.23696929461E-01 -0.46603288967E-01 -0.11790958185E+01  0.11802543625E+01  0.00000000000E+00 0. -1.
         11    1    3    3    0    0  0.12529232263E+02 -0.28217545974E+01  0.66416890389E+01  0.14458768746E+02  0.51100000000E-03 0. -1.
        -11    1    3    3    0    0 -0.30244064786E+02  0.28299876851E+02  0.72282472840E+01  0.42045618602E+02  0.51100000000E-03 0.  1.
         12    1    3    3    0    0  0.17738529452E+02 -0.25431518964E+02 -0.12690840504E+02  0.33503358289E+02  0.00000000000E+00 0. -1.
</event>
<event>
 7    1  0.1501154E-015  0.9000774E+02  0.7816164E-02  0.1186339E+00
        -11   -1    0    0    0    0  0.00000000000E+00  0.00000000000E+00  0.45593999997E+02  0.45594000000E+02  0.51100000000E-03 0. -1.
         11   -1    0    0    0    0 -0.00000000000E+00 -0.00000000000E+00 -0.45593999997E+02  0.45594000000E+02  0.51100000000E-03 0.  1.
    9900012    2    1    2    0    0 -0.49590103643E+00 -0.91855956524E+00  0.55077234750E+00  0.90007737448E+02  0.89999998782E+02 0.  0.
         12    1    1    2    0    0  0.49590103643E+00  0.91855956524E+00 -0.55077234750E+00  0.11802625520E+01  0.00000000000E+00 0. -1.
         11    1    3    3    0    0 -0.39557214210E+02 -0.71176219490E+00  0.88401956075E+01  0.40539226190E+02  0.51100000000E-03 0. -1.
        -11    1    3    3    0    0  0.30695411244E+01  0.40254854501E+01  0.82133913108E+01  0.96481300213E+01  0.51100000000E-03 0.  1.
        -12    1    3    3    0    0  0.35991772049E+02 -0.42322828204E+01 -0.16502814571E+02  0.39820381237E+02  0.00000000000E+00 0.  1.
</event>
<event>
 7    1  0.1501154E-015  0.9000770E+02  0.7816164E-02  0.1186339E+00
        -11   -1    0    0    0    0  0.00000000000E+00  0.00000000000E+00  0.45593999997E+02  0.45594000000E+02  0.51100000000E-03 0. -1.
         11   -1    0    0    0    0 -0.00000000000E+00 -0.00000000000E+00 -0.45593999997E+02  0.45594000000E+02  0.51100000000E-03 0.  1.
    9900012    2    1    2    0    0 -0.27356923452E+00 -0.18276613306E+00 -0.11335227903E+01  0.90007696013E+02  0.89999956800E+02 0.  0.
         12    1    1    2    0    0  0.27356923452E+00  0.18276613306E+00  0.11335227903E+01  0.11803039870E+01  0.00000000000E+00 0. -1.
         11    1    3    3    0    0 -0.16868368124E+02 -0.21611907928E+02 -0.11914134964E+02  0.29892524478E+02  0.51100000000E-03 0. -1.
        -11    1    3    3    0    0 -0.11227567935E+02  0.73633163871E+01 -0.14657799422E+02  0.19877821664E+02  0.51100000000E-03 0.  1.
        -12    1    3    3    0    0  0.27822366825E+02  0.14065825408E+02  0.25438411596E+02  0.40237349871E+02  0.00000000000E+00 0.  1.
</event>
<event>
 7    1  0.1501154E-015  0.9000774E+02  0.7816164E-02  0.1186339E+00
        -11   -1    0    0    0    0  0.00000000000E+00  0.00000000000E+00  0.45593999997E+02  0.45594000000E+02  0.51100000000E-03 0. -1.
         11   -1    0    0    0    0 -0.00000000000E+00 -0.00000000000E+00 -0.45593999997E+02  0.45594000000E+02  0.51100000000E-03 0.  1.
    9900012    2    1    2    0    0 -0.61506992594E+00 -0.12532473861E+00 -0.99950353872E+00  0.90007735357E+02  0.89999996664E+02 0.  0.
         12    1    1    2    0    0  0.61506992594E+00  0.12532473861E+00  0.99950353872E+00  0.11802646431E+01  0.00000000000E+00 0. -1.
         11    1    3    3    0    0  0.69269127356E+01  0.35411581190E+01 -0.15150298486E+01  0.79257325576E+01  0.51100000000E-03 0. -1.
        -11    1    3    3    0    0 -0.32467663865E+02  0.14106762629E+02 -0.24078897186E+02  0.42812886363E+02  0.51100000000E-03 0.  1.
         12    1    3    3    0    0  0.24925681203E+02 -0.17773245487E+02  0.24594423496E+02  0.39269116437E+02  0.00000000000E+00 0. -1.
</event>
<event>
 7    1  0.1501154E-015  0.9000769E+02  0.7816164E-02  0.1186339E+00
        -11   -1    0    0    0    0  0.00000000000E+00  0.00000000000E+00  0.45593999997E+02  0.45594000000E+02  0.51100000000E-03 0. -1.
         11   -1    0    0    0    0 -0.00000000000E+00 -0.00000000000E+00 -0.45593999997E+02  0.45594000000E+02  0.51100000000E-03 0.  1.
    9900012    2    1    2    0    0 -0.41260261135E-01 -0.82100353170E+00 -0.84697882624E+00  0.90007693963E+02  0.89999954724E+02 0.  0.
         12    1    1    2    0    0  0.41260261135E-01  0.82100353170E+00  0.84697882624E+00  0.11803060367E+01  0.00000000000E+00 0. -1.
         11    1    3    3    0    0 -0.52149007474E+01 -0.79840310623E+00 -0.76235736601E+01  0.92710038797E+01  0.51100000000E-03 0. -1.
        -11    1    3    3    0    0 -0.35541006300E+02 -0.61005035218E+01 -0.81107044370E+01  0.36961639557E+02  0.51100000000E-03 0.  1.
         12    1    3    3    0    0  0.40714646786E+02  0.60779030963E+01  0.14887299271E+02  0.43775050526E+02  0.00000000000E+00 0. -1.
</event>
<event>
 7    1  0.1501154E-015  0.9000758E+02  0.7816164E-02  0.1186339E+00
        -11   -1    0    0    0    0  0.00000000000E+00  0.00000000000E+00  0.45593999997E+02  0.45594000000E+02  0.51100000000E-03 0.  1.
         11   -1    0    0    0    0 -0.00000000000E+00 -0.00000000000E+00 -0.45593999997E+02  0.45594000000E+02  0.51100000000E-03 0. -1.
    9900012    2    1    2    0    0 -0.59635582730E-01  0.57339979564E-01  0.11775170605E+01  0.90007580285E+02  0.89999839545E+02 0.  0.
         12    1    1    2    0    0  0.59635582730E-01 -0.57339979564E-01 -0.11775170605E+01  0.11804197151E+01  0.00000000000E+00 0. -1.
         11    1    3    3    0    0 -0.20952424792E+01  0.10487718951E+02  0.96990623861E+00  0.10738855070E+02  0.51100000000E-03 0. -1.
        -11    1    3    3    0    0 -0.21641310138E+02  0.70930258045E+01  0.29805994475E+02  0.37510726818E+02  0.51100000000E-03 0.  1.
         12    1    3    3    0    0  0.23676917034E+02 -0.17523404776E+02 -0.29598383653E+02  0.41757998396E+02  0.00000000000E+00 0. -1.
</event>
<event>
 7    1  0.1501154E-015  0.9000769E+02  0.7816164E-02  0.1186339E+00
        -11   -1    0    0    0    0  0.00000000000E+00  0.00000000000E+00  0.45593999997E+02  0.45594000000E+02  0.51100000000E-03 0.  1.
         11   -1    0    0    0    0 -0.00000000000E+00 -0.00000000000E+00 -0.45593999997E+02  0.45594000000E+02  0.51100000000E-03 0. -1.
    9900012    2    1    2    0    0 -0.13030422148E+00  0.11469818755E+01 -0.24616283302E+00  0.90007685316E+02  0.89999945962E+02 0.  0.
         12    1    1    2    0    0  0.13030422148E+00 -0.11469818755E+01  0.24616283302E+00  0.11803146840E+01  0.00000000000E+00 0. -1.
         11    1    3    3    0    0  0.43274115728E+01 -0.44372603826E+01 -0.76591465655E+01  0.98528319277E+01  0.51100000000E-03 0. -1.
        -11    1    3    3    0    0  0.30139302040E+02  0.25422836584E+02  0.81659697854E+01  0.40266378162E+02  0.51100000000E-03 0.  1.
         12    1    3    3    0    0 -0.34597017835E+02 -0.19838594326E+02 -0.75298605294E+00  0.39888475226E+02  0.00000000000E+00 0. -1.
</event>
<event>
 7    1  0.1501154E-015  0.9000771E+02  0.7816164E-02  0.1186339E+00
        -11   -1    0    0    0    0  0.00000000000E+00  0.00000000000E+00  0.45593999997E+02  0.45594000000E+02  0.51100000000E-03 0. -1.
         11   -1    0    0    0    0 -0.00000000000E+00 -0.00000000000E+00 -0.45593999997E+02  0.45594000000E+02  0.51100000000E-03 0.  1.
    9900012    2    1    2    0    0 -0.17808359000E+00 -0.57347040194E+00 -0.10161249614E+01  0.90007706814E+02  0.89999967744E+02 0.  0.
         12    1    1    2    0    0  0.17808359000E+00  0.57347040194E+00  0.10161249614E+01  0.11802931857E+01  0.00000000000E+00 0. -1.
         11    1    3    3    0    0  0.26948708512E+01 -0.59953521605E+01  0.70609907898E+01  0.96469771239E+01  0.51100000000E-03 0. -1.
        -11    1    3    3    0    0 -0.38750093024E+02 -0.57444950202E+01  0.71448573149E+01  0.39819818165E+02  0.51100000000E-03 0.  1.
         12    1    3    3    0    0  0.35877138583E+02  0.11166376779E+02 -0.15221973066E+02  0.40540911525E+02  0.00000000000E+00 0. -1.
</event>
<event>
 7    1  0.1501154E-015  0.9000779E+02  0.7816164E-02  0.1186339E+00
        -11   -1    0    0    0    0  0.00000000000E+00  0.00000000000E+00  0.45593999997E+02  0.45594000000E+02  0.51100000000E-03 0. -1.
         11   -1    0    0    0    0 -0.00000000000E+00 -0.00000000000E+00 -0.45593999997E+02  0.45594000000E+02  0.51100000000E-03 0.  1.
    9900012    2    1    2    0    0 -0.75785852430E+00 -0.81492608781E+00  0.39298778036E+00  0.90007790922E+02  0.90000052963E+02 0.  0.
         12    1    1    2    0    0  0.75785852430E+00  0.81492608781E+00 -0.39298778036E+00  0.11802090776E+01  0.00000000000E+00 0. -1.
         11    1    3    3    0    0 -0.14035092846E+02  0.79941460527E+01 -0.28328280166E+02  0.32609533264E+02  0.51100000000E-03 0. -1.
        -11    1    3    3    0    0  0.75380955634E+01 -0.16567255298E+02 -0.76682284432E+01  0.19750912904E+02  0.51100000000E-03 0.  1.
        -12    1    3    3    0    0  0.57391387579E+01  0.77581831572E+01  0.36389496389E+02  0.37647344754E+02  0.00000000000E+00 0.  1.
</event>
<event>
 7    1  0.1501154E-015  0.9000765E+02  0.7816164E-02  0.1186339E+00
        -11   -1    0    0    0    0  0.00000000000E+00  0.00000000000E+00  0.45593999997E+02  0.45594000000E+02  0.51100000000E-03 0. -1.
         11   -1    0    0    0    0 -0.00000000000E+00 -0.00000000000E+00 -0.45593999997E+02  0.45594000000E+02  0.51100000000E-03 0.  1.
    9900012    2    1    2    0    0  0.52480018483E+00 -0.82367629456E+00 -0.66284540729E+00  0.90007651786E+02  0.89999911990E+02 0.  0.
         12    1    1    2    0    0 -0.52480018483E+00  0.82367629456E+00  0.66284540729E+00  0.11803482140E+01  0.00000000000E+00 0. -1.
         11    1    3    3    0    0  0.38132010701E+01  0.87073524202E+01 -0.11995162650E+01  0.95810922186E+01  0.51100000000E-03 0. -1.
        -11    1    3    3    0    0  0.16463110301E+02  0.31093794912E+02  0.18957236533E+01  0.35234242595E+02  0.51100000000E-03 0.  1.
         12    1    3    3    0    0 -0.19751511186E+02 -0.40624823627E+02 -0.13590527955E+01  0.45192316972E+02  0.00000000000E+00 0. -1.
</event>
<event>
 7    1  0.1501154E-015  0.9000772E+02  0.7816164E-02  0.1186339E+00
        -11   -1    0    0    0    0  0.00000000000E+00  0.00000000000E+00  0.45593999997E+02  0.45594000000E+02  0.51100000000E-03 0.  1.
         11   -1    0    0    0    0 -0.00000000000E+00 -0.00000000000E+00 -0.45593999997E+02  0.45594000000E+02  0.51100000000E-03 0. -1.
    9900012    2    1    2    0    0  0.96425321377E+00  0.37773377926E+00 -0.56621533537E+00  0.90007717460E+02  0.89999978530E+02 0.  0.
         12    1    1    2    0    0 -0.96425321377E+00 -0.37773377926E+00  0.56621533537E+00  0.11802825400E+01  0.00000000000E+00 0. -1.
         11    1    3    3    0    0 -0.77082199741E+01 -0.35439927082E+02 -0.10729172465E+02  0.37822218719E+02  0.51100000000E-03 0. -1.
        -11    1    3    3    0    0 -0.35795607031E+01 -0.40875853765E+01  0.88941668523E+01  0.10422466757E+02  0.51100000000E-03 0.  1.
        -12    1    3    3    0    0  0.12252033891E+02  0.39905246238E+02  0.12687902769E+01  0.41763031985E+02  0.00000000000E+00 0.  1.
</event>
<event>
 7    1  0.1501154E-015  0.9000777E+02  0.7816164E-02  0.1186339E+00
        -11   -1    0    0    0    0  0.00000000000E+00  0.00000000000E+00  0.45593999997E+02  0.45594000000E+02  0.51100000000E-03 0.  1.
         11   -1    0    0    0    0 -0.00000000000E+00 -0.00000000000E+00 -0.45593999997E+02  0.45594000000E+02  0.51100000000E-03 0. -1.
    9900012    2    1    2    0    0 -0.98751841698E+00 -0.19771432890E+00  0.61534372885E+00  0.90007774816E+02  0.90000036644E+02 0.  0.
         12    1    1    2    0    0  0.98751841698E+00  0.19771432890E+00 -0.61534372885E+00  0.11802251837E+01  0.00000000000E+00 0. -1.
         11    1    3    3    0    0 -0.21905203591E+01  0.44163102570E+01  0.29179426785E+01  0.57285744706E+01  0.51100000000E-03 0. -1.
        -11    1    3    3    0    0  0.28105946520E+02  0.10652583719E+02 -0.30211895529E+02  0.42616668117E+02  0.51100000000E-03 0.  1.
         12    1    3    3    0    0 -0.26902944578E+02 -0.15266608305E+02  0.27909296580E+02  0.41662532228E+02  0.00000000000E+00 0. -1.
</event>
<event>
 7    1  0.1501154E-015  0.9000769E+02  0.7816164E-02  0.1186339E+00
        -11   -1    0    0    0    0  0.00000000000E+00  0.00000000000E+00  0.45593999997E+02  0.45594000000E+02  0.51100000000E-03 0. -1.
         11   -1    0    0    0    0 -0.00000000000E+00 -0.00000000000E+00 -0.45593999997E+02  0.45594000000E+02  0.51100000000E-03 0.  1.
    9900012    2    1    2    0    0  0.75190416089E+00  0.62175013364E-01  0.90769605833E+00  0.90007687442E+02  0.89999948117E+02 0.  0.
         12    1    1    2    0    0 -0.75190416089E+00 -0.62175013364E-01 -0.90769605833E+00  0.11803125577E+01  0.00000000000E+00 0. -1.
         11    1    3    3    0    0 -0.21854066541E+02  0.29369336338E+02  0.41125080295E+01  0.36838442745E+02  0.51100000000E-03 0. -1.
        -11    1    3    3    0    0 -0.10068414453E+02 -0.10452714904E+02 -0.51376158047E+01  0.15395691439E+02  0.51100000000E-03 0.  1.
        -12    1    3    3    0    0  0.32674385155E+02 -0.18854446421E+02  0.19328038335E+01  0.37773553258E+02  0.00000000000E+00 0.  1.
</event>
<event>
 7    1  0.1501154E-015  0.9000772E+02  0.7816164E-02  0.1186339E+00
        -11   -1    0    0    0    0  0.00000000000E+00  0.00000000000E+00  0.45593999997E+02  0.45594000000E+02  0.51100000000E-03 0.  1.
         11   -1    0    0    0    0 -0.00000000000E+00 -0.00000000000E+00 -0.45593999997E+02  0.45594000000E+02  0.51100000000E-03 0. -1.
    9900012    2    1    2    0    0 -0.67035270876E-01  0.11343720700E+01  0.31899941554E+00  0.90007722767E+02  0.89999983907E+02 0.  0.
         12    1    1    2    0    0  0.67035270876E-01 -0.11343720700E+01 -0.31899941554E+00  0.11802772334E+01  0.00000000000E+00 0. -1.
         11    1    3    3    0    0  0.30671712540E+02  0.47612053374E+01 -0.26412228101E+02  0.40755721316E+02  0.51100000000E-03 0. -1.
        -11    1    3    3    0    0  0.44085979661E+01 -0.38877893183E+01  0.62138621517E+01  0.85535211996E+01  0.51100000000E-03 0.  1.
        -12    1    3    3    0    0 -0.35147345777E+02  0.26095605096E+00  0.20517365365E+02  0.40698480251E+02  0.00000000000E+00 0.  1.
</event>
<event>
 7    1  0.1501154E-015  0.9000775E+02  0.7816164E-02  0.1186339E+00
        -11   -1    0    0    0    0  0.00000000000E+00  0.00000000000E+00  0.45593999997E+02  0.45594000000E+02  0.51100000000E-03 0.  1.
         11   -1    0    0    0    0 -0.00000000000E+00 -0.00000000000E+00 -0.45593999997E+02  0.45594000000E+02  0.51100000000E-03 0. -1.
    9900012    2    1    2    0    0 -0.12291678889E+00 -0.85513235261E+00  0.80413248048E+00  0.90007750482E+02  0.90000011989E+02 0.  0.
         12    1    1    2    0    0  0.12291678889E+00  0.85513235261E+00 -0.80413248048E+00  0.11802495175E+01  0.00000000000E+00 0. -1.
         11    1    3    3    0    0  0.18897376939E+02 -0.89394716653E+01 -0.28525609425E+02  0.35365737687E+02  0.51100000000E-03 0. -1.
        -11    1    3    3    0    0  0.46985376723E+01 -0.79040846547E+01 -0.45851919658E+01  0.10274959665E+02  0.51100000000E-03 0.  1.
        -12    1    3    3    0    0 -0.23718831401E+02  0.15988423967E+02  0.33914933871E+02  0.44367053130E+02  0.00000000000E+00 0.  1.
</event>
<event>
 7    1  0.1501154E-015  0.9000773E+02  0.7816164E-02  0.1186339E+00
        -11   -1    0    0    0    0  0.00000000000E+00  0.00000000000E+00  0.45593999997E+02  0.45594000000E+02  0.51100000000E-03 0.  1.
         11   -1    0    0    0    0 -0.00000000000E+00 -0.00000000000E+00 -0.45593999997E+02  0.45594000000E+02  0.51100000000E-03 0. -1.
    9900012    2    1    2    0    0  0.96815651408E+00 -0.62559205801E+00  0.25365750953E+00  0.90007731136E+02  0.89999992387E+02 0.  0.
         12    1    1    2    0    0 -0.96815651408E+00  0.62559205801E+00 -0.25365750953E+00  0.11802688638E+01  0.00000000000E+00 0. -1.
         11    1    3    3    0    0  0.50409193463E+01 -0.44394106992E+01 -0.73211533796E+01  0.99357195150E+01  0.51100000000E-03 0. -1.
        -11    1    3    3    0    0  0.25168988006E+02  0.25323428278E+02 -0.13413823485E+02  0.38140328234E+02  0.51100000000E-03 0.  1.
         12    1    3    3    0    0 -0.29241750838E+02 -0.21509609637E+02  0.20988634375E+02  0.41931683388E+02  0.00000000000E+00 0. -1.
</event>
<event>
 7    1  0.1501154E-015  0.9000709E+02  0.7816164E-02  0.1186340E+00
        -11   -1    0    0    0    0  0.00000000000E+00  0.00000000000E+00  0.45593999997E+02  0.45594000000E+02  0.51100000000E-03 0. -1.
         11   -1    0    0    0    0 -0.00000000000E+00 -0.00000000000E+00 -0.45593999997E+02  0.45594000000E+02  0.51100000000E-03 0.  1.
    9900012    2    1    2    0    0 -0.62278515089E+00 -0.92090713475E+00  0.39825843240E+00  0.90007093114E+02  0.89999345940E+02 0.  0.
         12    1    1    2    0    0  0.62278515089E+00  0.92090713475E+00 -0.39825843240E+00  0.11809068862E+01  0.00000000000E+00 0. -1.
         11    1    3    3    0    0  0.94352553079E+01  0.23016239975E+01  0.19751861721E+01  0.99107455031E+01  0.51100000000E-03 0. -1.
        -11    1    3    3    0    0 -0.14993955543E+02 -0.27496235198E+02 -0.29322025461E+02  0.42902713554E+02  0.51100000000E-03 0.  1.
         12    1    3    3    0    0  0.49359150839E+01  0.24273704066E+02  0.27745097721E+02  0.37193634057E+02  0.00000000000E+00 0. -1.
</event>
<event>
 7    1  0.1501154E-015  0.9000769E+02  0.7816164E-02  0.1186339E+00
        -11   -1    0    0    0    0  0.00000000000E+00  0.00000000000E+00  0.45593999997E+02  0.45594000000E+02  0.51100000000E-03 0.  1.
         11   -1    0    0    0    0 -0.00000000000E+00 -0.00000000000E+00 -0.45593999997E+02  0.45594000000E+02  0.51100000000E-03 0. -1.
    9900012    2    1    2    0    0  0.46267502044E+00  0.63134131388E+00  0.88344802972E+00  0.90007686292E+02  0.89999946951E+02 0.  0.
         12    1    1    2    0    0 -0.46267502044E+00 -0.63134131388E+00 -0.88344802972E+00  0.11803137085E+01  0.00000000000E+00 0. -1.
         11    1    3    3    0    0  0.61704084932E+01 -0.29872190016E+01  0.49188035227E+01  0.84375379521E+01  0.51100000000E-03 0. -1.
        -11    1    3    3    0    0  0.25767934343E+02  0.12244960076E+02  0.24965394599E+02  0.37910373453E+02  0.51100000000E-03 0.  1.
         12    1    3    3    0    0 -0.31475667816E+02 -0.86263997607E+01 -0.29000750092E+02  0.43659774887E+02  0.00000000000E+00 0. -1.
</event>
<event>
 7    1  0.1501154E-015  0.9000775E+02  0.7816164E-02  0.1186339E+00
        -11   -1    0    0    0    0  0.00000000000E+00  0.00000000000E+00  0.45593999997E+02  0.45594000000E+02  0.51100000000E-03 0. -1.
         11   -1    0    0    0    0 -0.00000000000E+00 -0.00000000000E+00 -0.45593999997E+02  0.45594000000E+02  0.51100000000E-03 0.  1.
    9900012    2    1    2    0    0  0.73865868136E+00  0.88269743814E+00  0.26120349066E+00  0.90007746350E+02  0.90000007802E+02 0.  0.
         12    1    1    2    0    0 -0.73865868136E+00 -0.88269743814E+00 -0.26120349066E+00  0.11802536500E+01  0.00000000000E+00 0. -1.
         11    1    3    3    0    0 -0.80870723617E+01  0.12148141107E+02  0.36103377584E+02  0.38941391154E+02  0.51100000000E-03 0. -1.
        -11    1    3    3    0    0 -0.76880776379E+01  0.53263715431E+01 -0.14520085396E+01  0.94649406043E+01  0.51100000000E-03 0.  1.
        -12    1    3    3    0    0  0.16513808681E+02 -0.16591815212E+02 -0.34390165554E+02  0.41601414592E+02  0.00000000000E+00 0.  1.
</event>
<event>
 7    1  0.1501154E-015  0.9000781E+02  0.7816164E-02  0.1186339E+00
        -11   -1    0    0    0    0  0.00000000000E+00  0.00000000000E+00  0.45593999997E+02  0.45594000000E+02  0.51100000000E-03 0. -1.
         11   -1    0    0    0    0 -0.00000000000E+00 -0.00000000000E+00 -0.45593999997E+02  0.45594000000E+02  0.51100000000E-03 0.  1.
    9900012    2    1    2    0    0  0.11598422371E+01  0.17372293109E+00 -0.13208017876E+00  0.90007805590E+02  0.90000067824E+02 0.  0.
         12    1    1    2    0    0 -0.11598422371E+01 -0.17372293109E+00  0.13208017876E+00  0.11801944100E+01  0.00000000000E+00 0. -1.
         11    1    3    3    0    0  0.95348995123E+01  0.55371878008E+01  0.71906669073E+01  0.13163603165E+02  0.51100000000E-03 0. -1.
        -11    1    3    3    0    0  0.25418048677E+02  0.11611618769E+02  0.16207198867E+02  0.32304491706E+02  0.51100000000E-03 0.  1.
         12    1    3    3    0    0 -0.33793105952E+02 -0.16975083639E+02 -0.23529945953E+02  0.44539710720E+02  0.00000000000E+00 0. -1.
</event>
<event>
 7    1  0.1501154E-015  0.9000776E+02  0.7816164E-02  0.1186339E+00
        -11   -1    0    0    0    0  0.00000000000E+00  0.00000000000E+00  0.45593999997E+02  0.45594000000E+02  0.51100000000E-03 0. -1.
         11   -1    0    0    0    0 -0.00000000000E+00 -0.00000000000E+00 -0.45593999997E+02  0.45594000000E+02  0.51100000000E-03 0.  1.
    9900012    2    1    2    0    0  0.24881523051E+00  0.11104355960E+01  0.31304463135E+00  0.90007757155E+02  0.90000018750E+02 0.  0.
         12    1    1    2    0    0 -0.24881523051E+00 -0.11104355960E+01 -0.31304463135E+00  0.11802428449E+01  0.00000000000E+00 0. -1.
         11    1    3    3    0    0  0.13878925453E+02 -0.34241890846E+02 -0.18133910026E+01  0.36992161976E+02  0.51100000000E-03 0. -1.
        -11    1    3    3    0    0  0.47731928742E+01 -0.26724036635E+01  0.86862066688E+01  0.10265247104E+02  0.51100000000E-03 0.  1.
        -12    1    3    3    0    0 -0.18403303097E+02  0.38024730106E+02 -0.65597710348E+01  0.42750348075E+02  0.00000000000E+00 0.  1.
</event>
<event>
 7    1  0.1501154E-015  0.9000771E+02  0.7816164E-02  0.1186339E+00
        -11   -1    0    0    0    0  0.00000000000E+00  0.00000000000E+00  0.45593999997E+02  0.45594000000E+02  0.51100000000E-03 0.  1.
         11   -1    0    0    0    0 -0.00000000000E+00 -0.00000000000E+00 -0.45593999997E+02  0.45594000000E+02  0.51100000000E-03 0. -1.
    9900012    2    1    2    0    0  0.11719713231E+01  0.13752898465E+00  0.25570241965E-01  0.90007709849E+02  0.89999970819E+02 0.  0.
         12    1    1    2    0    0 -0.11719713231E+01 -0.13752898465E+00 -0.25570241965E-01  0.11802901512E+01  0.00000000000E+00 0. -1.
         11    1    3    3    0    0 -0.19568080120E+02 -0.14188985398E+02 -0.30235926199E+02  0.38709795913E+02  0.51100000000E-03 0. -1.
        -11    1    3    3    0    0  0.33326638616E+01 -0.29452594532E+01 -0.60333801193E+01  0.74955238367E+01  0.51100000000E-03 0.  1.
        -12    1    3    3    0    0  0.17407387582E+02  0.17271773836E+02  0.36294876560E+02  0.43802390099E+02  0.00000000000E+00 0.  1.
</event>
<event>
 7    1  0.1673039E-015  0.9000777E+02  0.7816164E-02  0.1186339E+00
        -11   -1    0    0    0    0  0.00000000000E+00  0.00000000000E+00  0.45593999997E+02  0.45594000000E+02  0.51100000000E-03 0. -1.
         11   -1    0    0    0    0 -0.00000000000E+00 -0.00000000000E+00 -0.45593999997E+02  0.45594000000E+02  0.51100000000E-03 0.  1.
    9900012    2    1    2    0    0  0.25775778324E+00 -0.69862072314E+00 -0.91565951505E+00  0.90007770219E+02  0.90000031985E+02 0.  0.
         12    1    1    2    0    0 -0.25775778324E+00  0.69862072314E+00  0.91565951505E+00  0.11802297815E+01  0.00000000000E+00 0. -1.
         11    1    3    3    0    0  0.48898790300E+01 -0.71260764025E+01  0.43597216454E+01  0.96798272148E+01  0.51100000000E-03 0. -1.
        -11    1    3    3    0    0  0.31899496244E+02 -0.91235239188E+01 -0.19103201742E+02  0.38285099796E+02  0.51100000000E-03 0.  1.
         12    1    3    3    0    0 -0.36531617491E+02  0.15550979598E+02  0.13827820581E+02  0.42042843208E+02  0.00000000000E+00 0. -1.
</event>
<event>
 7    1  0.1501154E-015  0.9000775E+02  0.7816164E-02  0.1186339E+00
        -11   -1    0    0    0    0  0.00000000000E+00  0.00000000000E+00  0.45593999997E+02  0.45594000000E+02  0.51100000000E-03 0.  1.
         11   -1    0    0    0    0 -0.00000000000E+00 -0.00000000000E+00 -0.45593999997E+02  0.45594000000E+02  0.51100000000E-03 0. -1.
    9900012    2    1    2    0    0  0.44778373118E+00  0.10842151569E+01  0.13018987752E+00  0.90007753339E+02  0.90000014883E+02 0.  0.
         12    1    1    2    0    0 -0.44778373118E+00 -0.10842151569E+01 -0.13018987752E+00  0.11802466609E+01  0.00000000000E+00 0. -1.
         11    1    3    3    0    0 -0.36310918681E+02 -0.12952779526E+02 -0.59387077709E+00  0.38556581743E+02  0.51100000000E-03 0. -1.
        -11    1    3    3    0    0 -0.39860319709E+01  0.96159894910E+01 -0.78992872080E+00  0.10439333906E+02  0.51100000000E-03 0.  1.
        -12    1    3    3    0    0  0.40744734383E+02  0.44210051918E+01  0.15139893754E+01  0.41011837690E+02  0.00000000000E+00 0.  1.
</event>
<event>
 7    1  0.2056174E-015  0.9000774E+02  0.7816164E-02  0.1186339E+00
        -11   -1    0    0    0    0  0.00000000000E+00  0.00000000000E+00  0.45593999997E+02  0.45594000000E+02  0.51100000000E-03 0. -1.
         11   -1    0    0    0    0 -0.00000000000E+00 -0.00000000000E+00 -0.45593999997E+02  0.45594000000E+02  0.51100000000E-03 0.  1.
    9900012    2    1    2    0    0 -0.52331115388E+00  0.47379335871E+00 -0.94587259261E+00  0.90007741693E+02  0.90000003083E+02 0.  0.
         12    1    1    2    0    0  0.52331115388E+00 -0.47379335871E+00  0.94587259261E+00  0.11802583073E+01  0.00000000000E+00 0. -1.
         11    1    3    3    0    0  0.12525807856E+02  0.80042696039E+01  0.35987923205E+02  0.38937062180E+02  0.51100000000E-03 0. -1.
        -11    1    3    3    0    0 -0.78905890881E+01  0.39816429293E+01  0.28882865495E+01  0.92982297254E+01  0.51100000000E-03 0.  1.
        -12    1    3    3    0    0 -0.51585299216E+01 -0.11512119175E+02 -0.39822082347E+02  0.41772449788E+02  0.00000000000E+00 0.  1.
</event>
<event>
 7    1  0.1501154E-015  0.9000767E+02  0.7816164E-02  0.1186339E+00
        -11   -1    0    0    0    0  0.00000000000E+00  0.00000000000E+00  0.45593999997E+02  0.45594000000E+02  0.51100000000E-03 0. -1.
         11   -1    0    0    0    0 -0.00000000000E+00 -0.00000000000E+00 -0.45593999997E+02  0.45594000000E+02  0.51100000000E-03 0.  1.
    9900012    2    1    2    0    0 -0.26883728629E+00 -0.29176852779E-01 -0.11489390131E+01  0.90007667152E+02  0.89999927559E+02 0.  0.
         12    1    1    2    0    0  0.26883728629E+00  0.29176852779E-01  0.11489390131E+01  0.11803328476E+01  0.00000000000E+00 0. -1.
         11    1    3    3    0    0  0.98027351661E+00 -0.38949515790E+00  0.20548105793E+02  0.20575162079E+02  0.51100000000E-03 0. -1.
        -11    1    3    3    0    0 -0.31529180489E+02 -0.41917680271E+01 -0.22234202135E+02  0.38807472042E+02  0.51100000000E-03 0.  1.
         12    1    3    3    0    0  0.30280069686E+02  0.45520863322E+01  0.53715732889E+00  0.30625033031E+02  0.00000000000E+00 0. -1.
</event>
<event>
 7    1  0.1501154E-015  0.9000776E+02  0.7816164E-02  0.1186339E+00
        -11   -1    0    0    0    0  0.00000000000E+00  0.00000000000E+00  0.45593999997E+02  0.45594000000E+02  0.51100000000E-03 0. -1.
         11   -1    0    0    0    0 -0.00000000000E+00 -0.00000000000E+00 -0.45593999997E+02  0.45594000000E+02  0.51100000000E-03 0.  1.
    9900012    2    1    2    0    0  0.69231698175E-02  0.95632144939E+00  0.69164758339E+00  0.90007756371E+02  0.90000017955E+02 0.  0.
         12    1    1    2    0    0 -0.69231698175E-02 -0.95632144939E+00 -0.69164758339E+00  0.11802436293E+01  0.00000000000E+00 0. -1.
         11    1    3    3    0    0  0.12410800781E+02  0.25839695491E+02  0.29538639385E+02  0.41161256736E+02  0.51100000000E-03 0. -1.
        -11    1    3    3    0    0  0.98198790068E+00  0.57309768055E+01 -0.60900666682E+01  0.84200538993E+01  0.51100000000E-03 0.  1.
        -12    1    3    3    0    0 -0.13385865512E+02 -0.30614350847E+02 -0.22756925134E+02  0.40426445736E+02  0.00000000000E+00 0.  1.
</event>
<event>
 7    1  0.1501154E-015  0.9000764E+02  0.7816164E-02  0.1186339E+00
        -11   -1    0    0    0    0  0.00000000000E+00  0.00000000000E+00  0.45593999997E+02  0.45594000000E+02  0.51100000000E-03 0.  1.
         11   -1    0    0    0    0 -0.00000000000E+00 -0.00000000000E+00 -0.45593999997E+02  0.45594000000E+02  0.51100000000E-03 0. -1.
    9900012    2    1    2    0    0  0.44251654716E+00  0.58282237049E+00 -0.92614275563E+00  0.90007642760E+02  0.89999902844E+02 0.  0.
         12    1    1    2    0    0 -0.44251654716E+00 -0.58282237049E+00  0.92614275563E+00  0.11803572399E+01  0.00000000000E+00 0. -1.
         11    1    3    3    0    0  0.23135551276E+02  0.61221620894E+01 -0.32562044358E+02  0.40410658674E+02  0.51100000000E-03 0. -1.
        -11    1    3    3    0    0 -0.85781774990E+01 -0.27512790373E+00 -0.50363144587E+01  0.99511450676E+01  0.51100000000E-03 0.  1.
        -12    1    3    3    0    0 -0.14114857229E+02 -0.52642118152E+01  0.36672216061E+02  0.39645839018E+02  0.00000000000E+00 0.  1.
</event>
<event>
 7    1  0.1501154E-015  0.9000770E+02  0.7816164E-02  0.1186339E+00
        -11   -1    0    0    0    0  0.00000000000E+00  0.00000000000E+00  0.45593999997E+02  0.45594000000E+02  0.51100000000E-03 0.  1.
         11   -1    0    0    0    0 -0.00000000000E+00 -0.00000000000E+00 -0.45593999997E+02  0.45594000000E+02  0.51100000000E-03 0. -1.
    9900012    2    1    2    0    0 -0.45223631841E+00  0.59528385434E+00  0.91335567748E+00  0.90007703788E+02  0.89999964678E+02 0.  0.
         12    1    1    2    0    0  0.45223631841E+00 -0.59528385434E+00 -0.91335567748E+00  0.11802962122E+01  0.00000000000E+00 0. -1.
         11    1    3    3    0    0  0.14420078908E+01 -0.84628036191E+01 -0.34396905425E+01  0.92482378398E+01  0.51100000000E-03 0. -1.
        -11    1    3    3    0    0 -0.12825273824E+02 -0.16828226625E+02  0.33914792591E+02  0.39973616508E+02  0.51100000000E-03 0.  1.
         12    1    3    3    0    0  0.10931029614E+02  0.25886314098E+02 -0.29561746371E+02  0.40785849440E+02  0.00000000000E+00 0. -1.
</event>
<event>
 7    1  0.1501154E-015  0.9000771E+02  0.7816164E-02  0.1186339E+00
        -11   -1    0    0    0    0  0.00000000000E+00  0.00000000000E+00  0.45593999997E+02  0.45594000000E+02  0.51100000000E-03 0. -1.
         11   -1    0    0    0    0 -0.00000000000E+00 -0.00000000000E+00 -0.45593999997E+02  0.45594000000E+02  0.51100000000E-03 0.  1.
    9900012    2    1    2    0    0 -0.34608952203E+00 -0.80013605325E+00 -0.79566915654E+00  0.90007709753E+02  0.89999970722E+02 0.  0.
         12    1    1    2    0    0  0.34608952203E+00  0.80013605325E+00  0.79566915654E+00  0.11802902472E+01  0.00000000000E+00 0. -1.
         11    1    3    3    0    0 -0.37504061516E+01  0.28172993015E+01 -0.77326189055E+01  0.90441205794E+01  0.51100000000E-03 0. -1.
        -11    1    3    3    0    0  0.14179561497E+02 -0.28420459914E+02 -0.24047352701E+02  0.39837892492E+02  0.51100000000E-03 0.  1.
         12    1    3    3    0    0 -0.10775244868E+02  0.24803024559E+02  0.30984302450E+02  0.41125696682E+02  0.00000000000E+00 0. -1.
</event>
<event>
 7    1  0.1501154E-015  0.9000771E+02  0.7816164E-02  0.1186339E+00
        -11   -1    0    0    0    0  0.00000000000E+00  0.00000000000E+00  0.45593999997E+02  0.45594000000E+02  0.51100000000E-03 0.  1.
         11   -1    0    0    0    0 -0.00000000000E+00 -0.00000000000E+00 -0.45593999997E+02  0.45594000000E+02  0.51100000000E-03 0. -1.
    9900012    2    1    2    0    0 -0.10151115409E+01 -0.38128381634E+00  0.46611836927E+00  0.90007705493E+02  0.89999966405E+02 0.  0.
         12    1    1    2    0    0  0.10151115409E+01  0.38128381634E+00 -0.46611836927E+00  0.11802945070E+01  0.00000000000E+00 0. -1.
         11    1    3    3    0    0 -0.31322711548E+02 -0.24727730954E+01 -0.17144569268E+02  0.35793339061E+02  0.51100000000E-03 0. -1.
        -11    1    3    3    0    0 -0.81598963355E+01 -0.27835266450E+01 -0.43450965471E+01  0.96546254746E+01  0.51100000000E-03 0.  1.
        -12    1    3    3    0    0  0.38467496342E+02  0.48750159240E+01  0.21955784184E+02  0.44559740958E+02  0.00000000000E+00 0.  1.
</event>
<event>
 7    1  0.1501154E-015  0.9000779E+02  0.7816164E-02  0.1186339E+00
        -11   -1    0    0    0    0  0.00000000000E+00  0.00000000000E+00  0.45593999997E+02  0.45594000000E+02  0.51100000000E-03 0. -1.
         11   -1    0    0    0    0 -0.00000000000E+00 -0.00000000000E+00 -0.45593999997E+02  0.45594000000E+02  0.51100000000E-03 0.  1.
    9900012    2    1    2    0    0  0.83881639193E+00  0.58029363944E+00 -0.59376078364E+00  0.90007785818E+02  0.90000047791E+02 0.  0.
         12    1    1    2    0    0 -0.83881639193E+00 -0.58029363944E+00  0.59376078364E+00  0.11802141821E+01  0.00000000000E+00 0. -1.
         11    1    3    3    0    0  0.46941719315E+01  0.51894894326E+00 -0.27239530346E+01  0.54520160055E+01  0.51100000000E-03 0. -1.
        -11    1    3    3    0    0  0.35877128923E+02 -0.69477775176E+01 -0.16524197987E+02  0.40105973515E+02  0.51100000000E-03 0.  1.
         12    1    3    3    0    0 -0.39732484463E+02  0.70091222138E+01  0.18654390238E+02  0.44449796298E+02  0.00000000000E+00 0. -1.
</event>
<event>
 7    1  0.1501154E-015  0.9000775E+02  0.7816164E-02  0.1186339E+00
        -11   -1    0    0    0    0  0.00000000000E+00  0.00000000000E+00  0.45593999997E+02  0.45594000000E+02  0.51100000000E-03 0.  1.
         11   -1    0    0    0    0 -0.00000000000E+00 -0.00000000000E+00 -0.45593999997E+02  0.45594000000E+02  0.51100000000E-03 0. -1.
    9900012    2    1    2    0    0  0.80025696304E+00 -0.69032206917E+00  0.52540000007E+00  0.90007745398E+02  0.90000006837E+02 0.  0.
         12    1    1    2    0    0 -0.80025696304E+00  0.69032206917E+00 -0.52540000007E+00  0.11802546023E+01  0.00000000000E+00 0. -1.
         11    1    3    3    0    0  0.98574879489E+01  0.30468581486E+01  0.48011234039E+01  0.11379991188E+02  0.51100000000E-03 0. -1.
        -11    1    3    3    0    0 -0.28384885707E+02  0.20602207232E+02  0.18915368497E+02  0.39849013100E+02  0.51100000000E-03 0.  1.
         12    1    3    3    0    0  0.19327654721E+02 -0.24339387449E+02 -0.23191091901E+02  0.38778741109E+02  0.00000000000E+00 0. -1.
</event>
<event>
 7    1  0.1501154E-015  0.9000778E+02  0.7816164E-02  0.1186339E+00
        -11   -1    0    0    0    0  0.00000000000E+00  0.00000000000E+00  0.45593999997E+02  0.45594000000E+02  0.51100000000E-03 0.  1.
         11   -1    0    0    0    0 -0.00000000000E+00 -0.00000000000E+00 -0.45593999997E+02  0.45594000000E+02  0.51100000000E-03 0. -1.
    9900012    2    1    2    0    0 -0.17200695015E+00  0.10120017697E+01 -0.58240227673E+00  0.90007776977E+02  0.90000038833E+02 0.  0.
         12    1    1    2    0    0  0.17200695015E+00 -0.10120017697E+01  0.58240227673E+00  0.11802230233E+01  0.00000000000E+00 0. -1.
         11    1    3    3    0    0 -0.28807037645E+02 -0.73319984993E+01 -0.29222969121E+02  0.41684356111E+02  0.51100000000E-03 0. -1.
        -11    1    3    3    0    0 -0.35468266027E+01  0.54895386612E+01  0.59984836164E+01  0.88711227936E+01  0.51100000000E-03 0.  1.
        -12    1    3    3    0    0  0.32181857298E+02  0.28544616078E+01  0.22642083228E+02  0.39452298072E+02  0.00000000000E+00 0.  1.
</event>
<event>
 7    1  0.1501154E-015  0.9000765E+02  0.7816164E-02  0.1186339E+00
        -11   -1    0    0    0    0  0.00000000000E+00  0.00000000000E+00  0.45593999997E+02  0.45594000000E+02  0.51100000000E-03 0. -1.
         11   -1    0    0    0    0 -0.00000000000E+00 -0.00000000000E+00 -0.45593999997E+02  0.45594000000E+02  0.51100000000E-03 0.  1.
    9900012    2    1    2    0    0 -0.10470280340E+01  0.44603702547E+00 -0.31308090261E+00  0.90007645653E+02  0.89999905776E+02 0.  0.
         12    1    1    2    0    0  0.10470280340E+01 -0.44603702547E+00  0.31308090261E+00  0.11803543467E+01  0.00000000000E+00 0. -1.
         11    1    3    3    0    0  0.30072454164E+02 -0.81708571559E+01 -0.18414101334E+02  0.36196609431E+02  0.51100000000E-03 0. -1.
        -11    1    3    3    0    0  0.68781598681E+01 -0.46394738491E+01 -0.24131507658E+01  0.86404338807E+01  0.51100000000E-03 0.  1.
        -12    1    3    3    0    0 -0.37997642066E+02  0.13256368030E+02  0.20514171197E+02  0.45170602341E+02  0.00000000000E+00 0.  1.
</event>
<event>
 7    1  0.1501154E-015  0.9000787E+02  0.7816164E-02  0.1186339E+00
        -11   -1    0    0    0    0  0.00000000000E+00  0.00000000000E+00  0.45593999997E+02  0.45594000000E+02  0.51100000000E-03 0.  1.
         11   -1    0    0    0    0 -0.00000000000E+00 -0.00000000000E+00 -0.45593999997E+02  0.45594000000E+02  0.51100000000E-03 0. -1.
    9900012    2    1    2    0    0 -0.87392217987E+00  0.13506009267E+00  0.78148712837E+00  0.90007871474E+02  0.90000134578E+02 0.  0.
         12    1    1    2    0    0  0.87392217987E+00 -0.13506009267E+00 -0.78148712837E+00  0.11801285256E+01  0.00000000000E+00 0. -1.
         11    1    3    3    0    0 -0.83136810507E+00  0.40040264169E+01 -0.12271909116E+02  0.12935345148E+02  0.51100000000E-03 0. -1.
        -11    1    3    3    0    0  0.24742824870E+02 -0.27882924488E+02 -0.58332316790E+01  0.37731836062E+02  0.51100000000E-03 0.  1.
         12    1    3    3    0    0 -0.24785378945E+02  0.24013958163E+02  0.18886627924E+02  0.39340690264E+02  0.00000000000E+00 0. -1.
</event>
<event>
 7    1  0.1501154E-015  0.9000782E+02  0.7816164E-02  0.1186339E+00
        -11   -1    0    0    0    0  0.00000000000E+00  0.00000000000E+00  0.45593999997E+02  0.45594000000E+02  0.51100000000E-03 0.  1.
         11   -1    0    0    0    0 -0.00000000000E+00 -0.00000000000E+00 -0.45593999997E+02  0.45594000000E+02  0.51100000000E-03 0. -1.
    9900012    2    1    2    0    0  0.55939825738E-01  0.10452150793E+01  0.54517410573E+00  0.90007822627E+02  0.90000085086E+02 0.  0.
         12    1    1    2    0    0 -0.55939825738E-01 -0.10452150793E+01 -0.54517410573E+00  0.11801773730E+01  0.00000000000E+00 0. -1.
         11    1    3    3    0    0  0.99629975553E+01  0.42194840937E+01 -0.69948038569E+01  0.12883813394E+02  0.51100000000E-03 0. -1.
        -11    1    3    3    0    0  0.26315128497E+02  0.20426326075E+02  0.61090581864E+01  0.33867999304E+02  0.51100000000E-03 0.  1.
         12    1    3    3    0    0 -0.36222186226E+02 -0.23600595089E+02  0.14309197762E+01  0.43256009929E+02  0.00000000000E+00 0. -1.
</event>
<event>
 7    1  0.1501154E-015  0.9000764E+02  0.7816164E-02  0.1186339E+00
        -11   -1    0    0    0    0  0.00000000000E+00  0.00000000000E+00  0.45593999997E+02  0.45594000000E+02  0.51100000000E-03 0. -1.
         11   -1    0    0    0    0 -0.00000000000E+00 -0.00000000000E+00 -0.45593999997E+02  0.45594000000E+02  0.51100000000E-03 0.  1.
    9900012    2    1    2    0    0 -0.87410443094E+00  0.78723994961E+00 -0.97234090719E-01  0.90007635750E+02  0.89999895742E+02 0.  0.
         12    1    1    2    0    0  0.87410443094E+00 -0.78723994961E+00  0.97234090719E-01  0.11803642501E+01  0.00000000000E+00 0. -1.
         11    1    3    3    0    0  0.40613981628E+01 -0.78893702107E+00 -0.87592899358E+01  0.96872357822E+01  0.51100000000E-03 0. -1.
        -11    1    3    3    0    0 -0.23392324388E+02  0.10114203685E+02 -0.28330507940E+02  0.38106635076E+02  0.51100000000E-03 0.  1.
         12    1    3    3    0    0  0.18456821794E+02 -0.85380267140E+01  0.36992563785E+02  0.42213764891E+02  0.00000000000E+00 0. -1.
</event>
<event>
 7    1  0.1501154E-015  0.9000815E+02  0.7816164E-02  0.1186338E+00
        -11   -1    0    0    0    0  0.00000000000E+00  0.00000000000E+00  0.45593999997E+02  0.45594000000E+02  0.51100000000E-03 0. -1.
         11   -1    0    0    0    0 -0.00000000000E+00 -0.00000000000E+00 -0.45593999997E+02  0.45594000000E+02  0.51100000000E-03 0.  1.
    9900012    2    1    2    0    0  0.46100402038E+00 -0.11432663194E+00 -0.10800228468E+01  0.90008150588E+02  0.90000417375E+02 0.  0.
         12    1    1    2    0    0 -0.46100402038E+00  0.11432663194E+00  0.10800228468E+01  0.11798494121E+01  0.00000000000E+00 0. -1.
         11    1    3    3    0    0 -0.18422196912E+01  0.94142477726E+00  0.82327660357E+01  0.84887272817E+01  0.51100000000E-03 0. -1.
        -11    1    3    3    0    0  0.28006087291E+02 -0.12262879699E+02  0.23351337876E+02  0.38470821731E+02  0.51100000000E-03 0.  1.
         12    1    3    3    0    0 -0.25702863579E+02  0.11207128290E+02 -0.32664126758E+02  0.43048601575E+02  0.00000000000E+00 0. -1.
</event>
<event>
 7    1  0.1501154E-015  0.9000773E+02  0.7816164E-02  0.1186339E+00
        -11   -1    0    0    0    0  0.00000000000E+00  0.00000000000E+00  0.45593999997E+02  0.45594000000E+02  0.51100000000E-03 0.  1.
         11   -1    0    0    0    0 -0.00000000000E+00 -0.00000000000E+00 -0.45593999997E+02  0.45594000000E+02  0.51100000000E-03 0. -1.
    9900012    2    1    2    0    0 -0.36821785150E+00 -0.38720646830E+00  0.10523933803E+01  0.90007726700E+02  0.89999987893E+02 0.  0.
         12    1    1    2    0    0  0.36821785150E+00  0.38720646830E+00 -0.10523933803E+01  0.11802732998E+01  0.00000000000E+00 0. -1.
         11    1    3    3    0    0 -0.70089949737E+01  0.96140935837E+00 -0.69223887398E+01  0.98979687119E+01  0.51100000000E-03 0. -1.
        -11    1    3    3    0    0 -0.32976258030E+02  0.34555293059E+01  0.19634274063E+02  0.38534127662E+02  0.51100000000E-03 0.  1.
         12    1    3    3    0    0  0.39617035152E+02 -0.48041451325E+01 -0.11659491942E+02  0.41575630327E+02  0.00000000000E+00 0. -1.
</event>
<event>
 7    1  0.1501154E-015  0.9000774E+02  0.7816164E-02  0.1186339E+00
        -11   -1    0    0    0    0  0.00000000000E+00  0.00000000000E+00  0.45593999997E+02  0.45594000000E+02  0.51100000000E-03 0.  1.
         11   -1    0    0    0    0 -0.00000000000E+00 -0.00000000000E+00 -0.45593999997E+02  0.45594000000E+02  0.51100000000E-03 0. -1.
    9900012    2    1    2    0    0 -0.37400522440E+00 -0.91714311083E+00  0.64185921438E+00  0.90007739586E+02  0.90000000949E+02 0.  0.
         12    1    1    2    0    0  0.37400522440E+00  0.91714311083E+00 -0.64185921438E+00  0.11802604139E+01  0.00000000000E+00 0. -1.
         11    1    3    3    0    0 -0.10260938504E+02  0.70874782103E+00 -0.94111333416E+00  0.10328353064E+02  0.51100000000E-03 0. -1.
        -11    1    3    3    0    0  0.51934849858E+01 -0.11547533701E+02  0.38833486535E+02  0.40845532162E+02  0.51100000000E-03 0.  1.
         12    1    3    3    0    0  0.46934482937E+01  0.99216427693E+01 -0.37250513987E+02  0.38833854359E+02  0.00000000000E+00 0. -1.
</event>
<event>
 7    1  0.1501154E-015  0.9000763E+02  0.7816164E-02  0.1186339E+00
        -11   -1    0    0    0    0  0.00000000000E+00  0.00000000000E+00  0.45593999997E+02  0.45594000000E+02  0.51100000000E-03 0.  1.
         11   -1    0    0    0    0 -0.00000000000E+00 -0.00000000000E+00 -0.45593999997E+02  0.45594000000E+02  0.51100000000E-03 0. -1.
    9900012    2    1    2    0    0  0.64235726525E+00 -0.94105223010E+00  0.30833994484E+00  0.90007629008E+02  0.89999888911E+02 0.  0.
         12    1    1    2    0    0 -0.64235726525E+00  0.94105223010E+00 -0.30833994484E+00  0.11803709915E+01  0.00000000000E+00 0. -1.
         11    1    3    3    0    0  0.12800843379E+02 -0.33371245553E+02  0.27531010617E+01  0.35848029049E+02  0.51100000000E-03 0. -1.
        -11    1    3    3    0    0  0.13341541080E+02  0.42872949528E+01  0.60176706402E+01  0.15250900845E+02  0.51100000000E-03 0.  1.
        -12    1    3    3    0    0 -0.25500027194E+02  0.28142898370E+02 -0.84624317570E+01  0.38908699115E+02  0.00000000000E+00 0.  1.
</event>
<event>
 7    1  0.1501154E-015  0.9000764E+02  0.7816164E-02  0.1186339E+00
        -11   -1    0    0    0    0  0.00000000000E+00  0.00000000000E+00  0.45593999997E+02  0.45594000000E+02  0.51100000000E-03 0.  1.
         11   -1    0    0    0    0 -0.00000000000E+00 -0.00000000000E+00 -0.45593999997E+02  0.45594000000E+02  0.51100000000E-03 0. -1.
    9900012    2    1    2    0    0  0.91953393485E+00 -0.44566823675E+00 -0.59084481224E+00  0.90007635469E+02  0.89999895457E+02 0.  0.
         12    1    1    2    0    0 -0.91953393485E+00  0.44566823675E+00  0.59084481224E+00  0.11803645313E+01  0.00000000000E+00 0. -1.
         11    1    3    3    0    0 -0.14014655974E+02 -0.17143641589E+02 -0.23229744079E+02  0.32092616584E+02  0.51100000000E-03 0. -1.
        -11    1    3    3    0    0 -0.19317831724E+01 -0.13351219244E+02  0.18947052816E+02  0.23258926291E+02  0.51100000000E-03 0.  1.
        -12    1    3    3    0    0  0.16865973081E+02  0.30049192596E+02  0.36918464508E+01  0.34656092594E+02  0.00000000000E+00 0.  1.
</event>
<event>
 7    1  0.1501154E-015  0.9000774E+02  0.7816164E-02  0.1186339E+00
        -11   -1    0    0    0    0  0.00000000000E+00  0.00000000000E+00  0.45593999997E+02  0.45594000000E+02  0.51100000000E-03 0.  1.
         11   -1    0    0    0    0 -0.00000000000E+00 -0.00000000000E+00 -0.45593999997E+02  0.45594000000E+02  0.51100000000E-03 0. -1.
    9900012    2    1    2    0    0 -0.58701289577E+00  0.46857134470E+00  0.91041728284E+00  0.90007744573E+02  0.90000006001E+02 0.  0.
         12    1    1    2    0    0  0.58701289577E+00 -0.46857134470E+00 -0.91041728284E+00  0.11802554273E+01  0.00000000000E+00 0. -1.
         11    1    3    3    0    0  0.27965398681E+02 -0.17985610076E+02 -0.11996406562E+02  0.35347693897E+02  0.51100000000E-03 0. -1.
        -11    1    3    3    0    0  0.38369947462E+01 -0.95524401803E+01  0.23468603211E+01  0.10558380354E+02  0.51100000000E-03 0.  1.
        -12    1    3    3    0    0 -0.32389406323E+02  0.28006621601E+02  0.10559963524E+02  0.44101670321E+02  0.00000000000E+00 0.  1.
</event>
<event>
 7    1  0.1501154E-015  0.9000880E+02  0.7816164E-02  0.1186337E+00
        -11   -1    0    0    0    0  0.00000000000E+00  0.00000000000E+00  0.45593999997E+02  0.45594000000E+02  0.51100000000E-03 0.  1.
         11   -1    0    0    0    0 -0.00000000000E+00 -0.00000000000E+00 -0.45593999997E+02  0.45594000000E+02  0.51100000000E-03 0. -1.
    9900012    2    1    2    0    0  0.21668899826E+00 -0.88920373664E+00  0.74354893677E+00  0.90008804330E+02  0.90001079740E+02 0.  0.
         12    1    1    2    0    0 -0.21668899826E+00  0.88920373664E+00 -0.74354893677E+00  0.11791956702E+01  0.00000000000E+00 0. -1.
         11    1    3    3    0    0 -0.27561029630E+02 -0.23431226011E+02  0.19588054967E+02  0.41137873114E+02  0.51100000000E-03 0. -1.
        -11    1    3    3    0    0  0.96098217127E+01  0.61196278595E+01  0.69153755870E+01  0.13327450554E+02  0.51100000000E-03 0.  1.
        -12    1    3    3    0    0  0.18167896916E+02  0.16422394415E+02 -0.25759881617E+02  0.35543480662E+02  0.00000000000E+00 0.  1.
</event>
<event>
 7    1  0.1501154E-015  0.9000774E+02  0.7816164E-02  0.1186339E+00
        -11   -1    0    0    0    0  0.00000000000E+00  0.00000000000E+00  0.45593999997E+02  0.45594000000E+02  0.51100000000E-03 0.  1.
         11   -1    0    0    0    0 -0.00000000000E+00 -0.00000000000E+00 -0.45593999997E+02  0.45594000000E+02  0.51100000000E-03 0. -1.
    9900012    2    1    2    0    0  0.45275811339E-01 -0.10961903556E+01  0.43512962885E+00  0.90007736898E+02  0.89999998226E+02 0.  0.
         12    1    1    2    0    0 -0.45275811339E-01  0.10961903556E+01 -0.43512962885E+00  0.11802631015E+01  0.00000000000E+00 0. -1.
         11    1    3    3    0    0 -0.35118774330E+02  0.10241312054E+02  0.94613260706E+01  0.37785307652E+02  0.51100000000E-03 0. -1.
        -11    1    3    3    0    0 -0.64587098325E+01 -0.53122072782E+01 -0.55193522833E+01  0.10019866703E+02  0.51100000000E-03 0.  1.
        -12    1    3    3    0    0  0.41622759974E+02 -0.60252951312E+01 -0.35068441585E+01  0.42202562544E+02  0.00000000000E+00 0.  1.
</event>
<event>
 7    1  0.1501154E-015  0.9000775E+02  0.7816164E-02  0.1186339E+00
        -11   -1    0    0    0    0  0.00000000000E+00  0.00000000000E+00  0.45593999997E+02  0.45594000000E+02  0.51100000000E-03 0. -1.
         11   -1    0    0    0    0 -0.00000000000E+00 -0.00000000000E+00 -0.45593999997E+02  0.45594000000E+02  0.51100000000E-03 0.  1.
    9900012    2    1    2    0    0  0.10594993539E+01 -0.32432103618E+00 -0.40653674509E+00  0.90007747849E+02  0.90000009320E+02 0.  0.
         12    1    1    2    0    0 -0.10594993539E+01  0.32432103618E+00  0.40653674509E+00  0.11802521512E+01  0.00000000000E+00 0. -1.
         11    1    3    3    0    0  0.25424364840E+02 -0.13366683187E+02  0.18945913508E+02  0.34409507201E+02  0.51100000000E-03 0. -1.
        -11    1    3    3    0    0  0.10370318816E+02 -0.10180235744E+01  0.43135864627E+01  0.11277717534E+02  0.51100000000E-03 0.  1.
        -12    1    3    3    0    0 -0.34735184302E+02  0.14060385725E+02 -0.23666036716E+02  0.44320523114E+02  0.00000000000E+00 0.  1.
</event>
<event>
 7    1  0.1501154E-015  0.9000777E+02  0.7816164E-02  0.1186339E+00
        -11   -1    0    0    0    0  0.00000000000E+00  0.00000000000E+00  0.45593999997E+02  0.45594000000E+02  0.51100000000E-03 0. -1.
         11   -1    0    0    0    0 -0.00000000000E+00 -0.00000000000E+00 -0.45593999997E+02  0.45594000000E+02  0.51100000000E-03 0.  1.
    9900012    2    1    2    0    0 -0.74143177392E+00 -0.90238585661E+00 -0.17004179056E+00  0.90007773107E+02  0.90000034912E+02 0.  0.
         12    1    1    2    0    0  0.74143177392E+00  0.90238585661E+00  0.17004179056E+00  0.11802268935E+01  0.00000000000E+00 0. -1.
         11    1    3    3    0    0 -0.61099919060E+01  0.30295170413E+01  0.24474786990E+01  0.72456971257E+01  0.51100000000E-03 0. -1.
        -11    1    3    3    0    0 -0.25208955817E+02 -0.25509257984E+02  0.17899909545E+02  0.40082670299E+02  0.51100000000E-03 0.  1.
         12    1    3    3    0    0  0.30577515949E+02  0.21577355086E+02 -0.20517430035E+02  0.42679405682E+02  0.00000000000E+00 0. -1.
</event>
<event>
 7    1  0.1501154E-015  0.9000764E+02  0.7816164E-02  0.1186339E+00
        -11   -1    0    0    0    0  0.00000000000E+00  0.00000000000E+00  0.45593999997E+02  0.45594000000E+02  0.51100000000E-03 0.  1.
         11   -1    0    0    0    0 -0.00000000000E+00 -0.00000000000E+00 -0.45593999997E+02  0.45594000000E+02  0.51100000000E-03 0. -1.
    9900012    2    1    2    0    0 -0.43204308896E+00  0.95745848345E+00 -0.53839430562E+00  0.90007637172E+02  0.89999897182E+02 0.  0.
         12    1    1    2    0    0  0.43204308896E+00 -0.95745848345E+00  0.53839430562E+00  0.11803628284E+01  0.00000000000E+00 0. -1.
         11    1    3    3    0    0  0.41409168755E+02  0.98990930652E+01 -0.46726376313E+01  0.42831586980E+02  0.51100000000E-03 0. -1.
        -11    1    3    3    0    0 -0.43385224131E+01 -0.68717407045E+01 -0.34998565005E+01  0.88483101677E+01  0.51100000000E-03 0.  1.
        -12    1    3    3    0    0 -0.37502689431E+02 -0.20698938773E+01  0.76340998262E+01  0.38327740024E+02  0.00000000000E+00 0.  1.
</event>
<event>
 7    1  0.1501154E-015  0.9000781E+02  0.7816164E-02  0.1186339E+00
        -11   -1    0    0    0    0  0.00000000000E+00  0.00000000000E+00  0.45593999997E+02  0.45594000000E+02  0.51100000000E-03 0.  1.
         11   -1    0    0    0    0 -0.00000000000E+00 -0.00000000000E+00 -0.45593999997E+02  0.45594000000E+02  0.51100000000E-03 0. -1.
    9900012    2    1    2    0    0 -0.31286612938E+00  0.71367674640E+00  0.88636120239E+00  0.90007806840E+02  0.90000069090E+02 0.  0.
         12    1    1    2    0    0  0.31286612938E+00 -0.71367674640E+00 -0.88636120239E+00  0.11801931598E+01  0.00000000000E+00 0. -1.
         11    1    3    3    0    0 -0.48088156833E+01 -0.50873360927E+01 -0.56795767694E+01  0.90146153183E+01  0.51100000000E-03 0. -1.
        -11    1    3    3    0    0  0.39627637277E+02 -0.11676665222E+02  0.60342001495E+01  0.41750517584E+02  0.51100000000E-03 0.  1.
         12    1    3    3    0    0 -0.35131687723E+02  0.17477678061E+02  0.53173782225E+00  0.39242673938E+02  0.00000000000E+00 0. -1.
</event>
<event>
 7    1  0.1501154E-015  0.9000773E+02  0.7816164E-02  0.1186339E+00
        -11   -1    0    0    0    0  0.00000000000E+00  0.00000000000E+00  0.45593999997E+02  0.45594000000E+02  0.51100000000E-03 0.  1.
         11   -1    0    0    0    0 -0.00000000000E+00 -0.00000000000E+00 -0.45593999997E+02  0.45594000000E+02  0.51100000000E-03 0. -1.
    9900012    2    1    2    0    0  0.62299639868E+00 -0.68948431796E+00  0.72768041705E+00  0.90007732265E+02  0.89999993531E+02 0.  0.
         12    1    1    2    0    0 -0.62299639868E+00  0.68948431796E+00 -0.72768041705E+00  0.11802677352E+01  0.00000000000E+00 0. -1.
         11    1    3    3    0    0  0.22632161028E+02 -0.10461633199E+02 -0.25709105965E+02  0.35813665154E+02  0.51100000000E-03 0. -1.
        -11    1    3    3    0    0  0.93228412666E+01 -0.17450077380E+01 -0.27251475766E+01  0.98684776366E+01  0.51100000000E-03 0.  1.
        -12    1    3    3    0    0 -0.31332005896E+02  0.11517156619E+02  0.29161933958E+02  0.44325589474E+02  0.00000000000E+00 0.  1.
</event>
<event>
 7    1  0.1501154E-015  0.9000760E+02  0.7816164E-02  0.1186339E+00
        -11   -1    0    0    0    0  0.00000000000E+00  0.00000000000E+00  0.45593999997E+02  0.45594000000E+02  0.51100000000E-03 0.  1.
         11   -1    0    0    0    0 -0.00000000000E+00 -0.00000000000E+00 -0.45593999997E+02  0.45594000000E+02  0.51100000000E-03 0. -1.
    9900012    2    1    2    0    0 -0.86509810706E+00  0.74679355292E+00  0.29539058227E+00  0.90007597127E+02  0.89999856609E+02 0.  0.
         12    1    1    2    0    0  0.86509810706E+00 -0.74679355292E+00 -0.29539058227E+00  0.11804028726E+01  0.00000000000E+00 0. -1.
         11    1    3    3    0    0  0.63089816601E+01  0.12735572269E+01 -0.39505757009E+02  0.40026616579E+02  0.51100000000E-03 0. -1.
        -11    1    3    3    0    0  0.81415119795E+01 -0.17161626452E+01  0.11632953451E+01  0.84013503592E+01  0.51100000000E-03 0.  1.
        -12    1    3    3    0    0 -0.15315591747E+02  0.11893989712E+01  0.38637852247E+02  0.41579630189E+02  0.00000000000E+00 0.  1.
</event>
<event>
 7    1  0.1501154E-015  0.9000777E+02  0.7816164E-02  0.1186339E+00
        -11   -1    0    0    0    0  0.00000000000E+00  0.00000000000E+00  0.45593999997E+02  0.45594000000E+02  0.51100000000E-03 0. -1.
         11   -1    0    0    0    0 -0.00000000000E+00 -0.00000000000E+00 -0.45593999997E+02  0.45594000000E+02  0.51100000000E-03 0.  1.
    9900012    2    1    2    0    0  0.25908096288E+00 -0.11487788774E+01 -0.78328478627E-01  0.90007766462E+02  0.90000028179E+02 0.  0.
         12    1    1    2    0    0 -0.25908096288E+00  0.11487788774E+01  0.78328478627E-01  0.11802335383E+01  0.00000000000E+00 0. -1.
         11    1    3    3    0    0 -0.22651944020E+02 -0.20570604372E+02  0.23568373168E+02  0.38622901835E+02  0.51100000000E-03 0. -1.
        -11    1    3    3    0    0 -0.27259816463E+01 -0.29081140810E+01  0.53699031719E+01  0.66875977586E+01  0.51100000000E-03 0.  1.
        -12    1    3    3    0    0  0.25637006629E+02  0.22329939576E+02 -0.29016604818E+02  0.44697266868E+02  0.00000000000E+00 0.  1.
</event>
<event>
 7    1  0.1501154E-015  0.9000774E+02  0.7816164E-02  0.1186339E+00
        -11   -1    0    0    0    0  0.00000000000E+00  0.00000000000E+00  0.45593999997E+02  0.45594000000E+02  0.51100000000E-03 0.  1.
         11   -1    0    0    0    0 -0.00000000000E+00 -0.00000000000E+00 -0.45593999997E+02  0.45594000000E+02  0.51100000000E-03 0. -1.
    9900012    2    1    2    0    0 -0.11143465635E+01 -0.23197119199E+00 -0.31212655471E+00  0.90007744992E+02  0.90000006426E+02 0.  0.
         12    1    1    2    0    0  0.11143465635E+01  0.23197119199E+00  0.31212655471E+00  0.11802550079E+01  0.00000000000E+00 0. -1.
         11    1    3    3    0    0 -0.95161212771E+01 -0.57332319651E+01 -0.37480538559E+02  0.39092419775E+02  0.51100000000E-03 0. -1.
        -11    1    3    3    0    0 -0.18220537048E+01  0.81169133150E+01 -0.34073470074E+01  0.89896704810E+01  0.51100000000E-03 0.  1.
        -12    1    3    3    0    0  0.10223828419E+02 -0.26156525419E+01  0.40575759011E+02  0.41925654737E+02  0.00000000000E+00 0.  1.
</event>
<event>
 7    1  0.1501154E-015  0.9000781E+02  0.7816164E-02  0.1186339E+00
        -11   -1    0    0    0    0  0.00000000000E+00  0.00000000000E+00  0.45593999997E+02  0.45594000000E+02  0.51100000000E-03 0.  1.
         11   -1    0    0    0    0 -0.00000000000E+00 -0.00000000000E+00 -0.45593999997E+02  0.45594000000E+02  0.51100000000E-03 0. -1.
    9900012    2    1    2    0    0 -0.16153211607E+00 -0.83511202977E+00 -0.81813484170E+00  0.90007809615E+02  0.90000071901E+02 0.  0.
         12    1    1    2    0    0  0.16153211607E+00  0.83511202977E+00  0.81813484170E+00  0.11801903855E+01  0.00000000000E+00 0. -1.
         11    1    3    3    0    0 -0.50279694311E+01  0.37155864071E+02 -0.36362460683E+01  0.37670426029E+02  0.51100000000E-03 0. -1.
        -11    1    3    3    0    0 -0.22667150379E+01  0.38927338189E+01  0.83543727172E+01  0.94914128246E+01  0.51100000000E-03 0.  1.
        -12    1    3    3    0    0  0.71331523530E+01 -0.41883709920E+02 -0.55362614905E+01  0.42845970761E+02  0.00000000000E+00 0.  1.
</event>
<event>
 7    1  0.1501154E-015  0.9000774E+02  0.7816164E-02  0.1186339E+00
        -11   -1    0    0    0    0  0.00000000000E+00  0.00000000000E+00  0.45593999997E+02  0.45594000000E+02  0.51100000000E-03 0.  1.
         11   -1    0    0    0    0 -0.00000000000E+00 -0.00000000000E+00 -0.45593999997E+02  0.45594000000E+02  0.51100000000E-03 0. -1.
    9900012    2    1    2    0    0 -0.57152142042E+00 -0.96059749568E+00  0.37897905012E+00  0.90007741807E+02  0.90000003198E+02 0.  0.
         12    1    1    2    0    0  0.57152142042E+00  0.96059749568E+00 -0.37897905012E+00  0.11802581934E+01  0.00000000000E+00 0. -1.
         11    1    3    3    0    0 -0.13923186538E+02  0.16130813973E+02 -0.22212892466E+02  0.30781014843E+02  0.51100000000E-03 0. -1.
        -11    1    3    3    0    0 -0.85913041281E+01  0.13802217330E+02  0.28725292562E+01  0.16509486195E+02  0.51100000000E-03 0.  1.
        -12    1    3    3    0    0  0.21942969246E+02 -0.30893628799E+02  0.19719342260E+02  0.42717240768E+02  0.00000000000E+00 0.  1.
</event>
<event>
 7    1  0.1501154E-015  0.9000759E+02  0.7816164E-02  0.1186339E+00
        -11   -1    0    0    0    0  0.00000000000E+00  0.00000000000E+00  0.45593999997E+02  0.45594000000E+02  0.51100000000E-03 0. -1.
         11   -1    0    0    0    0 -0.00000000000E+00 -0.00000000000E+00 -0.45593999997E+02  0.45594000000E+02  0.51100000000E-03 0.  1.
    9900012    2    1    2    0    0  0.69266955877E-01 -0.11757810534E+01  0.78162461327E-01  0.90007589746E+02  0.89999849131E+02 0.  0.
         12    1    1    2    0    0 -0.69266955877E-01  0.11757810534E+01 -0.78162461327E-01  0.11804102537E+01  0.00000000000E+00 0. -1.
         11    1    3    3    0    0 -0.58198037961E+01 -0.10448541728E+01 -0.84485850824E+01  0.10312149467E+02  0.51100000000E-03 0. -1.
        -11    1    3    3    0    0  0.40422202285E+02  0.12388146116E+02  0.15492537236E+01  0.42306273638E+02  0.51100000000E-03 0.  1.
         12    1    3    3    0    0 -0.34533131533E+02 -0.12519072996E+02  0.69774938201E+01  0.37389166642E+02  0.00000000000E+00 0. -1.
</event>
<event>
 7    1  0.1501154E-015  0.9000778E+02  0.7816164E-02  0.1186339E+00
        -11   -1    0    0    0    0  0.00000000000E+00  0.00000000000E+00  0.45593999997E+02  0.45594000000E+02  0.51100000000E-03 0. -1.
         11   -1    0    0    0    0 -0.00000000000E+00 -0.00000000000E+00 -0.45593999997E+02  0.45594000000E+02  0.51100000000E-03 0.  1.
    9900012    2    1    2    0    0 -0.11551572383E+01  0.19924560893E-01 -0.24111001381E+00  0.90007779990E+02  0.90000041886E+02 0.  0.
         12    1    1    2    0    0  0.11551572383E+01 -0.19924560893E-01  0.24111001381E+00  0.11802200100E+01  0.00000000000E+00 0. -1.
         11    1    3    3    0    0  0.30099278445E+02  0.16721399118E+02 -0.46346876590E+01  0.34742655071E+02  0.51100000000E-03 0. -1.
        -11    1    3    3    0    0  0.10051313052E+02 -0.25335402793E+01 -0.33959477179E+01  0.10907803701E+02  0.51100000000E-03 0.  1.
        -12    1    3    3    0    0 -0.41305748735E+02 -0.14167934278E+02  0.77895253630E+01  0.44357321219E+02  0.00000000000E+00 0.  1.
</event>
<event>
 7    1  0.1501154E-015  0.9000778E+02  0.7816164E-02  0.1186339E+00
        -11   -1    0    0    0    0  0.00000000000E+00  0.00000000000E+00  0.45593999997E+02  0.45594000000E+02  0.51100000000E-03 0.  1.
         11   -1    0    0    0    0 -0.00000000000E+00 -0.00000000000E+00 -0.45593999997E+02  0.45594000000E+02  0.51100000000E-03 0. -1.
    9900012    2    1    2    0    0  0.34671763256E+00  0.40609487604E+00  0.10525147095E+01  0.90007782487E+02  0.90000044416E+02 0.  0.
         12    1    1    2    0    0 -0.34671763256E+00 -0.40609487604E+00 -0.10525147095E+01  0.11802175133E+01  0.00000000000E+00 0. -1.
         11    1    3    3    0    0  0.11176968214E+02 -0.31587927954E+01 -0.35255656776E+02  0.37119589510E+02  0.51100000000E-03 0. -1.
        -11    1    3    3    0    0  0.45783854822E+01 -0.10647681314E+00 -0.60945763885E+01  0.76234383681E+01  0.51100000000E-03 0.  1.
        -12    1    3    3    0    0 -0.15408636064E+02  0.36713644845E+01  0.42402747874E+02  0.45264754609E+02  0.00000000000E+00 0.  1.
</event>
<event>
 7    1  0.1501154E-015  0.9000904E+02  0.7816164E-02  0.1186336E+00
        -11   -1    0    0    0    0  0.00000000000E+00  0.00000000000E+00  0.45593999997E+02  0.45594000000E+02  0.51100000000E-03 0. -1.
         11   -1    0    0    0    0 -0.00000000000E+00 -0.00000000000E+00 -0.45593999997E+02  0.45594000000E+02  0.51100000000E-03 0.  1.
    9900012    2    1    2    0    0 -0.65212497092E-01 -0.11604794676E+01  0.19745515758E+00  0.90009036979E+02  0.90001315458E+02 0.  0.
         12    1    1    2    0    0  0.65212497092E-01  0.11604794676E+01 -0.19745515758E+00  0.11789630205E+01  0.00000000000E+00 0. -1.
         11    1    3    3    0    0 -0.51323590746E+01  0.36937973607E+01  0.56293867474E+01  0.84661233174E+01  0.51100000000E-03 0. -1.
        -11    1    3    3    0    0 -0.35655833809E+02 -0.11177441553E+02 -0.13154591797E+02  0.39614605512E+02  0.51100000000E-03 0.  1.
         12    1    3    3    0    0  0.40722980386E+02  0.63231647252E+01  0.77226602068E+01  0.41928308150E+02  0.00000000000E+00 0. -1.
</event>
<event>
 7    1  0.1501154E-015  0.9000792E+02  0.7816164E-02  0.1186339E+00
        -11   -1    0    0    0    0  0.00000000000E+00  0.00000000000E+00  0.45593999997E+02  0.45594000000E+02  0.51100000000E-03 0.  1.
         11   -1    0    0    0    0 -0.00000000000E+00 -0.00000000000E+00 -0.45593999997E+02  0.45594000000E+02  0.51100000000E-03 0. -1.
    9900012    2    1    2    0    0  0.17300129906E+00 -0.10214127638E+01  0.56514248162E+00  0.90007915466E+02  0.90000179150E+02 0.  0.
         12    1    1    2    0    0 -0.17300129906E+00  0.10214127638E+01 -0.56514248162E+00  0.11800845343E+01  0.00000000000E+00 0. -1.
         11    1    3    3    0    0 -0.67506721096E+01  0.22886383489E+02 -0.31726170702E+02  0.39697708130E+02  0.51100000000E-03 0. -1.
        -11    1    3    3    0    0 -0.31456481184E+00  0.41098359135E+01 -0.26817992744E+01  0.49174942671E+01  0.51100000000E-03 0.  1.
        -12    1    3    3    0    0  0.72382382205E+01 -0.28017632166E+02  0.34973112458E+02  0.45392713069E+02  0.00000000000E+00 0.  1.
</event>
<event>
 7    1  0.1501154E-015  0.9000772E+02  0.7816164E-02  0.1186339E+00
        -11   -1    0    0    0    0  0.00000000000E+00  0.00000000000E+00  0.45593999997E+02  0.45594000000E+02  0.51100000000E-03 0. -1.
         11   -1    0    0    0    0 -0.00000000000E+00 -0.00000000000E+00 -0.45593999997E+02  0.45594000000E+02  0.51100000000E-03 0.  1.
    9900012    2    1    2    0    0 -0.67471019140E+00  0.94419015810E+00  0.21525224485E+00  0.90007719344E+02  0.89999980440E+02 0.  0.
         12    1    1    2    0    0  0.67471019140E+00 -0.94419015810E+00 -0.21525224485E+00  0.11802806556E+01  0.00000000000E+00 0. -1.
         11    1    3    3    0    0  0.13258044613E+01 -0.81012801923E+01 -0.48231664894E+00  0.82232066638E+01  0.51100000000E-03 0. -1.
        -11    1    3    3    0    0 -0.34058234172E+02  0.24944165114E+02 -0.11878801988E+02  0.43855223464E+02  0.51100000000E-03 0.  1.
         12    1    3    3    0    0  0.32057719519E+02 -0.15898694763E+02  0.12576370882E+02  0.37929289217E+02  0.00000000000E+00 0. -1.
</event>
<event>
 7    1  0.1501154E-015  0.9000781E+02  0.7816164E-02  0.1186339E+00
        -11   -1    0    0    0    0  0.00000000000E+00  0.00000000000E+00  0.45593999997E+02  0.45594000000E+02  0.51100000000E-03 0. -1.
         11   -1    0    0    0    0 -0.00000000000E+00 -0.00000000000E+00 -0.45593999997E+02  0.45594000000E+02  0.51100000000E-03 0.  1.
    9900012    2    1    2    0    0 -0.46047718571E+00 -0.10847485526E+01 -0.64331597211E-01  0.90007806281E+02  0.90000068523E+02 0.  0.
         12    1    1    2    0    0  0.46047718571E+00  0.10847485526E+01  0.64331597211E-01  0.11801937194E+01  0.00000000000E+00 0. -1.
         11    1    3    3    0    0 -0.91841421711E+01  0.52040891190E+01  0.22396638523E+01  0.10791066000E+02  0.51100000000E-03 0. -1.
        -11    1    3    3    0    0 -0.64668010803E+00  0.35576667886E+02  0.41836409467E+01  0.35827647772E+02  0.51100000000E-03 0.  1.
         12    1    3    3    0    0  0.93703450934E+01 -0.41865505558E+02 -0.64876363962E+01  0.43389092509E+02  0.00000000000E+00 0. -1.
</event>
<event>
 7    1  0.1501154E-015  0.9000775E+02  0.7816164E-02  0.1186339E+00
        -11   -1    0    0    0    0  0.00000000000E+00  0.00000000000E+00  0.45593999997E+02  0.45594000000E+02  0.51100000000E-03 0. -1.
         11   -1    0    0    0    0 -0.00000000000E+00 -0.00000000000E+00 -0.45593999997E+02  0.45594000000E+02  0.51100000000E-03 0.  1.
    9900012    2    1    2    0    0  0.30813874564E+00 -0.10253567377E+01  0.49668336242E+00  0.90007745668E+02  0.90000007111E+02 0.  0.
         12    1    1    2    0    0 -0.30813874564E+00  0.10253567377E+01 -0.49668336242E+00  0.11802543322E+01  0.00000000000E+00 0. -1.
         11    1    3    3    0    0  0.67406469969E+01 -0.50173337062E+01 -0.13332711521E+00  0.84040309279E+01  0.51100000000E-03 0. -1.
        -11    1    3    3    0    0  0.18090541468E+02 -0.32721289787E+02  0.18719476466E+01  0.37436007856E+02  0.51100000000E-03 0.  1.
         12    1    3    3    0    0 -0.24523049719E+02  0.36713266756E+02 -0.12419371689E+01  0.44167706884E+02  0.00000000000E+00 0. -1.
</event>
<event>
 7    1  0.1501154E-015  0.9000772E+02  0.7816164E-02  0.1186339E+00
        -11   -1    0    0    0    0  0.00000000000E+00  0.00000000000E+00  0.45593999997E+02  0.45594000000E+02  0.51100000000E-03 0.  1.
         11   -1    0    0    0    0 -0.00000000000E+00 -0.00000000000E+00 -0.45593999997E+02  0.45594000000E+02  0.51100000000E-03 0. -1.
    9900012    2    1    2    0    0  0.18808800026E+00  0.97946414857E+00  0.63113916025E+00  0.90007718782E+02  0.89999979870E+02 0.  0.
         12    1    1    2    0    0 -0.18808800026E+00 -0.97946414857E+00 -0.63113916025E+00  0.11802812181E+01  0.00000000000E+00 0. -1.
         11    1    3    3    0    0 -0.57926735050E+00  0.13414224133E+01  0.10371268280E+02  0.10473689453E+02  0.51100000000E-03 0. -1.
        -11    1    3    3    0    0  0.11965511614E+02 -0.22247423137E+02  0.25937887471E+02  0.36206288282E+02  0.51100000000E-03 0.  1.
         12    1    3    3    0    0 -0.11198156264E+02  0.21885464872E+02 -0.35678016591E+02  0.43327741047E+02  0.00000000000E+00 0. -1.
</event>
<event>
 7    1  0.1501154E-015  0.9000745E+02  0.7816164E-02  0.1186340E+00
        -11   -1    0    0    0    0  0.00000000000E+00  0.00000000000E+00  0.45593999997E+02  0.45594000000E+02  0.51100000000E-03 0. -1.
         11   -1    0    0    0    0 -0.00000000000E+00 -0.00000000000E+00 -0.45593999997E+02  0.45594000000E+02  0.51100000000E-03 0.  1.
    9900012    2    1    2    0    0  0.10765053930E+01  0.33678659217E+00 -0.34844591319E+00  0.90007447746E+02  0.89999705256E+02 0.  0.
         12    1    1    2    0    0 -0.10765053930E+01 -0.33678659217E+00  0.34844591319E+00  0.11805522539E+01  0.00000000000E+00 0. -1.
         11    1    3    3    0    0 -0.95951080920E+00  0.36685631147E+02 -0.48000601838E+01  0.37010765619E+02  0.51100000000E-03 0. -1.
        -11    1    3    3    0    0  0.56880774923E+01  0.62507676823E+01  0.57485219653E+01  0.10221146082E+02  0.51100000000E-03 0.  1.
        -12    1    3    3    0    0 -0.36520612901E+01 -0.42599612237E+02 -0.12969076947E+01  0.42775536046E+02  0.00000000000E+00 0.  1.
</event>
<event>
 7    1  0.1501154E-015  0.9000780E+02  0.7816164E-02  0.1186339E+00
        -11   -1    0    0    0    0  0.00000000000E+00  0.00000000000E+00  0.45593999997E+02  0.45594000000E+02  0.51100000000E-03 0.  1.
         11   -1    0    0    0    0 -0.00000000000E+00 -0.00000000000E+00 -0.45593999997E+02  0.45594000000E+02  0.51100000000E-03 0. -1.
    9900012    2    1    2    0    0 -0.15325902321E+00  0.90877256792E+00  0.73723379891E+00  0.90007801041E+02  0.90000063215E+02 0.  0.
         12    1    1    2    0    0  0.15325902321E+00 -0.90877256792E+00 -0.73723379891E+00  0.11801989589E+01  0.00000000000E+00 0. -1.
         11    1    3    3    0    0  0.24343480892E+02 -0.34273983727E+01  0.44442901709E+01  0.24982070309E+02  0.51100000000E-03 0. -1.
        -11    1    3    3    0    0  0.69198734433E+01 -0.61412699947E+01  0.21500078116E+02  0.23406264223E+02  0.51100000000E-03 0.  1.
        -12    1    3    3    0    0 -0.31416613358E+02  0.10477440935E+02 -0.25207134488E+02  0.41619466510E+02  0.00000000000E+00 0.  1.
</event>
<event>
 7    1  0.1501154E-015  0.9000768E+02  0.7816164E-02  0.1186339E+00
        -11   -1    0    0    0    0  0.00000000000E+00  0.00000000000E+00  0.45593999997E+02  0.45594000000E+02  0.51100000000E-03 0. -1.
         11   -1    0    0    0    0 -0.00000000000E+00 -0.00000000000E+00 -0.45593999997E+02  0.45594000000E+02  0.51100000000E-03 0.  1.
    9900012    2    1    2    0    0 -0.11617066996E+01 -0.19436586819E+00  0.76226819853E-01  0.90007681791E+02  0.89999942391E+02 0.  0.
         12    1    1    2    0    0  0.11617066996E+01  0.19436586819E+00 -0.76226819853E-01  0.11803182091E+01  0.00000000000E+00 0. -1.
         11    1    3    3    0    0 -0.60271444172E+01  0.12907414994E+02  0.18700442448E+02  0.23508176869E+02  0.51100000000E-03 0. -1.
        -11    1    3    3    0    0  0.28554043399E+02  0.10261987719E+02 -0.11668301893E+02  0.32508322869E+02  0.51100000000E-03 0.  1.
         12    1    3    3    0    0 -0.23688605682E+02 -0.23363768582E+02 -0.69559137352E+01  0.33991182053E+02  0.00000000000E+00 0. -1.
</event>
<event>
 7    1  0.1501154E-015  0.9000769E+02  0.7816164E-02  0.1186339E+00
        -11   -1    0    0    0    0  0.00000000000E+00  0.00000000000E+00  0.45593999997E+02  0.45594000000E+02  0.51100000000E-03 0. -1.
         11   -1    0    0    0    0 -0.00000000000E+00 -0.00000000000E+00 -0.45593999997E+02  0.45594000000E+02  0.51100000000E-03 0.  1.
    9900012    2    1    2    0    0 -0.93768747776E+00 -0.21788566971E+00 -0.68293308619E+00  0.90007690900E+02  0.89999951620E+02 0.  0.
         12    1    1    2    0    0  0.93768747776E+00  0.21788566971E+00  0.68293308619E+00  0.11803090999E+01  0.00000000000E+00 0. -1.
         11    1    3    3    0    0  0.47408489121E+01  0.18377614591E+02  0.31568704021E+02  0.36834704292E+02  0.51100000000E-03 0. -1.
        -11    1    3    3    0    0  0.47172012194E+01  0.86471471883E+01 -0.21360181447E+00  0.98524498394E+01  0.51100000000E-03 0.  1.
        -12    1    3    3    0    0 -0.10395737609E+02 -0.27242647449E+02 -0.32038035293E+02  0.43320536768E+02  0.00000000000E+00 0.  1.
</event>
<event>
 7    1  0.1501154E-015  0.9000776E+02  0.7816164E-02  0.1186339E+00
        -11   -1    0    0    0    0  0.00000000000E+00  0.00000000000E+00  0.45593999997E+02  0.45594000000E+02  0.51100000000E-03 0. -1.
         11   -1    0    0    0    0 -0.00000000000E+00 -0.00000000000E+00 -0.45593999997E+02  0.45594000000E+02  0.51100000000E-03 0.  1.
    9900012    2    1    2    0    0  0.45410471417E+00 -0.86627974820E+00 -0.66054403098E+00  0.90007758453E+02  0.90000020064E+02 0.  0.
         12    1    1    2    0    0 -0.45410471417E+00  0.86627974820E+00  0.66054403098E+00  0.11802415475E+01  0.00000000000E+00 0. -1.
         11    1    3    3    0    0 -0.74042909810E+01  0.34428462350E+02  0.19713541884E+02  0.40357976641E+02  0.51100000000E-03 0. -1.
        -11    1    3    3    0    0 -0.51117712855E+01 -0.42169562119E+01 -0.13841910085E+02  0.15346380695E+02  0.51100000000E-03 0.  1.
        -12    1    3    3    0    0  0.12970166981E+02 -0.31077785886E+02 -0.65321758300E+01  0.34303401117E+02  0.00000000000E+00 0.  1.
</event>
<event>
 7    1  0.1501154E-015  0.9000823E+02  0.7816164E-02  0.1186338E+00
        -11   -1    0    0    0    0  0.00000000000E+00  0.00000000000E+00  0.45593999997E+02  0.45594000000E+02  0.51100000000E-03 0.  1.
         11   -1    0    0    0    0 -0.00000000000E+00 -0.00000000000E+00 -0.45593999997E+02  0.45594000000E+02  0.51100000000E-03 0. -1.
    9900012    2    1    2    0    0 -0.79290083890E+00 -0.16381245341E+00  0.85809267242E+00  0.90008233373E+02  0.90000501252E+02 0.  0.
         12    1    1    2    0    0  0.79290083890E+00  0.16381245341E+00 -0.85809267242E+00  0.11797666272E+01  0.00000000000E+00 0. -1.
         11    1    3    3    0    0 -0.28705564794E+02  0.24325468996E+02 -0.12809312723E+02  0.39746904090E+02  0.51100000000E-03 0. -1.
        -11    1    3    3    0    0  0.35902136025E+01  0.18660584253E+00 -0.84313959585E+01  0.91658547623E+01  0.51100000000E-03 0.  1.
        -12    1    3    3    0    0  0.24322450352E+02 -0.24675887292E+02  0.22098801354E+02  0.41095474521E+02  0.00000000000E+00 0.  1.
</event>
<event>
 7    1  0.1501154E-015  0.9000772E+02  0.7816164E-02  0.1186339E+00
        -11   -1    0    0    0    0  0.00000000000E+00  0.00000000000E+00  0.45593999997E+02  0.45594000000E+02  0.51100000000E-03 0.  1.
         11   -1    0    0    0    0 -0.00000000000E+00 -0.00000000000E+00 -0.45593999997E+02  0.45594000000E+02  0.51100000000E-03 0. -1.
    9900012    2    1    2    0    0  0.78524163719E-02  0.71929143796E-01  0.11780610731E+01  0.90007718951E+02  0.89999980041E+02 0.  0.
         12    1    1    2    0    0 -0.78524163719E-02 -0.71929143796E-01 -0.11780610731E+01  0.11802810488E+01  0.00000000000E+00 0. -1.
         11    1    3    3    0    0 -0.46734071377E+01  0.80726691548E+01  0.17863713457E+01  0.94973598649E+01  0.51100000000E-03 0. -1.
        -11    1    3    3    0    0 -0.11743781268E+02  0.33619994420E+02  0.21828453180E+01  0.35678918667E+02  0.51100000000E-03 0.  1.
         12    1    3    3    0    0  0.16425040822E+02 -0.41620734431E+02 -0.27911555906E+01  0.44831440420E+02  0.00000000000E+00 0. -1.
</event>
<event>
 7    1  0.1501154E-015  0.9000776E+02  0.7816164E-02  0.1186339E+00
        -11   -1    0    0    0    0  0.00000000000E+00  0.00000000000E+00  0.45593999997E+02  0.45594000000E+02  0.51100000000E-03 0. -1.
         11   -1    0    0    0    0 -0.00000000000E+00 -0.00000000000E+00 -0.45593999997E+02  0.45594000000E+02  0.51100000000E-03 0.  1.
    9900012    2    1    2    0    0 -0.77995734853E+00 -0.56849114206E+00 -0.67929992267E+00  0.90007761029E+02  0.90000022674E+02 0.  0.
         12    1    1    2    0    0  0.77995734853E+00  0.56849114206E+00  0.67929992267E+00  0.11802389712E+01  0.00000000000E+00 0. -1.
         11    1    3    3    0    0 -0.96780772009E+01 -0.31781546390E+01  0.15162945500E+01  0.10298786076E+02  0.51100000000E-03 0. -1.
        -11    1    3    3    0    0 -0.29969247237E+02  0.19016305089E+02 -0.98437191366E+01  0.36833061859E+02  0.51100000000E-03 0.  1.
         12    1    3    3    0    0  0.38867367089E+02 -0.16406641592E+02  0.76481246639E+01  0.42875913094E+02  0.00000000000E+00 0. -1.
</event>
<event>
 7    1  0.1501154E-015  0.9000776E+02  0.7816164E-02  0.1186339E+00
        -11   -1    0    0    0    0  0.00000000000E+00  0.00000000000E+00  0.45593999997E+02  0.45594000000E+02  0.51100000000E-03 0.  1.
         11   -1    0    0    0    0 -0.00000000000E+00 -0.00000000000E+00 -0.45593999997E+02  0.45594000000E+02  0.51100000000E-03 0. -1.
    9900012    2    1    2    0    0  0.80854987845E+00  0.22273245129E-01  0.85948026506E+00  0.90007764714E+02  0.90000026409E+02 0.  0.
         12    1    1    2    0    0 -0.80854987845E+00 -0.22273245129E-01 -0.85948026506E+00  0.11802352856E+01  0.00000000000E+00 0. -1.
         11    1    3    3    0    0 -0.72437076090E+01  0.30714721473E+01 -0.16349071631E+01  0.80360539302E+01  0.51100000000E-03 0. -1.
        -11    1    3    3    0    0 -0.12300059235E+02 -0.15487269283E+02  0.35862957943E+02  0.40954837562E+02  0.51100000000E-03 0.  1.
         12    1    3    3    0    0  0.20352316723E+02  0.12438070381E+02 -0.33368570514E+02  0.41016873223E+02  0.00000000000E+00 0. -1.
</event>
<event>
 7    1  0.1501154E-015  0.9000783E+02  0.7816164E-02  0.1186339E+00
        -11   -1    0    0    0    0  0.00000000000E+00  0.00000000000E+00  0.45593999997E+02  0.45594000000E+02  0.51100000000E-03 0.  1.
         11   -1    0    0    0    0 -0.00000000000E+00 -0.00000000000E+00 -0.45593999997E+02  0.45594000000E+02  0.51100000000E-03 0. -1.
    9900012    2    1    2    0    0  0.39473201039E+00  0.10410141579E+01  0.39149170067E+00  0.90007834932E+02  0.90000097553E+02 0.  0.
         12    1    1    2    0    0 -0.39473201039E+00 -0.10410141579E+01 -0.39149170067E+00  0.11801650684E+01  0.00000000000E+00 0. -1.
         11    1    3    3    0    0  0.30903146537E+02  0.54579388975E+01  0.27040775254E+02  0.41424595224E+02  0.51100000000E-03 0. -1.
        -11    1    3    3    0    0 -0.15455838850E+01 -0.81457882971E+01  0.10212650388E+01  0.83537823210E+01  0.51100000000E-03 0.  1.
        -12    1    3    3    0    0 -0.28962830642E+02  0.37288635575E+01 -0.27670548592E+02  0.40229457386E+02  0.00000000000E+00 0.  1.
</event>
<event>
 7    1  0.1501154E-015  0.9000775E+02  0.7816164E-02  0.1186339E+00
        -11   -1    0    0    0    0  0.00000000000E+00  0.00000000000E+00  0.45593999997E+02  0.45594000000E+02  0.51100000000E-03 0. -1.
         11   -1    0    0    0    0 -0.00000000000E+00 -0.00000000000E+00 -0.45593999997E+02  0.45594000000E+02  0.51100000000E-03 0.  1.
    9900012    2    1    2    0    0 -0.36188258036E+00 -0.92043043001E-01 -0.11196251245E+01  0.90007749457E+02  0.90000010950E+02 0.  0.
         12    1    1    2    0    0  0.36188258036E+00  0.92043043001E-01  0.11196251245E+01  0.11802505426E+01  0.00000000000E+00 0. -1.
         11    1    3    3    0    0 -0.11776968244E+02  0.13557356729E+02  0.11776266404E+02  0.21475086803E+02  0.51100000000E-03 0. -1.
        -11    1    3    3    0    0 -0.10760028346E+02  0.16301772939E+02 -0.22750325734E+02  0.29985051813E+02  0.51100000000E-03 0.  1.
         12    1    3    3    0    0  0.22175114009E+02 -0.29951172711E+02  0.98544342056E+01  0.38547610842E+02  0.00000000000E+00 0. -1.
</event>
<event>
 7    1  0.1501154E-015  0.9000782E+02  0.7816164E-02  0.1186339E+00
        -11   -1    0    0    0    0  0.00000000000E+00  0.00000000000E+00  0.45593999997E+02  0.45594000000E+02  0.51100000000E-03 0.  1.
         11   -1    0    0    0    0 -0.00000000000E+00 -0.00000000000E+00 -0.45593999997E+02  0.45594000000E+02  0.51100000000E-03 0. -1.
    9900012    2    1    2    0    0  0.46365658532E-01 -0.45469719988E+00  0.10880787565E+01  0.90007824293E+02  0.90000086774E+02 0.  0.
         12    1    1    2    0    0 -0.46365658532E-01  0.45469719988E+00 -0.10880787565E+01  0.11801757065E+01  0.00000000000E+00 0. -1.
         11    1    3    3    0    0  0.20260469764E+02 -0.29055872646E+02 -0.19867821847E+02  0.40613553347E+02  0.51100000000E-03 0. -1.
        -11    1    3    3    0    0  0.43013003272E+01  0.62086114725E+01 -0.33329708855E+01  0.82557093036E+01  0.51100000000E-03 0.  1.
        -12    1    3    3    0    0 -0.24515404433E+02  0.22392563974E+02  0.24288871489E+02  0.41138561643E+02  0.00000000000E+00 0.  1.
</event>
<event>
 7    1  0.1501154E-015  0.9000775E+02  0.7816164E-02  0.1186339E+00
        -11   -1    0    0    0    0  0.00000000000E+00  0.00000000000E+00  0.45593999997E+02  0.45594000000E+02  0.51100000000E-03 0.  1.
         11   -1    0    0    0    0 -0.00000000000E+00 -0.00000000000E+00 -0.45593999997E+02  0.45594000000E+02  0.51100000000E-03 0. -1.
    9900012    2    1    2    0    0  0.11552468460E+01 -0.22113510279E+00  0.97414794806E-01  0.90007751869E+02  0.90000013394E+02 0.  0.
         12    1    1    2    0    0 -0.11552468460E+01  0.22113510279E+00 -0.97414794806E-01  0.11802481312E+01  0.00000000000E+00 0. -1.
         11    1    3    3    0    0 -0.64959309992E+01 -0.36813346640E+02  0.17701727507E+02  0.41361464763E+02  0.51100000000E-03 0. -1.
        -11    1    3    3    0    0  0.14802374060E+02  0.10315239191E+02 -0.56565315318E+01  0.18907955644E+02  0.51100000000E-03 0.  1.
        -12    1    3    3    0    0 -0.71511962152E+01  0.26276972346E+02 -0.11947781181E+02  0.29738331462E+02  0.00000000000E+00 0.  1.
</event>
<event>
 7    1  0.1501154E-015  0.9000764E+02  0.7816164E-02  0.1186339E+00
        -11   -1    0    0    0    0  0.00000000000E+00  0.00000000000E+00  0.45593999997E+02  0.45594000000E+02  0.51100000000E-03 0. -1.
         11   -1    0    0    0    0 -0.00000000000E+00 -0.00000000000E+00 -0.45593999997E+02  0.45594000000E+02  0.51100000000E-03 0.  1.
    9900012    2    1    2    0    0 -0.64420382976E+00  0.68301242340E+00 -0.71535885860E+00  0.90007642918E+02  0.89999903004E+02 0.  0.
         12    1    1    2    0    0  0.64420382976E+00 -0.68301242340E+00  0.71535885860E+00  0.11803570821E+01  0.00000000000E+00 0. -1.
         11    1    3    3    0    0  0.66327711245E+01 -0.10256761335E+02 -0.29547248492E+00  0.12218105832E+02  0.51100000000E-03 0. -1.
        -11    1    3    3    0    0  0.10785257726E+02  0.22362288300E+02 -0.31477039437E+02  0.40089870718E+02  0.51100000000E-03 0.  1.
         12    1    3    3    0    0 -0.18062232680E+02 -0.11422514541E+02  0.31057153063E+02  0.37699666367E+02  0.00000000000E+00 0. -1.
</event>
<event>
 7    1  0.1501154E-015  0.9000779E+02  0.7816164E-02  0.1186339E+00
        -11   -1    0    0    0    0  0.00000000000E+00  0.00000000000E+00  0.45593999997E+02  0.45594000000E+02  0.51100000000E-03 0.  1.
         11   -1    0    0    0    0 -0.00000000000E+00 -0.00000000000E+00 -0.45593999997E+02  0.45594000000E+02  0.51100000000E-03 0. -1.
    9900012    2    1    2    0    0 -0.32689725224E-01  0.39281562240E+00  0.11124421052E+01  0.90007788083E+02  0.90000050086E+02 0.  0.
         12    1    1    2    0    0  0.32689725224E-01 -0.39281562240E+00 -0.11124421052E+01  0.11802119169E+01  0.00000000000E+00 0. -1.
         11    1    3    3    0    0 -0.36336683686E+00  0.36539108558E+02  0.15049027628E+02  0.39518498485E+02  0.51100000000E-03 0. -1.
        -11    1    3    3    0    0  0.43636014547E+01  0.52972250876E+01 -0.14078537325E+01  0.70059734282E+01  0.51100000000E-03 0.  1.
        -12    1    3    3    0    0 -0.40329243430E+01 -0.41443518023E+02 -0.12528731791E+02  0.43483316170E+02  0.00000000000E+00 0.  1.
</event>
<event>
 7    1  0.1501154E-015  0.9000775E+02  0.7816164E-02  0.1186339E+00
        -11   -1    0    0    0    0  0.00000000000E+00  0.00000000000E+00  0.45593999997E+02  0.45594000000E+02  0.51100000000E-03 0. -1.
         11   -1    0    0    0    0 -0.00000000000E+00 -0.00000000000E+00 -0.45593999997E+02  0.45594000000E+02  0.51100000000E-03 0.  1.
    9900012    2    1    2    0    0 -0.60789486744E+00 -0.43530960223E-01 -0.10107165486E+01  0.90007754663E+02  0.90000016224E+02 0.  0.
         12    1    1    2    0    0  0.60789486744E+00  0.43530960223E-01  0.10107165486E+01  0.11802453372E+01  0.00000000000E+00 0. -1.
         11    1    3    3    0    0 -0.47912740878E+01  0.41226935946E+01 -0.10329960458E+02  0.12110367178E+02  0.51100000000E-03 0. -1.
        -11    1    3    3    0    0 -0.19128272587E+02 -0.18358883568E+01 -0.27924717840E+02  0.33897657219E+02  0.51100000000E-03 0.  1.
         12    1    3    3    0    0  0.23311651808E+02 -0.23303361980E+01  0.37243961749E+02  0.43999730267E+02  0.00000000000E+00 0. -1.
</event>
<event>
 7    1  0.1501154E-015  0.9000760E+02  0.7816164E-02  0.1186339E+00
        -11   -1    0    0    0    0  0.00000000000E+00  0.00000000000E+00  0.45593999997E+02  0.45594000000E+02  0.51100000000E-03 0.  1.
         11   -1    0    0    0    0 -0.00000000000E+00 -0.00000000000E+00 -0.45593999997E+02  0.45594000000E+02  0.51100000000E-03 0. -1.
    9900012    2    1    2    0    0 -0.32573304589E+00  0.25208826132E+00  0.11062022860E+01  0.90007604301E+02  0.89999863878E+02 0.  0.
         12    1    1    2    0    0  0.32573304589E+00 -0.25208826132E+00 -0.11062022860E+01  0.11803956990E+01  0.00000000000E+00 0. -1.
         11    1    3    3    0    0 -0.34610280413E+02 -0.17647734169E+02  0.82962306450E+01  0.39725828811E+02  0.51100000000E-03 0. -1.
        -11    1    3    3    0    0 -0.15316731652E+01  0.54864861458E+00  0.76395157584E+01  0.78108411372E+01  0.51100000000E-03 0.  1.
        -12    1    3    3    0    0  0.35816220533E+02  0.17351173815E+02 -0.14829544117E+02  0.42470934352E+02  0.00000000000E+00 0.  1.
</event>
<event>
 7    1  0.1501154E-015  0.9000789E+02  0.7816164E-02  0.1186339E+00
        -11   -1    0    0    0    0  0.00000000000E+00  0.00000000000E+00  0.45593999997E+02  0.45594000000E+02  0.51100000000E-03 0. -1.
         11   -1    0    0    0    0 -0.00000000000E+00 -0.00000000000E+00 -0.45593999997E+02  0.45594000000E+02  0.51100000000E-03 0.  1.
    9900012    2    1    2    0    0 -0.75232033778E+00 -0.40589040657E+00 -0.81359288495E+00  0.90007887168E+02  0.90000150479E+02 0.  0.
         12    1    1    2    0    0  0.75232033778E+00  0.40589040657E+00  0.81359288495E+00  0.11801128316E+01  0.00000000000E+00 0. -1.
         11    1    3    3    0    0  0.11219500213E+02  0.15625301301E+01 -0.25589092210E+02  0.27984287124E+02  0.51100000000E-03 0. -1.
        -11    1    3    3    0    0  0.45524472106E+01 -0.55560975056E+00 -0.16719503214E+02  0.17337106615E+02  0.51100000000E-03 0.  1.
         12    1    3    3    0    0 -0.16524267761E+02 -0.14128107861E+01  0.41495002539E+02  0.44686493430E+02  0.00000000000E+00 0. -1.
</event>
<event>
 7    1  0.1501154E-015  0.9000775E+02  0.7816164E-02  0.1186339E+00
        -11   -1    0    0    0    0  0.00000000000E+00  0.00000000000E+00  0.45593999997E+02  0.45594000000E+02  0.51100000000E-03 0.  1.
         11   -1    0    0    0    0 -0.00000000000E+00 -0.00000000000E+00 -0.45593999997E+02  0.45594000000E+02  0.51100000000E-03 0. -1.
    9900012    2    1    2    0    0 -0.35141285460E+00  0.34872349300E+00  0.10713979174E+01  0.90007748939E+02  0.90000010425E+02 0.  0.
         12    1    1    2    0    0  0.35141285460E+00 -0.34872349300E+00 -0.10713979174E+01  0.11802510607E+01  0.00000000000E+00 0. -1.
         11    1    3    3    0    0 -0.81191043073E+01 -0.29415414721E+01  0.38664651250E+01  0.94616105293E+01  0.51100000000E-03 0. -1.
        -11    1    3    3    0    0  0.17523557692E+02  0.12310396763E+02  0.34694505540E+02  0.40771677150E+02  0.51100000000E-03 0.  1.
         12    1    3    3    0    0 -0.97558662393E+01 -0.90201317974E+01 -0.37489572748E+02  0.39774461260E+02  0.00000000000E+00 0. -1.
</event>
<event>
 7    1  0.1501154E-015  0.9000757E+02  0.7816164E-02  0.1186339E+00
        -11   -1    0    0    0    0  0.00000000000E+00  0.00000000000E+00  0.45593999997E+02  0.45594000000E+02  0.51100000000E-03 0.  1.
         11   -1    0    0    0    0 -0.00000000000E+00 -0.00000000000E+00 -0.45593999997E+02  0.45594000000E+02  0.51100000000E-03 0. -1.
    9900012    2    1    2    0    0 -0.36507562533E+00 -0.60723217001E+00  0.94413747755E+00  0.90007573511E+02  0.89999832681E+02 0.  0.
         12    1    1    2    0    0  0.36507562533E+00  0.60723217001E+00 -0.94413747755E+00  0.11804264895E+01  0.00000000000E+00 0. -1.
         11    1    3    3    0    0  0.25616281815E+01 -0.75859306092E+01 -0.66167921857E+01  0.10387021769E+02  0.51100000000E-03 0. -1.
        -11    1    3    3    0    0  0.16246540328E+02 -0.30622386415E+02  0.13086391413E+02  0.37053127572E+02  0.51100000000E-03 0.  1.
         12    1    3    3    0    0 -0.19173244135E+02  0.37601084854E+02 -0.55254617499E+01  0.42567424169E+02  0.00000000000E+00 0. -1.
</event>
<event>
 7    1  0.1501154E-015  0.9000775E+02  0.7816164E-02  0.1186339E+00
        -11   -1    0    0    0    0  0.00000000000E+00  0.00000000000E+00  0.45593999997E+02  0.45594000000E+02  0.51100000000E-03 0.  1.
         11   -1    0    0    0    0 -0.00000000000E+00 -0.00000000000E+00 -0.45593999997E+02  0.45594000000E+02  0.51100000000E-03 0. -1.
    9900012    2    1    2    0    0  0.86265535677E+00  0.75098488020E+00  0.29126130958E+00  0.90007751846E+02  0.90000013370E+02 0.  0.
         12    1    1    2    0    0 -0.86265535677E+00 -0.75098488020E+00 -0.29126130958E+00  0.11802481541E+01  0.00000000000E+00 0. -1.
         11    1    3    3    0    0 -0.34644871023E+02  0.25538226061E+02 -0.87379036577E+01  0.43918322362E+02  0.51100000000E-03 0. -1.
        -11    1    3    3    0    0  0.35319872683E+01 -0.78874767678E+01 -0.59922897914E+00  0.86629267258E+01  0.51100000000E-03 0.  1.
        -12    1    3    3    0    0  0.31975539112E+02 -0.16899764413E+02  0.96283939464E+01  0.37426502758E+02  0.00000000000E+00 0.  1.
</event>
<event>
 7    1  0.1501154E-015  0.9000772E+02  0.7816164E-02  0.1186339E+00
        -11   -1    0    0    0    0  0.00000000000E+00  0.00000000000E+00  0.45593999997E+02  0.45594000000E+02  0.51100000000E-03 0.  1.
         11   -1    0    0    0    0 -0.00000000000E+00 -0.00000000000E+00 -0.45593999997E+02  0.45594000000E+02  0.51100000000E-03 0. -1.
    9900012    2    1    2    0    0  0.97975262311E+00  0.52858952369E+00 -0.39210677249E+00  0.90007716217E+02  0.89999977271E+02 0.  0.
         12    1    1    2    0    0 -0.97975262311E+00 -0.52858952369E+00  0.39210677249E+00  0.11802837829E+01  0.00000000000E+00 0. -1.
         11    1    3    3    0    0 -0.44337784063E+01 -0.28003278721E+02 -0.21523255626E+02  0.35596243384E+02  0.51100000000E-03 0. -1.
        -11    1    3    3    0    0 -0.64990132789E+00 -0.92161125282E+01 -0.23647638090E+01  0.95368343805E+01  0.51100000000E-03 0.  1.
        -12    1    3    3    0    0  0.60634323574E+01  0.37747980773E+02  0.23495912663E+02  0.44874638452E+02  0.00000000000E+00 0.  1.
</event>
<event>
 7    1  0.1501154E-015  0.9000771E+02  0.7816164E-02  0.1186339E+00
        -11   -1    0    0    0    0  0.00000000000E+00  0.00000000000E+00  0.45593999997E+02  0.45594000000E+02  0.51100000000E-03 0.  1.
         11   -1    0    0    0    0 -0.00000000000E+00 -0.00000000000E+00 -0.45593999997E+02  0.45594000000E+02  0.51100000000E-03 0. -1.
    9900012    2    1    2    0    0 -0.32688616521E+00 -0.29195101114E+00  0.10959027417E+01  0.90007706487E+02  0.89999967412E+02 0.  0.
         12    1    1    2    0    0  0.32688616521E+00  0.29195101114E+00 -0.10959027417E+01  0.11802935131E+01  0.00000000000E+00 0. -1.
         11    1    3    3    0    0  0.40265279485E+02 -0.95475092380E+01 -0.76513794410E+01  0.42083147129E+02  0.51100000000E-03 0. -1.
        -11    1    3    3    0    0 -0.82978267279E+01 -0.50748048799E+01 -0.37843342706E+01  0.10436894131E+02  0.51100000000E-03 0.  1.
        -12    1    3    3    0    0 -0.32294338922E+02  0.14330363107E+02  0.12531616453E+02  0.37487665227E+02  0.00000000000E+00 0.  1.
</event>
<event>
 7    1  0.1501154E-015  0.9000787E+02  0.7816164E-02  0.1186339E+00
        -11   -1    0    0    0    0  0.00000000000E+00  0.00000000000E+00  0.45593999997E+02  0.45594000000E+02  0.51100000000E-03 0.  1.
         11   -1    0    0    0    0 -0.00000000000E+00 -0.00000000000E+00 -0.45593999997E+02  0.45594000000E+02  0.51100000000E-03 0. -1.
    9900012    2    1    2    0    0 -0.51214758605E+00  0.10559405841E+01 -0.12414376078E+00  0.90007865541E+02  0.90000128566E+02 0.  0.
         12    1    1    2    0    0  0.51214758605E+00 -0.10559405841E+01  0.12414376078E+00  0.11801344586E+01  0.00000000000E+00 0. -1.
         11    1    3    3    0    0  0.31214113097E+02 -0.13465357161E+00 -0.87541938526E+01  0.32418743009E+02  0.51100000000E-03 0. -1.
        -11    1    3    3    0    0  0.49907854788E+01  0.18517844456E+01  0.18755067273E+02  0.19495886592E+02  0.51100000000E-03 0.  1.
         12    1    3    3    0    0 -0.36717046162E+02 -0.66119028989E+00 -0.10125017182E+02  0.38093235940E+02  0.00000000000E+00 0. -1.
</event>
<event>
 7    1  0.1501154E-015  0.9000773E+02  0.7816164E-02  0.1186339E+00
        -11   -1    0    0    0    0  0.00000000000E+00  0.00000000000E+00  0.45593999997E+02  0.45594000000E+02  0.51100000000E-03 0.  1.
         11   -1    0    0    0    0 -0.00000000000E+00 -0.00000000000E+00 -0.45593999997E+02  0.45594000000E+02  0.51100000000E-03 0. -1.
    9900012    2    1    2    0    0 -0.25160805205E-01  0.11763840665E+01 -0.92330088926E-01  0.90007729953E+02  0.89999991189E+02 0.  0.
         12    1    1    2    0    0  0.25160805205E-01 -0.11763840665E+01  0.92330088926E-01  0.11802700468E+01  0.00000000000E+00 0. -1.
         11    1    3    3    0    0  0.90460320653E+01 -0.90377078038E+00  0.68177074221E+00  0.91165952721E+01  0.51100000000E-03 0. -1.
        -11    1    3    3    0    0  0.12427762294E+02 -0.23550369598E+02  0.26620290113E+02  0.37652477074E+02  0.51100000000E-03 0.  1.
         12    1    3    3    0    0 -0.21498955165E+02  0.25630524445E+02 -0.27394390944E+02  0.43238657607E+02  0.00000000000E+00 0. -1.
</event>
<event>
 7    1  0.1501154E-015  0.9000787E+02  0.7816164E-02  0.1186339E+00
        -11   -1    0    0    0    0  0.00000000000E+00  0.00000000000E+00  0.45593999997E+02  0.45594000000E+02  0.51100000000E-03 0. -1.
         11   -1    0    0    0    0 -0.00000000000E+00 -0.00000000000E+00 -0.45593999997E+02  0.45594000000E+02  0.51100000000E-03 0.  1.
    9900012    2    1    2    0    0  0.55482559252E+00 -0.10376569886E+01 -0.90272515185E-01  0.90007867554E+02  0.90000130605E+02 0.  0.
         12    1    1    2    0    0 -0.55482559252E+00  0.10376569886E+01  0.90272515185E-01  0.11801324464E+01  0.00000000000E+00 0. -1.
         11    1    3    3    0    0  0.95878492104E+01  0.41478970218E-01  0.29001801003E+01  0.10016966500E+02  0.51100000000E-03 0. -1.
        -11    1    3    3    0    0  0.26657830807E+02 -0.16345580833E+02 -0.20515747711E+02  0.37399383156E+02  0.51100000000E-03 0.  1.
         12    1    3    3    0    0 -0.35690854424E+02  0.15266444874E+02  0.17525295095E+02  0.42591517897E+02  0.00000000000E+00 0. -1.
</event>
<event>
 7    1  0.1501154E-015  0.9000777E+02  0.7816164E-02  0.1186339E+00
        -11   -1    0    0    0    0  0.00000000000E+00  0.00000000000E+00  0.45593999997E+02  0.45594000000E+02  0.51100000000E-03 0.  1.
         11   -1    0    0    0    0 -0.00000000000E+00 -0.00000000000E+00 -0.45593999997E+02  0.45594000000E+02  0.51100000000E-03 0. -1.
    9900012    2    1    2    0    0  0.49405734007E+00  0.66005855262E-02  0.10718292783E+01  0.90007765182E+02  0.90000026883E+02 0.  0.
         12    1    1    2    0    0 -0.49405734007E+00 -0.66005855262E-02 -0.10718292783E+01  0.11802348177E+01  0.00000000000E+00 0. -1.
         11    1    3    3    0    0  0.46804506029E+01  0.91133830265E+01  0.38307906165E+01  0.10937793427E+02  0.51100000000E-03 0. -1.
        -11    1    3    3    0    0  0.18453906519E+01  0.27464130517E+02  0.21366001390E+02  0.34845228473E+02  0.51100000000E-03 0.  1.
         12    1    3    3    0    0 -0.60317839148E+01 -0.36570912957E+02 -0.24124962729E+02  0.44224743282E+02  0.00000000000E+00 0. -1.
</event>
<event>
 7    1  0.1501154E-015  0.9000779E+02  0.7816164E-02  0.1186339E+00
        -11   -1    0    0    0    0  0.00000000000E+00  0.00000000000E+00  0.45593999997E+02  0.45594000000E+02  0.51100000000E-03 0. -1.
         11   -1    0    0    0    0 -0.00000000000E+00 -0.00000000000E+00 -0.45593999997E+02  0.45594000000E+02  0.51100000000E-03 0.  1.
    9900012    2    1    2    0    0 -0.33121187314E+00 -0.11218890405E+01  0.15667849795E+00  0.90007794732E+02  0.90000056822E+02 0.  0.
         12    1    1    2    0    0  0.33121187314E+00  0.11218890405E+01 -0.15667849795E+00  0.11802052685E+01  0.00000000000E+00 0. -1.
         11    1    3    3    0    0  0.34784379681E+01 -0.25576098054E+02  0.33045151939E+02  0.41931114811E+02  0.51100000000E-03 0. -1.
        -11    1    3    3    0    0  0.62196883971E+01  0.59646264542E+01  0.48092277363E+00  0.86309083804E+01  0.51100000000E-03 0.  1.
        -12    1    3    3    0    0 -0.10029338238E+02  0.18489582559E+02 -0.33369396214E+02  0.39445771540E+02  0.00000000000E+00 0.  1.
</event>
<event>
 7    1  0.1501154E-015  0.9000774E+02  0.7816164E-02  0.1186339E+00
        -11   -1    0    0    0    0  0.00000000000E+00  0.00000000000E+00  0.45593999997E+02  0.45594000000E+02  0.51100000000E-03 0.  1.
         11   -1    0    0    0    0 -0.00000000000E+00 -0.00000000000E+00 -0.45593999997E+02  0.45594000000E+02  0.51100000000E-03 0. -1.
    9900012    2    1    2    0    0 -0.46148537678E+00 -0.75721420129E+00  0.77889834353E+00  0.90007735314E+02  0.89999996620E+02 0.  0.
         12    1    1    2    0    0  0.46148537678E+00  0.75721420129E+00 -0.77889834353E+00  0.11802646861E+01  0.00000000000E+00 0. -1.
         11    1    3    3    0    0 -0.37637580623E+02 -0.13258289875E+02 -0.96111899776E+01  0.41045641652E+02  0.51100000000E-03 0. -1.
        -11    1    3    3    0    0 -0.28204508926E+01 -0.91115515206E+00 -0.34649212516E+01  0.45596958769E+01  0.51100000000E-03 0.  1.
        -12    1    3    3    0    0  0.39996546139E+02  0.13412230826E+02  0.13855009573E+02  0.44402397785E+02  0.00000000000E+00 0.  1.
</event>
<event>
 7    1  0.1501154E-015  0.9000771E+02  0.7816164E-02  0.1186339E+00
        -11   -1    0    0    0    0  0.00000000000E+00  0.00000000000E+00  0.45593999997E+02  0.45594000000E+02  0.51100000000E-03 0. -1.
         11   -1    0    0    0    0 -0.00000000000E+00 -0.00000000000E+00 -0.45593999997E+02  0.45594000000E+02  0.51100000000E-03 0.  1.
    9900012    2    1    2    0    0 -0.20281390531E+00  0.10066210979E+01  0.58195113097E+00  0.90007709089E+02  0.89999970049E+02 0.  0.
         12    1    1    2    0    0  0.20281390531E+00 -0.10066210979E+01 -0.58195113097E+00  0.11802909107E+01  0.00000000000E+00 0. -1.
         11    1    3    3    0    0  0.15365714434E+01 -0.36620610389E+01 -0.44860472824E+00  0.39966222384E+01  0.51100000000E-03 0. -1.
        -11    1    3    3    0    0  0.14598038809E+02  0.30161331470E+02 -0.28296876907E+02  0.43857974145E+02  0.51100000000E-03 0.  1.
         12    1    3    3    0    0 -0.16337424158E+02 -0.25492649333E+02  0.29327432767E+02  0.42153112706E+02  0.00000000000E+00 0. -1.
</event>
<event>
 7    1  0.1501154E-015  0.9000774E+02  0.7816164E-02  0.1186339E+00
        -11   -1    0    0    0    0  0.00000000000E+00  0.00000000000E+00  0.45593999997E+02  0.45594000000E+02  0.51100000000E-03 0. -1.
         11   -1    0    0    0    0 -0.00000000000E+00 -0.00000000000E+00 -0.45593999997E+02  0.45594000000E+02  0.51100000000E-03 0.  1.
    9900012    2    1    2    0    0 -0.20324279599E+00 -0.77094796276E+00 -0.87026186233E+00  0.90007735579E+02  0.89999996888E+02 0.  0.
         12    1    1    2    0    0  0.20324279599E+00  0.77094796276E+00  0.87026186233E+00  0.11802644214E+01  0.00000000000E+00 0. -1.
         11    1    3    3    0    0  0.28974359756E+02  0.89542004121E+01 -0.26295530313E+02  0.40139084980E+02  0.51100000000E-03 0. -1.
        -11    1    3    3    0    0  0.57212208967E+01 -0.51595074090E+01  0.45913310224E+01  0.89684561698E+01  0.51100000000E-03 0.  1.
        -12    1    3    3    0    0 -0.34898823449E+02 -0.45656409659E+01  0.20833937428E+02  0.40900194429E+02  0.00000000000E+00 0.  1.
</event>
<event>
 7    1  0.1501154E-015  0.9000782E+02  0.7816164E-02  0.1186339E+00
        -11   -1    0    0    0    0  0.00000000000E+00  0.00000000000E+00  0.45593999997E+02  0.45594000000E+02  0.51100000000E-03 0. -1.
         11   -1    0    0    0    0 -0.00000000000E+00 -0.00000000000E+00 -0.45593999997E+02  0.45594000000E+02  0.51100000000E-03 0.  1.
    9900012    2    1    2    0    0 -0.70017819462E+00 -0.54743968480E+00 -0.77646434412E+00  0.90007815019E+02  0.90000077377E+02 0.  0.
         12    1    1    2    0    0  0.70017819462E+00  0.54743968480E+00  0.77646434412E+00  0.11801849814E+01  0.00000000000E+00 0. -1.
         11    1    3    3    0    0  0.17838115907E+02 -0.97142579960E+01 -0.20718029944E+01  0.20417089788E+02  0.51100000000E-03 0. -1.
        -11    1    3    3    0    0  0.20223554514E+02  0.75442606030E+01  0.17261340504E+02  0.27638051695E+02  0.51100000000E-03 0.  1.
         12    1    3    3    0    0 -0.38761848615E+02  0.16225577082E+01 -0.15966001854E+02  0.41952673536E+02  0.00000000000E+00 0. -1.
</event>
<event>
 7    1  0.1502303E-015  0.9000745E+02  0.7816164E-02  0.1186340E+00
        -11   -1    0    0    0    0  0.00000000000E+00  0.00000000000E+00  0.45593999997E+02  0.45594000000E+02  0.51100000000E-03 0. -1.
         11   -1    0    0    0    0 -0.00000000000E+00 -0.00000000000E+00 -0.45593999997E+02  0.45594000000E+02  0.51100000000E-03 0.  1.
    9900012    2    1    2    0    0 -0.34612178737E+00 -0.11603747973E+00 -0.11226910913E+01  0.90007449165E+02  0.89999706693E+02 0.  0.
         12    1    1    2    0    0  0.34612178737E+00  0.11603747973E+00  0.11226910913E+01  0.11805508354E+01  0.00000000000E+00 0. -1.
         11    1    3    3    0    0 -0.49402652418E+01  0.51127440854E+01  0.60925832282E+01  0.93630093130E+01  0.51100000000E-03 0. -1.
        -11    1    3    3    0    0 -0.16764884440E+02  0.26555135504E+02 -0.23305635332E+02  0.39107406082E+02  0.51100000000E-03 0.  1.
         12    1    3    3    0    0  0.21359027894E+02 -0.31783917070E+02  0.16090361013E+02  0.41537033770E+02  0.00000000000E+00 0. -1.
</event>
<event>
 7    1  0.1501154E-015  0.9000809E+02  0.7816164E-02  0.1186338E+00
        -11   -1    0    0    0    0  0.00000000000E+00  0.00000000000E+00  0.45593999997E+02  0.45594000000E+02  0.51100000000E-03 0.  1.
         11   -1    0    0    0    0 -0.00000000000E+00 -0.00000000000E+00 -0.45593999997E+02  0.45594000000E+02  0.51100000000E-03 0. -1.
    9900012    2    1    2    0    0  0.72272946516E+00  0.93263773824E+00  0.67621277143E-02  0.90008086123E+02  0.90000352059E+02 0.  0.
         12    1    1    2    0    0 -0.72272946516E+00 -0.93263773824E+00 -0.67621277143E-02  0.11799138769E+01  0.00000000000E+00 0. -1.
         11    1    3    3    0    0 -0.21510081263E+02 -0.35607509368E+02  0.55726789716E+00  0.41603952542E+02  0.51100000000E-03 0. -1.
        -11    1    3    3    0    0  0.18999808899E+01  0.46896222254E+01  0.81827133668E+01  0.96207734774E+01  0.51100000000E-03 0.  1.
        -12    1    3    3    0    0  0.20332829838E+02  0.31850524881E+02 -0.87332191362E+01  0.38783360104E+02  0.00000000000E+00 0.  1.
</event>
<event>
 7    1  0.1501154E-015  0.9000773E+02  0.7816164E-02  0.1186339E+00
        -11   -1    0    0    0    0  0.00000000000E+00  0.00000000000E+00  0.45593999997E+02  0.45594000000E+02  0.51100000000E-03 0.  1.
         11   -1    0    0    0    0 -0.00000000000E+00 -0.00000000000E+00 -0.45593999997E+02  0.45594000000E+02  0.51100000000E-03 0. -1.
    9900012    2    1    2    0    0 -0.25439985694E+00  0.97548926563E+00  0.61379253150E+00  0.90007728901E+02  0.89999990123E+02 0.  0.
         12    1    1    2    0    0  0.25439985694E+00 -0.97548926563E+00 -0.61379253150E+00  0.11802710986E+01  0.00000000000E+00 0. -1.
         11    1    3    3    0    0  0.32944129382E+02  0.15108263790E+02  0.31799655683E+01  0.36382516087E+02  0.51100000000E-03 0. -1.
        -11    1    3    3    0    0  0.89301942737E+01  0.51150968649E+00 -0.94139559946E+00  0.89942335894E+01  0.51100000000E-03 0.  1.
        -12    1    3    3    0    0 -0.42128723513E+02 -0.14644284211E+02 -0.16247774374E+01  0.44630979225E+02  0.00000000000E+00 0.  1.
</event>
<event>
 7    1  0.1501154E-015  0.9000798E+02  0.7816164E-02  0.1186339E+00
        -11   -1    0    0    0    0  0.00000000000E+00  0.00000000000E+00  0.45593999997E+02  0.45594000000E+02  0.51100000000E-03 0. -1.
         11   -1    0    0    0    0 -0.00000000000E+00 -0.00000000000E+00 -0.45593999997E+02  0.45594000000E+02  0.51100000000E-03 0.  1.
    9900012    2    1    2    0    0  0.72245489176E+00  0.77684057405E+00 -0.51675528799E+00  0.90007975265E+02  0.90000239738E+02 0.  0.
         12    1    1    2    0    0 -0.72245489176E+00 -0.77684057405E+00  0.51675528799E+00  0.11800247352E+01  0.00000000000E+00 0. -1.
         11    1    3    3    0    0  0.12408454587E+02  0.75400562308E+01 -0.15304378943E+01  0.14600151835E+02  0.51100000000E-03 0. -1.
        -11    1    3    3    0    0 -0.13886212263E+02 -0.39603578196E+02  0.49537709360E+01  0.42258846928E+02  0.51100000000E-03 0.  1.
         12    1    3    3    0    0  0.22002125681E+01  0.32840362539E+02 -0.39400883297E+01  0.33148976502E+02  0.00000000000E+00 0. -1.
</event>
<event>
 7    1  0.1501154E-015  0.9000779E+02  0.7816164E-02  0.1186339E+00
        -11   -1    0    0    0    0  0.00000000000E+00  0.00000000000E+00  0.45593999997E+02  0.45594000000E+02  0.51100000000E-03 0. -1.
         11   -1    0    0    0    0 -0.00000000000E+00 -0.00000000000E+00 -0.45593999997E+02  0.45594000000E+02  0.51100000000E-03 0.  1.
    9900012    2    1    2    0    0 -0.15127903045E+00 -0.36413341128E-01 -0.11699047966E+01  0.90007793023E+02  0.90000055090E+02 0.  0.
         12    1    1    2    0    0  0.15127903045E+00  0.36413341128E-01  0.11699047966E+01  0.11802069775E+01  0.00000000000E+00 0. -1.
         11    1    3    3    0    0 -0.41991781284E+01 -0.62652543676E+01  0.25854814208E+01  0.79731564442E+01  0.51100000000E-03 0. -1.
        -11    1    3    3    0    0  0.17841073093E+01 -0.37130176982E+02  0.56764317720E+01  0.37603922129E+02  0.51100000000E-03 0.  1.
         12    1    3    3    0    0  0.22637917887E+01  0.43359018008E+02 -0.94318179895E+01  0.44430714449E+02  0.00000000000E+00 0. -1.
</event>
<event>
 7    1  0.1512321E-015  0.9000770E+02  0.7816164E-02  0.1186339E+00
        -11   -1    0    0    0    0  0.00000000000E+00  0.00000000000E+00  0.45593999997E+02  0.45594000000E+02  0.51100000000E-03 0.  1.
         11   -1    0    0    0    0 -0.00000000000E+00 -0.00000000000E+00 -0.45593999997E+02  0.45594000000E+02  0.51100000000E-03 0. -1.
    9900012    2    1    2    0    0 -0.42624769958E+00 -0.46710103266E+00  0.99661342904E+00  0.90007699698E+02  0.89999960534E+02 0.  0.
         12    1    1    2    0    0  0.42624769958E+00  0.46710103266E+00 -0.99661342904E+00  0.11803003021E+01  0.00000000000E+00 0. -1.
         11    1    3    3    0    0  0.13111061368E+02 -0.19580093698E+02 -0.27996618304E+02  0.36593587363E+02  0.51100000000E-03 0. -1.
        -11    1    3    3    0    0  0.21881738111E+01 -0.93507522075E+01 -0.35519963178E+00  0.96099343657E+01  0.51100000000E-03 0.  1.
        -12    1    3    3    0    0 -0.15725482879E+02  0.28463744872E+02  0.29348431365E+02  0.43804177969E+02  0.00000000000E+00 0.  1.
</event>
<event>
 7    1  0.1501154E-015  0.9000781E+02  0.7816164E-02  0.1186339E+00
        -11   -1    0    0    0    0  0.00000000000E+00  0.00000000000E+00  0.45593999997E+02  0.45594000000E+02  0.51100000000E-03 0.  1.
         11   -1    0    0    0    0 -0.00000000000E+00 -0.00000000000E+00 -0.45593999997E+02  0.45594000000E+02  0.51100000000E-03 0. -1.
    9900012    2    1    2    0    0 -0.60884345776E+00 -0.69479757941E+00 -0.73444706076E+00  0.90007810813E+02  0.90000073116E+02 0.  0.
         12    1    1    2    0    0  0.60884345776E+00  0.69479757941E+00  0.73444706076E+00  0.11801891872E+01  0.00000000000E+00 0. -1.
         11    1    3    3    0    0 -0.32329136651E+02  0.10398273776E+02 -0.17555265316E+02  0.38229367177E+02  0.51100000000E-03 0. -1.
        -11    1    3    3    0    0 -0.58009713861E+00  0.98115263090E+01  0.10496076816E+00  0.98292206317E+01  0.51100000000E-03 0.  1.
        -12    1    3    3    0    0  0.32300390332E+02 -0.20904597664E+02  0.16715857487E+02  0.41949223004E+02  0.00000000000E+00 0.  1.
</event>
<event>
 7    1  0.1501154E-015  0.9000770E+02  0.7816164E-02  0.1186339E+00
        -11   -1    0    0    0    0  0.00000000000E+00  0.00000000000E+00  0.45593999997E+02  0.45594000000E+02  0.51100000000E-03 0. -1.
         11   -1    0    0    0    0 -0.00000000000E+00 -0.00000000000E+00 -0.45593999997E+02  0.45594000000E+02  0.51100000000E-03 0.  1.
    9900012    2    1    2    0    0  0.89767834037E+00 -0.42731156983E+00 -0.63614185760E+00  0.90007704256E+02  0.89999965152E+02 0.  0.
         12    1    1    2    0    0 -0.89767834037E+00  0.42731156983E+00  0.63614185760E+00  0.11802957441E+01  0.00000000000E+00 0. -1.
         11    1    3    3    0    0  0.26198579929E+02 -0.24312880576E+02 -0.17479278983E+02  0.39787019821E+02  0.51100000000E-03 0. -1.
        -11    1    3    3    0    0  0.76373033249E+01  0.53069513458E+01  0.51855245401E+01  0.10648089015E+02  0.51100000000E-03 0.  1.
        -12    1    3    3    0    0 -0.32938204913E+02  0.18578617661E+02  0.11657612585E+02  0.39572595420E+02  0.00000000000E+00 0.  1.
</event>
<event>
 7    1  0.1501154E-015  0.9000768E+02  0.7816164E-02  0.1186339E+00
        -11   -1    0    0    0    0  0.00000000000E+00  0.00000000000E+00  0.45593999997E+02  0.45594000000E+02  0.51100000000E-03 0.  1.
         11   -1    0    0    0    0 -0.00000000000E+00 -0.00000000000E+00 -0.45593999997E+02  0.45594000000E+02  0.51100000000E-03 0. -1.
    9900012    2    1    2    0    0 -0.48092286958E+00 -0.30259423152E+00  0.10345577919E+01  0.90007678052E+02  0.89999938603E+02 0.  0.
         12    1    1    2    0    0  0.48092286958E+00  0.30259423152E+00 -0.10345577919E+01  0.11803219477E+01  0.00000000000E+00 0. -1.
         11    1    3    3    0    0  0.11991970293E+02  0.27288378216E+01 -0.32537168533E+02  0.34783922202E+02  0.51100000000E-03 0. -1.
        -11    1    3    3    0    0  0.40333857340E+01 -0.10940097148E+01 -0.87821629048E+01  0.97258132454E+01  0.51100000000E-03 0.  1.
        -12    1    3    3    0    0 -0.16506278896E+02 -0.19374223384E+01  0.42353889230E+02  0.45497942604E+02  0.00000000000E+00 0.  1.
</event>
<event>
 7    1  0.1501154E-015  0.9000771E+02  0.7816164E-02  0.1186339E+00
        -11   -1    0    0    0    0  0.00000000000E+00  0.00000000000E+00  0.45593999997E+02  0.45594000000E+02  0.51100000000E-03 0.  1.
         11   -1    0    0    0    0 -0.00000000000E+00 -0.00000000000E+00 -0.45593999997E+02  0.45594000000E+02  0.51100000000E-03 0. -1.
    9900012    2    1    2    0    0  0.44056694104E+00 -0.10359065883E+01  0.35479480413E+00  0.90007711458E+02  0.89999972449E+02 0.  0.
         12    1    1    2    0    0 -0.44056694104E+00  0.10359065883E+01 -0.35479480413E+00  0.11802885420E+01  0.00000000000E+00 0. -1.
         11    1    3    3    0    0  0.17572430950E+02 -0.91808108284E+01 -0.30593474546E+02  0.36455977590E+02  0.51100000000E-03 0. -1.
        -11    1    3    3    0    0 -0.17543706603E+02 -0.32626038045E+01 -0.26747699583E+01  0.18043852680E+02  0.51100000000E-03 0.  1.
        -12    1    3    3    0    0  0.41184259461E+00  0.11407508044E+02  0.33623039309E+02  0.35507881188E+02  0.00000000000E+00 0.  1.
</event>
<event>
 7    1  0.1501154E-015  0.9000773E+02  0.7816164E-02  0.1186339E+00
        -11   -1    0    0    0    0  0.00000000000E+00  0.00000000000E+00  0.45593999997E+02  0.45594000000E+02  0.51100000000E-03 0.  1.
         11   -1    0    0    0    0 -0.00000000000E+00 -0.00000000000E+00 -0.45593999997E+02  0.45594000000E+02  0.51100000000E-03 0. -1.
    9900012    2    1    2    0    0 -0.21934969142E+00  0.82983215249E-01  0.11567333829E+01  0.90007731971E+02  0.89999993233E+02 0.  0.
         12    1    1    2    0    0  0.21934969142E+00 -0.82983215249E-01 -0.11567333829E+01  0.11802680290E+01  0.00000000000E+00 0. -1.
         11    1    3    3    0    0 -0.22149288713E+02  0.17303410349E+02 -0.17456248668E+02  0.33086547388E+02  0.51100000000E-03 0. -1.
        -11    1    3    3    0    0 -0.45002041925E+01  0.92563912284E+01 -0.62131297495E+01  0.12022295866E+02  0.51100000000E-03 0.  1.
        -12    1    3    3    0    0  0.26430143214E+02 -0.26476818362E+02  0.24826111801E+02  0.44898888717E+02  0.00000000000E+00 0.  1.
</event>
<event>
 7    1  0.1501154E-015  0.9000778E+02  0.7816164E-02  0.1186339E+00
        -11   -1    0    0    0    0  0.00000000000E+00  0.00000000000E+00  0.45593999997E+02  0.45594000000E+02  0.51100000000E-03 0.  1.
         11   -1    0    0    0    0 -0.00000000000E+00 -0.00000000000E+00 -0.45593999997E+02  0.45594000000E+02  0.51100000000E-03 0. -1.
    9900012    2    1    2    0    0 -0.30176441646E+00 -0.89244504356E+00  0.71092017678E+00  0.90007776540E+02  0.90000038390E+02 0.  0.
         12    1    1    2    0    0  0.30176441646E+00  0.89244504356E+00 -0.71092017678E+00  0.11802234604E+01  0.00000000000E+00 0. -1.
         11    1    3    3    0    0 -0.77323560303E+01 -0.25925199634E+01  0.60635929704E+01  0.10162561169E+02  0.51100000000E-03 0. -1.
        -11    1    3    3    0    0 -0.31520152123E+02  0.13576939810E+01  0.16053235288E+02  0.35398724360E+02  0.51100000000E-03 0.  1.
         12    1    3    3    0    0  0.38950743737E+02  0.34238093885E+00 -0.21405908081E+02  0.44446491011E+02  0.00000000000E+00 0. -1.
</event>
<event>
 7    1  0.1501154E-015  0.9000776E+02  0.7816164E-02  0.1186339E+00
        -11   -1    0    0    0    0  0.00000000000E+00  0.00000000000E+00  0.45593999997E+02  0.45594000000E+02  0.51100000000E-03 0. -1.
         11   -1    0    0    0    0 -0.00000000000E+00 -0.00000000000E+00 -0.45593999997E+02  0.45594000000E+02  0.51100000000E-03 0.  1.
    9900012    2    1    2    0    0 -0.23234700094E+00 -0.36391672182E+00 -0.10984307240E+01  0.90007758260E+02  0.90000019869E+02 0.  0.
         12    1    1    2    0    0  0.23234700094E+00  0.36391672182E+00  0.10984307240E+01  0.11802417400E+01  0.00000000000E+00 0. -1.
         11    1    3    3    0    0 -0.19165607272E+01  0.18362814247E+01 -0.12614747862E+02  0.12890965766E+02  0.51100000000E-03 0. -1.
        -11    1    3    3    0    0  0.37131888657E+02 -0.72959164132E+00  0.17637631926E+02  0.41114419848E+02  0.51100000000E-03 0.  1.
         12    1    3    3    0    0 -0.35447674930E+02 -0.14706065052E+01 -0.61213147887E+01  0.36002372647E+02  0.00000000000E+00 0. -1.
</event>
<event>
 7    1  0.1501154E-015  0.9000777E+02  0.7816164E-02  0.1186339E+00
        -11   -1    0    0    0    0  0.00000000000E+00  0.00000000000E+00  0.45593999997E+02  0.45594000000E+02  0.51100000000E-03 0. -1.
         11   -1    0    0    0    0 -0.00000000000E+00 -0.00000000000E+00 -0.45593999997E+02  0.45594000000E+02  0.51100000000E-03 0.  1.
    9900012    2    1    2    0    0 -0.22446235085E+00  0.11433803983E+01 -0.18772117940E+00  0.90007770648E+02  0.90000032421E+02 0.  0.
         12    1    1    2    0    0  0.22446235085E+00 -0.11433803983E+01  0.18772117940E+00  0.11802293520E+01  0.00000000000E+00 0. -1.
         11    1    3    3    0    0  0.36853585360E+02 -0.19669694274E+02 -0.40600447555E+01  0.41971032754E+02  0.51100000000E-03 0. -1.
        -11    1    3    3    0    0 -0.58219982086E+01  0.21049154037E+01 -0.76403021277E+01  0.98336437225E+01  0.51100000000E-03 0.  1.
        -12    1    3    3    0    0 -0.31256049502E+02  0.18708159269E+02  0.11512625704E+02  0.38203094172E+02  0.00000000000E+00 0.  1.
</event>
<event>
 7    1  0.1501154E-015  0.9000764E+02  0.7816164E-02  0.1186339E+00
        -11   -1    0    0    0    0  0.00000000000E+00  0.00000000000E+00  0.45593999997E+02  0.45594000000E+02  0.51100000000E-03 0.  1.
         11   -1    0    0    0    0 -0.00000000000E+00 -0.00000000000E+00 -0.45593999997E+02  0.45594000000E+02  0.51100000000E-03 0. -1.
    9900012    2    1    2    0    0  0.11683460716E+01 -0.88307359326E-01  0.14286811073E+00  0.90007643262E+02  0.89999903353E+02 0.  0.
         12    1    1    2    0    0 -0.11683460716E+01  0.88307359326E-01 -0.14286811073E+00  0.11803567383E+01  0.00000000000E+00 0. -1.
         11    1    3    3    0    0  0.40483728770E+01  0.35570330200E+01  0.35593126924E+01  0.64583677473E+01  0.51100000000E-03 0. -1.
        -11    1    3    3    0    0  0.36791460159E+02  0.25324842069E+01  0.14444038349E+02  0.39606252802E+02  0.51100000000E-03 0.  1.
         12    1    3    3    0    0 -0.39671486964E+02 -0.61778245862E+01 -0.17860482931E+02  0.43943022713E+02  0.00000000000E+00 0. -1.
</event>
<event>
 7    1  0.1501154E-015  0.9000774E+02  0.7816164E-02  0.1186339E+00
        -11   -1    0    0    0    0  0.00000000000E+00  0.00000000000E+00  0.45593999997E+02  0.45594000000E+02  0.51100000000E-03 0. -1.
         11   -1    0    0    0    0 -0.00000000000E+00 -0.00000000000E+00 -0.45593999997E+02  0.45594000000E+02  0.51100000000E-03 0.  1.
    9900012    2    1    2    0    0  0.10897801342E+01  0.32120840950E+00  0.31970928390E+00  0.90007741719E+02  0.90000003110E+02 0.  0.
         12    1    1    2    0    0 -0.10897801342E+01 -0.32120840950E+00 -0.31970928390E+00  0.11802582808E+01  0.00000000000E+00 0. -1.
         11    1    3    3    0    0 -0.70513132761E+00  0.27967290957E+01 -0.85001889784E+01  0.89761972323E+01  0.51100000000E-03 0. -1.
        -11    1    3    3    0    0 -0.34630247033E+02 -0.19229341731E+02 -0.14720660868E+01  0.39638221098E+02  0.51100000000E-03 0.  1.
         12    1    3    3    0    0  0.36425158495E+02  0.16753821045E+02  0.10291964349E+02  0.41393323389E+02  0.00000000000E+00 0. -1.
</event>
<event>
 7    1  0.1501154E-015  0.9000772E+02  0.7816164E-02  0.1186339E+00
        -11   -1    0    0    0    0  0.00000000000E+00  0.00000000000E+00  0.45593999997E+02  0.45594000000E+02  0.51100000000E-03 0.  1.
         11   -1    0    0    0    0 -0.00000000000E+00 -0.00000000000E+00 -0.45593999997E+02  0.45594000000E+02  0.51100000000E-03 0. -1.
    9900012    2    1    2    0    0 -0.80584314477E+00  0.67771888631E+00  0.53326522750E+00  0.90007721276E+02  0.89999982397E+02 0.  0.
         12    1    1    2    0    0  0.80584314477E+00 -0.67771888631E+00 -0.53326522750E+00  0.11802787237E+01  0.00000000000E+00 0. -1.
         11    1    3    3    0    0  0.32452712381E+00 -0.17799489884E+01 -0.15966259791E+00  0.18163228407E+01  0.51100000000E-03 0. -1.
        -11    1    3    3    0    0  0.29740412488E+02  0.73845961555E+01  0.31749639234E+02  0.44125548009E+02  0.51100000000E-03 0.  1.
         12    1    3    3    0    0 -0.30870782757E+02 -0.49269282808E+01 -0.31056711409E+02  0.44065850427E+02  0.00000000000E+00 0. -1.
</event>
<event>
 7    1  0.1501154E-015  0.9000764E+02  0.7816164E-02  0.1186339E+00
        -11   -1    0    0    0    0  0.00000000000E+00  0.00000000000E+00  0.45593999997E+02  0.45594000000E+02  0.51100000000E-03 0.  1.
         11   -1    0    0    0    0 -0.00000000000E+00 -0.00000000000E+00 -0.45593999997E+02  0.45594000000E+02  0.51100000000E-03 0. -1.
    9900012    2    1    2    0    0 -0.14646719443E-01  0.12151690171E+00  0.11739991172E+01  0.90007637848E+02  0.89999897867E+02 0.  0.
         12    1    1    2    0    0  0.14646719443E-01 -0.12151690171E+00 -0.11739991172E+01  0.11803621524E+01  0.00000000000E+00 0. -1.
         11    1    3    3    0    0 -0.31284762173E+02  0.19645596287E+02 -0.16027607390E+02  0.40268722311E+02  0.51100000000E-03 0. -1.
        -11    1    3    3    0    0 -0.35280003556E+01 -0.18329071129E+01  0.90149952306E+01  0.98527394293E+01  0.51100000000E-03 0.  1.
        -12    1    3    3    0    0  0.34798115809E+02 -0.17691172273E+02  0.81866112763E+01  0.39886176107E+02  0.00000000000E+00 0.  1.
</event>
<event>
 7    1  0.1501154E-015  0.9000768E+02  0.7816164E-02  0.1186339E+00
        -11   -1    0    0    0    0  0.00000000000E+00  0.00000000000E+00  0.45593999997E+02  0.45594000000E+02  0.51100000000E-03 0.  1.
         11   -1    0    0    0    0 -0.00000000000E+00 -0.00000000000E+00 -0.45593999997E+02  0.45594000000E+02  0.51100000000E-03 0. -1.
    9900012    2    1    2    0    0  0.15029428143E+00 -0.80090747218E+00  0.85388519555E+00  0.90007677554E+02  0.89999938097E+02 0.  0.
         12    1    1    2    0    0 -0.15029428143E+00  0.80090747218E+00 -0.85388519555E+00  0.11803224463E+01  0.00000000000E+00 0. -1.
         11    1    3    3    0    0 -0.39654774720E+02 -0.76619761716E+00 -0.67580803465E+01  0.40233814971E+02  0.51100000000E-03 0. -1.
        -11    1    3    3    0    0  0.93474119696E+01 -0.12780297114E+02 -0.24180847166E+00  0.15835674171E+02  0.51100000000E-03 0.  1.
        -12    1    3    3    0    0  0.30457657032E+02  0.12745587259E+02  0.78537740137E+01  0.33938188412E+02  0.00000000000E+00 0.  1.
</event>
<event>
 7    1  0.1501154E-015  0.9000820E+02  0.7816164E-02  0.1186338E+00
        -11   -1    0    0    0    0  0.00000000000E+00  0.00000000000E+00  0.45593999997E+02  0.45594000000E+02  0.51100000000E-03 0.  1.
         11   -1    0    0    0    0 -0.00000000000E+00 -0.00000000000E+00 -0.45593999997E+02  0.45594000000E+02  0.51100000000E-03 0. -1.
    9900012    2    1    2    0    0 -0.89805552783E+00  0.76326714412E+00 -0.53316999496E-01  0.90008202065E+02  0.90000469531E+02 0.  0.
         12    1    1    2    0    0  0.89805552783E+00 -0.76326714412E+00  0.53316999496E-01  0.11797979347E+01  0.00000000000E+00 0. -1.
         11    1    3    3    0    0  0.32828145696E+02  0.22176263331E+01 -0.10256150267E+02  0.34464382120E+02  0.51100000000E-03 0. -1.
        -11    1    3    3    0    0  0.40841623801E+01  0.12381286045E+02 -0.26015756918E+01  0.13294541091E+02  0.51100000000E-03 0.  1.
        -12    1    3    3    0    0 -0.37810363604E+02 -0.13835645234E+02  0.12804408960E+02  0.42249278854E+02  0.00000000000E+00 0.  1.
</event>
<event>
 7    1  0.1501154E-015  0.9000768E+02  0.7816164E-02  0.1186339E+00
        -11   -1    0    0    0    0  0.00000000000E+00  0.00000000000E+00  0.45593999997E+02  0.45594000000E+02  0.51100000000E-03 0. -1.
         11   -1    0    0    0    0 -0.00000000000E+00 -0.00000000000E+00 -0.45593999997E+02  0.45594000000E+02  0.51100000000E-03 0.  1.
    9900012    2    1    2    0    0 -0.11709283482E+01  0.83158261891E-01 -0.12313283666E+00  0.90007682166E+02  0.89999942771E+02 0.  0.
         12    1    1    2    0    0  0.11709283482E+01 -0.83158261891E-01  0.12313283666E+00  0.11803178338E+01  0.00000000000E+00 0. -1.
         11    1    3    3    0    0 -0.35717099323E+02 -0.29217105562E+01  0.97384315124E+01  0.37136028668E+02  0.51100000000E-03 0. -1.
        -11    1    3    3    0    0 -0.81730129020E+01  0.18672444326E-01 -0.54457945656E+01  0.98211591611E+01  0.51100000000E-03 0.  1.
        -12    1    3    3    0    0  0.42719183877E+02  0.29861963738E+01 -0.44157697834E+01  0.43050494337E+02  0.00000000000E+00 0.  1.
</event>
<event>
 7    1  0.1501154E-015  0.9000779E+02  0.7816164E-02  0.1186339E+00
        -11   -1    0    0    0    0  0.00000000000E+00  0.00000000000E+00  0.45593999997E+02  0.45594000000E+02  0.51100000000E-03 0.  1.
         11   -1    0    0    0    0 -0.00000000000E+00 -0.00000000000E+00 -0.45593999997E+02  0.45594000000E+02  0.51100000000E-03 0. -1.
    9900012    2    1    2    0    0 -0.63727606352E-02  0.14390059734E+00  0.11713915497E+01  0.90007785546E+02  0.90000047515E+02 0.  0.
         12    1    1    2    0    0  0.63727606352E-02 -0.14390059734E+00 -0.11713915497E+01  0.11802144537E+01  0.00000000000E+00 0. -1.
         11    1    3    3    0    0 -0.42082412204E+01  0.24990749309E+02 -0.25844223366E+02  0.36196280567E+02  0.51100000000E-03 0. -1.
        -11    1    3    3    0    0  0.18726158635E+01  0.70300161054E+01 -0.47983726398E+01  0.87150557581E+01  0.51100000000E-03 0.  1.
        -12    1    3    3    0    0  0.23292525962E+01 -0.31876864817E+02  0.31813987556E+02  0.45096449222E+02  0.00000000000E+00 0.  1.
</event>
<event>
 7    1  0.1501154E-015  0.9000773E+02  0.7816164E-02  0.1186339E+00
        -11   -1    0    0    0    0  0.00000000000E+00  0.00000000000E+00  0.45593999997E+02  0.45594000000E+02  0.51100000000E-03 0.  1.
         11   -1    0    0    0    0 -0.00000000000E+00 -0.00000000000E+00 -0.45593999997E+02  0.45594000000E+02  0.51100000000E-03 0. -1.
    9900012    2    1    2    0    0  0.37784695596E+00 -0.62906911413E+00  0.92441680891E+00  0.90007727697E+02  0.89999988903E+02 0.  0.
         12    1    1    2    0    0 -0.37784695596E+00  0.62906911413E+00 -0.92441680891E+00  0.11802723029E+01  0.00000000000E+00 0. -1.
         11    1    3    3    0    0  0.93325275945E+01  0.36414637568E+01  0.24300043747E+01  0.10308309809E+02  0.51100000000E-03 0. -1.
        -11    1    3    3    0    0 -0.30733742835E+01 -0.62571810489E-01  0.38713500680E+02  0.38835353479E+02  0.51100000000E-03 0.  1.
         12    1    3    3    0    0 -0.58813063550E+01 -0.42079610604E+01 -0.40219088245E+02  0.40864064409E+02  0.00000000000E+00 0. -1.
</event>
<event>
 7    1  0.1501154E-015  0.9000781E+02  0.7816164E-02  0.1186339E+00
        -11   -1    0    0    0    0  0.00000000000E+00  0.00000000000E+00  0.45593999997E+02  0.45594000000E+02  0.51100000000E-03 0. -1.
         11   -1    0    0    0    0 -0.00000000000E+00 -0.00000000000E+00 -0.45593999997E+02  0.45594000000E+02  0.51100000000E-03 0.  1.
    9900012    2    1    2    0    0 -0.11421120433E+00 -0.77634654088E+00 -0.88153096806E+00  0.90007807220E+02  0.90000069475E+02 0.  0.
         12    1    1    2    0    0  0.11421120433E+00  0.77634654088E+00  0.88153096806E+00  0.11801927802E+01  0.00000000000E+00 0. -1.
         11    1    3    3    0    0 -0.82380341848E+01 -0.40437471112E+00 -0.39202595538E+01  0.91322046279E+01  0.51100000000E-03 0. -1.
        -11    1    3    3    0    0 -0.21484726090E+02  0.19281455457E+02 -0.22925182428E+02  0.36863694461E+02  0.51100000000E-03 0.  1.
         12    1    3    3    0    0  0.29608549070E+02 -0.19653427286E+02  0.25963911014E+02  0.44011908131E+02  0.00000000000E+00 0. -1.
</event>
<event>
 7    1  0.1501154E-015  0.9000796E+02  0.7816164E-02  0.1186339E+00
        -11   -1    0    0    0    0  0.00000000000E+00  0.00000000000E+00  0.45593999997E+02  0.45594000000E+02  0.51100000000E-03 0. -1.
         11   -1    0    0    0    0 -0.00000000000E+00 -0.00000000000E+00 -0.45593999997E+02  0.45594000000E+02  0.51100000000E-03 0.  1.
    9900012    2    1    2    0    0  0.10717128216E+01 -0.41240314931E+00 -0.27175314491E+00  0.90007959958E+02  0.90000224229E+02 0.  0.
         12    1    1    2    0    0 -0.10717128216E+01  0.41240314931E+00  0.27175314491E+00  0.11800400423E+01  0.00000000000E+00 0. -1.
         11    1    3    3    0    0  0.99309648343E+01  0.36010726844E+02 -0.48760257410E+01  0.37671901169E+02  0.51100000000E-03 0. -1.
        -11    1    3    3    0    0  0.89124372622E+01  0.66834777334E-01  0.74956534011E+01  0.11645635449E+02  0.51100000000E-03 0.  1.
        -12    1    3    3    0    0 -0.17771689275E+02 -0.36489964771E+02 -0.28913808050E+01  0.40690423340E+02  0.00000000000E+00 0.  1.
</event>
<event>
 7    1  0.1501154E-015  0.9000732E+02  0.7816164E-02  0.1186340E+00
        -11   -1    0    0    0    0  0.00000000000E+00  0.00000000000E+00  0.45593999997E+02  0.45594000000E+02  0.51100000000E-03 0. -1.
         11   -1    0    0    0    0 -0.00000000000E+00 -0.00000000000E+00 -0.45593999997E+02  0.45594000000E+02  0.51100000000E-03 0.  1.
    9900012    2    1    2    0    0  0.10648013651E+01 -0.44758963670E+00  0.24469599520E+00  0.90007316063E+02  0.89999571834E+02 0.  0.
         12    1    1    2    0    0 -0.10648013651E+01  0.44758963670E+00 -0.24469599520E+00  0.11806839374E+01  0.00000000000E+00 0. -1.
         11    1    3    3    0    0  0.29133567974E+01  0.35044009634E+01  0.89495075241E+01  0.10043015440E+02  0.51100000000E-03 0. -1.
        -11    1    3    3    0    0  0.27145497999E+02 -0.26777822047E+02 -0.17615520944E+02  0.42002814115E+02  0.51100000000E-03 0.  1.
         12    1    3    3    0    0 -0.28994053431E+02  0.22825831447E+02  0.89107094151E+01  0.37961486508E+02  0.00000000000E+00 0. -1.
</event>
<event>
 7    1  0.1501154E-015  0.9000767E+02  0.7816164E-02  0.1186339E+00
        -11   -1    0    0    0    0  0.00000000000E+00  0.00000000000E+00  0.45593999997E+02  0.45594000000E+02  0.51100000000E-03 0. -1.
         11   -1    0    0    0    0 -0.00000000000E+00 -0.00000000000E+00 -0.45593999997E+02  0.45594000000E+02  0.51100000000E-03 0.  1.
    9900012    2    1    2    0    0 -0.11064023204E+01 -0.40331406500E+00 -0.79911274837E-01  0.90007672020E+02  0.89999932490E+02 0.  0.
         12    1    1    2    0    0  0.11064023204E+01  0.40331406500E+00  0.79911274837E-01  0.11803279804E+01  0.00000000000E+00 0. -1.
         11    1    3    3    0    0  0.29663590848E+01 -0.26247757282E+02  0.28069465364E+02  0.38543987011E+02  0.51100000000E-03 0. -1.
        -11    1    3    3    0    0  0.50765047632E+01  0.53646521588E+01  0.67314759921E+01  0.99931557923E+01  0.51100000000E-03 0.  1.
        -12    1    3    3    0    0 -0.91492661684E+01  0.20479791059E+02 -0.34880852631E+02  0.41470529217E+02  0.00000000000E+00 0.  1.
</event>
<event>
 7    1  0.1501154E-015  0.9000685E+02  0.7816164E-02  0.1186341E+00
        -11   -1    0    0    0    0  0.00000000000E+00  0.00000000000E+00  0.45593999997E+02  0.45594000000E+02  0.51100000000E-03 0.  1.
         11   -1    0    0    0    0 -0.00000000000E+00 -0.00000000000E+00 -0.45593999997E+02  0.45594000000E+02  0.51100000000E-03 0. -1.
    9900012    2    1    2    0    0  0.51299277901E+00 -0.52009402939E+00  0.92814099250E+00  0.90006854330E+02  0.89999104003E+02 0.  0.
         12    1    1    2    0    0 -0.51299277901E+00  0.52009402939E+00 -0.92814099250E+00  0.11811456695E+01  0.00000000000E+00 0. -1.
         11    1    3    3    0    0  0.40139535937E+01  0.49783845277E+01  0.69166115721E+01  0.94199602897E+01  0.51100000000E-03 0. -1.
        -11    1    3    3    0    0 -0.27080499448E+02  0.18704860064E+02  0.19505284038E+02  0.38258088635E+02  0.51100000000E-03 0.  1.
         12    1    3    3    0    0  0.23579538633E+02 -0.24203338621E+02 -0.25493754618E+02  0.42328805406E+02  0.00000000000E+00 0. -1.
</event>
<event>
 7    1  0.1501154E-015  0.9000784E+02  0.7816164E-02  0.1186339E+00
        -11   -1    0    0    0    0  0.00000000000E+00  0.00000000000E+00  0.45593999997E+02  0.45594000000E+02  0.51100000000E-03 0. -1.
         11   -1    0    0    0    0 -0.00000000000E+00 -0.00000000000E+00 -0.45593999997E+02  0.45594000000E+02  0.51100000000E-03 0.  1.
    9900012    2    1    2    0    0 -0.11185050242E+00 -0.11643064839E+01  0.15702242710E+00  0.90007840618E+02  0.90000103315E+02 0.  0.
         12    1    1    2    0    0  0.11185050242E+00  0.11643064839E+01 -0.15702242710E+00  0.11801593816E+01  0.00000000000E+00 0. -1.
         11    1    3    3    0    0 -0.10064419569E+01 -0.87471878390E+00  0.90339412714E+01  0.91318209312E+01  0.51100000000E-03 0. -1.
        -11    1    3    3    0    0 -0.39145340109E+02 -0.26301390412E+01  0.21094592571E+01  0.39290267271E+02  0.51100000000E-03 0.  1.
         12    1    3    3    0    0  0.40039931564E+02  0.23405513413E+01 -0.10986378101E+02  0.41585752416E+02  0.00000000000E+00 0. -1.
</event>
<event>
 7    1  0.1501154E-015  0.9000782E+02  0.7816164E-02  0.1186339E+00
        -11   -1    0    0    0    0  0.00000000000E+00  0.00000000000E+00  0.45593999997E+02  0.45594000000E+02  0.51100000000E-03 0. -1.
         11   -1    0    0    0    0 -0.00000000000E+00 -0.00000000000E+00 -0.45593999997E+02  0.45594000000E+02  0.51100000000E-03 0.  1.
    9900012    2    1    2    0    0 -0.58470783115E+00 -0.88788363401E+00  0.51245599995E+00  0.90007817070E+02  0.90000079456E+02 0.  0.
         12    1    1    2    0    0  0.58470783115E+00  0.88788363401E+00 -0.51245599995E+00  0.11801829296E+01  0.00000000000E+00 0. -1.
         11    1    3    3    0    0 -0.27215044295E+02 -0.30933421742E+02 -0.41715286630E+01  0.41411796246E+02  0.51100000000E-03 0. -1.
        -11    1    3    3    0    0  0.72992976417E+01 -0.44757890304E+01 -0.10157362926E+01  0.86223056072E+01  0.51100000000E-03 0.  1.
        -12    1    3    3    0    0  0.19331038823E+02  0.34521327138E+02  0.56997209556E+01  0.39973715218E+02  0.00000000000E+00 0.  1.
</event>
<event>
 7    1  0.1501154E-015  0.9000773E+02  0.7816164E-02  0.1186339E+00
        -11   -1    0    0    0    0  0.00000000000E+00  0.00000000000E+00  0.45593999997E+02  0.45594000000E+02  0.51100000000E-03 0.  1.
         11   -1    0    0    0    0 -0.00000000000E+00 -0.00000000000E+00 -0.45593999997E+02  0.45594000000E+02  0.51100000000E-03 0. -1.
    9900012    2    1    2    0    0 -0.72715517079E+00  0.86901955958E-01  0.92559822136E+00  0.90007729412E+02  0.89999990641E+02 0.  0.
         12    1    1    2    0    0  0.72715517079E+00 -0.86901955958E-01 -0.92559822136E+00  0.11802705875E+01  0.00000000000E+00 0. -1.
         11    1    3    3    0    0 -0.57315715887E+01  0.38796966879E+00  0.58538185024E+01  0.82017452204E+01  0.51100000000E-03 0. -1.
        -11    1    3    3    0    0 -0.11566819539E+02  0.13029365197E+02  0.33571129881E+02  0.37822961722E+02  0.51100000000E-03 0.  1.
         12    1    3    3    0    0  0.16571235957E+02 -0.13330432910E+02 -0.38499350162E+02  0.43983022470E+02  0.00000000000E+00 0. -1.
</event>
<event>
 7    1  0.1501154E-015  0.9000775E+02  0.7816164E-02  0.1186339E+00
        -11   -1    0    0    0    0  0.00000000000E+00  0.00000000000E+00  0.45593999997E+02  0.45594000000E+02  0.51100000000E-03 0. -1.
         11   -1    0    0    0    0 -0.00000000000E+00 -0.00000000000E+00 -0.45593999997E+02  0.45594000000E+02  0.51100000000E-03 0.  1.
    9900012    2    1    2    0    0 -0.74460890275E+00 -0.88648887473E+00 -0.22951584027E+00  0.90007753219E+02  0.90000014762E+02 0.  0.
         12    1    1    2    0    0  0.74460890275E+00  0.88648887473E+00  0.22951584027E+00  0.11802467810E+01  0.00000000000E+00 0. -1.
         11    1    3    3    0    0  0.83561208498E+00  0.33630366623E+02  0.16592094319E+02  0.37509964022E+02  0.51100000000E-03 0. -1.
        -11    1    3    3    0    0  0.47232294373E+01 -0.12668853041E+01  0.87886075418E+01  0.10057510501E+02  0.51100000000E-03 0.  1.
        -12    1    3    3    0    0 -0.63034504250E+01 -0.33249970194E+02 -0.25610217701E+02  0.42440278696E+02  0.00000000000E+00 0.  1.
</event>
<event>
 7    1  0.1501154E-015  0.9000777E+02  0.7816164E-02  0.1186339E+00
        -11   -1    0    0    0    0  0.00000000000E+00  0.00000000000E+00  0.45593999997E+02  0.45594000000E+02  0.51100000000E-03 0.  1.
         11   -1    0    0    0    0 -0.00000000000E+00 -0.00000000000E+00 -0.45593999997E+02  0.45594000000E+02  0.51100000000E-03 0. -1.
    9900012    2    1    2    0    0  0.23169838806E+00 -0.48865645221E+00  0.10490342129E+01  0.90007770340E+02  0.90000032108E+02 0.  0.
         12    1    1    2    0    0 -0.23169838806E+00  0.48865645221E+00 -0.10490342129E+01  0.11802296604E+01  0.00000000000E+00 0. -1.
         11    1    3    3    0    0 -0.45297528903E+01  0.11986032943E+01 -0.97614391538E+01  0.10827788589E+02  0.51100000000E-03 0. -1.
        -11    1    3    3    0    0 -0.22801021386E+02  0.26363887253E+02 -0.77291850659E+01  0.35702680982E+02  0.51100000000E-03 0.  1.
         12    1    3    3    0    0  0.27562472664E+02 -0.28051146999E+02  0.18539658433E+02  0.43477300769E+02  0.00000000000E+00 0. -1.
</event>
<event>
 7    1  0.1501154E-015  0.9000760E+02  0.7816164E-02  0.1186339E+00
        -11   -1    0    0    0    0  0.00000000000E+00  0.00000000000E+00  0.45593999997E+02  0.45594000000E+02  0.51100000000E-03 0. -1.
         11   -1    0    0    0    0 -0.00000000000E+00 -0.00000000000E+00 -0.45593999997E+02  0.45594000000E+02  0.51100000000E-03 0.  1.
    9900012    2    1    2    0    0  0.59344830222E-01 -0.92141573623E-01 -0.11753009808E+01  0.90007599952E+02  0.89999859471E+02 0.  0.
         12    1    1    2    0    0 -0.59344830222E-01  0.92141573623E-01  0.11753009808E+01  0.11804000482E+01  0.00000000000E+00 0. -1.
         11    1    3    3    0    0 -0.83026863399E+01 -0.66773418085E+00 -0.78248368585E+01  0.11428409405E+02  0.51100000000E-03 0. -1.
        -11    1    3    3    0    0  0.38148527958E+02  0.11759454654E+02 -0.12018798921E+02  0.41689884707E+02  0.51100000000E-03 0.  1.
         12    1    3    3    0    0 -0.29786496788E+02 -0.11183862047E+02  0.18668334799E+02  0.36889305840E+02  0.00000000000E+00 0. -1.
</event>
<event>
 7    1  0.1501154E-015  0.9000780E+02  0.7816164E-02  0.1186339E+00
        -11   -1    0    0    0    0  0.00000000000E+00  0.00000000000E+00  0.45593999997E+02  0.45594000000E+02  0.51100000000E-03 0. -1.
         11   -1    0    0    0    0 -0.00000000000E+00 -0.00000000000E+00 -0.45593999997E+02  0.45594000000E+02  0.51100000000E-03 0.  1.
    9900012    2    1    2    0    0  0.36792387505E+00 -0.10536932092E+01 -0.38370384103E+00  0.90007802561E+02  0.90000064755E+02 0.  0.
         12    1    1    2    0    0 -0.36792387505E+00  0.10536932092E+01  0.38370384103E+00  0.11801974388E+01  0.00000000000E+00 0. -1.
         11    1    3    3    0    0 -0.18755471190E+01  0.54847521958E+01 -0.10515973453E+02  0.12007742567E+02  0.51100000000E-03 0. -1.
        -11    1    3    3    0    0 -0.12780211378E+02  0.24211121433E+02  0.28197236488E+02  0.39301353026E+02  0.51100000000E-03 0.  1.
         12    1    3    3    0    0  0.15023682372E+02 -0.30749566838E+02 -0.18064966876E+02  0.38698706967E+02  0.00000000000E+00 0. -1.
</event>
<event>
 7    1  0.1501154E-015  0.9000775E+02  0.7816164E-02  0.1186339E+00
        -11   -1    0    0    0    0  0.00000000000E+00  0.00000000000E+00  0.45593999997E+02  0.45594000000E+02  0.51100000000E-03 0.  1.
         11   -1    0    0    0    0 -0.00000000000E+00 -0.00000000000E+00 -0.45593999997E+02  0.45594000000E+02  0.51100000000E-03 0. -1.
    9900012    2    1    2    0    0  0.19564254770E+00  0.11620718292E+01  0.65542596604E-01  0.90007753087E+02  0.90000014628E+02 0.  0.
         12    1    1    2    0    0 -0.19564254770E+00 -0.11620718292E+01 -0.65542596604E-01  0.11802469126E+01  0.00000000000E+00 0. -1.
         11    1    3    3    0    0  0.23268766128E+01 -0.97315543100E+01 -0.46488285231E+01  0.11033091632E+02  0.51100000000E-03 0. -1.
        -11    1    3    3    0    0 -0.39450150152E+02 -0.11485279403E+01  0.48256928773E+01  0.39760794452E+02  0.51100000000E-03 0.  1.
         12    1    3    3    0    0  0.37318916087E+02  0.12042154079E+02 -0.11132175761E+00  0.39213867003E+02  0.00000000000E+00 0. -1.
</event>
<event>
 7    1  0.1501154E-015  0.9000771E+02  0.7816164E-02  0.1186339E+00
        -11   -1    0    0    0    0  0.00000000000E+00  0.00000000000E+00  0.45593999997E+02  0.45594000000E+02  0.51100000000E-03 0. -1.
         11   -1    0    0    0    0 -0.00000000000E+00 -0.00000000000E+00 -0.45593999997E+02  0.45594000000E+02  0.51100000000E-03 0.  1.
    9900012    2    1    2    0    0  0.29026795531E+00  0.88704642190E+00 -0.72248180609E+00  0.90007709019E+02  0.89999969978E+02 0.  0.
         12    1    1    2    0    0 -0.29026795531E+00 -0.88704642190E+00  0.72248180609E+00  0.11802909813E+01  0.00000000000E+00 0. -1.
         11    1    3    3    0    0  0.11413771699E+01  0.10738597375E+01  0.39687477415E+02  0.39718406065E+02  0.51100000000E-03 0. -1.
        -11    1    3    3    0    0 -0.67395192678E+01 -0.84929847996E+01 -0.26233413339E+01  0.11154991295E+02  0.51100000000E-03 0.  1.
        -12    1    3    3    0    0  0.58884100532E+01  0.83061714840E+01 -0.37786617887E+02  0.39134311659E+02  0.00000000000E+00 0.  1.
</event>
<event>
 7    1  0.1501154E-015  0.9000766E+02  0.7816164E-02  0.1186339E+00
        -11   -1    0    0    0    0  0.00000000000E+00  0.00000000000E+00  0.45593999997E+02  0.45594000000E+02  0.51100000000E-03 0. -1.
         11   -1    0    0    0    0 -0.00000000000E+00 -0.00000000000E+00 -0.45593999997E+02  0.45594000000E+02  0.51100000000E-03 0.  1.
    9900012    2    1    2    0    0 -0.54612049339E+00 -0.57551690019E+00 -0.87392536952E+00  0.90007655623E+02  0.89999915878E+02 0.  0.
         12    1    1    2    0    0  0.54612049339E+00  0.57551690019E+00  0.87392536952E+00  0.11803443765E+01  0.00000000000E+00 0. -1.
         11    1    3    3    0    0  0.85387477020E+01 -0.12304466104E+02  0.34074020699E+02  0.37220276534E+02  0.51100000000E-03 0. -1.
        -11    1    3    3    0    0 -0.48688082565E+01 -0.24558897579E+01  0.66708116092E+01  0.86160557175E+01  0.51100000000E-03 0.  1.
        -12    1    3    3    0    0 -0.42160599389E+01  0.14184838962E+02 -0.41618757678E+02  0.44171323372E+02  0.00000000000E+00 0.  1.
</event>
<event>
 7    1  0.1501154E-015  0.9000765E+02  0.7816164E-02  0.1186339E+00
        -11   -1    0    0    0    0  0.00000000000E+00  0.00000000000E+00  0.45593999997E+02  0.45594000000E+02  0.51100000000E-03 0.  1.
         11   -1    0    0    0    0 -0.00000000000E+00 -0.00000000000E+00 -0.45593999997E+02  0.45594000000E+02  0.51100000000E-03 0. -1.
    9900012    2    1    2    0    0 -0.76620876291E+00  0.68527080631E+00  0.58014233846E+00  0.90007645359E+02  0.89999905477E+02 0.  0.
         12    1    1    2    0    0  0.76620876291E+00 -0.68527080631E+00 -0.58014233846E+00  0.11803546413E+01  0.00000000000E+00 0. -1.
         11    1    3    3    0    0  0.81354898044E+01 -0.14674463481E+01 -0.56686281104E+01  0.10023619010E+02  0.51100000000E-03 0. -1.
        -11    1    3    3    0    0 -0.10075871495E+02 -0.35729162760E+02 -0.10454097341E+02  0.38566622998E+02  0.51100000000E-03 0.  1.
         12    1    3    3    0    0  0.11741729279E+01  0.37881879915E+02  0.16702867790E+02  0.41417403351E+02  0.00000000000E+00 0. -1.
</event>
<event>
 7    1  0.1788292E-015  0.9000747E+02  0.7816164E-02  0.1186340E+00
        -11   -1    0    0    0    0  0.00000000000E+00  0.00000000000E+00  0.45593999997E+02  0.45594000000E+02  0.51100000000E-03 0.  1.
         11   -1    0    0    0    0 -0.00000000000E+00 -0.00000000000E+00 -0.45593999997E+02  0.45594000000E+02  0.51100000000E-03 0. -1.
    9900012    2    1    2    0    0  0.78118637839E+00  0.79800992433E-01  0.88149474119E+00  0.90007469045E+02  0.89999726836E+02 0.  0.
         12    1    1    2    0    0 -0.78118637839E+00 -0.79800992433E-01 -0.88149474119E+00  0.11805309547E+01  0.00000000000E+00 0. -1.
         11    1    3    3    0    0 -0.21059474066E+02 -0.15650523161E+02 -0.29455483746E+02  0.39447000471E+02  0.51100000000E-03 0. -1.
        -11    1    3    3    0    0  0.47353920492E+01  0.55295713465E+01 -0.57938051046E+01  0.93042073809E+01  0.51100000000E-03 0.  1.
        -12    1    3    3    0    0  0.17105268395E+02  0.10200752807E+02  0.36130783592E+02  0.41256261194E+02  0.00000000000E+00 0.  1.
</event>
<event>
 7    1  0.1528006E-015  0.9000769E+02  0.7816164E-02  0.1186339E+00
        -11   -1    0    0    0    0  0.00000000000E+00  0.00000000000E+00  0.45593999997E+02  0.45594000000E+02  0.51100000000E-03 0.  1.
         11   -1    0    0    0    0 -0.00000000000E+00 -0.00000000000E+00 -0.45593999997E+02  0.45594000000E+02  0.51100000000E-03 0. -1.
    9900012    2    1    2    0    0 -0.11389419979E+01 -0.22710275328E+00  0.21064464860E+00  0.90007688303E+02  0.89999948988E+02 0.  0.
         12    1    1    2    0    0  0.11389419979E+01  0.22710275328E+00 -0.21064464860E+00  0.11803116974E+01  0.00000000000E+00 0. -1.
         11    1    3    3    0    0  0.10996733324E+02 -0.14132902180E+02 -0.35021395385E+02  0.39334020933E+02  0.51100000000E-03 0. -1.
        -11    1    3    3    0    0 -0.25487141731E+00  0.89115950191E+01 -0.37085390708E+01  0.96558141824E+01  0.51100000000E-03 0.  1.
        -12    1    3    3    0    0 -0.11880803905E+02  0.49942044072E+01  0.38940579104E+02  0.41017853187E+02  0.00000000000E+00 0.  1.
</event>
<event>
 7    1  0.1501154E-015  0.9000863E+02  0.7816164E-02  0.1186337E+00
        -11   -1    0    0    0    0  0.00000000000E+00  0.00000000000E+00  0.45593999997E+02  0.45594000000E+02  0.51100000000E-03 0. -1.
         11   -1    0    0    0    0 -0.00000000000E+00 -0.00000000000E+00 -0.45593999997E+02  0.45594000000E+02  0.51100000000E-03 0.  1.
    9900012    2    1    2    0    0 -0.56584112525E+00  0.10165109946E+01 -0.19349352580E+00  0.90008631302E+02  0.90000904431E+02 0.  0.
         12    1    1    2    0    0  0.56584112525E+00 -0.10165109946E+01  0.19349352580E+00  0.11793686980E+01  0.00000000000E+00 0. -1.
         11    1    3    3    0    0 -0.77651861741E+01  0.57252399986E+01  0.14667696119E+01  0.97584785041E+01  0.51100000000E-03 0. -1.
        -11    1    3    3    0    0  0.29974719350E+02  0.15187280983E+02 -0.25137831485E+02  0.41964840948E+02  0.51100000000E-03 0.  1.
         12    1    3    3    0    0 -0.22775374301E+02 -0.19896009987E+02  0.23477568347E+02  0.38285311850E+02  0.00000000000E+00 0. -1.
</event>
<event>
 7    1  0.1501154E-015  0.9000769E+02  0.7816164E-02  0.1186339E+00
        -11   -1    0    0    0    0  0.00000000000E+00  0.00000000000E+00  0.45593999997E+02  0.45594000000E+02  0.51100000000E-03 0.  1.
         11   -1    0    0    0    0 -0.00000000000E+00 -0.00000000000E+00 -0.45593999997E+02  0.45594000000E+02  0.51100000000E-03 0. -1.
    9900012    2    1    2    0    0 -0.17114760991E-01 -0.11635681561E+01  0.19733286590E+00  0.90007693248E+02  0.89999953999E+02 0.  0.
         12    1    1    2    0    0  0.17114760991E-01  0.11635681561E+01 -0.19733286590E+00  0.11803067520E+01  0.00000000000E+00 0. -1.
         11    1    3    3    0    0  0.77052629346E+00  0.66190258374E+01 -0.74622991265E+01  0.10004555079E+02  0.51100000000E-03 0. -1.
        -11    1    3    3    0    0  0.43787139235E+01  0.32944120939E+02  0.17822053300E+02  0.37710924467E+02  0.51100000000E-03 0.  1.
         12    1    3    3    0    0 -0.51663549780E+01 -0.40726714933E+02 -0.10162421308E+02  0.42292213702E+02  0.00000000000E+00 0. -1.
</event>
<event>
 7    1  0.1501154E-015  0.9000753E+02  0.7816164E-02  0.1186339E+00
        -11   -1    0    0    0    0  0.00000000000E+00  0.00000000000E+00  0.45593999997E+02  0.45594000000E+02  0.51100000000E-03 0. -1.
         11   -1    0    0    0    0 -0.00000000000E+00 -0.00000000000E+00 -0.45593999997E+02  0.45594000000E+02  0.51100000000E-03 0.  1.
    9900012    2    1    2    0    0 -0.56487008483E+00 -0.93465291498E+00 -0.44816812130E+00  0.90007530200E+02  0.89999788798E+02 0.  0.
         12    1    1    2    0    0  0.56487008483E+00  0.93465291498E+00  0.44816812130E+00  0.11804698002E+01  0.00000000000E+00 0. -1.
         11    1    3    3    0    0  0.26005103775E+02 -0.12174983618E+02 -0.12263022289E+02  0.31223026189E+02  0.51100000000E-03 0. -1.
        -11    1    3    3    0    0  0.12275445643E+02 -0.41418737610E+01 -0.48082890669E+01  0.13818875787E+02  0.51100000000E-03 0.  1.
        -12    1    3    3    0    0 -0.38845419504E+02  0.15382204464E+02  0.16623143235E+02  0.44965628224E+02  0.00000000000E+00 0.  1.
</event>
<event>
 7    1  0.2428080E-015  0.9000776E+02  0.7816164E-02  0.1186339E+00
        -11   -1    0    0    0    0  0.00000000000E+00  0.00000000000E+00  0.45593999997E+02  0.45594000000E+02  0.51100000000E-03 0. -1.
         11   -1    0    0    0    0 -0.00000000000E+00 -0.00000000000E+00 -0.45593999997E+02  0.45594000000E+02  0.51100000000E-03 0.  1.
    9900012    2    1    2    0    0 -0.77307575790E+00 -0.39879009575E+00 -0.79768264421E+00  0.90007755420E+02  0.90000016991E+02 0.  0.
         12    1    1    2    0    0  0.77307575790E+00  0.39879009575E+00  0.79768264421E+00  0.11802445801E+01  0.00000000000E+00 0. -1.
         11    1    3    3    0    0  0.11133840069E+02  0.29330224115E+02  0.20329668947E+02  0.37383417193E+02  0.51100000000E-03 0. -1.
        -11    1    3    3    0    0 -0.64280085671E+01  0.59869080378E+01  0.28777444771E+01  0.92435802332E+01  0.51100000000E-03 0.  1.
        -12    1    3    3    0    0 -0.54789072595E+01 -0.35715922248E+02 -0.24005096068E+02  0.43380757993E+02  0.00000000000E+00 0.  1.
</event>
<event>
 7    1  0.1501154E-015  0.9000762E+02  0.7816164E-02  0.1186339E+00
        -11   -1    0    0    0    0  0.00000000000E+00  0.00000000000E+00  0.45593999997E+02  0.45594000000E+02  0.51100000000E-03 0. -1.
         11   -1    0    0    0    0 -0.00000000000E+00 -0.00000000000E+00 -0.45593999997E+02  0.45594000000E+02  0.51100000000E-03 0.  1.
    9900012    2    1    2    0    0  0.85523994132E+00  0.28842027536E+00 -0.76071167136E+00  0.90007617071E+02  0.89999876816E+02 0.  0.
         12    1    1    2    0    0 -0.85523994132E+00 -0.28842027536E+00  0.76071167136E+00  0.11803829291E+01  0.00000000000E+00 0. -1.
         11    1    3    3    0    0 -0.60970540114E+01  0.69119443023E+01 -0.47249549484E+01  0.10357327898E+02  0.51100000000E-03 0. -1.
        -11    1    3    3    0    0  0.28598752153E+02 -0.21521402571E+01 -0.28463069491E+02  0.40406270027E+02  0.51100000000E-03 0.  1.
         12    1    3    3    0    0 -0.21646458200E+02 -0.44713837698E+01  0.32427312768E+02  0.39244019146E+02  0.00000000000E+00 0. -1.
</event>
<event>
 7    1  0.1501154E-015  0.9000782E+02  0.7816164E-02  0.1186339E+00
        -11   -1    0    0    0    0  0.00000000000E+00  0.00000000000E+00  0.45593999997E+02  0.45594000000E+02  0.51100000000E-03 0. -1.
         11   -1    0    0    0    0 -0.00000000000E+00 -0.00000000000E+00 -0.45593999997E+02  0.45594000000E+02  0.51100000000E-03 0.  1.
    9900012    2    1    2    0    0 -0.72336911272E+00 -0.69149885966E+00 -0.62561447947E+00  0.90007819072E+02  0.90000081484E+02 0.  0.
         12    1    1    2    0    0  0.72336911272E+00  0.69149885966E+00  0.62561447947E+00  0.11801809281E+01  0.00000000000E+00 0. -1.
         11    1    3    3    0    0  0.44602281509E+01 -0.16316168306E+02 -0.36390569173E+02  0.40129596413E+02  0.51100000000E-03 0. -1.
        -11    1    3    3    0    0 -0.12731715328E+01 -0.47663234121E+01 -0.30918127076E+01  0.58222084041E+01  0.51100000000E-03 0.  1.
        -12    1    3    3    0    0 -0.39104257307E+01  0.20390992858E+02  0.38856767401E+02  0.44056014254E+02  0.00000000000E+00 0.  1.
</event>
<event>
 7    1  0.1501154E-015  0.9000741E+02  0.7816164E-02  0.1186340E+00
        -11   -1    0    0    0    0  0.00000000000E+00  0.00000000000E+00  0.45593999997E+02  0.45594000000E+02  0.51100000000E-03 0. -1.
         11   -1    0    0    0    0 -0.00000000000E+00 -0.00000000000E+00 -0.45593999997E+02  0.45594000000E+02  0.51100000000E-03 0.  1.
    9900012    2    1    2    0    0  0.11629558249E+01 -0.15134515240E+00  0.13571720436E+00  0.90007410840E+02  0.89999667862E+02 0.  0.
         12    1    1    2    0    0 -0.11629558249E+01  0.15134515240E+00 -0.13571720436E+00  0.11805891602E+01  0.00000000000E+00 0. -1.
         11    1    3    3    0    0  0.12256463705E+02  0.14118673784E+02  0.31043178963E+02  0.36238609416E+02  0.51100000000E-03 0. -1.
        -11    1    3    3    0    0 -0.37026586912E+00 -0.18043635507E+02  0.27387671708E+01  0.18254060507E+02  0.51100000000E-03 0.  1.
        -12    1    3    3    0    0 -0.10723242011E+02  0.37736165701E+01 -0.33646228930E+02  0.35514740917E+02  0.00000000000E+00 0.  1.
</event>
<event>
 7    1  0.1501154E-015  0.9000666E+02  0.7816164E-02  0.1186341E+00
        -11   -1    0    0    0    0  0.00000000000E+00  0.00000000000E+00  0.45593999997E+02  0.45594000000E+02  0.51100000000E-03 0. -1.
         11   -1    0    0    0    0 -0.00000000000E+00 -0.00000000000E+00 -0.45593999997E+02  0.45594000000E+02  0.51100000000E-03 0.  1.
    9900012    2    1    2    0    0  0.72358060680E+00  0.51871366372E+00 -0.77648717143E+00  0.90006659623E+02  0.89998906723E+02 0.  0.
         12    1    1    2    0    0 -0.72358060680E+00 -0.51871366372E+00  0.77648717143E+00  0.11813403772E+01  0.00000000000E+00 0. -1.
         11    1    3    3    0    0  0.10152420080E+01  0.81893849133E+01 -0.49384600503E+01  0.96169189204E+01  0.51100000000E-03 0. -1.
        -11    1    3    3    0    0  0.35191461514E+00  0.33656730998E+02  0.16179984892E+02  0.37345565958E+02  0.51100000000E-03 0.  1.
         12    1    3    3    0    0 -0.64357601636E+00 -0.41327402248E+02 -0.12018012013E+02  0.43044174744E+02  0.00000000000E+00 0. -1.
</event>
<event>
 7    1  0.1501154E-015  0.9000788E+02  0.7816164E-02  0.1186339E+00
        -11   -1    0    0    0    0  0.00000000000E+00  0.00000000000E+00  0.45593999997E+02  0.45594000000E+02  0.51100000000E-03 0. -1.
         11   -1    0    0    0    0 -0.00000000000E+00 -0.00000000000E+00 -0.45593999997E+02  0.45594000000E+02  0.51100000000E-03 0.  1.
    9900012    2    1    2    0    0  0.38528001920E+00 -0.11056905216E+01 -0.14726181417E+00  0.90007882097E+02  0.90000145341E+02 0.  0.
         12    1    1    2    0    0 -0.38528001920E+00  0.11056905216E+01  0.14726181417E+00  0.11801179029E+01  0.00000000000E+00 0. -1.
         11    1    3    3    0    0  0.63367602456E+01  0.91981285448E+01  0.24274221073E+01  0.11430331469E+02  0.51100000000E-03 0. -1.
        -11    1    3    3    0    0  0.53478913653E+01  0.16764499824E+02 -0.32321660734E+02  0.36801333526E+02  0.51100000000E-03 0.  1.
         12    1    3    3    0    0 -0.11299371592E+02 -0.27068318890E+02  0.29746976813E+02  0.41776217103E+02  0.00000000000E+00 0. -1.
</event>
<event>
 7    1  0.1501154E-015  0.9000773E+02  0.7816164E-02  0.1186339E+00
        -11   -1    0    0    0    0  0.00000000000E+00  0.00000000000E+00  0.45593999997E+02  0.45594000000E+02  0.51100000000E-03 0.  1.
         11   -1    0    0    0    0 -0.00000000000E+00 -0.00000000000E+00 -0.45593999997E+02  0.45594000000E+02  0.51100000000E-03 0. -1.
    9900012    2    1    2    0    0 -0.31224847555E+00  0.62012861423E+00  0.95445736995E+00  0.90007725676E+02  0.89999986855E+02 0.  0.
         12    1    1    2    0    0  0.31224847555E+00 -0.62012861423E+00 -0.95445736995E+00  0.11802743239E+01  0.00000000000E+00 0. -1.
         11    1    3    3    0    0 -0.85826620011E+01 -0.39382807186E+01 -0.20399390186E+01  0.96609261204E+01  0.51100000000E-03 0. -1.
        -11    1    3    3    0    0 -0.99185284795E+01  0.24141565921E+02  0.31741924970E+02  0.41094308771E+02  0.51100000000E-03 0.  1.
         12    1    3    3    0    0  0.18188942005E+02 -0.19583156588E+02 -0.28747528582E+02  0.39252490784E+02  0.00000000000E+00 0. -1.
</event>
<event>
 7    1  0.1501154E-015  0.9000774E+02  0.7816164E-02  0.1186339E+00
        -11   -1    0    0    0    0  0.00000000000E+00  0.00000000000E+00  0.45593999997E+02  0.45594000000E+02  0.51100000000E-03 0.  1.
         11   -1    0    0    0    0 -0.00000000000E+00 -0.00000000000E+00 -0.45593999997E+02  0.45594000000E+02  0.51100000000E-03 0. -1.
    9900012    2    1    2    0    0  0.89015633632E+00 -0.19038517725E+00 -0.75125714708E+00  0.90007740656E+02  0.90000002032E+02 0.  0.
         12    1    1    2    0    0 -0.89015633632E+00  0.19038517725E+00  0.75125714708E+00  0.11802593443E+01  0.00000000000E+00 0. -1.
         11    1    3    3    0    0  0.30415573650E+02 -0.31670708899E+01  0.20084980715E+02  0.36586116343E+02  0.51100000000E-03 0. -1.
        -11    1    3    3    0    0  0.91976797346E+01 -0.29408090311E+01 -0.16265057635E+01  0.97924047872E+01  0.51100000000E-03 0.  1.
        -12    1    3    3    0    0 -0.38723097049E+02  0.59174947437E+01 -0.19209732098E+02  0.43629219525E+02  0.00000000000E+00 0.  1.
</event>
<event>
 7    1  0.1501154E-015  0.9000780E+02  0.7816164E-02  0.1186339E+00
        -11   -1    0    0    0    0  0.00000000000E+00  0.00000000000E+00  0.45593999997E+02  0.45594000000E+02  0.51100000000E-03 0. -1.
         11   -1    0    0    0    0 -0.00000000000E+00 -0.00000000000E+00 -0.45593999997E+02  0.45594000000E+02  0.51100000000E-03 0.  1.
    9900012    2    1    2    0    0  0.14598428449E+00  0.10987832874E+01 -0.40526067019E+00  0.90007799875E+02  0.90000062033E+02 0.  0.
         12    1    1    2    0    0 -0.14598428449E+00 -0.10987832874E+01  0.40526067019E+00  0.11802001248E+01  0.00000000000E+00 0. -1.
         11    1    3    3    0    0 -0.89804281815E+01  0.29379760570E+00 -0.33923091646E+01  0.96042786864E+01  0.51100000000E-03 0. -1.
        -11    1    3    3    0    0 -0.24733052564E+02 -0.23624114224E+02 -0.11692326961E+02  0.36145998008E+02  0.51100000000E-03 0.  1.
         12    1    3    3    0    0  0.33859465030E+02  0.24429099905E+02  0.14679375456E+02  0.44257523180E+02  0.00000000000E+00 0. -1.
</event>
<event>
 7    1  0.1501154E-015  0.9000772E+02  0.7816164E-02  0.1186339E+00
        -11   -1    0    0    0    0  0.00000000000E+00  0.00000000000E+00  0.45593999997E+02  0.45594000000E+02  0.51100000000E-03 0.  1.
         11   -1    0    0    0    0 -0.00000000000E+00 -0.00000000000E+00 -0.45593999997E+02  0.45594000000E+02  0.51100000000E-03 0. -1.
    9900012    2    1    2    0    0  0.37382013084E+00  0.10227620602E+01  0.45527797497E+00  0.90007719628E+02  0.89999980727E+02 0.  0.
         12    1    1    2    0    0 -0.37382013084E+00 -0.10227620602E+01 -0.45527797497E+00  0.11802803720E+01  0.00000000000E+00 0. -1.
         11    1    3    3    0    0  0.17978669852E+02  0.29701638149E+02  0.20602066508E+02  0.40371586829E+02  0.51100000000E-03 0. -1.
        -11    1    3    3    0    0  0.83458429406E+01 -0.30572241444E+01 -0.35921388852E+01  0.95866144123E+01  0.51100000000E-03 0.  1.
        -12    1    3    3    0    0 -0.25950692662E+02 -0.25621651945E+02 -0.16554649648E+02  0.40049518387E+02  0.00000000000E+00 0.  1.
</event>
<event>
 7    1  0.1501154E-015  0.9000766E+02  0.7816164E-02  0.1186339E+00
        -11   -1    0    0    0    0  0.00000000000E+00  0.00000000000E+00  0.45593999997E+02  0.45594000000E+02  0.51100000000E-03 0.  1.
         11   -1    0    0    0    0 -0.00000000000E+00 -0.00000000000E+00 -0.45593999997E+02  0.45594000000E+02  0.51100000000E-03 0. -1.
    9900012    2    1    2    0    0 -0.13092513503E+00 -0.22152340076E+00  0.11519517173E+01  0.90007658199E+02  0.89999918487E+02 0.  0.
         12    1    1    2    0    0  0.13092513503E+00  0.22152340076E+00 -0.11519517173E+01  0.11803418009E+01  0.00000000000E+00 0. -1.
         11    1    3    3    0    0  0.76410590257E+01 -0.32772735850E+02 -0.10081146248E+02  0.35129297005E+02  0.51100000000E-03 0. -1.
        -11    1    3    3    0    0  0.33948900219E-01  0.16888855959E+01  0.21395012108E+02  0.21461594313E+02  0.51100000000E-03 0.  1.
        -12    1    3    3    0    0 -0.78059330609E+01  0.30862326853E+02 -0.10161914143E+02  0.33416766881E+02  0.00000000000E+00 0.  1.
</event>
<event>
 7    1  0.1501154E-015  0.9000780E+02  0.7816164E-02  0.1186339E+00
        -11   -1    0    0    0    0  0.00000000000E+00  0.00000000000E+00  0.45593999997E+02  0.45594000000E+02  0.51100000000E-03 0.  1.
         11   -1    0    0    0    0 -0.00000000000E+00 -0.00000000000E+00 -0.45593999997E+02  0.45594000000E+02  0.51100000000E-03 0. -1.
    9900012    2    1    2    0    0  0.18730291086E+00 -0.11405061392E+01  0.23882847687E+00  0.90007798460E+02  0.90000060600E+02 0.  0.
         12    1    1    2    0    0 -0.18730291086E+00  0.11405061392E+01 -0.23882847687E+00  0.11802015401E+01  0.00000000000E+00 0. -1.
         11    1    3    3    0    0  0.22375335921E+02 -0.38929582146E+01 -0.31035304648E+02  0.38457780956E+02  0.51100000000E-03 0. -1.
        -11    1    3    3    0    0 -0.38021427423E+01 -0.10751607967E+02 -0.16211825995E+01  0.11518749784E+02  0.51100000000E-03 0.  1.
        -12    1    3    3    0    0 -0.18385890268E+02  0.13504060043E+02  0.32895315725E+02  0.40031267719E+02  0.00000000000E+00 0.  1.
</event>
<event>
 7    1  0.1501154E-015  0.9000774E+02  0.7816164E-02  0.1186339E+00
        -11   -1    0    0    0    0  0.00000000000E+00  0.00000000000E+00  0.45593999997E+02  0.45594000000E+02  0.51100000000E-03 0.  1.
         11   -1    0    0    0    0 -0.00000000000E+00 -0.00000000000E+00 -0.45593999997E+02  0.45594000000E+02  0.51100000000E-03 0. -1.
    9900012    2    1    2    0    0  0.94404531639E+00 -0.47222894674E+00 -0.52799705684E+00  0.90007744676E+02  0.90000006106E+02 0.  0.
         12    1    1    2    0    0 -0.94404531639E+00  0.47222894674E+00  0.52799705684E+00  0.11802553239E+01  0.00000000000E+00 0. -1.
         11    1    3    3    0    0 -0.58864667988E+01 -0.28575882838E+01  0.81746063100E+01  0.10470935524E+02  0.51100000000E-03 0. -1.
        -11    1    3    3    0    0 -0.96986181671E+01 -0.14808207977E+02  0.29556888603E+02  0.34452226081E+02  0.51100000000E-03 0.  1.
         12    1    3    3    0    0  0.16529130282E+02  0.17193567314E+02 -0.38259491969E+02  0.45084583070E+02  0.00000000000E+00 0. -1.
</event>
<event>
 7    1  0.1501154E-015  0.9000752E+02  0.7816164E-02  0.1186339E+00
        -11   -1    0    0    0    0  0.00000000000E+00  0.00000000000E+00  0.45593999997E+02  0.45594000000E+02  0.51100000000E-03 0. -1.
         11   -1    0    0    0    0 -0.00000000000E+00 -0.00000000000E+00 -0.45593999997E+02  0.45594000000E+02  0.51100000000E-03 0.  1.
    9900012    2    1    2    0    0  0.65326322271E-02 -0.10885729617E+01  0.45661670570E+00  0.90007520189E+02  0.89999778655E+02 0.  0.
         12    1    1    2    0    0 -0.65326322271E-02  0.10885729617E+01 -0.45661670570E+00  0.11804798110E+01  0.00000000000E+00 0. -1.
         11    1    3    3    0    0 -0.22385634275E+02  0.15803266019E+01 -0.37714703287E+01  0.22756055079E+02  0.51100000000E-03 0. -1.
        -11    1    3    3    0    0 -0.22252709734E+02 -0.18544562759E+01  0.34321065353E+01  0.22592066176E+02  0.51100000000E-03 0.  1.
        -12    1    3    3    0    0  0.44644876641E+02 -0.81444328768E+00  0.79598049906E+00  0.44659398934E+02  0.00000000000E+00 0.  1.
</event>
<event>
 7    1  0.1501154E-015  0.9000771E+02  0.7816164E-02  0.1186339E+00
        -11   -1    0    0    0    0  0.00000000000E+00  0.00000000000E+00  0.45593999997E+02  0.45594000000E+02  0.51100000000E-03 0.  1.
         11   -1    0    0    0    0 -0.00000000000E+00 -0.00000000000E+00 -0.45593999997E+02  0.45594000000E+02  0.51100000000E-03 0. -1.
    9900012    2    1    2    0    0  0.84447879422E+00 -0.13089945462E+00  0.81412394210E+00  0.90007713215E+02  0.89999974230E+02 0.  0.
         12    1    1    2    0    0 -0.84447879422E+00  0.13089945462E+00 -0.81412394210E+00  0.11802867847E+01  0.00000000000E+00 0. -1.
         11    1    3    3    0    0 -0.98381041192E+01  0.14955427928E+01  0.37250476573E+01  0.10625484517E+02  0.51100000000E-03 0. -1.
        -11    1    3    3    0    0  0.34128098399E+02 -0.15739481984E+02  0.20991554893E+02  0.43047691814E+02  0.51100000000E-03 0.  1.
         12    1    3    3    0    0 -0.23445515485E+02  0.14113039737E+02 -0.23902478608E+02  0.36334536884E+02  0.00000000000E+00 0. -1.
</event>
<event>
 7    1  0.1501154E-015  0.9000801E+02  0.7816164E-02  0.1186339E+00
        -11   -1    0    0    0    0  0.00000000000E+00  0.00000000000E+00  0.45593999997E+02  0.45594000000E+02  0.51100000000E-03 0.  1.
         11   -1    0    0    0    0 -0.00000000000E+00 -0.00000000000E+00 -0.45593999997E+02  0.45594000000E+02  0.51100000000E-03 0. -1.
    9900012    2    1    2    0    0  0.94875528756E+00 -0.69778314125E+00 -0.73073359454E-01  0.90008009481E+02  0.90000274406E+02 0.  0.
         12    1    1    2    0    0 -0.94875528756E+00  0.69778314125E+00  0.73073359454E-01  0.11799905185E+01  0.00000000000E+00 0. -1.
         11    1    3    3    0    0  0.78489195194E+01  0.23908521512E+02 -0.24525315900E+02  0.35138498243E+02  0.51100000000E-03 0. -1.
        -11    1    3    3    0    0  0.10899051435E+02  0.34586982680E+01 -0.29350656243E+01  0.11805360070E+02  0.51100000000E-03 0.  1.
        -12    1    3    3    0    0 -0.17799215667E+02 -0.28065002921E+02  0.27387308165E+02  0.43064151169E+02  0.00000000000E+00 0.  1.
</event>
<event>
 7    1  0.1501154E-015  0.9000830E+02  0.7816164E-02  0.1186338E+00
        -11   -1    0    0    0    0  0.00000000000E+00  0.00000000000E+00  0.45593999997E+02  0.45594000000E+02  0.51100000000E-03 0. -1.
         11   -1    0    0    0    0 -0.00000000000E+00 -0.00000000000E+00 -0.45593999997E+02  0.45594000000E+02  0.51100000000E-03 0.  1.
    9900012    2    1    2    0    0  0.69989813475E+00 -0.94956445940E+00  0.12548671547E-01  0.90008301932E+02  0.90000570716E+02 0.  0.
         12    1    1    2    0    0 -0.69989813475E+00  0.94956445940E+00 -0.12548671547E-01  0.11796980676E+01  0.00000000000E+00 0. -1.
         11    1    3    3    0    0 -0.29667133626E+01  0.56849954138E+01 -0.58889697811E+01  0.87063497732E+01  0.51100000000E-03 0. -1.
        -11    1    3    3    0    0  0.33357587372E+01  0.15275943085E+02 -0.33076811124E+02  0.36586297406E+02  0.51100000000E-03 0.  1.
         12    1    3    3    0    0  0.33085276008E+00 -0.21910502959E+02  0.38978329576E+02  0.44715654753E+02  0.00000000000E+00 0. -1.
</event>
<event>
 7    1  0.1501154E-015  0.9000777E+02  0.7816164E-02  0.1186339E+00
        -11   -1    0    0    0    0  0.00000000000E+00  0.00000000000E+00  0.45593999997E+02  0.45594000000E+02  0.51100000000E-03 0.  1.
         11   -1    0    0    0    0 -0.00000000000E+00 -0.00000000000E+00 -0.45593999997E+02  0.45594000000E+02  0.51100000000E-03 0. -1.
    9900012    2    1    2    0    0 -0.10610161444E+01 -0.46801756197E+00  0.21942754097E+00  0.90007769454E+02  0.90000031210E+02 0.  0.
         12    1    1    2    0    0  0.10610161444E+01  0.46801756197E+00 -0.21942754097E+00  0.11802305465E+01  0.00000000000E+00 0. -1.
         11    1    3    3    0    0  0.87434549230E+01 -0.42151508203E+01  0.21308171187E+01  0.99375994225E+01  0.51100000000E-03 0. -1.
        -11    1    3    3    0    0 -0.12470158103E+02 -0.68348127519E+01  0.37009988088E+02  0.39647934713E+02  0.51100000000E-03 0.  1.
         12    1    3    3    0    0  0.26656870359E+01  0.10581946010E+02 -0.38921377665E+02  0.40422235318E+02  0.00000000000E+00 0. -1.
</event>
<event>
 7    1  0.1501154E-015  0.9000777E+02  0.7816164E-02  0.1186339E+00
        -11   -1    0    0    0    0  0.00000000000E+00  0.00000000000E+00  0.45593999997E+02  0.45594000000E+02  0.51100000000E-03 0. -1.
         11   -1    0    0    0    0 -0.00000000000E+00 -0.00000000000E+00 -0.45593999997E+02  0.45594000000E+02  0.51100000000E-03 0.  1.
    9900012    2    1    2    0    0 -0.73519361948E+00 -0.13872847560E+00 -0.91278750679E+00  0.90007772784E+02  0.90000034585E+02 0.  0.
         12    1    1    2    0    0  0.73519361948E+00  0.13872847560E+00  0.91278750679E+00  0.11802272157E+01  0.00000000000E+00 0. -1.
         11    1    3    3    0    0  0.77818903795E+01 -0.13360138831E+01  0.19825109001E+01  0.81408292394E+01  0.51100000000E-03 0. -1.
        -11    1    3    3    0    0  0.36305300373E+02  0.54117171530E+01  0.60059445894E+00  0.36711336555E+02  0.51100000000E-03 0.  1.
         12    1    3    3    0    0 -0.44822384372E+02 -0.42144317455E+01 -0.34958928658E+01  0.45155606990E+02  0.00000000000E+00 0. -1.
</event>
<event>
 7    1  0.1501154E-015  0.9000795E+02  0.7816164E-02  0.1186339E+00
        -11   -1    0    0    0    0  0.00000000000E+00  0.00000000000E+00  0.45593999997E+02  0.45594000000E+02  0.51100000000E-03 0.  1.
         11   -1    0    0    0    0 -0.00000000000E+00 -0.00000000000E+00 -0.45593999997E+02  0.45594000000E+02  0.51100000000E-03 0. -1.
    9900012    2    1    2    0    0  0.39609992369E+00  0.75601045516E+00  0.81490894070E+00  0.90007947654E+02  0.90000211763E+02 0.  0.
         12    1    1    2    0    0 -0.39609992369E+00 -0.75601045516E+00 -0.81490894070E+00  0.11800523461E+01  0.00000000000E+00 0. -1.
         11    1    3    3    0    0 -0.36275995960E+01  0.28976431612E+00  0.87298369647E+01  0.94579858257E+01  0.51100000000E-03 0. -1.
        -11    1    3    3    0    0 -0.19625776365E+02  0.32969517226E+02 -0.11860974922E+02  0.40160215269E+02  0.51100000000E-03 0.  1.
         12    1    3    3    0    0  0.23649475885E+02 -0.32503271087E+02  0.39460468985E+01  0.40389746559E+02  0.00000000000E+00 0. -1.
</event>
<event>
 7    1  0.1501154E-015  0.9000773E+02  0.7816164E-02  0.1186339E+00
        -11   -1    0    0    0    0  0.00000000000E+00  0.00000000000E+00  0.45593999997E+02  0.45594000000E+02  0.51100000000E-03 0.  1.
         11   -1    0    0    0    0 -0.00000000000E+00 -0.00000000000E+00 -0.45593999997E+02  0.45594000000E+02  0.51100000000E-03 0. -1.
    9900012    2    1    2    0    0 -0.10916524119E+01  0.36746730077E+00  0.25746897655E+00  0.90007734149E+02  0.89999995440E+02 0.  0.
         12    1    1    2    0    0  0.10916524119E+01 -0.36746730077E+00 -0.25746897655E+00  0.11802658512E+01  0.00000000000E+00 0. -1.
         11    1    3    3    0    0  0.45232389612E+01  0.10729622533E+01 -0.77321652171E+01  0.90220462148E+01  0.51100000000E-03 0. -1.
        -11    1    3    3    0    0  0.20488213378E+02 -0.33107295948E+02  0.24615064342E+01  0.39011779587E+02  0.51100000000E-03 0.  1.
         12    1    3    3    0    0 -0.26103104751E+02  0.32401800995E+02  0.55281277594E+01  0.41973908347E+02  0.00000000000E+00 0. -1.
</event>
<event>
 7    1  0.1501154E-015  0.9000777E+02  0.7816164E-02  0.1186339E+00
        -11   -1    0    0    0    0  0.00000000000E+00  0.00000000000E+00  0.45593999997E+02  0.45594000000E+02  0.51100000000E-03 0. -1.
         11   -1    0    0    0    0 -0.00000000000E+00 -0.00000000000E+00 -0.45593999997E+02  0.45594000000E+02  0.51100000000E-03 0.  1.
    9900012    2    1    2    0    0 -0.65048758036E+00 -0.58256848102E+00 -0.79399072026E+00  0.90007770619E+02  0.90000032391E+02 0.  0.
         12    1    1    2    0    0  0.65048758036E+00  0.58256848102E+00  0.79399072026E+00  0.11802293807E+01  0.00000000000E+00 0. -1.
         11    1    3    3    0    0 -0.56050176647E+01 -0.81427294311E+01 -0.13756979593E+01  0.99806217615E+01  0.51100000000E-03 0. -1.
        -11    1    3    3    0    0  0.18238115462E+02  0.20226234662E+01 -0.36169801053E+02  0.40558283614E+02  0.51100000000E-03 0.  1.
         12    1    3    3    0    0 -0.13283585378E+02  0.55375374839E+01  0.36751508292E+02  0.39468865243E+02  0.00000000000E+00 0. -1.
</event>
<event>
 7    1  0.1501154E-015  0.9000770E+02  0.7816164E-02  0.1186339E+00
        -11   -1    0    0    0    0  0.00000000000E+00  0.00000000000E+00  0.45593999997E+02  0.45594000000E+02  0.51100000000E-03 0.  1.
         11   -1    0    0    0    0 -0.00000000000E+00 -0.00000000000E+00 -0.45593999997E+02  0.45594000000E+02  0.51100000000E-03 0. -1.
    9900012    2    1    2    0    0 -0.11779120829E+01  0.68244388566E-01  0.31353017526E-01  0.90007696148E+02  0.89999956937E+02 0.  0.
         12    1    1    2    0    0  0.11779120829E+01 -0.68244388566E-01 -0.31353017526E-01  0.11803038521E+01  0.00000000000E+00 0. -1.
         11    1    3    3    0    0  0.14368902155E+01  0.34726438994E+01 -0.10227385282E+02  0.10896023087E+02  0.51100000000E-03 0. -1.
        -11    1    3    3    0    0 -0.43304330106E+01 -0.39842306401E+02 -0.32591642677E+01  0.40209254922E+02  0.51100000000E-03 0.  1.
         12    1    3    3    0    0  0.17156307122E+01  0.36437906890E+02  0.13517902567E+02  0.38902418139E+02  0.00000000000E+00 0. -1.
</event>
<event>
 7    1  0.1501154E-015  0.9000780E+02  0.7816164E-02  0.1186339E+00
        -11   -1    0    0    0    0  0.00000000000E+00  0.00000000000E+00  0.45593999997E+02  0.45594000000E+02  0.51100000000E-03 0.  1.
         11   -1    0    0    0    0 -0.00000000000E+00 -0.00000000000E+00 -0.45593999997E+02  0.45594000000E+02  0.51100000000E-03 0. -1.
    9900012    2    1    2    0    0 -0.56057663455E+00 -0.74789000841E+00  0.72061012620E+00  0.90007803160E+02  0.90000065361E+02 0.  0.
         12    1    1    2    0    0  0.56057663455E+00  0.74789000841E+00 -0.72061012620E+00  0.11801968403E+01  0.00000000000E+00 0. -1.
         11    1    3    3    0    0  0.11912504823E+01 -0.72780921782E+01 -0.62777641178E+01  0.96850413549E+01  0.51100000000E-03 0. -1.
        -11    1    3    3    0    0 -0.37902072847E+02 -0.75632711197E+01 -0.65994056321E+01  0.39208702491E+02  0.51100000000E-03 0.  1.
         12    1    3    3    0    0  0.36150245730E+02  0.14093473289E+02  0.13597779876E+02  0.41114059314E+02  0.00000000000E+00 0. -1.
</event>
<event>
 7    1  0.1501154E-015  0.9000776E+02  0.7816164E-02  0.1186339E+00
        -11   -1    0    0    0    0  0.00000000000E+00  0.00000000000E+00  0.45593999997E+02  0.45594000000E+02  0.51100000000E-03 0. -1.
         11   -1    0    0    0    0 -0.00000000000E+00 -0.00000000000E+00 -0.45593999997E+02  0.45594000000E+02  0.51100000000E-03 0.  1.
    9900012    2    1    2    0    0  0.60702189539E+00  0.93762466619E+00  0.38125291398E+00  0.90007758762E+02  0.90000020377E+02 0.  0.
         12    1    1    2    0    0 -0.60702189539E+00 -0.93762466619E+00 -0.38125291398E+00  0.11802412383E+01  0.00000000000E+00 0. -1.
         11    1    3    3    0    0 -0.39524634775E+01 -0.64939936956E+01 -0.60478335167E+01  0.97144331882E+01  0.51100000000E-03 0. -1.
        -11    1    3    3    0    0 -0.93252617396E+00 -0.35075554007E+02  0.11975871870E+02  0.37075404263E+02  0.51100000000E-03 0.  1.
         12    1    3    3    0    0  0.54920115469E+01  0.42507172369E+02 -0.55467854394E+01  0.43217921310E+02  0.00000000000E+00 0. -1.
</event>
<event>
 7    1  0.1501154E-015  0.9000771E+02  0.7816164E-02  0.1186339E+00
        -11   -1    0    0    0    0  0.00000000000E+00  0.00000000000E+00  0.45593999997E+02  0.45594000000E+02  0.51100000000E-03 0.  1.
         11   -1    0    0    0    0 -0.00000000000E+00 -0.00000000000E+00 -0.45593999997E+02  0.45594000000E+02  0.51100000000E-03 0. -1.
    9900012    2    1    2    0    0 -0.10875681785E+01  0.45493850495E+00 -0.57441629282E-01  0.90007714811E+02  0.89999975847E+02 0.  0.
         12    1    1    2    0    0  0.10875681785E+01 -0.45493850495E+00  0.57441629282E-01  0.11802851888E+01  0.00000000000E+00 0. -1.
         11    1    3    3    0    0 -0.26383416850E+02  0.13691791859E+02 -0.10910743435E+02  0.31663767488E+02  0.51100000000E-03 0. -1.
        -11    1    3    3    0    0 -0.11297723085E+02  0.88787075306E+01  0.63766342064E+00  0.14383205805E+02  0.51100000000E-03 0.  1.
        -12    1    3    3    0    0  0.36593571757E+02 -0.22115560885E+02  0.10215638385E+02  0.43960741518E+02  0.00000000000E+00 0.  1.
</event>
<event>
 7    1  0.1501154E-015  0.9000793E+02  0.7816164E-02  0.1186339E+00
        -11   -1    0    0    0    0  0.00000000000E+00  0.00000000000E+00  0.45593999997E+02  0.45594000000E+02  0.51100000000E-03 0.  1.
         11   -1    0    0    0    0 -0.00000000000E+00 -0.00000000000E+00 -0.45593999997E+02  0.45594000000E+02  0.51100000000E-03 0. -1.
    9900012    2    1    2    0    0 -0.51514085924E+00 -0.17310829555E+00  0.10474819850E+01  0.90007934283E+02  0.90000198216E+02 0.  0.
         12    1    1    2    0    0  0.51514085924E+00  0.17310829555E+00 -0.10474819850E+01  0.11800657167E+01  0.00000000000E+00 0. -1.
         11    1    3    3    0    0 -0.28572154422E+02  0.23781806040E+02  0.25557058825E+01  0.37262232081E+02  0.51100000000E-03 0. -1.
        -11    1    3    3    0    0 -0.74102375454E+01  0.21808709181E+01  0.33542739675E+01  0.84213403061E+01  0.51100000000E-03 0.  1.
        -12    1    3    3    0    0  0.35467251108E+02 -0.26135785254E+02 -0.48624978650E+01  0.44324361896E+02  0.00000000000E+00 0.  1.
</event>
<event>
 7    1  0.1501154E-015  0.9000769E+02  0.7816164E-02  0.1186339E+00
        -11   -1    0    0    0    0  0.00000000000E+00  0.00000000000E+00  0.45593999997E+02  0.45594000000E+02  0.51100000000E-03 0.  1.
         11   -1    0    0    0    0 -0.00000000000E+00 -0.00000000000E+00 -0.45593999997E+02  0.45594000000E+02  0.51100000000E-03 0. -1.
    9900012    2    1    2    0    0  0.57636610196E+00  0.59259769047E+00 -0.84247805180E+00  0.90007686832E+02  0.89999947498E+02 0.  0.
         12    1    1    2    0    0 -0.57636610196E+00 -0.59259769047E+00  0.84247805180E+00  0.11803131678E+01  0.00000000000E+00 0. -1.
         11    1    3    3    0    0  0.13725240412E+02  0.48650256150E+01  0.86010032265E+01  0.16912361022E+02  0.51100000000E-03 0. -1.
        -11    1    3    3    0    0  0.13163093665E+02  0.26616634533E+02  0.48251934478E+01  0.30083130834E+02  0.51100000000E-03 0.  1.
         12    1    3    3    0    0 -0.26311967974E+02 -0.30889062458E+02 -0.14268674726E+02  0.43012194976E+02  0.00000000000E+00 0. -1.
</event>
<event>
 7    1  0.1501154E-015  0.9000770E+02  0.7816164E-02  0.1186339E+00
        -11   -1    0    0    0    0  0.00000000000E+00  0.00000000000E+00  0.45593999997E+02  0.45594000000E+02  0.51100000000E-03 0. -1.
         11   -1    0    0    0    0 -0.00000000000E+00 -0.00000000000E+00 -0.45593999997E+02  0.45594000000E+02  0.51100000000E-03 0.  1.
    9900012    2    1    2    0    0 -0.10032045913E+01 -0.40376760249E+00  0.47291873989E+00  0.90007703485E+02  0.89999964371E+02 0.  0.
         12    1    1    2    0    0  0.10032045913E+01  0.40376760249E+00 -0.47291873989E+00  0.11802965150E+01  0.00000000000E+00 0. -1.
         11    1    3    3    0    0 -0.20377676389E+01 -0.10804136744E+02  0.81103712433E+01  0.13662356667E+02  0.51100000000E-03 0. -1.
        -11    1    3    3    0    0 -0.28955318456E+02 -0.18256017805E+02 -0.35996535336E+00  0.34231889056E+02  0.51100000000E-03 0.  1.
         12    1    3    3    0    0  0.29989881504E+02  0.28656386947E+02 -0.72774871500E+01  0.42113457762E+02  0.00000000000E+00 0. -1.
</event>
<event>
 7    1  0.1501154E-015  0.9000769E+02  0.7816164E-02  0.1186339E+00
        -11   -1    0    0    0    0  0.00000000000E+00  0.00000000000E+00  0.45593999997E+02  0.45594000000E+02  0.51100000000E-03 0.  1.
         11   -1    0    0    0    0 -0.00000000000E+00 -0.00000000000E+00 -0.45593999997E+02  0.45594000000E+02  0.51100000000E-03 0. -1.
    9900012    2    1    2    0    0  0.79779407431E+00 -0.55612247454E+00  0.66886737344E+00  0.90007690229E+02  0.89999950940E+02 0.  0.
         12    1    1    2    0    0 -0.79779407431E+00  0.55612247454E+00 -0.66886737344E+00  0.11803097708E+01  0.00000000000E+00 0. -1.
         11    1    3    3    0    0  0.66609995457E+01  0.15748054557E+02  0.14877250724E+01  0.17163433906E+02  0.51100000000E-03 0. -1.
        -11    1    3    3    0    0 -0.64246682345E+01 -0.36119526893E+02  0.21873816330E+02  0.42712532424E+02  0.51100000000E-03 0.  1.
         12    1    3    3    0    0  0.56146276314E+00  0.19815349861E+02 -0.22692674029E+02  0.30131723900E+02  0.00000000000E+00 0. -1.
</event>
<event>
 7    1  0.1501154E-015  0.9000785E+02  0.7816164E-02  0.1186339E+00
        -11   -1    0    0    0    0  0.00000000000E+00  0.00000000000E+00  0.45593999997E+02  0.45594000000E+02  0.51100000000E-03 0.  1.
         11   -1    0    0    0    0 -0.00000000000E+00 -0.00000000000E+00 -0.45593999997E+02  0.45594000000E+02  0.51100000000E-03 0. -1.
    9900012    2    1    2    0    0 -0.12277904450E+00 -0.51175423132E+00  0.10563091560E+01  0.90007849111E+02  0.90000111919E+02 0.  0.
         12    1    1    2    0    0  0.12277904450E+00  0.51175423132E+00 -0.10563091560E+01  0.11801508887E+01  0.00000000000E+00 0. -1.
         11    1    3    3    0    0  0.18373662702E+02  0.24044039185E+02 -0.17054879882E+02  0.34735806158E+02  0.51100000000E-03 0. -1.
        -11    1    3    3    0    0  0.15965445243E+01  0.10989118843E+02  0.15580006972E+01  0.11213253489E+02  0.51100000000E-03 0.  1.
        -12    1    3    3    0    0 -0.20092986271E+02 -0.35544912260E+02  0.16553188341E+02  0.44058789464E+02  0.00000000000E+00 0.  1.
</event>
<event>
 7    1  0.1501154E-015  0.9000784E+02  0.7816164E-02  0.1186339E+00
        -11   -1    0    0    0    0  0.00000000000E+00  0.00000000000E+00  0.45593999997E+02  0.45594000000E+02  0.51100000000E-03 0.  1.
         11   -1    0    0    0    0 -0.00000000000E+00 -0.00000000000E+00 -0.45593999997E+02  0.45594000000E+02  0.51100000000E-03 0. -1.
    9900012    2    1    2    0    0  0.76371556608E+00  0.79296257638E+00  0.42513139436E+00  0.90007835683E+02  0.90000098314E+02 0.  0.
         12    1    1    2    0    0 -0.76371556608E+00 -0.79296257638E+00 -0.42513139436E+00  0.11801643173E+01  0.00000000000E+00 0. -1.
         11    1    3    3    0    0 -0.17070801699E+02 -0.19525168396E+02 -0.31091217047E+02  0.40488371778E+02  0.51100000000E-03 0. -1.
        -11    1    3    3    0    0  0.46795291464E+01 -0.56705882345E+01  0.11505890690E+01  0.74416005956E+01  0.51100000000E-03 0.  1.
        -12    1    3    3    0    0  0.13154988119E+02  0.25988719207E+02  0.30365759372E+02  0.42077863309E+02  0.00000000000E+00 0.  1.
</event>
<event>
 7    1  0.1501154E-015  0.9000773E+02  0.7816164E-02  0.1186339E+00
        -11   -1    0    0    0    0  0.00000000000E+00  0.00000000000E+00  0.45593999997E+02  0.45594000000E+02  0.51100000000E-03 0. -1.
         11   -1    0    0    0    0 -0.00000000000E+00 -0.00000000000E+00 -0.45593999997E+02  0.45594000000E+02  0.51100000000E-03 0.  1.
    9900012    2    1    2    0    0 -0.23158386773E+00 -0.51778679617E+00 -0.10350380987E+01  0.90007729641E+02  0.89999990872E+02 0.  0.
         12    1    1    2    0    0  0.23158386773E+00  0.51778679617E+00  0.10350380987E+01  0.11802703588E+01  0.00000000000E+00 0. -1.
         11    1    3    3    0    0 -0.24511161053E+02  0.26138300591E+01 -0.27399401974E+02  0.36855886267E+02  0.51100000000E-03 0. -1.
        -11    1    3    3    0    0 -0.71117109677E+01 -0.11592950370E+02  0.67735398109E+01  0.15193872877E+02  0.51100000000E-03 0.  1.
        -12    1    3    3    0    0  0.31391288153E+02  0.84613335143E+01  0.19590824064E+02  0.37957970497E+02  0.00000000000E+00 0.  1.
</event>
<event>
 7    1  0.1501154E-015  0.9000787E+02  0.7816164E-02  0.1186339E+00
        -11   -1    0    0    0    0  0.00000000000E+00  0.00000000000E+00  0.45593999997E+02  0.45594000000E+02  0.51100000000E-03 0.  1.
         11   -1    0    0    0    0 -0.00000000000E+00 -0.00000000000E+00 -0.45593999997E+02  0.45594000000E+02  0.51100000000E-03 0. -1.
    9900012    2    1    2    0    0 -0.23591349244E+00 -0.55819532110E+00  0.10126557265E+01  0.90007869154E+02  0.90000132227E+02 0.  0.
         12    1    1    2    0    0  0.23591349244E+00  0.55819532110E+00 -0.10126557265E+01  0.11801308456E+01  0.00000000000E+00 0. -1.
         11    1    3    3    0    0  0.11135786271E+02 -0.36719889115E+02  0.16439729626E+02  0.41744708682E+02  0.51100000000E-03 0. -1.
        -11    1    3    3    0    0 -0.74547201940E+01  0.13702817404E+01  0.36271673031E+01  0.84027893062E+01  0.51100000000E-03 0.  1.
        -12    1    3    3    0    0 -0.39169795693E+01  0.34791412054E+02 -0.19054241203E+02  0.39860371166E+02  0.00000000000E+00 0.  1.
</event>
<event>
 7    1  0.1501154E-015  0.9000774E+02  0.7816164E-02  0.1186339E+00
        -11   -1    0    0    0    0  0.00000000000E+00  0.00000000000E+00  0.45593999997E+02  0.45594000000E+02  0.51100000000E-03 0.  1.
         11   -1    0    0    0    0 -0.00000000000E+00 -0.00000000000E+00 -0.45593999997E+02  0.45594000000E+02  0.51100000000E-03 0. -1.
    9900012    2    1    2    0    0  0.28487901706E+00 -0.54296747708E+00  0.10084832624E+01  0.90007742305E+02  0.90000003704E+02 0.  0.
         12    1    1    2    0    0 -0.28487901706E+00  0.54296747708E+00 -0.10084832624E+01  0.11802576948E+01  0.00000000000E+00 0. -1.
         11    1    3    3    0    0 -0.17801465435E+02  0.31024089873E+02  0.54271039221E+01  0.36177890781E+02  0.51100000000E-03 0. -1.
        -11    1    3    3    0    0 -0.33498157419E+01  0.40269049509E+00 -0.13804484501E+02  0.14210813409E+02  0.51100000000E-03 0.  1.
        -12    1    3    3    0    0  0.21436160194E+02 -0.31969747846E+02  0.93858638414E+01  0.39619038116E+02  0.00000000000E+00 0.  1.
</event>
<event>
 7    1  0.1654016E-015  0.9000794E+02  0.7816164E-02  0.1186339E+00
        -11   -1    0    0    0    0  0.00000000000E+00  0.00000000000E+00  0.45593999997E+02  0.45594000000E+02  0.51100000000E-03 0. -1.
         11   -1    0    0    0    0 -0.00000000000E+00 -0.00000000000E+00 -0.45593999997E+02  0.45594000000E+02  0.51100000000E-03 0.  1.
    9900012    2    1    2    0    0  0.93317340992E-01 -0.56431260493E+00 -0.10321731078E+01  0.90007941456E+02  0.90000205483E+02 0.  0.
         12    1    1    2    0    0 -0.93317340992E-01  0.56431260493E+00  0.10321731078E+01  0.11800585438E+01  0.00000000000E+00 0. -1.
         11    1    3    3    0    0 -0.86950215916E+01  0.39236891078E+02 -0.34481444850E+01  0.40336419308E+02  0.51100000000E-03 0. -1.
        -11    1    3    3    0    0 -0.63574048118E+01 -0.31839729226E+01 -0.58323439646E+01  0.91962229146E+01  0.51100000000E-03 0.  1.
        -12    1    3    3    0    0  0.15145743744E+02 -0.36617230760E+02  0.82483153418E+01  0.40475299234E+02  0.00000000000E+00 0.  1.
</event>
<event>
 7    1  0.1501154E-015  0.9000778E+02  0.7816164E-02  0.1186339E+00
        -11   -1    0    0    0    0  0.00000000000E+00  0.00000000000E+00  0.45593999997E+02  0.45594000000E+02  0.51100000000E-03 0. -1.
         11   -1    0    0    0    0 -0.00000000000E+00 -0.00000000000E+00 -0.45593999997E+02  0.45594000000E+02  0.51100000000E-03 0.  1.
    9900012    2    1    2    0    0  0.53937050133E+00 -0.89410064923E+00  0.55008125303E+00  0.90007777185E+02  0.90000039044E+02 0.  0.
         12    1    1    2    0    0 -0.53937050133E+00  0.89410064923E+00 -0.55008125303E+00  0.11802228152E+01  0.00000000000E+00 0. -1.
         11    1    3    3    0    0 -0.11009351977E+01  0.22118731505E+01  0.12234557706E+02  0.12481540116E+02  0.51100000000E-03 0. -1.
        -11    1    3    3    0    0  0.88350710976E+01 -0.27390893444E+02  0.21396339733E+02  0.35862555392E+02  0.51100000000E-03 0.  1.
         12    1    3    3    0    0 -0.71947653986E+01  0.24284919645E+02 -0.33080816187E+02  0.41663681677E+02  0.00000000000E+00 0. -1.
</event>
<event>
 7    1  0.2920413E-015  0.9000769E+02  0.7816164E-02  0.1186339E+00
        -11   -1    0    0    0    0  0.00000000000E+00  0.00000000000E+00  0.45593999997E+02  0.45594000000E+02  0.51100000000E-03 0. -1.
         11   -1    0    0    0    0 -0.00000000000E+00 -0.00000000000E+00 -0.45593999997E+02  0.45594000000E+02  0.51100000000E-03 0.  1.
    9900012    2    1    2    0    0 -0.85504147299E+00 -0.36212657389E+00 -0.72863675048E+00  0.90007685173E+02  0.89999945818E+02 0.  0.
         12    1    1    2    0    0  0.85504147299E+00  0.36212657389E+00  0.72863675048E+00  0.11803148267E+01  0.00000000000E+00 0. -1.
         11    1    3    3    0    0 -0.13471201073E+02 -0.26647004510E+02  0.28560975993E+02  0.41319068935E+02  0.51100000000E-03 0. -1.
        -11    1    3    3    0    0 -0.46693295500E+01 -0.16859238702E+01 -0.83251547574E+01  0.96929448434E+01  0.51100000000E-03 0.  1.
        -12    1    3    3    0    0  0.17285489150E+02  0.27970801807E+02 -0.20964457986E+02  0.38995671395E+02  0.00000000000E+00 0.  1.
</event>
<event>
 7    1  0.1501154E-015  0.9000776E+02  0.7816164E-02  0.1186339E+00
        -11   -1    0    0    0    0  0.00000000000E+00  0.00000000000E+00  0.45593999997E+02  0.45594000000E+02  0.51100000000E-03 0. -1.
         11   -1    0    0    0    0 -0.00000000000E+00 -0.00000000000E+00 -0.45593999997E+02  0.45594000000E+02  0.51100000000E-03 0.  1.
    9900012    2    1    2    0    0 -0.19177990251E+00  0.10317224766E+01 -0.54013072196E+00  0.90007757654E+02  0.90000019255E+02 0.  0.
         12    1    1    2    0    0  0.19177990251E+00 -0.10317224766E+01  0.54013072196E+00  0.11802423465E+01  0.00000000000E+00 0. -1.
         11    1    3    3    0    0 -0.32107740579E+02 -0.13148276407E+02 -0.86327988178E+01  0.35753452885E+02  0.51100000000E-03 0. -1.
        -11    1    3    3    0    0 -0.87126461934E+01  0.63001567693E+01 -0.34453014784E+01  0.11290362330E+02  0.51100000000E-03 0.  1.
        -12    1    3    3    0    0  0.40628606869E+02  0.78798421146E+01  0.11537969574E+02  0.42963942438E+02  0.00000000000E+00 0.  1.
</event>
<event>
 7    1  0.1501154E-015  0.9000771E+02  0.7816164E-02  0.1186339E+00
        -11   -1    0    0    0    0  0.00000000000E+00  0.00000000000E+00  0.45593999997E+02  0.45594000000E+02  0.51100000000E-03 0.  1.
         11   -1    0    0    0    0 -0.00000000000E+00 -0.00000000000E+00 -0.45593999997E+02  0.45594000000E+02  0.51100000000E-03 0. -1.
    9900012    2    1    2    0    0  0.53658312764E-01 -0.65219281057E+00  0.98226985687E+00  0.90007708194E+02  0.89999969142E+02 0.  0.
         12    1    1    2    0    0 -0.53658312764E-01  0.65219281057E+00 -0.98226985687E+00  0.11802918065E+01  0.00000000000E+00 0. -1.
         11    1    3    3    0    0 -0.33287316341E+02  0.99134233782E+01 -0.74544547331E+01  0.35523095134E+02  0.51100000000E-03 0. -1.
        -11    1    3    3    0    0 -0.48173012827E+01  0.72964123639E+01 -0.52340863999E+01  0.10190175942E+02  0.51100000000E-03 0.  1.
        -12    1    3    3    0    0  0.38158275936E+02 -0.17862028553E+02  0.13670810990E+02  0.44294437118E+02  0.00000000000E+00 0.  1.
</event>
<event>
 7    1  0.1501154E-015  0.9000792E+02  0.7816164E-02  0.1186339E+00
        -11   -1    0    0    0    0  0.00000000000E+00  0.00000000000E+00  0.45593999997E+02  0.45594000000E+02  0.51100000000E-03 0.  1.
         11   -1    0    0    0    0 -0.00000000000E+00 -0.00000000000E+00 -0.45593999997E+02  0.45594000000E+02  0.51100000000E-03 0. -1.
    9900012    2    1    2    0    0 -0.10907034620E+01 -0.44121685236E+00 -0.91043045403E-01  0.90007917296E+02  0.90000181004E+02 0.  0.
         12    1    1    2    0    0  0.10907034620E+01  0.44121685236E+00  0.91043045403E-01  0.11800827043E+01  0.00000000000E+00 0. -1.
         11    1    3    3    0    0 -0.43938099796E+01 -0.28408369569E+02 -0.26242642413E+02  0.38923223258E+02  0.51100000000E-03 0. -1.
        -11    1    3    3    0    0  0.26917514584E+01  0.37190059579E+01 -0.79834288571E+01  0.92093250462E+01  0.51100000000E-03 0.  1.
        -12    1    3    3    0    0  0.61135505918E+00  0.24248146759E+02  0.34135028225E+02  0.41875368991E+02  0.00000000000E+00 0.  1.
</event>
<event>
 7    1  0.1501154E-015  0.9000775E+02  0.7816164E-02  0.1186339E+00
        -11   -1    0    0    0    0  0.00000000000E+00  0.00000000000E+00  0.45593999997E+02  0.45594000000E+02  0.51100000000E-03 0.  1.
         11   -1    0    0    0    0 -0.00000000000E+00 -0.00000000000E+00 -0.45593999997E+02  0.45594000000E+02  0.51100000000E-03 0. -1.
    9900012    2    1    2    0    0 -0.66567896016E+00  0.91077139829E-01  0.97034801281E+00  0.90007746303E+02  0.90000007754E+02 0.  0.
         12    1    1    2    0    0  0.66567896016E+00 -0.91077139829E-01 -0.97034801281E+00  0.11802536970E+01  0.00000000000E+00 0. -1.
         11    1    3    3    0    0  0.48374544524E+01 -0.19411299229E+00 -0.71031023056E+01  0.85960867875E+01  0.51100000000E-03 0. -1.
        -11    1    3    3    0    0  0.23377628035E+02 -0.42416705353E+01 -0.26859889905E+02  0.35860269762E+02  0.51100000000E-03 0.  1.
         12    1    3    3    0    0 -0.28880761447E+02  0.45268606675E+01  0.34933340223E+02  0.45551389753E+02  0.00000000000E+00 0. -1.
</event>
<event>
 7    1  0.1501154E-015  0.9000774E+02  0.7816164E-02  0.1186339E+00
        -11   -1    0    0    0    0  0.00000000000E+00  0.00000000000E+00  0.45593999997E+02  0.45594000000E+02  0.51100000000E-03 0. -1.
         11   -1    0    0    0    0 -0.00000000000E+00 -0.00000000000E+00 -0.45593999997E+02  0.45594000000E+02  0.51100000000E-03 0.  1.
    9900012    2    1    2    0    0 -0.13361366697E+00 -0.10629472550E+01 -0.49527084451E+00  0.90007744651E+02  0.90000006081E+02 0.  0.
         12    1    1    2    0    0  0.13361366697E+00  0.10629472550E+01  0.49527084451E+00  0.11802553488E+01  0.00000000000E+00 0. -1.
         11    1    3    3    0    0  0.70013772624E+01 -0.49910358253E+01 -0.13694155269E+02  0.16169712767E+02  0.51100000000E-03 0.  1.
        -11    1    3    3    0    0 -0.32725828588E+01  0.38032604192E+02  0.93407062833E+01  0.39299333001E+02  0.51100000000E-03 0. -1.
         12    1    3    3    0    0 -0.38624080706E+01 -0.34104515622E+02  0.38581781413E+01  0.34538698883E+02  0.00000000000E+00 0. -1.
</event>
<event>
 7    1  0.1501154E-015  0.9000776E+02  0.7816164E-02  0.1186339E+00
        -11   -1    0    0    0    0  0.00000000000E+00  0.00000000000E+00  0.45593999997E+02  0.45594000000E+02  0.51100000000E-03 0.  1.
         11   -1    0    0    0    0 -0.00000000000E+00 -0.00000000000E+00 -0.45593999997E+02  0.45594000000E+02  0.51100000000E-03 0. -1.
    9900012    2    1    2    0    0  0.25197894539E+00  0.11647032147E+00  0.11471345365E+01  0.90007755801E+02  0.90000017377E+02 0.  0.
         12    1    1    2    0    0 -0.25197894539E+00 -0.11647032147E+00 -0.11471345365E+01  0.11802441991E+01  0.00000000000E+00 0. -1.
         11    1    3    3    0    0 -0.27653354874E+02  0.16888745769E+02 -0.19354942439E+02  0.37743232062E+02  0.51100000000E-03 0. -1.
        -11    1    3    3    0    0 -0.80841241452E+01 -0.39083391505E+01  0.18658625179E+00  0.89812578629E+01  0.51100000000E-03 0.  1.
        -12    1    3    3    0    0  0.35989457964E+02 -0.12863936297E+02  0.20315490723E+02  0.43283265876E+02  0.00000000000E+00 0.  1.
</event>
<event>
 7    1  0.1501154E-015  0.9000774E+02  0.7816164E-02  0.1186339E+00
        -11   -1    0    0    0    0  0.00000000000E+00  0.00000000000E+00  0.45593999997E+02  0.45594000000E+02  0.51100000000E-03 0.  1.
         11   -1    0    0    0    0 -0.00000000000E+00 -0.00000000000E+00 -0.45593999997E+02  0.45594000000E+02  0.51100000000E-03 0. -1.
    9900012    2    1    2    0    0 -0.58113903829E-01 -0.11768462127E+01  0.68401679878E-01  0.90007736036E+02  0.89999997352E+02 0.  0.
         12    1    1    2    0    0  0.58113903829E-01  0.11768462127E+01 -0.68401679878E-01  0.11802639636E+01  0.00000000000E+00 0. -1.
         11    1    3    3    0    0  0.18824271556E+01 -0.27387481212E+02  0.31064546606E+02  0.41456286800E+02  0.51100000000E-03 0. -1.
        -11    1    3    3    0    0  0.71405795023E+01  0.30371950988E+01  0.12050218466E+01  0.78526751880E+01  0.51100000000E-03 0.  1.
        -12    1    3    3    0    0 -0.90811205616E+01  0.23173439901E+02 -0.32201166773E+02  0.40698774048E+02  0.00000000000E+00 0.  1.
</event>
<event>
 7    1  0.1501154E-015  0.9000770E+02  0.7816164E-02  0.1186339E+00
        -11   -1    0    0    0    0  0.00000000000E+00  0.00000000000E+00  0.45593999997E+02  0.45594000000E+02  0.51100000000E-03 0. -1.
         11   -1    0    0    0    0 -0.00000000000E+00 -0.00000000000E+00 -0.45593999997E+02  0.45594000000E+02  0.51100000000E-03 0.  1.
    9900012    2    1    2    0    0 -0.56271174828E-01 -0.97884026962E+00 -0.65712287540E+00  0.90007701228E+02  0.89999962084E+02 0.  0.
         12    1    1    2    0    0  0.56271174828E-01  0.97884026962E+00  0.65712287540E+00  0.11802987723E+01  0.00000000000E+00 0. -1.
         11    1    3    3    0    0  0.31964961707E+01 -0.33703416085E+02  0.22812182930E+02  0.40823198476E+02  0.51100000000E-03 0. -1.
        -11    1    3    3    0    0 -0.53743634338E+01 -0.35796554711E+01 -0.61009623590E+01  0.88836623966E+01  0.51100000000E-03 0.  1.
        -12    1    3    3    0    0  0.21215960883E+01  0.36304231286E+02 -0.17368343446E+02  0.40300840355E+02  0.00000000000E+00 0.  1.
</event>
<event>
 7    1  0.1501154E-015  0.9000765E+02  0.7816164E-02  0.1186339E+00
        -11   -1    0    0    0    0  0.00000000000E+00  0.00000000000E+00  0.45593999997E+02  0.45594000000E+02  0.51100000000E-03 0.  1.
         11   -1    0    0    0    0 -0.00000000000E+00 -0.00000000000E+00 -0.45593999997E+02  0.45594000000E+02  0.51100000000E-03 0. -1.
    9900012    2    1    2    0    0 -0.73938968560E+00  0.59391960301E+00  0.70269996443E+00  0.90007650542E+02  0.89999910730E+02 0.  0.
         12    1    1    2    0    0  0.73938968560E+00 -0.59391960301E+00 -0.70269996443E+00  0.11803494576E+01  0.00000000000E+00 0. -1.
         11    1    3    3    0    0 -0.35740942273E+02 -0.49588452252E+01 -0.28528793724E+01  0.36195911668E+02  0.51100000000E-03 0. -1.
        -11    1    3    3    0    0 -0.85105215962E+01 -0.33945355202E+01  0.19059679759E+01  0.93586624805E+01  0.51100000000E-03 0.  1.
        -12    1    3    3    0    0  0.43512074183E+02  0.89473003485E+01  0.16496113609E+01  0.44453076394E+02  0.00000000000E+00 0.  1.
</event>
<event>
 7    1  0.1501154E-015  0.9000759E+02  0.7816164E-02  0.1186339E+00
        -11   -1    0    0    0    0  0.00000000000E+00  0.00000000000E+00  0.45593999997E+02  0.45594000000E+02  0.51100000000E-03 0. -1.
         11   -1    0    0    0    0 -0.00000000000E+00 -0.00000000000E+00 -0.45593999997E+02  0.45594000000E+02  0.51100000000E-03 0.  1.
    9900012    2    1    2    0    0  0.77721668057E+00  0.47469424810E+00 -0.75097131678E+00  0.90007594004E+02  0.89999853444E+02 0.  0.
         12    1    1    2    0    0 -0.77721668057E+00 -0.47469424810E+00  0.75097131678E+00  0.11804059964E+01  0.00000000000E+00 0. -1.
         11    1    3    3    0    0 -0.72851719893E+01 -0.52004709382E+01  0.26794168035E+01  0.93433347131E+01  0.51100000000E-03 0. -1.
        -11    1    3    3    0    0 -0.31777743337E+02  0.37036775506E+01  0.16584125882E+02  0.36035752116E+02  0.51100000000E-03 0.  1.
         12    1    3    3    0    0  0.39840132007E+02  0.19714876357E+01 -0.20014514003E+02  0.44628507175E+02  0.00000000000E+00 0. -1.
</event>
<event>
 7    1  0.1501154E-015  0.9000777E+02  0.7816164E-02  0.1186339E+00
        -11   -1    0    0    0    0  0.00000000000E+00  0.00000000000E+00  0.45593999997E+02  0.45594000000E+02  0.51100000000E-03 0. -1.
         11   -1    0    0    0    0 -0.00000000000E+00 -0.00000000000E+00 -0.45593999997E+02  0.45594000000E+02  0.51100000000E-03 0.  1.
    9900012    2    1    2    0    0  0.11043988374E+01 -0.11347214905E+00 -0.40047073514E+00  0.90007767171E+02  0.90000028898E+02 0.  0.
         12    1    1    2    0    0 -0.11043988374E+01  0.11347214905E+00  0.40047073514E+00  0.11802328289E+01  0.00000000000E+00 0. -1.
         11    1    3    3    0    0  0.47344318978E+01 -0.53006399359E+01 -0.54494170232E+01  0.89558793694E+01  0.51100000000E-03 0. -1.
        -11    1    3    3    0    0  0.18793189841E+02 -0.20807835908E+02 -0.23357912437E+02  0.36493041710E+02  0.51100000000E-03 0.  1.
         12    1    3    3    0    0 -0.22423222902E+02  0.25995003695E+02  0.28406858725E+02  0.44558846092E+02  0.00000000000E+00 0. -1.
</event>
<event>
 7    1  0.1501154E-015  0.9000773E+02  0.7816164E-02  0.1186339E+00
        -11   -1    0    0    0    0  0.00000000000E+00  0.00000000000E+00  0.45593999997E+02  0.45594000000E+02  0.51100000000E-03 0.  1.
         11   -1    0    0    0    0 -0.00000000000E+00 -0.00000000000E+00 -0.45593999997E+02  0.45594000000E+02  0.51100000000E-03 0. -1.
    9900012    2    1    2    0    0 -0.10490716233E+01  0.38966503451E+00  0.37501938049E+00  0.90007733231E+02  0.89999994510E+02 0.  0.
         12    1    1    2    0    0  0.10490716233E+01 -0.38966503451E+00 -0.37501938049E+00  0.11802667688E+01  0.00000000000E+00 0. -1.
         11    1    3    3    0    0 -0.11929682856E+02  0.11725743188E+02  0.77946014114E+01  0.18454435721E+02  0.51100000000E-03 0. -1.
        -11    1    3    3    0    0 -0.14655605361E+02  0.47235816628E+01 -0.30101350779E+02  0.33811097457E+02  0.51100000000E-03 0.  1.
         12    1    3    3    0    0  0.25536216594E+02 -0.16059659816E+02  0.22681768748E+02  0.37742200054E+02  0.00000000000E+00 0. -1.
</event>
<event>
 7    1  0.1501154E-015  0.9000770E+02  0.7816164E-02  0.1186339E+00
        -11   -1    0    0    0    0  0.00000000000E+00  0.00000000000E+00  0.45593999997E+02  0.45594000000E+02  0.51100000000E-03 0. -1.
         11   -1    0    0    0    0 -0.00000000000E+00 -0.00000000000E+00 -0.45593999997E+02  0.45594000000E+02  0.51100000000E-03 0.  1.
    9900012    2    1    2    0    0  0.30770072057E+00 -0.38272415025E+00  0.10732878497E+01  0.90007701598E+02  0.89999962459E+02 0.  0.
         12    1    1    2    0    0 -0.30770072057E+00  0.38272415025E+00 -0.10732878497E+01  0.11802984017E+01  0.00000000000E+00 0. -1.
         11    1    3    3    0    0  0.46182128698E+01 -0.75884885112E+01  0.21245658797E+02  0.23028049548E+02  0.51100000000E-03 0. -1.
        -11    1    3    3    0    0 -0.81995587189E+01  0.50217042255E+01  0.22294325503E+02  0.24279358032E+02  0.51100000000E-03 0.  1.
        -12    1    3    3    0    0  0.38890465697E+01  0.21840601355E+01 -0.42466696451E+02  0.42700294019E+02  0.00000000000E+00 0.  1.
</event>
<event>
 7    1  0.1501154E-015  0.9000770E+02  0.7816164E-02  0.1186339E+00
        -11   -1    0    0    0    0  0.00000000000E+00  0.00000000000E+00  0.45593999997E+02  0.45594000000E+02  0.51100000000E-03 0. -1.
         11   -1    0    0    0    0 -0.00000000000E+00 -0.00000000000E+00 -0.45593999997E+02  0.45594000000E+02  0.51100000000E-03 0.  1.
    9900012    2    1    2    0    0 -0.25759573823E+00  0.81901010660E+00 -0.80992758332E+00  0.90007696730E+02  0.89999957527E+02 0.  0.
         12    1    1    2    0    0  0.25759573823E+00 -0.81901010660E+00  0.80992758332E+00  0.11803032701E+01  0.00000000000E+00 0. -1.
         11    1    3    3    0    0  0.38649093083E+00 -0.32082152864E+01 -0.82269229246E+01  0.88387941277E+01  0.51100000000E-03 0. -1.
        -11    1    3    3    0    0 -0.10063014990E+02  0.29355604775E+02 -0.24362749692E+02  0.39453255572E+02  0.51100000000E-03 0.  1.
         12    1    3    3    0    0  0.94189283208E+01 -0.25328379382E+02  0.31779745033E+02  0.41715647031E+02  0.00000000000E+00 0. -1.
</event>
<event>
 7    1  0.1501154E-015  0.9000773E+02  0.7816164E-02  0.1186339E+00
        -11   -1    0    0    0    0  0.00000000000E+00  0.00000000000E+00  0.45593999997E+02  0.45594000000E+02  0.51100000000E-03 0. -1.
         11   -1    0    0    0    0 -0.00000000000E+00 -0.00000000000E+00 -0.45593999997E+02  0.45594000000E+02  0.51100000000E-03 0.  1.
    9900012    2    1    2    0    0 -0.24696498555E+00  0.11469060910E+00 -0.11484295165E+01  0.90007730542E+02  0.89999991785E+02 0.  0.
         12    1    1    2    0    0  0.24696498555E+00 -0.11469060910E+00  0.11484295165E+01  0.11802694583E+01  0.00000000000E+00 0. -1.
         11    1    3    3    0    0  0.48263158573E+01  0.58396304896E+01 -0.38940371889E+01  0.85181062977E+01  0.51100000000E-03 0. -1.
        -11    1    3    3    0    0  0.22475261772E+01 -0.37099451585E+02 -0.19852326567E+02  0.42137104222E+02  0.51100000000E-03 0.  1.
         12    1    3    3    0    0 -0.73208070200E+01  0.31374511705E+02  0.22597934240E+02  0.39352520022E+02  0.00000000000E+00 0. -1.
</event>
<event>
 7    1  0.1501154E-015  0.9000769E+02  0.7816164E-02  0.1186339E+00
        -11   -1    0    0    0    0  0.00000000000E+00  0.00000000000E+00  0.45593999997E+02  0.45594000000E+02  0.51100000000E-03 0.  1.
         11   -1    0    0    0    0 -0.00000000000E+00 -0.00000000000E+00 -0.45593999997E+02  0.45594000000E+02  0.51100000000E-03 0. -1.
    9900012    2    1    2    0    0  0.88887030730E+00  0.13300009920E+00  0.76508560059E+00  0.90007688420E+02  0.89999949107E+02 0.  0.
         12    1    1    2    0    0 -0.88887030730E+00 -0.13300009920E+00 -0.76508560059E+00  0.11803115800E+01  0.00000000000E+00 0. -1.
         11    1    3    3    0    0  0.52154498207E+01 -0.62107339631E+01  0.54847814514E+01  0.97906568229E+01  0.51100000000E-03 0. -1.
        -11    1    3    3    0    0 -0.10493501066E+02 -0.12983204873E+02  0.33228689654E+02  0.37186327995E+02  0.51100000000E-03 0.  1.
         12    1    3    3    0    0  0.61669215521E+01  0.19326938935E+02 -0.37948385505E+02  0.43030703602E+02  0.00000000000E+00 0. -1.
</event>
<event>
 7    1  0.1501154E-015  0.9000756E+02  0.7816164E-02  0.1186339E+00
        -11   -1    0    0    0    0  0.00000000000E+00  0.00000000000E+00  0.45593999997E+02  0.45594000000E+02  0.51100000000E-03 0. -1.
         11   -1    0    0    0    0 -0.00000000000E+00 -0.00000000000E+00 -0.45593999997E+02  0.45594000000E+02  0.51100000000E-03 0.  1.
    9900012    2    1    2    0    0 -0.53314113761E+00 -0.62542890989E+00  0.84737071157E+00  0.90007560287E+02  0.89999819282E+02 0.  0.
         12    1    1    2    0    0  0.53314113761E+00  0.62542890989E+00 -0.84737071157E+00  0.11804397133E+01  0.00000000000E+00 0. -1.
         11    1    3    3    0    0  0.19841513146E+01  0.27795589352E+01 -0.10622356041E+02  0.11157833680E+02  0.51100000000E-03 0. -1.
        -11    1    3    3    0    0  0.10516766404E+01  0.13288154980E+02 -0.30638710872E+02  0.33412747428E+02  0.51100000000E-03 0.  1.
         12    1    3    3    0    0 -0.35689690926E+01 -0.16693142825E+02  0.42108437624E+02  0.45436979179E+02  0.00000000000E+00 0. -1.
</event>
<event>
 7    1  0.1501154E-015  0.9000779E+02  0.7816164E-02  0.1186339E+00
        -11   -1    0    0    0    0  0.00000000000E+00  0.00000000000E+00  0.45593999997E+02  0.45594000000E+02  0.51100000000E-03 0. -1.
         11   -1    0    0    0    0 -0.00000000000E+00 -0.00000000000E+00 -0.45593999997E+02  0.45594000000E+02  0.51100000000E-03 0.  1.
    9900012    2    1    2    0    0  0.68556331226E+00  0.82343508660E+00 -0.49482443023E+00  0.90007790860E+02  0.90000052900E+02 0.  0.
         12    1    1    2    0    0 -0.68556331226E+00 -0.82343508660E+00  0.49482443023E+00  0.11802091398E+01  0.00000000000E+00 0. -1.
         11    1    3    3    0    0 -0.82947228598E+01  0.67652230109E+01 -0.58730572189E+01  0.12209155215E+02  0.51100000000E-03 0. -1.
        -11    1    3    3    0    0 -0.11978192074E+02 -0.77611134015E+01 -0.31926129916E+02  0.34971270184E+02  0.51100000000E-03 0.  1.
         12    1    3    3    0    0  0.20958478246E+02  0.18193254771E+01  0.37304362705E+02  0.42827365461E+02  0.00000000000E+00 0. -1.
</event>
<event>
 7    1  0.2340819E-015  0.9000766E+02  0.7816164E-02  0.1186339E+00
        -11   -1    0    0    0    0  0.00000000000E+00  0.00000000000E+00  0.45593999997E+02  0.45594000000E+02  0.51100000000E-03 0. -1.
         11   -1    0    0    0    0 -0.00000000000E+00 -0.00000000000E+00 -0.45593999997E+02  0.45594000000E+02  0.51100000000E-03 0.  1.
    9900012    2    1    2    0    0  0.11258392369E+00 -0.45526416885E+00 -0.10831701407E+01  0.90007661846E+02  0.89999922183E+02 0.  0.
         12    1    1    2    0    0 -0.11258392369E+00  0.45526416885E+00  0.10831701407E+01  0.11803381537E+01  0.00000000000E+00 0. -1.
         11    1    3    3    0    0 -0.27596368895E+01  0.11110320757E+02  0.35097498679E+02  0.36917329764E+02  0.51100000000E-03 0. -1.
        -11    1    3    3    0    0  0.85846828957E+01 -0.85703766437E+00  0.51275008737E+01  0.10036062946E+02  0.51100000000E-03 0.  1.
        -12    1    3    3    0    0 -0.57124620826E+01 -0.10708547261E+02 -0.41308169694E+02  0.43054269137E+02  0.00000000000E+00 0.  1.
</event>
<event>
 7    1  0.1501154E-015  0.9000776E+02  0.7816164E-02  0.1186339E+00
        -11   -1    0    0    0    0  0.00000000000E+00  0.00000000000E+00  0.45593999997E+02  0.45594000000E+02  0.51100000000E-03 0.  1.
         11   -1    0    0    0    0 -0.00000000000E+00 -0.00000000000E+00 -0.45593999997E+02  0.45594000000E+02  0.51100000000E-03 0. -1.
    9900012    2    1    2    0    0 -0.48854870678E+00  0.65422468041E+00  0.85221590418E+00  0.90007762008E+02  0.90000023666E+02 0.  0.
         12    1    1    2    0    0  0.48854870678E+00 -0.65422468041E+00 -0.85221590418E+00  0.11802379924E+01  0.00000000000E+00 0. -1.
         11    1    3    3    0    0 -0.21035895650E+01 -0.88940681886E+01  0.68732885433E+00  0.91652582733E+01  0.51100000000E-03 0. -1.
        -11    1    3    3    0    0 -0.21760187017E+02 -0.26795671106E+02  0.11116595011E+02  0.36264202927E+02  0.51100000000E-03 0.  1.
         12    1    3    3    0    0  0.23375227876E+02  0.36343963975E+02 -0.10951707961E+02  0.44578300807E+02  0.00000000000E+00 0. -1.
</event>
<event>
 7    1  0.1501154E-015  0.9000774E+02  0.7816164E-02  0.1186339E+00
        -11   -1    0    0    0    0  0.00000000000E+00  0.00000000000E+00  0.45593999997E+02  0.45594000000E+02  0.51100000000E-03 0.  1.
         11   -1    0    0    0    0 -0.00000000000E+00 -0.00000000000E+00 -0.45593999997E+02  0.45594000000E+02  0.51100000000E-03 0. -1.
    9900012    2    1    2    0    0 -0.16130957516E+00  0.29662778704E+00  0.11309267886E+01  0.90007744001E+02  0.90000005421E+02 0.  0.
         12    1    1    2    0    0  0.16130957516E+00 -0.29662778704E+00 -0.11309267886E+01  0.11802559994E+01  0.00000000000E+00 0. -1.
         11    1    3    3    0    0  0.32780314818E+01  0.39273150257E+01 -0.70127391311E+01  0.86803112898E+01  0.51100000000E-03 0. -1.
        -11    1    3    3    0    0  0.22626535290E+02  0.30246813750E+02  0.78560615099E+01  0.38581699599E+02  0.51100000000E-03 0.  1.
         12    1    3    3    0    0 -0.26065876347E+02 -0.33877500989E+02  0.28760440975E+00  0.42745733112E+02  0.00000000000E+00 0. -1.
</event>
<event>
 7    1  0.1501154E-015  0.9000812E+02  0.7816164E-02  0.1186338E+00
        -11   -1    0    0    0    0  0.00000000000E+00  0.00000000000E+00  0.45593999997E+02  0.45594000000E+02  0.51100000000E-03 0.  1.
         11   -1    0    0    0    0 -0.00000000000E+00 -0.00000000000E+00 -0.45593999997E+02  0.45594000000E+02  0.51100000000E-03 0. -1.
    9900012    2    1    2    0    0 -0.15203203252E+00  0.22839711603E+00  0.11475385545E+01  0.90008117075E+02  0.90000383420E+02 0.  0.
         12    1    1    2    0    0  0.15203203252E+00 -0.22839711603E+00 -0.11475385545E+01  0.11798829245E+01  0.00000000000E+00 0. -1.
         11    1    3    3    0    0 -0.17195022022E+02 -0.12958697217E+02 -0.20203599316E+02  0.29525955386E+02  0.51100000000E-03 0. -1.
        -11    1    3    3    0    0  0.14766487732E+01 -0.15566818663E+01 -0.16683386531E+02  0.16820794762E+02  0.51100000000E-03 0.  1.
        -12    1    3    3    0    0  0.15566341216E+02  0.14743776200E+02  0.38034524401E+02  0.43661366927E+02  0.00000000000E+00 0.  1.
</event>
<event>
 7    1  0.1501154E-015  0.9000777E+02  0.7816164E-02  0.1186339E+00
        -11   -1    0    0    0    0  0.00000000000E+00  0.00000000000E+00  0.45593999997E+02  0.45594000000E+02  0.51100000000E-03 0.  1.
         11   -1    0    0    0    0 -0.00000000000E+00 -0.00000000000E+00 -0.45593999997E+02  0.45594000000E+02  0.51100000000E-03 0. -1.
    9900012    2    1    2    0    0 -0.45475787936E+00 -0.65571863622E+00  0.86958141951E+00  0.90007769724E+02  0.90000031485E+02 0.  0.
         12    1    1    2    0    0  0.45475787936E+00  0.65571863622E+00 -0.86958141951E+00  0.11802302758E+01  0.00000000000E+00 0. -1.
         11    1    3    3    0    0 -0.96969552354E+01  0.21887751100E+01 -0.34125827520E+01  0.10510347217E+02  0.51100000000E-03 0. -1.
        -11    1    3    3    0    0  0.17695020226E+02 -0.38673246561E+02  0.10298939830E+01  0.42541678649E+02  0.51100000000E-03 0.  1.
         12    1    3    3    0    0 -0.84528228701E+01  0.35828752815E+02  0.32522701885E+01  0.36955743858E+02  0.00000000000E+00 0. -1.
</event>
<event>
 7    1  0.1501154E-015  0.9000729E+02  0.7816164E-02  0.1186340E+00
        -11   -1    0    0    0    0  0.00000000000E+00  0.00000000000E+00  0.45593999997E+02  0.45594000000E+02  0.51100000000E-03 0. -1.
         11   -1    0    0    0    0 -0.00000000000E+00 -0.00000000000E+00 -0.45593999997E+02  0.45594000000E+02  0.51100000000E-03 0.  1.
    9900012    2    1    2    0    0  0.96743190594E+00  0.19962595082E+00 -0.64676242337E+00  0.90007289771E+02  0.89999545195E+02 0.  0.
         12    1    1    2    0    0 -0.96743190594E+00 -0.19962595082E+00  0.64676242337E+00  0.11807102291E+01  0.00000000000E+00 0. -1.
         11    1    3    3    0    0 -0.19200404238E+02  0.25603599739E+02  0.22286226682E+02  0.38998406922E+02  0.51100000000E-03 0. -1.
        -11    1    3    3    0    0 -0.77095296588E+01 -0.37822904637E+01  0.58798649673E+00  0.86074559013E+01  0.51100000000E-03 0.  1.
        -12    1    3    3    0    0  0.27877365803E+02 -0.21621683325E+02 -0.23520975602E+02  0.42401426947E+02  0.00000000000E+00 0.  1.
</event>
<event>
 7    1  0.1501154E-015  0.9000775E+02  0.7816164E-02  0.1186339E+00
        -11   -1    0    0    0    0  0.00000000000E+00  0.00000000000E+00  0.45593999997E+02  0.45594000000E+02  0.51100000000E-03 0.  1.
         11   -1    0    0    0    0 -0.00000000000E+00 -0.00000000000E+00 -0.45593999997E+02  0.45594000000E+02  0.51100000000E-03 0. -1.
    9900012    2    1    2    0    0 -0.75984406633E+00  0.86608792411E+00  0.25595913817E+00  0.90007751561E+02  0.90000013082E+02 0.  0.
         12    1    1    2    0    0  0.75984406633E+00 -0.86608792411E+00 -0.25595913817E+00  0.11802484390E+01  0.00000000000E+00 0. -1.
         11    1    3    3    0    0 -0.87718476511E+01 -0.21901676003E+01 -0.47754901533E+01  0.10224844830E+02  0.51100000000E-03 0. -1.
        -11    1    3    3    0    0 -0.11813519365E+02  0.15573891980E+02  0.35985100283E+02  0.40951590859E+02  0.51100000000E-03 0.  1.
         12    1    3    3    0    0  0.19825522950E+02 -0.12517636456E+02 -0.30953650991E+02  0.38831315872E+02  0.00000000000E+00 0. -1.
</event>
<event>
 7    1  0.1501154E-015  0.9000774E+02  0.7816164E-02  0.1186339E+00
        -11   -1    0    0    0    0  0.00000000000E+00  0.00000000000E+00  0.45593999997E+02  0.45594000000E+02  0.51100000000E-03 0.  1.
         11   -1    0    0    0    0 -0.00000000000E+00 -0.00000000000E+00 -0.45593999997E+02  0.45594000000E+02  0.51100000000E-03 0. -1.
    9900012    2    1    2    0    0  0.24165813872E+00  0.11551707789E+01  0.13554189824E-01  0.90007744985E+02  0.90000006419E+02 0.  0.
         12    1    1    2    0    0 -0.24165813872E+00 -0.11551707789E+01 -0.13554189824E-01  0.11802550151E+01  0.00000000000E+00 0. -1.
         11    1    3    3    0    0 -0.22723208157E+01 -0.10814636532E+02 -0.19237813475E+02  0.22185880031E+02  0.51100000000E-03 0. -1.
        -11    1    3    3    0    0 -0.19514790985E+02  0.83487439294E+01 -0.15663915091E+02  0.26379666955E+02  0.51100000000E-03 0.  1.
        -12    1    3    3    0    0  0.22028769940E+02  0.36210633820E+01  0.34915282756E+02  0.41442197999E+02  0.00000000000E+00 0.  1.
</event>
<event>
 7    1  0.1501154E-015  0.9000775E+02  0.7816164E-02  0.1186339E+00
        -11   -1    0    0    0    0  0.00000000000E+00  0.00000000000E+00  0.45593999997E+02  0.45594000000E+02  0.51100000000E-03 0. -1.
         11   -1    0    0    0    0 -0.00000000000E+00 -0.00000000000E+00 -0.45593999997E+02  0.45594000000E+02  0.51100000000E-03 0.  1.
    9900012    2    1    2    0    0  0.36642315297E+00 -0.87751849456E+00 -0.69906519797E+00  0.90007747152E+02  0.90000008614E+02 0.  0.
         12    1    1    2    0    0 -0.36642315297E+00  0.87751849456E+00  0.69906519797E+00  0.11802528485E+01  0.00000000000E+00 0. -1.
         11    1    3    3    0    0 -0.92817252535E+01 -0.20691848384E+01 -0.43866464135E+01  0.10472564948E+02  0.51100000000E-03 0. -1.
        -11    1    3    3    0    0 -0.30799583168E+02  0.11300130285E+02  0.15382339886E+02  0.36234288297E+02  0.51100000000E-03 0.  1.
         12    1    3    3    0    0  0.40447731574E+02 -0.10108463941E+02 -0.11694758670E+02  0.43300893906E+02  0.00000000000E+00 0. -1.
</event>
<event>
 7    1  0.1501154E-015  0.9000740E+02  0.7816164E-02  0.1186340E+00
        -11   -1    0    0    0    0  0.00000000000E+00  0.00000000000E+00  0.45593999997E+02  0.45594000000E+02  0.51100000000E-03 0.  1.
         11   -1    0    0    0    0 -0.00000000000E+00 -0.00000000000E+00 -0.45593999997E+02  0.45594000000E+02  0.51100000000E-03 0. -1.
    9900012    2    1    2    0    0 -0.73943718574E+00  0.56722306997E+00  0.72477587525E+00  0.90007402934E+02  0.89999659852E+02 0.  0.
         12    1    1    2    0    0  0.73943718574E+00 -0.56722306997E+00 -0.72477587525E+00  0.11805970659E+01  0.00000000000E+00 0. -1.
         11    1    3    3    0    0  0.38871839690E+02 -0.78065216722E+01 -0.28122039728E+01  0.39747580970E+02  0.51100000000E-03 0. -1.
        -11    1    3    3    0    0 -0.21048612951E+01 -0.84188891584E+01  0.29363534645E+01  0.91613485723E+01  0.51100000000E-03 0.  1.
        -12    1    3    3    0    0 -0.37506415581E+02  0.16792633901E+02  0.60062638350E+00  0.41098473392E+02  0.00000000000E+00 0.  1.
</event>
<event>
 7    1  0.1501154E-015  0.9000770E+02  0.7816164E-02  0.1186339E+00
        -11   -1    0    0    0    0  0.00000000000E+00  0.00000000000E+00  0.45593999997E+02  0.45594000000E+02  0.51100000000E-03 0.  1.
         11   -1    0    0    0    0 -0.00000000000E+00 -0.00000000000E+00 -0.45593999997E+02  0.45594000000E+02  0.51100000000E-03 0. -1.
    9900012    2    1    2    0    0 -0.20971261075E+00 -0.11607429834E+01 -0.42497764176E-01  0.90007699313E+02  0.89999960144E+02 0.  0.
         12    1    1    2    0    0  0.20971261075E+00  0.11607429834E+01  0.42497764176E-01  0.11803006873E+01  0.00000000000E+00 0. -1.
         11    1    3    3    0    0 -0.17119592546E+02 -0.40263315810E+02  0.78260224689E+01  0.44446166054E+02  0.51100000000E-03 0. -1.
        -11    1    3    3    0    0 -0.14145535956E+01  0.11458105092E+02 -0.37590173626E+01  0.12141636874E+02  0.51100000000E-03 0.  1.
        -12    1    3    3    0    0  0.18324433531E+02  0.27644467735E+02 -0.41095028705E+01  0.33419896385E+02  0.00000000000E+00 0.  1.
</event>
<event>
 7    1  0.1501154E-015  0.9000778E+02  0.7816164E-02  0.1186339E+00
        -11   -1    0    0    0    0  0.00000000000E+00  0.00000000000E+00  0.45593999997E+02  0.45594000000E+02  0.51100000000E-03 0. -1.
         11   -1    0    0    0    0 -0.00000000000E+00 -0.00000000000E+00 -0.45593999997E+02  0.45594000000E+02  0.51100000000E-03 0.  1.
    9900012    2    1    2    0    0 -0.35831862595E+00 -0.39169178842E+00 -0.10540915319E+01  0.90007778134E+02  0.90000040006E+02 0.  0.
         12    1    1    2    0    0  0.35831862595E+00  0.39169178842E+00  0.10540915319E+01  0.11802218658E+01  0.00000000000E+00 0. -1.
         11    1    3    3    0    0 -0.25903504148E+02  0.26609960408E+02  0.16403605520E+02  0.40597534339E+02  0.51100000000E-03 0. -1.
        -11    1    3    3    0    0 -0.55206396032E+01 -0.36061940879E+01 -0.58760354579E+01  0.88323207817E+01  0.51100000000E-03 0.  1.
        -12    1    3    3    0    0  0.31065825126E+02 -0.23395458109E+02 -0.11581661594E+02  0.40577923014E+02  0.00000000000E+00 0.  1.
</event>
<event>
 7    1  0.1501154E-015  0.9000777E+02  0.7816164E-02  0.1186339E+00
        -11   -1    0    0    0    0  0.00000000000E+00  0.00000000000E+00  0.45593999997E+02  0.45594000000E+02  0.51100000000E-03 0.  1.
         11   -1    0    0    0    0 -0.00000000000E+00 -0.00000000000E+00 -0.45593999997E+02  0.45594000000E+02  0.51100000000E-03 0. -1.
    9900012    2    1    2    0    0 -0.17519930340E+00  0.34876904104E+00  0.11138235736E+01  0.90007772228E+02  0.90000034022E+02 0.  0.
         12    1    1    2    0    0  0.17519930340E+00 -0.34876904104E+00 -0.11138235736E+01  0.11802277717E+01  0.00000000000E+00 0. -1.
         11    1    3    3    0    0 -0.96131570385E+01 -0.37939123887E+02 -0.72716037612E+01  0.39807865192E+02  0.51100000000E-03 0. -1.
        -11    1    3    3    0    0  0.58721099039E+01  0.86553646830E+00 -0.73501611298E+01  0.94475233260E+01  0.51100000000E-03 0.  1.
        -12    1    3    3    0    0  0.35658478313E+01  0.37422356460E+02  0.15735588465E+02  0.40752383711E+02  0.00000000000E+00 0.  1.
</event>
<event>
 7    1  0.1501154E-015  0.9000852E+02  0.7816164E-02  0.1186337E+00
        -11   -1    0    0    0    0  0.00000000000E+00  0.00000000000E+00  0.45593999997E+02  0.45594000000E+02  0.51100000000E-03 0. -1.
         11   -1    0    0    0    0 -0.00000000000E+00 -0.00000000000E+00 -0.45593999997E+02  0.45594000000E+02  0.51100000000E-03 0.  1.
    9900012    2    1    2    0    0  0.28385056380E+00 -0.70333723692E+00 -0.90328200162E+00  0.90008520121E+02  0.90000791783E+02 0.  0.
         12    1    1    2    0    0 -0.28385056380E+00  0.70333723692E+00  0.90328200162E+00  0.11794798794E+01  0.00000000000E+00 0. -1.
         11    1    3    3    0    0  0.46456336661E-01 -0.10354543510E+02  0.18523380971E+01  0.10519024964E+02  0.51100000000E-03 0. -1.
        -11    1    3    3    0    0  0.10944526759E+02 -0.17862977717E+02  0.29229218137E+02  0.35961310211E+02  0.51100000000E-03 0.  1.
         12    1    3    3    0    0 -0.10707132532E+02  0.27514183991E+02 -0.31984838236E+02  0.43528184946E+02  0.00000000000E+00 0. -1.
</event>
<event>
 7    1  0.1501154E-015  0.9000766E+02  0.7816164E-02  0.1186339E+00
        -11   -1    0    0    0    0  0.00000000000E+00  0.00000000000E+00  0.45593999997E+02  0.45594000000E+02  0.51100000000E-03 0.  1.
         11   -1    0    0    0    0 -0.00000000000E+00 -0.00000000000E+00 -0.45593999997E+02  0.45594000000E+02  0.51100000000E-03 0. -1.
    9900012    2    1    2    0    0  0.82992300442E+00  0.55903229406E+00 -0.62602677454E+00  0.90007661565E+02  0.89999921897E+02 0.  0.
         12    1    1    2    0    0 -0.82992300442E+00 -0.55903229406E+00  0.62602677454E+00  0.11803384352E+01  0.00000000000E+00 0. -1.
         11    1    3    3    0    0 -0.11632300123E+02 -0.10675726729E+02 -0.30748538396E+02  0.34565216057E+02  0.51100000000E-03 0. -1.
        -11    1    3    3    0    0 -0.10126893523E+02 -0.37524269175E+01 -0.43023243438E+01  0.11625174201E+02  0.51100000000E-03 0.  1.
        -12    1    3    3    0    0  0.22589116650E+02  0.14987185940E+02  0.34424835965E+02  0.43817271306E+02  0.00000000000E+00 0.  1.
</event>
<event>
 7    1  0.1501154E-015  0.9000785E+02  0.7816164E-02  0.1186339E+00
        -11   -1    0    0    0    0  0.00000000000E+00  0.00000000000E+00  0.45593999997E+02  0.45594000000E+02  0.51100000000E-03 0.  1.
         11   -1    0    0    0    0 -0.00000000000E+00 -0.00000000000E+00 -0.45593999997E+02  0.45594000000E+02  0.51100000000E-03 0. -1.
    9900012    2    1    2    0    0 -0.24955362230E+00 -0.17868882114E+00  0.11395422223E+01  0.90007846120E+02  0.90000108888E+02 0.  0.
         12    1    1    2    0    0  0.24955362230E+00  0.17868882114E+00 -0.11395422223E+01  0.11801538805E+01  0.00000000000E+00 0. -1.
         11    1    3    3    0    0  0.49184204225E+01  0.34549918085E+02 -0.17069395057E+02  0.38849091971E+02  0.51100000000E-03 0. -1.
        -11    1    3    3    0    0 -0.48347422351E+01  0.54448606076E+01  0.63786338261E+00  0.73094534318E+01  0.51100000000E-03 0.  1.
        -12    1    3    3    0    0 -0.33323180971E+00 -0.40173467513E+02  0.17571073896E+02  0.43849300717E+02  0.00000000000E+00 0.  1.
</event>
<event>
 7    1  0.1501154E-015  0.9000779E+02  0.7816164E-02  0.1186339E+00
        -11   -1    0    0    0    0  0.00000000000E+00  0.00000000000E+00  0.45593999997E+02  0.45594000000E+02  0.51100000000E-03 0. -1.
         11   -1    0    0    0    0 -0.00000000000E+00 -0.00000000000E+00 -0.45593999997E+02  0.45594000000E+02  0.51100000000E-03 0.  1.
    9900012    2    1    2    0    0  0.77273683032E+00  0.83877853153E+00  0.30367607190E+00  0.90007792056E+02  0.90000054111E+02 0.  0.
         12    1    1    2    0    0 -0.77273683032E+00 -0.83877853153E+00 -0.30367607190E+00  0.11802079438E+01  0.00000000000E+00 0. -1.
         11    1    3    3    0    0 -0.21071129824E+02 -0.24435946404E+02  0.24847499893E+02  0.40724762000E+02  0.51100000000E-03 0. -1.
        -11    1    3    3    0    0  0.80866779084E+01 -0.49299225238E+01 -0.66917027272E+01  0.11596438304E+02  0.51100000000E-03 0.  1.
        -12    1    3    3    0    0  0.13757188746E+02  0.30204647460E+02 -0.17852121094E+02  0.37686591752E+02  0.00000000000E+00 0.  1.
</event>
<event>
 7    1  0.1501154E-015  0.9000772E+02  0.7816164E-02  0.1186339E+00
        -11   -1    0    0    0    0  0.00000000000E+00  0.00000000000E+00  0.45593999997E+02  0.45594000000E+02  0.51100000000E-03 0. -1.
         11   -1    0    0    0    0 -0.00000000000E+00 -0.00000000000E+00 -0.45593999997E+02  0.45594000000E+02  0.51100000000E-03 0.  1.
    9900012    2    1    2    0    0 -0.91083602712E+00  0.57801611239E+00 -0.47887897533E+00  0.90007724622E+02  0.89999985787E+02 0.  0.
         12    1    1    2    0    0  0.91083602712E+00 -0.57801611239E+00  0.47887897533E+00  0.11802753778E+01  0.00000000000E+00 0. -1.
         11    1    3    3    0    0  0.75155500141E+01  0.11929323031E+01 -0.67368173014E+01  0.10163232119E+02  0.51100000000E-03 0. -1.
        -11    1    3    3    0    0 -0.32092260541E+02 -0.18939068631E+01 -0.24923868531E+02  0.40677995189E+02  0.51100000000E-03 0.  1.
         12    1    3    3    0    0  0.23665874500E+02  0.12789906724E+01  0.31181806857E+02  0.39166497314E+02  0.00000000000E+00 0. -1.
</event>
<event>
 7    1  0.1501154E-015  0.9000766E+02  0.7816164E-02  0.1186339E+00
        -11   -1    0    0    0    0  0.00000000000E+00  0.00000000000E+00  0.45593999997E+02  0.45594000000E+02  0.51100000000E-03 0.  1.
         11   -1    0    0    0    0 -0.00000000000E+00 -0.00000000000E+00 -0.45593999997E+02  0.45594000000E+02  0.51100000000E-03 0. -1.
    9900012    2    1    2    0    0 -0.10298533070E+01 -0.57648301971E+00  0.16778632151E-01  0.90007655970E+02  0.89999916229E+02 0.  0.
         12    1    1    2    0    0  0.10298533070E+01  0.57648301971E+00 -0.16778632151E-01  0.11803440297E+01  0.00000000000E+00 0. -1.
         11    1    3    3    0    0  0.21455919067E+01  0.65199152468E+01 -0.59023797720E+01  0.90526762170E+01  0.51100000000E-03 0. -1.
        -11    1    3    3    0    0  0.20779362629E+02 -0.64732080485E+01  0.36261317935E+02  0.42291459094E+02  0.51100000000E-03 0.  1.
         12    1    3    3    0    0 -0.23954807842E+02 -0.62319021804E+00 -0.30342159530E+02  0.38663520659E+02  0.00000000000E+00 0. -1.
</event>
<event>
 7    1  0.1501154E-015  0.9000769E+02  0.7816164E-02  0.1186339E+00
        -11   -1    0    0    0    0  0.00000000000E+00  0.00000000000E+00  0.45593999997E+02  0.45594000000E+02  0.51100000000E-03 0. -1.
         11   -1    0    0    0    0 -0.00000000000E+00 -0.00000000000E+00 -0.45593999997E+02  0.45594000000E+02  0.51100000000E-03 0.  1.
    9900012    2    1    2    0    0  0.10880378737E+01 -0.44019766990E+00  0.12460102076E+00  0.90007692490E+02  0.89999953231E+02 0.  0.
         12    1    1    2    0    0 -0.10880378737E+01  0.44019766990E+00 -0.12460102076E+00  0.11803075097E+01  0.00000000000E+00 0. -1.
         11    1    3    3    0    0  0.32918969082E+02 -0.17979459314E+02  0.10227195987E+02  0.38878207529E+02  0.51100000000E-03 0. -1.
        -11    1    3    3    0    0  0.61984828362E+01  0.10766516604E+01 -0.72391424691E+01  0.95909098744E+01  0.51100000000E-03 0.  1.
        -12    1    3    3    0    0 -0.38029414044E+02  0.16462609984E+02 -0.28634524972E+01  0.41538575087E+02  0.00000000000E+00 0.  1.
</event>
<event>
 7    1  0.1501154E-015  0.9000769E+02  0.7816164E-02  0.1186339E+00
        -11   -1    0    0    0    0  0.00000000000E+00  0.00000000000E+00  0.45593999997E+02  0.45594000000E+02  0.51100000000E-03 0.  1.
         11   -1    0    0    0    0 -0.00000000000E+00 -0.00000000000E+00 -0.45593999997E+02  0.45594000000E+02  0.51100000000E-03 0. -1.
    9900012    2    1    2    0    0  0.91457930687E+00 -0.55731868329E+00 -0.49604694603E+00  0.90007694109E+02  0.89999954871E+02 0.  0.
         12    1    1    2    0    0 -0.91457930687E+00  0.55731868329E+00  0.49604694603E+00  0.11803058908E+01  0.00000000000E+00 0. -1.
         11    1    3    3    0    0 -0.79928003363E+01  0.56129695609E+01  0.20259382857E+01  0.99747035397E+01  0.51100000000E-03 0. -1.
        -11    1    3    3    0    0  0.13482417952E+02  0.10766708279E+02  0.34772618219E+02  0.38817941458E+02  0.51100000000E-03 0.  1.
         12    1    3    3    0    0 -0.45750383085E+01 -0.16936996523E+02 -0.37294603450E+02  0.41215049112E+02  0.00000000000E+00 0. -1.
</event>
<event>
 7    1  0.1501154E-015  0.9000778E+02  0.7816164E-02  0.1186339E+00
        -11   -1    0    0    0    0  0.00000000000E+00  0.00000000000E+00  0.45593999997E+02  0.45594000000E+02  0.51100000000E-03 0.  1.
         11   -1    0    0    0    0 -0.00000000000E+00 -0.00000000000E+00 -0.45593999997E+02  0.45594000000E+02  0.51100000000E-03 0. -1.
    9900012    2    1    2    0    0  0.76436127103E+00  0.36670041446E+00  0.82109393383E+00  0.90007782819E+02  0.90000044752E+02 0.  0.
         12    1    1    2    0    0 -0.76436127103E+00 -0.36670041446E+00 -0.82109393383E+00  0.11802171812E+01  0.00000000000E+00 0. -1.
         11    1    3    3    0    0  0.16266334429E+02  0.11372197410E+02 -0.34562893943E+02  0.39856168251E+02  0.51100000000E-03 0. -1.
        -11    1    3    3    0    0 -0.69617802711E+01  0.45612388660E+01 -0.21791443947E+01  0.86034850549E+01  0.51100000000E-03 0.  1.
        -12    1    3    3    0    0 -0.85401928868E+01 -0.15566735862E+02  0.37563132272E+02  0.41548129513E+02  0.00000000000E+00 0.  1.
</event>
<event>
 7    1  0.1501154E-015  0.9000801E+02  0.7816164E-02  0.1186338E+00
        -11   -1    0    0    0    0  0.00000000000E+00  0.00000000000E+00  0.45593999997E+02  0.45594000000E+02  0.51100000000E-03 0.  1.
         11   -1    0    0    0    0 -0.00000000000E+00 -0.00000000000E+00 -0.45593999997E+02  0.45594000000E+02  0.51100000000E-03 0. -1.
    9900012    2    1    2    0    0 -0.41369204877E+00 -0.25941024299E+00  0.10742129475E+01  0.90008013457E+02  0.90000278434E+02 0.  0.
         12    1    1    2    0    0  0.41369204877E+00  0.25941024299E+00 -0.10742129475E+01  0.11799865431E+01  0.00000000000E+00 0. -1.
         11    1    3    3    0    0 -0.27041096668E+02  0.21042889958E+02  0.13690356776E+02  0.36897831856E+02  0.51100000000E-03 0. -1.
        -11    1    3    3    0    0 -0.83118148656E+01  0.10927814484E+01  0.28004885890E+01  0.88387314843E+01  0.51100000000E-03 0.  1.
        -12    1    3    3    0    0  0.34939219485E+02 -0.22395081649E+02 -0.15416632418E+02  0.44271450116E+02  0.00000000000E+00 0.  1.
</event>
<event>
 7    1  0.1501154E-015  0.9000775E+02  0.7816164E-02  0.1186339E+00
        -11   -1    0    0    0    0  0.00000000000E+00  0.00000000000E+00  0.45593999997E+02  0.45594000000E+02  0.51100000000E-03 0.  1.
         11   -1    0    0    0    0 -0.00000000000E+00 -0.00000000000E+00 -0.45593999997E+02  0.45594000000E+02  0.51100000000E-03 0. -1.
    9900012    2    1    2    0    0 -0.72871190056E+00 -0.26107801892E+00 -0.89095552866E+00  0.90007752348E+02  0.90000013879E+02 0.  0.
         12    1    1    2    0    0  0.72871190056E+00  0.26107801892E+00  0.89095552866E+00  0.11802476520E+01  0.00000000000E+00 0. -1.
         11    1    3    3    0    0 -0.19712986959E+01 -0.91821487270E+01  0.19040425781E+01  0.95824450008E+01  0.51100000000E-03 0. -1.
        -11    1    3    3    0    0  0.12596802476E+02 -0.16783229417E+02  0.30396307482E+02  0.36936319945E+02  0.51100000000E-03 0.  1.
         12    1    3    3    0    0 -0.11354215680E+02  0.25704300125E+02 -0.33191305588E+02  0.43488987403E+02  0.00000000000E+00 0. -1.
</event>
<event>
 7    1  0.1501154E-015  0.9000764E+02  0.7816164E-02  0.1186339E+00
        -11   -1    0    0    0    0  0.00000000000E+00  0.00000000000E+00  0.45593999997E+02  0.45594000000E+02  0.51100000000E-03 0.  1.
         11   -1    0    0    0    0 -0.00000000000E+00 -0.00000000000E+00 -0.45593999997E+02  0.45594000000E+02  0.51100000000E-03 0. -1.
    9900012    2    1    2    0    0  0.66217919689E+00 -0.72559546873E+00 -0.65443055178E+00  0.90007640131E+02  0.89999900181E+02 0.  0.
         12    1    1    2    0    0 -0.66217919689E+00  0.72559546873E+00  0.65443055178E+00  0.11803598689E+01  0.00000000000E+00 0. -1.
         11    1    3    3    0    0 -0.93293212101E+01  0.17037788126E+00  0.41896982584E+01  0.10228334890E+02  0.51100000000E-03 0. -1.
        -11    1    3    3    0    0  0.88574821863E+01  0.50158036718E+01  0.36554521871E+02  0.37945307307E+02  0.51100000000E-03 0.  1.
         12    1    3    3    0    0  0.11340182207E+01 -0.59117770218E+01 -0.41398650681E+02  0.41833997934E+02  0.00000000000E+00 0. -1.
</event>
<event>
 7    1  0.1501154E-015  0.9000771E+02  0.7816164E-02  0.1186339E+00
        -11   -1    0    0    0    0  0.00000000000E+00  0.00000000000E+00  0.45593999997E+02  0.45594000000E+02  0.51100000000E-03 0. -1.
         11   -1    0    0    0    0 -0.00000000000E+00 -0.00000000000E+00 -0.45593999997E+02  0.45594000000E+02  0.51100000000E-03 0.  1.
    9900012    2    1    2    0    0  0.75285843593E+00  0.34211341886E+00 -0.84216409687E+00  0.90007712839E+02  0.89999973849E+02 0.  0.
         12    1    1    2    0    0 -0.75285843593E+00 -0.34211341886E+00  0.84216409687E+00  0.11802871608E+01  0.00000000000E+00 0. -1.
         11    1    3    3    0    0  0.24476592579E+01 -0.12215267995E+02 -0.34447725677E+01  0.12925566383E+02  0.51100000000E-03 0. -1.
        -11    1    3    3    0    0  0.24028838619E+02 -0.22232365662E+02 -0.51113146191E+01  0.33132894618E+02  0.51100000000E-03 0.  1.
         12    1    3    3    0    0 -0.25723639441E+02  0.34789747076E+02  0.77139230899E+01  0.43949251838E+02  0.00000000000E+00 0. -1.
</event>
<event>
 7    1  0.1501154E-015  0.9000776E+02  0.7816164E-02  0.1186339E+00
        -11   -1    0    0    0    0  0.00000000000E+00  0.00000000000E+00  0.45593999997E+02  0.45594000000E+02  0.51100000000E-03 0.  1.
         11   -1    0    0    0    0 -0.00000000000E+00 -0.00000000000E+00 -0.45593999997E+02  0.45594000000E+02  0.51100000000E-03 0. -1.
    9900012    2    1    2    0    0  0.80972370162E+00 -0.71381237043E+00  0.47727661530E+00  0.90007756999E+02  0.90000018592E+02 0.  0.
         12    1    1    2    0    0 -0.80972370162E+00  0.71381237043E+00 -0.47727661530E+00  0.11802430007E+01  0.00000000000E+00 0. -1.
         11    1    3    3    0    0 -0.24890953015E+02  0.10428480696E+02 -0.27726552329E+02  0.38692046417E+02  0.51100000000E-03 0. -1.
        -11    1    3    3    0    0 -0.27851745916E+01  0.11320452587E+01 -0.50274459215E+01  0.58578098918E+01  0.51100000000E-03 0.  1.
        -12    1    3    3    0    0  0.28485851308E+02 -0.12274338325E+02  0.33231274866E+02  0.45457900691E+02  0.00000000000E+00 0.  1.
</event>
<event>
 7    1  0.1501154E-015  0.9000780E+02  0.7816164E-02  0.1186339E+00
        -11   -1    0    0    0    0  0.00000000000E+00  0.00000000000E+00  0.45593999997E+02  0.45594000000E+02  0.51100000000E-03 0. -1.
         11   -1    0    0    0    0 -0.00000000000E+00 -0.00000000000E+00 -0.45593999997E+02  0.45594000000E+02  0.51100000000E-03 0.  1.
    9900012    2    1    2    0    0  0.18036468904E+00 -0.10317720489E+01 -0.54386295401E+00  0.90007800062E+02  0.90000062222E+02 0.  0.
         12    1    1    2    0    0 -0.18036468904E+00  0.10317720489E+01  0.54386295401E+00  0.11801999385E+01  0.00000000000E+00 0. -1.
         11    1    3    3    0    0 -0.20838055313E+02 -0.70320929158E+01  0.34112819655E+02  0.40587674792E+02  0.51100000000E-03 0. -1.
        -11    1    3    3    0    0  0.41725199896E+01  0.95284955641E+01  0.35347569961E+00  0.10408030367E+02  0.51100000000E-03 0.  1.
        -12    1    3    3    0    0  0.16845900012E+02 -0.35281746972E+01 -0.35010158308E+02  0.39012094903E+02  0.00000000000E+00 0.  1.
</event>
<event>
 7    1  0.1501154E-015  0.9000778E+02  0.7816164E-02  0.1186339E+00
        -11   -1    0    0    0    0  0.00000000000E+00  0.00000000000E+00  0.45593999997E+02  0.45594000000E+02  0.51100000000E-03 0.  1.
         11   -1    0    0    0    0 -0.00000000000E+00 -0.00000000000E+00 -0.45593999997E+02  0.45594000000E+02  0.51100000000E-03 0. -1.
    9900012    2    1    2    0    0  0.10845434668E+01  0.11098029813E+00  0.45208060223E+00  0.90007776280E+02  0.90000038127E+02 0.  0.
         12    1    1    2    0    0 -0.10845434668E+01 -0.11098029813E+00 -0.45208060223E+00  0.11802237198E+01  0.00000000000E+00 0. -1.
         11    1    3    3    0    0  0.51149756845E+01 -0.20125017236E+02  0.23375686370E+01  0.20896016903E+02  0.51100000000E-03 0. -1.
        -11    1    3    3    0    0  0.12000857979E+02 -0.10385564595E+01  0.27153408854E+02  0.29705332928E+02  0.51100000000E-03 0.  1.
        -12    1    3    3    0    0 -0.16031290196E+02  0.21274553994E+02 -0.29038896888E+02  0.39406426449E+02  0.00000000000E+00 0.  1.
</event>
<event>
 7    1  0.1501154E-015  0.9000774E+02  0.7816164E-02  0.1186339E+00
        -11   -1    0    0    0    0  0.00000000000E+00  0.00000000000E+00  0.45593999997E+02  0.45594000000E+02  0.51100000000E-03 0.  1.
         11   -1    0    0    0    0 -0.00000000000E+00 -0.00000000000E+00 -0.45593999997E+02  0.45594000000E+02  0.51100000000E-03 0. -1.
    9900012    2    1    2    0    0  0.49975417935E+00 -0.10687761985E+01 -0.31264849554E-01  0.90007739735E+02  0.90000001100E+02 0.  0.
         12    1    1    2    0    0 -0.49975417935E+00  0.10687761985E+01  0.31264849554E-01  0.11802602650E+01  0.00000000000E+00 0. -1.
         11    1    3    3    0    0  0.45875851375E+01  0.13709875609E+02 -0.13187847931E+02  0.19568494064E+02  0.51100000000E-03 0. -1.
        -11    1    3    3    0    0  0.13945418129E+02  0.21824780396E+02  0.14365252209E+02  0.29616822878E+02  0.51100000000E-03 0.  1.
         12    1    3    3    0    0 -0.18033249087E+02 -0.36603432203E+02 -0.12086691272E+01  0.40822422793E+02  0.00000000000E+00 0. -1.
</event>
<event>
 7    1  0.1501154E-015  0.9000768E+02  0.7816164E-02  0.1186339E+00
        -11   -1    0    0    0    0  0.00000000000E+00  0.00000000000E+00  0.45593999997E+02  0.45594000000E+02  0.51100000000E-03 0. -1.
         11   -1    0    0    0    0 -0.00000000000E+00 -0.00000000000E+00 -0.45593999997E+02  0.45594000000E+02  0.51100000000E-03 0.  1.
    9900012    2    1    2    0    0 -0.26385071326E+00  0.78573776835E+00 -0.84032896263E+00  0.90007680634E+02  0.89999941219E+02 0.  0.
         12    1    1    2    0    0  0.26385071326E+00 -0.78573776835E+00  0.84032896263E+00  0.11803193656E+01  0.00000000000E+00 0. -1.
         11    1    3    3    0    0  0.41840017654E+02 -0.12069757014E+02  0.43409940248E+01  0.43761973688E+02  0.51100000000E-03 0. -1.
        -11    1    3    3    0    0 -0.80117079312E+01  0.22351652759E+01  0.42112527915E+01  0.93229865451E+01  0.51100000000E-03 0.  1.
        -12    1    3    3    0    0 -0.34092160437E+02  0.10620329506E+02 -0.93925757790E+01  0.36922720401E+02  0.00000000000E+00 0.  1.
</event>
<event>
 7    1  0.1501154E-015  0.9000781E+02  0.7816164E-02  0.1186339E+00
        -11   -1    0    0    0    0  0.00000000000E+00  0.00000000000E+00  0.45593999997E+02  0.45594000000E+02  0.51100000000E-03 0.  1.
         11   -1    0    0    0    0 -0.00000000000E+00 -0.00000000000E+00 -0.45593999997E+02  0.45594000000E+02  0.51100000000E-03 0. -1.
    9900012    2    1    2    0    0  0.97309631484E+00  0.52711813788E+00  0.40998477365E+00  0.90007806167E+02  0.90000068408E+02 0.  0.
         12    1    1    2    0    0 -0.97309631484E+00 -0.52711813788E+00 -0.40998477365E+00  0.11801938332E+01  0.00000000000E+00 0. -1.
         11    1    3    3    0    0  0.69268386545E+01 -0.15088058913E+02 -0.34554020708E+02  0.38335505251E+02  0.51100000000E-03 0. -1.
        -11    1    3    3    0    0  0.52709857045E+01  0.55075637647E+01 -0.48865522274E+01  0.90551058443E+01  0.51100000000E-03 0.  1.
        -12    1    3    3    0    0 -0.11224728044E+02  0.10107613286E+02  0.39850557709E+02  0.42617195071E+02  0.00000000000E+00 0.  1.
</event>
<event>
 7    1  0.1501154E-015  0.9000776E+02  0.7816164E-02  0.1186339E+00
        -11   -1    0    0    0    0  0.00000000000E+00  0.00000000000E+00  0.45593999997E+02  0.45594000000E+02  0.51100000000E-03 0.  1.
         11   -1    0    0    0    0 -0.00000000000E+00 -0.00000000000E+00 -0.45593999997E+02  0.45594000000E+02  0.51100000000E-03 0. -1.
    9900012    2    1    2    0    0 -0.21482220374E+00  0.85364235680E+00 -0.78619950781E+00  0.90007761245E+02  0.90000022894E+02 0.  0.
         12    1    1    2    0    0  0.21482220374E+00 -0.85364235680E+00  0.78619950781E+00  0.11802387549E+01  0.00000000000E+00 0. -1.
         11    1    3    3    0    0 -0.15730477741E+02 -0.40535207870E+00 -0.36733375690E+02  0.39961895977E+02  0.51100000000E-03 0. -1.
        -11    1    3    3    0    0 -0.82483716785E+01  0.34682243047E+01  0.31544660659E+01  0.94876167500E+01  0.51100000000E-03 0.  1.
        -12    1    3    3    0    0  0.23764027216E+02 -0.22092298692E+01  0.32792710116E+02  0.40558248518E+02  0.00000000000E+00 0.  1.
</event>
<event>
 7    1  0.1501154E-015  0.9000775E+02  0.7816164E-02  0.1186339E+00
        -11   -1    0    0    0    0  0.00000000000E+00  0.00000000000E+00  0.45593999997E+02  0.45594000000E+02  0.51100000000E-03 0. -1.
         11   -1    0    0    0    0 -0.00000000000E+00 -0.00000000000E+00 -0.45593999997E+02  0.45594000000E+02  0.51100000000E-03 0.  1.
    9900012    2    1    2    0    0 -0.52974282430E+00 -0.25269402518E+00 -0.10239683020E+01  0.90007748834E+02  0.90000010319E+02 0.  0.
         12    1    1    2    0    0  0.52974282430E+00  0.25269402518E+00  0.10239683020E+01  0.11802511656E+01  0.00000000000E+00 0. -1.
         11    1    3    3    0    0 -0.69063361272E+01  0.26667426786E+01  0.13869813844E+01  0.75321121100E+01  0.51100000000E-03 0. -1.
        -11    1    3    3    0    0  0.36621526172E+01 -0.33769416628E+02 -0.26629228438E+02  0.43161333027E+02  0.51100000000E-03 0.  1.
         12    1    3    3    0    0  0.27144406857E+01  0.30849979924E+02  0.24218278751E+02  0.39314303698E+02  0.00000000000E+00 0. -1.
</event>
<event>
 7    1  0.1501154E-015  0.9000766E+02  0.7816164E-02  0.1186339E+00
        -11   -1    0    0    0    0  0.00000000000E+00  0.00000000000E+00  0.45593999997E+02  0.45594000000E+02  0.51100000000E-03 0.  1.
         11   -1    0    0    0    0 -0.00000000000E+00 -0.00000000000E+00 -0.45593999997E+02  0.45594000000E+02  0.51100000000E-03 0. -1.
    9900012    2    1    2    0    0 -0.72037207662E+00 -0.17867346987E+00  0.91778883141E+00  0.90007662558E+02  0.89999922904E+02 0.  0.
         12    1    1    2    0    0  0.72037207662E+00  0.17867346987E+00 -0.91778883141E+00  0.11803374419E+01  0.00000000000E+00 0. -1.
         11    1    3    3    0    0  0.63274661567E+01  0.18372913176E+01  0.23045387543E+01  0.69802124954E+01  0.51100000000E-03 0. -1.
        -11    1    3    3    0    0 -0.17115213641E+02 -0.39311374103E+02  0.71434017767E+01  0.43466571766E+02  0.51100000000E-03 0.  1.
         12    1    3    3    0    0  0.10067375408E+02  0.37295409316E+02 -0.85301516996E+01  0.39560878297E+02  0.00000000000E+00 0. -1.
</event>
<event>
 7    1  0.1501154E-015  0.9000782E+02  0.7816164E-02  0.1186339E+00
        -11   -1    0    0    0    0  0.00000000000E+00  0.00000000000E+00  0.45593999997E+02  0.45594000000E+02  0.51100000000E-03 0.  1.
         11   -1    0    0    0    0 -0.00000000000E+00 -0.00000000000E+00 -0.45593999997E+02  0.45594000000E+02  0.51100000000E-03 0. -1.
    9900012    2    1    2    0    0 -0.97641304787E+00 -0.20236979466E-01  0.66260411035E+00  0.90007815191E+02  0.90000077552E+02 0.  0.
         12    1    1    2    0    0  0.97641304787E+00  0.20236979466E-01 -0.66260411035E+00  0.11801848086E+01  0.00000000000E+00 0. -1.
         11    1    3    3    0    0  0.64065835610E+01 -0.47061834646E+01  0.54790825710E+01  0.96546787521E+01  0.51100000000E-03 0. -1.
        -11    1    3    3    0    0 -0.68538435297E+01 -0.32730648411E+02 -0.21102710195E+02  0.39542317767E+02  0.51100000000E-03 0.  1.
         12    1    3    3    0    0 -0.52915307916E+00  0.37416594896E+02  0.16286231734E+02  0.40810818672E+02  0.00000000000E+00 0. -1.
</event>
<event>
 7    1  0.1501154E-015  0.9000762E+02  0.7816164E-02  0.1186339E+00
        -11   -1    0    0    0    0  0.00000000000E+00  0.00000000000E+00  0.45593999997E+02  0.45594000000E+02  0.51100000000E-03 0.  1.
         11   -1    0    0    0    0 -0.00000000000E+00 -0.00000000000E+00 -0.45593999997E+02  0.45594000000E+02  0.51100000000E-03 0. -1.
    9900012    2    1    2    0    0 -0.51421088603E+00 -0.70691897813E+00  0.79318611127E+00  0.90007622313E+02  0.89999882127E+02 0.  0.
         12    1    1    2    0    0  0.51421088603E+00  0.70691897813E+00 -0.79318611127E+00  0.11803776870E+01  0.00000000000E+00 0. -1.
         11    1    3    3    0    0  0.31382179547E+01 -0.75038881328E+01 -0.46498630136E+01  0.93689900922E+01  0.51100000000E-03 0. -1.
        -11    1    3    3    0    0  0.25848664461E+02 -0.17199517037E+02  0.23112258773E+02  0.38705985927E+02  0.51100000000E-03 0.  1.
         12    1    3    3    0    0 -0.29501093302E+02  0.23996486192E+02 -0.17669209648E+02  0.41932646293E+02  0.00000000000E+00 0. -1.
</event>
<event>
 7    1  0.1501154E-015  0.9000724E+02  0.7816164E-02  0.1186340E+00
        -11   -1    0    0    0    0  0.00000000000E+00  0.00000000000E+00  0.45593999997E+02  0.45594000000E+02  0.51100000000E-03 0.  1.
         11   -1    0    0    0    0 -0.00000000000E+00 -0.00000000000E+00 -0.45593999997E+02  0.45594000000E+02  0.51100000000E-03 0. -1.
    9900012    2    1    2    0    0  0.71813704274E+00 -0.91446097278E+00 -0.20548932018E+00  0.90007243656E+02  0.89999498471E+02 0.  0.
         12    1    1    2    0    0 -0.71813704274E+00  0.91446097278E+00  0.20548932018E+00  0.11807563439E+01  0.00000000000E+00 0. -1.
         11    1    3    3    0    0  0.81708737559E+01 -0.29886789093E+02 -0.26344779267E+02  0.40669776679E+02  0.51100000000E-03 0. -1.
        -11    1    3    3    0    0 -0.58471346753E+01 -0.49197333488E+01  0.70986571907E+01  0.10429942201E+02  0.51100000000E-03 0.  1.
        -12    1    3    3    0    0 -0.16056020378E+01  0.33892061469E+02  0.19040632756E+02  0.38907524777E+02  0.00000000000E+00 0.  1.
</event>
<event>
 7    1  0.1501154E-015  0.9000774E+02  0.7816164E-02  0.1186339E+00
        -11   -1    0    0    0    0  0.00000000000E+00  0.00000000000E+00  0.45593999997E+02  0.45594000000E+02  0.51100000000E-03 0.  1.
         11   -1    0    0    0    0 -0.00000000000E+00 -0.00000000000E+00 -0.45593999997E+02  0.45594000000E+02  0.51100000000E-03 0. -1.
    9900012    2    1    2    0    0  0.14826554559E+00 -0.40003997892E+00  0.11004583013E+01  0.90007735992E+02  0.89999997307E+02 0.  0.
         12    1    1    2    0    0 -0.14826554559E+00  0.40003997892E+00 -0.11004583013E+01  0.11802640084E+01  0.00000000000E+00 0. -1.
         11    1    3    3    0    0 -0.54420361930E+01  0.18799948298E+02  0.82663482110E+01  0.21245854347E+02  0.51100000000E-03 0. -1.
        -11    1    3    3    0    0 -0.21594684804E+02 -0.29000252420E+02 -0.14486793451E+02  0.38951408665E+02  0.51100000000E-03 0.  1.
         12    1    3    3    0    0  0.27184986543E+02  0.98002641438E+01  0.73209035415E+01  0.29810472980E+02  0.00000000000E+00 0. -1.
</event>
<event>
 7    1  0.1501154E-015  0.9000771E+02  0.7816164E-02  0.1186339E+00
        -11   -1    0    0    0    0  0.00000000000E+00  0.00000000000E+00  0.45593999997E+02  0.45594000000E+02  0.51100000000E-03 0.  1.
         11   -1    0    0    0    0 -0.00000000000E+00 -0.00000000000E+00 -0.45593999997E+02  0.45594000000E+02  0.51100000000E-03 0. -1.
    9900012    2    1    2    0    0 -0.28167489886E+00 -0.73343844234E+00  0.88080631988E+00  0.90007706617E+02  0.89999967544E+02 0.  0.
         12    1    1    2    0    0  0.28167489886E+00  0.73343844234E+00 -0.88080631988E+00  0.11802933832E+01  0.00000000000E+00 0. -1.
         11    1    3    3    0    0  0.18474614970E+02  0.33229032629E+01 -0.38381755592E+02  0.42726013703E+02  0.51100000000E-03 0. -1.
        -11    1    3    3    0    0 -0.22456643802E+01  0.22555794516E+01 -0.97828905871E+00  0.33298193517E+01  0.51100000000E-03 0.  1.
        -12    1    3    3    0    0 -0.16510625489E+02 -0.63119211569E+01  0.40240850971E+02  0.43951873562E+02  0.00000000000E+00 0.  1.
</event>
<event>
 7    1  0.1501154E-015  0.9000762E+02  0.7816164E-02  0.1186339E+00
        -11   -1    0    0    0    0  0.00000000000E+00  0.00000000000E+00  0.45593999997E+02  0.45594000000E+02  0.51100000000E-03 0. -1.
         11   -1    0    0    0    0 -0.00000000000E+00 -0.00000000000E+00 -0.45593999997E+02  0.45594000000E+02  0.51100000000E-03 0.  1.
    9900012    2    1    2    0    0 -0.10197705549E+01  0.58410140200E+00 -0.11038378950E+00  0.90007622512E+02  0.89999882329E+02 0.  0.
         12    1    1    2    0    0  0.10197705549E+01 -0.58410140200E+00  0.11038378950E+00  0.11803774877E+01  0.00000000000E+00 0. -1.
         11    1    3    3    0    0  0.39723167855E+01  0.20709172170E+02  0.31038097358E+02  0.37523493981E+02  0.51100000000E-03 0. -1.
        -11    1    3    3    0    0 -0.58111984273E+01 -0.42021775214E+01  0.76811816246E+01  0.10508514381E+02  0.51100000000E-03 0.  1.
        -12    1    3    3    0    0  0.81911108694E+00 -0.15922893247E+02 -0.38829662772E+02  0.41975614151E+02  0.00000000000E+00 0.  1.
</event>
<event>
 7    1  0.1501154E-015  0.9000752E+02  0.7816164E-02  0.1186339E+00
        -11   -1    0    0    0    0  0.00000000000E+00  0.00000000000E+00  0.45593999997E+02  0.45594000000E+02  0.51100000000E-03 0.  1.
         11   -1    0    0    0    0 -0.00000000000E+00 -0.00000000000E+00 -0.45593999997E+02  0.45594000000E+02  0.51100000000E-03 0. -1.
    9900012    2    1    2    0    0 -0.16518687758E+00 -0.58030505965E+00  0.10146447058E+01  0.90007515123E+02  0.89999773522E+02 0.  0.
         12    1    1    2    0    0  0.16518687758E+00  0.58030505965E+00 -0.10146447058E+01  0.11804848774E+01  0.00000000000E+00 0. -1.
         11    1    3    3    0    0  0.21771232957E+01 -0.95271619087E+01 -0.11701308105E+01  0.98425548641E+01  0.51100000000E-03 0. -1.
        -11    1    3    3    0    0  0.35504618915E+02 -0.82700794591E+01 -0.80753446288E+01  0.37338764973E+02  0.51100000000E-03 0.  1.
         12    1    3    3    0    0 -0.37846929088E+02  0.17216936308E+02  0.10260120145E+02  0.42826195286E+02  0.00000000000E+00 0. -1.
</event>
<event>
 7    1  0.1501154E-015  0.9000776E+02  0.7816164E-02  0.1186339E+00
        -11   -1    0    0    0    0  0.00000000000E+00  0.00000000000E+00  0.45593999997E+02  0.45594000000E+02  0.51100000000E-03 0.  1.
         11   -1    0    0    0    0 -0.00000000000E+00 -0.00000000000E+00 -0.45593999997E+02  0.45594000000E+02  0.51100000000E-03 0. -1.
    9900012    2    1    2    0    0  0.17231133726E+00  0.38263521652E+00  0.11031119499E+01  0.90007764058E+02  0.90000025743E+02 0.  0.
         12    1    1    2    0    0 -0.17231133726E+00 -0.38263521652E+00 -0.11031119499E+01  0.11802359425E+01  0.00000000000E+00 0. -1.
         11    1    3    3    0    0 -0.10426625414E+02  0.23454239162E+02 -0.25292428605E+02  0.36035021815E+02  0.51100000000E-03 0. -1.
        -11    1    3    3    0    0 -0.12765437927E+02 -0.66759204675E+00  0.98601227044E+00  0.12820854303E+02  0.51100000000E-03 0.  1.
        -12    1    3    3    0    0  0.23364374679E+02 -0.22404011899E+02  0.25409528285E+02  0.41151887939E+02  0.00000000000E+00 0.  1.
</event>
<event>
 7    1  0.1501154E-015  0.9000776E+02  0.7816164E-02  0.1186339E+00
        -11   -1    0    0    0    0  0.00000000000E+00  0.00000000000E+00  0.45593999997E+02  0.45594000000E+02  0.51100000000E-03 0. -1.
         11   -1    0    0    0    0 -0.00000000000E+00 -0.00000000000E+00 -0.45593999997E+02  0.45594000000E+02  0.51100000000E-03 0.  1.
    9900012    2    1    2    0    0  0.55338927118E+00 -0.70054913196E+00  0.77198270326E+00  0.90007760166E+02  0.90000021800E+02 0.  0.
         12    1    1    2    0    0 -0.55338927118E+00  0.70054913196E+00 -0.77198270326E+00  0.11802398340E+01  0.00000000000E+00 0. -1.
         11    1    3    3    0    0  0.23207561850E+02  0.25268375688E+02  0.25713044543E+02  0.42874729117E+02  0.51100000000E-03 0. -1.
        -11    1    3    3    0    0 -0.23570312636E+01 -0.91282773755E+01  0.17735302256E+01  0.95930419547E+01  0.51100000000E-03 0.  1.
        -12    1    3    3    0    0 -0.20297141316E+02 -0.16840647445E+02 -0.26714592065E+02  0.37539989094E+02  0.00000000000E+00 0.  1.
</event>
<event>
 7    1  0.1501154E-015  0.9000778E+02  0.7816164E-02  0.1186339E+00
        -11   -1    0    0    0    0  0.00000000000E+00  0.00000000000E+00  0.45593999997E+02  0.45594000000E+02  0.51100000000E-03 0.  1.
         11   -1    0    0    0    0 -0.00000000000E+00 -0.00000000000E+00 -0.45593999997E+02  0.45594000000E+02  0.51100000000E-03 0. -1.
    9900012    2    1    2    0    0 -0.44741816132E+00 -0.10680266820E+01 -0.22814001354E+00  0.90007783126E+02  0.90000045063E+02 0.  0.
         12    1    1    2    0    0  0.44741816132E+00  0.10680266820E+01  0.22814001354E+00  0.11802168743E+01  0.00000000000E+00 0. -1.
         11    1    3    3    0    0  0.32694578208E+02  0.68662938989E+01  0.12846576313E+02  0.35792680248E+02  0.51100000000E-03 0. -1.
        -11    1    3    3    0    0  0.69328846734E+01  0.55540528117E+00  0.58522774384E+01  0.90896928660E+01  0.51100000000E-03 0.  1.
        -12    1    3    3    0    0 -0.40074881043E+02 -0.84897258620E+01 -0.18926993764E+02  0.45125410012E+02  0.00000000000E+00 0.  1.
</event>
<event>
 7    1  0.2779522E-015  0.9000829E+02  0.7816164E-02  0.1186338E+00
        -11   -1    0    0    0    0  0.00000000000E+00  0.00000000000E+00  0.45593999997E+02  0.45594000000E+02  0.51100000000E-03 0. -1.
         11   -1    0    0    0    0 -0.00000000000E+00 -0.00000000000E+00 -0.45593999997E+02  0.45594000000E+02  0.51100000000E-03 0.  1.
    9900012    2    1    2    0    0  0.88172512843E+00 -0.53909091374E+00 -0.56891863452E+00  0.90008285362E+02  0.90000553927E+02 0.  0.
         12    1    1    2    0    0 -0.88172512843E+00  0.53909091374E+00  0.56891863452E+00  0.11797146384E+01  0.00000000000E+00 0. -1.
         11    1    3    3    0    0 -0.11516204422E+02 -0.14505343929E+02  0.30347779352E+02  0.35552998167E+02  0.51100000000E-03 0. -1.
        -11    1    3    3    0    0  0.16005393022E+01 -0.56907692977E+01  0.77547965078E+01  0.97510743200E+01  0.51100000000E-03 0.  1.
        -12    1    3    3    0    0  0.10797390249E+02  0.19657022313E+02 -0.38671494494E+02  0.44704212875E+02  0.00000000000E+00 0.  1.
</event>
<event>
 7    1  0.1501154E-015  0.9000773E+02  0.7816164E-02  0.1186339E+00
        -11   -1    0    0    0    0  0.00000000000E+00  0.00000000000E+00  0.45593999997E+02  0.45594000000E+02  0.51100000000E-03 0.  1.
         11   -1    0    0    0    0 -0.00000000000E+00 -0.00000000000E+00 -0.45593999997E+02  0.45594000000E+02  0.51100000000E-03 0. -1.
    9900012    2    1    2    0    0  0.70951887018E+00 -0.54532059622E+00  0.76957869764E+00  0.90007727594E+02  0.89999988799E+02 0.  0.
         12    1    1    2    0    0 -0.70951887018E+00  0.54532059622E+00 -0.76957869764E+00  0.11802724057E+01  0.00000000000E+00 0. -1.
         11    1    3    3    0    0  0.40292637684E+01  0.11038850081E+02 -0.12810651422E+02  0.17384014719E+02  0.51100000000E-03 0. -1.
        -11    1    3    3    0    0 -0.13753185006E+02  0.27071857823E+02  0.11697303290E+02  0.32540167306E+02  0.51100000000E-03 0.  1.
         12    1    3    3    0    0  0.10433440107E+02 -0.38656028501E+02  0.18829268295E+01  0.40083545569E+02  0.00000000000E+00 0. -1.
</event>
<event>
 7    1  0.1501154E-015  0.9000815E+02  0.7816164E-02  0.1186338E+00
        -11   -1    0    0    0    0  0.00000000000E+00  0.00000000000E+00  0.45593999997E+02  0.45594000000E+02  0.51100000000E-03 0.  1.
         11   -1    0    0    0    0 -0.00000000000E+00 -0.00000000000E+00 -0.45593999997E+02  0.45594000000E+02  0.51100000000E-03 0. -1.
    9900012    2    1    2    0    0  0.10278742560E+01  0.26643532335E+00  0.51432625467E+00  0.90008150533E+02  0.90000417319E+02 0.  0.
         12    1    1    2    0    0 -0.10278742560E+01 -0.26643532335E+00 -0.51432625467E+00  0.11798494666E+01  0.00000000000E+00 0. -1.
         11    1    3    3    0    0  0.14409213541E+01  0.58305216244E+00 -0.37766096458E+00  0.15996350328E+01  0.51100000000E-03 0. -1.
        -11    1    3    3    0    0  0.41056725819E+02 -0.15494079400E+02 -0.35464860915E+01  0.44026114924E+02  0.51100000000E-03 0.  1.
         12    1    3    3    0    0 -0.41469772917E+02  0.15177462561E+02  0.44384733107E+01  0.44382400577E+02  0.00000000000E+00 0. -1.
</event>
<event>
 7    1  0.1501154E-015  0.9000775E+02  0.7816164E-02  0.1186339E+00
        -11   -1    0    0    0    0  0.00000000000E+00  0.00000000000E+00  0.45593999997E+02  0.45594000000E+02  0.51100000000E-03 0.  1.
         11   -1    0    0    0    0 -0.00000000000E+00 -0.00000000000E+00 -0.45593999997E+02  0.45594000000E+02  0.51100000000E-03 0. -1.
    9900012    2    1    2    0    0 -0.50347042300E+00 -0.10561675415E+01 -0.15497870531E+00  0.90007749712E+02  0.90000011208E+02 0.  0.
         12    1    1    2    0    0  0.50347042300E+00  0.10561675415E+01  0.15497870531E+00  0.11802502877E+01  0.00000000000E+00 0. -1.
         11    1    3    3    0    0 -0.70344908144E+01  0.47987144656E+01 -0.24726694870E+01  0.88671199492E+01  0.51100000000E-03 0. -1.
        -11    1    3    3    0    0 -0.19187398362E+02 -0.36135559688E+02 -0.31630196432E+01  0.41035833407E+02  0.51100000000E-03 0.  1.
         12    1    3    3    0    0  0.25718418753E+02  0.30280677681E+02  0.54807104249E+01  0.40104796356E+02  0.00000000000E+00 0. -1.
</event>
<event>
 7    1  0.1501154E-015  0.9000773E+02  0.7816164E-02  0.1186339E+00
        -11   -1    0    0    0    0  0.00000000000E+00  0.00000000000E+00  0.45593999997E+02  0.45594000000E+02  0.51100000000E-03 0.  1.
         11   -1    0    0    0    0 -0.00000000000E+00 -0.00000000000E+00 -0.45593999997E+02  0.45594000000E+02  0.51100000000E-03 0. -1.
    9900012    2    1    2    0    0  0.45128820187E+00  0.25148607174E+00  0.10611891173E+01  0.90007733662E+02  0.89999994947E+02 0.  0.
         12    1    1    2    0    0 -0.45128820187E+00 -0.25148607174E+00 -0.10611891173E+01  0.11802663378E+01  0.00000000000E+00 0. -1.
         11    1    3    3    0    0 -0.29889220954E+02 -0.15118998210E+02  0.16679155206E+02  0.37418496159E+02  0.51100000000E-03 0. -1.
        -11    1    3    3    0    0 -0.46597299577E+01 -0.66231448250E+01 -0.61846764236E+01  0.10189668953E+02  0.51100000000E-03 0.  1.
        -12    1    3    3    0    0  0.35000239114E+02  0.21993629107E+02 -0.94332896653E+01  0.42399568550E+02  0.00000000000E+00 0.  1.
</event>
<event>
 7    1  0.1501154E-015  0.9000770E+02  0.7816164E-02  0.1186339E+00
        -11   -1    0    0    0    0  0.00000000000E+00  0.00000000000E+00  0.45593999997E+02  0.45594000000E+02  0.51100000000E-03 0.  1.
         11   -1    0    0    0    0 -0.00000000000E+00 -0.00000000000E+00 -0.45593999997E+02  0.45594000000E+02  0.51100000000E-03 0. -1.
    9900012    2    1    2    0    0 -0.42112693651E+00 -0.71897227348E+00  0.83596026983E+00  0.90007704020E+02  0.89999964913E+02 0.  0.
         12    1    1    2    0    0  0.42112693651E+00  0.71897227348E+00 -0.83596026983E+00  0.11802959796E+01  0.00000000000E+00 0. -1.
         11    1    3    3    0    0 -0.59762903067E+01  0.54239373937E+01 -0.16337704428E+02  0.18222396355E+02  0.51100000000E-03 0. -1.
        -11    1    3    3    0    0 -0.21892064299E+02  0.19373337030E+02  0.17944783956E+02  0.34301660870E+02  0.51100000000E-03 0.  1.
         12    1    3    3    0    0  0.27447227669E+02 -0.25516246697E+02 -0.77111925839E+00  0.37483646796E+02  0.00000000000E+00 0. -1.
</event>
<event>
 7    1  0.1501154E-015  0.9000771E+02  0.7816164E-02  0.1186339E+00
        -11   -1    0    0    0    0  0.00000000000E+00  0.00000000000E+00  0.45593999997E+02  0.45594000000E+02  0.51100000000E-03 0.  1.
         11   -1    0    0    0    0 -0.00000000000E+00 -0.00000000000E+00 -0.45593999997E+02  0.45594000000E+02  0.51100000000E-03 0. -1.
    9900012    2    1    2    0    0 -0.11952917320E+00  0.10973405984E+01 -0.41790481689E+00  0.90007708490E+02  0.89999969442E+02 0.  0.
         12    1    1    2    0    0  0.11952917320E+00 -0.10973405984E+01  0.41790481689E+00  0.11802915098E+01  0.00000000000E+00 0. -1.
         11    1    3    3    0    0  0.84987889808E+01  0.11906531966E+01  0.15254542914E+01  0.87163111596E+01  0.51100000000E-03 0. -1.
        -11    1    3    3    0    0 -0.21774092342E+02  0.84083383419E+01  0.34483016014E+02  0.41640000536E+02  0.51100000000E-03 0.  1.
         12    1    3    3    0    0  0.13155774188E+02 -0.85016509401E+01 -0.36426375122E+02  0.39651396794E+02  0.00000000000E+00 0. -1.
</event>
<event>
 7    1  0.1501154E-015  0.9000766E+02  0.7816164E-02  0.1186339E+00
        -11   -1    0    0    0    0  0.00000000000E+00  0.00000000000E+00  0.45593999997E+02  0.45594000000E+02  0.51100000000E-03 0. -1.
         11   -1    0    0    0    0 -0.00000000000E+00 -0.00000000000E+00 -0.45593999997E+02  0.45594000000E+02  0.51100000000E-03 0.  1.
    9900012    2    1    2    0    0 -0.10606031800E+01 -0.87134660178E-01 -0.51062660363E+00  0.90007656371E+02  0.89999916635E+02 0.  0.
         12    1    1    2    0    0  0.10606031800E+01  0.87134660178E-01  0.51062660363E+00  0.11803436291E+01  0.00000000000E+00 0. -1.
         11    1    3    3    0    0 -0.68001375936E+01  0.12323307834E+01  0.28886505468E+01  0.74903145925E+01  0.51100000000E-03 0. -1.
        -11    1    3    3    0    0  0.96359192002E+01  0.28451724327E+02 -0.29963187079E+02  0.42428105499E+02  0.51100000000E-03 0.  1.
         12    1    3    3    0    0 -0.38963847865E+01 -0.29771189771E+02  0.26563909929E+02  0.40089236280E+02  0.00000000000E+00 0. -1.
</event>
<event>
 7    1  0.1501154E-015  0.9000773E+02  0.7816164E-02  0.1186339E+00
        -11   -1    0    0    0    0  0.00000000000E+00  0.00000000000E+00  0.45593999997E+02  0.45594000000E+02  0.51100000000E-03 0.  1.
         11   -1    0    0    0    0 -0.00000000000E+00 -0.00000000000E+00 -0.45593999997E+02  0.45594000000E+02  0.51100000000E-03 0. -1.
    9900012    2    1    2    0    0 -0.75255728557E+00  0.66752359339E+00  0.61734815339E+00  0.90007725050E+02  0.89999986220E+02 0.  0.
         12    1    1    2    0    0  0.75255728557E+00 -0.66752359339E+00 -0.61734815339E+00  0.11802749503E+01  0.00000000000E+00 0. -1.
         11    1    3    3    0    0 -0.50988985577E+01  0.90463974862E+01  0.27370232740E+01  0.10739058182E+02  0.51100000000E-03 0. -1.
        -11    1    3    3    0    0  0.36714051715E+02 -0.19249294846E+02 -0.12979799999E+02  0.43438832324E+02  0.51100000000E-03 0.  1.
         12    1    3    3    0    0 -0.32367710443E+02  0.10870420953E+02  0.10860124879E+02  0.35829834543E+02  0.00000000000E+00 0. -1.
</event>
<event>
 7    1  0.1501154E-015  0.9000777E+02  0.7816164E-02  0.1186339E+00
        -11   -1    0    0    0    0  0.00000000000E+00  0.00000000000E+00  0.45593999997E+02  0.45594000000E+02  0.51100000000E-03 0. -1.
         11   -1    0    0    0    0 -0.00000000000E+00 -0.00000000000E+00 -0.45593999997E+02  0.45594000000E+02  0.51100000000E-03 0.  1.
    9900012    2    1    2    0    0 -0.87444092224E+00  0.72820209510E+00  0.31306714643E+00  0.90007772795E+02  0.90000034596E+02 0.  0.
         12    1    1    2    0    0  0.87444092224E+00 -0.72820209510E+00 -0.31306714643E+00  0.11802272052E+01  0.00000000000E+00 0. -1.
         11    1    3    3    0    0 -0.35056426698E+01  0.41875714271E+02  0.81996174286E+01  0.42814701943E+02  0.51100000000E-03 0. -1.
        -11    1    3    3    0    0  0.75721757653E+01 -0.47865445240E+01 -0.52961025806E+01  0.10406611221E+02  0.51100000000E-03 0.  1.
        -12    1    3    3    0    0 -0.49409740178E+01 -0.36360967652E+02 -0.25904477016E+01  0.36786459630E+02  0.00000000000E+00 0.  1.
</event>
<event>
 7    1  0.1501154E-015  0.9000768E+02  0.7816164E-02  0.1186339E+00
        -11   -1    0    0    0    0  0.00000000000E+00  0.00000000000E+00  0.45593999997E+02  0.45594000000E+02  0.51100000000E-03 0. -1.
         11   -1    0    0    0    0 -0.00000000000E+00 -0.00000000000E+00 -0.45593999997E+02  0.45594000000E+02  0.51100000000E-03 0.  1.
    9900012    2    1    2    0    0  0.40561508773E+00 -0.24184546600E+00 -0.10817291928E+01  0.90007681875E+02  0.89999942476E+02 0.  0.
         12    1    1    2    0    0 -0.40561508773E+00  0.24184546600E+00  0.10817291928E+01  0.11803181247E+01  0.00000000000E+00 0. -1.
         11    1    3    3    0    0 -0.14026609552E+00 -0.63449814081E+01  0.80435384538E+01  0.10245827188E+02  0.51100000000E-03 0. -1.
        -11    1    3    3    0    0 -0.29045070262E+01 -0.35095802213E+02 -0.14473767368E+02  0.38074157064E+02  0.51100000000E-03 0.  1.
         12    1    3    3    0    0  0.34503882095E+01  0.41198938155E+02  0.53484997211E+01  0.41687697624E+02  0.00000000000E+00 0. -1.
</event>
<event>
 7    1  0.1501154E-015  0.9000774E+02  0.7816164E-02  0.1186339E+00
        -11   -1    0    0    0    0  0.00000000000E+00  0.00000000000E+00  0.45593999997E+02  0.45594000000E+02  0.51100000000E-03 0.  1.
         11   -1    0    0    0    0 -0.00000000000E+00 -0.00000000000E+00 -0.45593999997E+02  0.45594000000E+02  0.51100000000E-03 0. -1.
    9900012    2    1    2    0    0  0.11182718239E+01  0.35693164111E+00  0.12277762666E+00  0.90007743073E+02  0.90000004481E+02 0.  0.
         12    1    1    2    0    0 -0.11182718239E+01 -0.35693164111E+00 -0.12277762666E+00  0.11802569271E+01  0.00000000000E+00 0. -1.
         11    1    3    3    0    0  0.10850649437E+02 -0.20511037663E+02  0.31190886519E+02  0.38875579241E+02  0.51100000000E-03 0. -1.
        -11    1    3    3    0    0 -0.34372148185E+01 -0.90427810556E+01 -0.46584019289E+01  0.10737180436E+02  0.51100000000E-03 0.  1.
        -12    1    3    3    0    0 -0.62951627945E+01  0.29910750360E+02 -0.26409706963E+02  0.40394983396E+02  0.00000000000E+00 0.  1.
</event>
<event>
 7    1  0.1501154E-015  0.9000768E+02  0.7816164E-02  0.1186339E+00
        -11   -1    0    0    0    0  0.00000000000E+00  0.00000000000E+00  0.45593999997E+02  0.45594000000E+02  0.51100000000E-03 0. -1.
         11   -1    0    0    0    0 -0.00000000000E+00 -0.00000000000E+00 -0.45593999997E+02  0.45594000000E+02  0.51100000000E-03 0.  1.
    9900012    2    1    2    0    0  0.88292198361E+00  0.26520791941E+00 -0.73706673049E+00  0.90007680622E+02  0.89999941206E+02 0.  0.
         12    1    1    2    0    0 -0.88292198361E+00 -0.26520791941E+00  0.73706673049E+00  0.11803193783E+01  0.00000000000E+00 0. -1.
         11    1    3    3    0    0 -0.47888464023E+01  0.14996924919E+02  0.34325350427E+02  0.37763348489E+02  0.51100000000E-03 0. -1.
        -11    1    3    3    0    0 -0.10356776731E+01 -0.40874057892E+01  0.70928960111E+01  0.82515870239E+01  0.51100000000E-03 0.  1.
        -12    1    3    3    0    0  0.67074460590E+01 -0.10644311211E+02 -0.42155313169E+02  0.43992745108E+02  0.00000000000E+00 0.  1.
</event>
<event>
 7    1  0.1501154E-015  0.9000773E+02  0.7816164E-02  0.1186339E+00
        -11   -1    0    0    0    0  0.00000000000E+00  0.00000000000E+00  0.45593999997E+02  0.45594000000E+02  0.51100000000E-03 0.  1.
         11   -1    0    0    0    0 -0.00000000000E+00 -0.00000000000E+00 -0.45593999997E+02  0.45594000000E+02  0.51100000000E-03 0. -1.
    9900012    2    1    2    0    0 -0.79521401544E+00 -0.69318581723E+00 -0.52930996250E+00  0.90007728445E+02  0.89999989660E+02 0.  0.
         12    1    1    2    0    0  0.79521401544E+00  0.69318581723E+00  0.52930996250E+00  0.11802715552E+01  0.00000000000E+00 0. -1.
         11    1    3    3    0    0  0.34237374091E+02  0.98719953083E+01  0.15707284561E+02  0.38940632565E+02  0.51100000000E-03 0. -1.
        -11    1    3    3    0    0 -0.45981874094E+01 -0.92535353677E+01  0.72321562034E+01  0.12612506803E+02  0.51100000000E-03 0.  1.
        -12    1    3    3    0    0 -0.30434400697E+02 -0.13116457578E+01 -0.23468750727E+02  0.38454589077E+02  0.00000000000E+00 0.  1.
</event>
<event>
 7    1  0.1501154E-015  0.9000757E+02  0.7816164E-02  0.1186339E+00
        -11   -1    0    0    0    0  0.00000000000E+00  0.00000000000E+00  0.45593999997E+02  0.45594000000E+02  0.51100000000E-03 0.  1.
         11   -1    0    0    0    0 -0.00000000000E+00 -0.00000000000E+00 -0.45593999997E+02  0.45594000000E+02  0.51100000000E-03 0. -1.
    9900012    2    1    2    0    0 -0.11803455606E+01 -0.13775194724E-01  0.11322002331E-02  0.90007573518E+02  0.89999832688E+02 0.  0.
         12    1    1    2    0    0  0.11803455606E+01  0.13775194724E-01 -0.11322002331E-02  0.11804264824E+01  0.00000000000E+00 0. -1.
         11    1    3    3    0    0  0.51196184979E+01  0.14584702616E+02 -0.61277108905E+01  0.16627473800E+02  0.51100000000E-03 0. -1.
        -11    1    3    3    0    0 -0.32482523280E+02  0.12477775362E+02  0.78675264249E+01  0.35675021639E+02  0.51100000000E-03 0.  1.
         12    1    3    3    0    0  0.26182559221E+02 -0.27076253172E+02 -0.17386833342E+01  0.37705078079E+02  0.00000000000E+00 0. -1.
</event>
<event>
 7    1  0.1501154E-015  0.9000759E+02  0.7816164E-02  0.1186339E+00
        -11   -1    0    0    0    0  0.00000000000E+00  0.00000000000E+00  0.45593999997E+02  0.45594000000E+02  0.51100000000E-03 0.  1.
         11   -1    0    0    0    0 -0.00000000000E+00 -0.00000000000E+00 -0.45593999997E+02  0.45594000000E+02  0.51100000000E-03 0. -1.
    9900012    2    1    2    0    0 -0.32677483383E+00  0.73936765619E+00  0.86019351166E+00  0.90007585157E+02  0.89999844481E+02 0.  0.
         12    1    1    2    0    0  0.32677483383E+00 -0.73936765619E+00 -0.86019351166E+00  0.11804148426E+01  0.00000000000E+00 0. -1.
         11    1    3    3    0    0  0.61317247584E+01 -0.48767883465E+01 -0.84376235627E+01  0.11514104600E+02  0.51100000000E-03 0. -1.
        -11    1    3    3    0    0  0.55506635603E+01  0.64804876876E+01  0.42410184339E+02  0.43260031468E+02  0.51100000000E-03 0.  1.
         12    1    3    3    0    0 -0.12009163152E+02 -0.86433168490E+00 -0.33112367265E+02  0.35233449090E+02  0.00000000000E+00 0. -1.
</event>
<event>
 7    1  0.1501154E-015  0.9000721E+02  0.7816164E-02  0.1186340E+00
        -11   -1    0    0    0    0  0.00000000000E+00  0.00000000000E+00  0.45593999997E+02  0.45594000000E+02  0.51100000000E-03 0.  1.
         11   -1    0    0    0    0 -0.00000000000E+00 -0.00000000000E+00 -0.45593999997E+02  0.45594000000E+02  0.51100000000E-03 0. -1.
    9900012    2    1    2    0    0 -0.51007277417E+00  0.10586966609E+01 -0.11516591986E+00  0.90007205334E+02  0.89999459643E+02 0.  0.
         12    1    1    2    0    0  0.51007277417E+00 -0.10586966609E+01  0.11516591986E+00  0.11807946663E+01  0.00000000000E+00 0. -1.
         11    1    3    3    0    0  0.10488763928E+01  0.10025568262E+02 -0.19301577996E+01  0.10263414152E+02  0.51100000000E-03 0. -1.
        -11    1    3    3    0    0  0.35800705263E+02 -0.92698850159E+01 -0.13496352242E+02  0.39367153690E+02  0.51100000000E-03 0.  1.
         12    1    3    3    0    0 -0.37359654430E+02  0.30301341439E+00  0.15311344122E+02  0.40376637491E+02  0.00000000000E+00 0. -1.
</event>
<event>
 7    1  0.1501154E-015  0.9000795E+02  0.7816164E-02  0.1186339E+00
        -11   -1    0    0    0    0  0.00000000000E+00  0.00000000000E+00  0.45593999997E+02  0.45594000000E+02  0.51100000000E-03 0. -1.
         11   -1    0    0    0    0 -0.00000000000E+00 -0.00000000000E+00 -0.45593999997E+02  0.45594000000E+02  0.51100000000E-03 0.  1.
    9900012    2    1    2    0    0 -0.89165277647E+00  0.75315571058E+00 -0.17388311838E+00  0.90007947655E+02  0.90000211764E+02 0.  0.
         12    1    1    2    0    0  0.89165277647E+00 -0.75315571058E+00  0.17388311838E+00  0.11800523450E+01  0.00000000000E+00 0. -1.
         11    1    3    3    0    0 -0.47723315627E+00 -0.96075634266E+01 -0.88622332346E+01  0.13079457353E+02  0.51100000000E-03 0. -1.
        -11    1    3    3    0    0 -0.14887436394E+02 -0.24922382312E+02 -0.14339895139E+02  0.32378905098E+02  0.51100000000E-03 0.  1.
         12    1    3    3    0    0  0.14473016773E+02  0.35283101449E+02  0.23028245255E+02  0.44549585205E+02  0.00000000000E+00 0. -1.
</event>
<event>
 8    1  0.1501154E-015  0.9000768E+02  0.7816164E-02  0.1186339E+00
        -11   -1    0    0    0    0  0.00000000000E+00  0.00000000000E+00  0.45593999997E+02  0.45594000000E+02  0.51100000000E-03 0. -1.
         11   -1    0    0    0    0 -0.00000000000E+00 -0.00000000000E+00 -0.45593999997E+02  0.45594000000E+02  0.51100000000E-03 0.  1.
    9900012    2    1    2    0    0  0.31512498243E-01 -0.74504765136E+00 -0.91491060356E+00  0.90007682054E+02  0.89999942657E+02 0.  0.
         23    2    3    3    0    0 -0.18850712886E+02 -0.80751470034E+01  0.12032875070E+02  0.65967841251E+02  0.61533800642E+02 0.  0.
         12    1    1    2    0    0 -0.31512498243E-01  0.74504765136E+00  0.91491060356E+00  0.11803179457E+01  0.00000000000E+00 0. -1.
         11    1    4    4    0    0  0.22043195591E+02 -0.49896053686E+01 -0.18378858884E+01  0.22675459387E+02  0.51100000000E-03 0. -1.
        -11    1    4    4    0    0 -0.40893908477E+02 -0.30855416348E+01  0.13870760958E+02  0.43292381865E+02  0.51100000000E-03 0.  1.
         12    1    3    3    0    0  0.18882225385E+02  0.73300993520E+01 -0.12947785673E+02  0.24039840803E+02  0.00000000000E+00 0. -1.
</event>
<event>
 7    1  0.1501154E-015  0.9000766E+02  0.7816164E-02  0.1186339E+00
        -11   -1    0    0    0    0  0.00000000000E+00  0.00000000000E+00  0.45593999997E+02  0.45594000000E+02  0.51100000000E-03 0. -1.
         11   -1    0    0    0    0 -0.00000000000E+00 -0.00000000000E+00 -0.45593999997E+02  0.45594000000E+02  0.51100000000E-03 0.  1.
    9900012    2    1    2    0    0 -0.92224272222E-01 -0.21356447359E-01 -0.11765351869E+01  0.90007662565E+02  0.89999922911E+02 0.  0.
         12    1    1    2    0    0  0.92224272222E-01  0.21356447359E-01  0.11765351869E+01  0.11803374349E+01  0.00000000000E+00 0. -1.
         11    1    3    3    0    0  0.74515586268E+01  0.51159000527E+01 -0.51310106330E+01  0.10393528260E+02  0.51100000000E-03 0. -1.
        -11    1    3    3    0    0 -0.23677049403E+02 -0.10769872977E+02 -0.31143534477E+02  0.40577242049E+02  0.51100000000E-03 0.  1.
         12    1    3    3    0    0  0.16133266504E+02  0.56326164766E+01  0.35098009923E+02  0.39036892256E+02  0.00000000000E+00 0. -1.
</event>
<event>
 7    1  0.1501154E-015  0.9000772E+02  0.7816164E-02  0.1186339E+00
        -11   -1    0    0    0    0  0.00000000000E+00  0.00000000000E+00  0.45593999997E+02  0.45594000000E+02  0.51100000000E-03 0. -1.
         11   -1    0    0    0    0 -0.00000000000E+00 -0.00000000000E+00 -0.45593999997E+02  0.45594000000E+02  0.51100000000E-03 0.  1.
    9900012    2    1    2    0    0 -0.10395514131E+01 -0.44162599341E+00 -0.34257904668E+00  0.90007719922E+02  0.89999981025E+02 0.  0.
         12    1    1    2    0    0  0.10395514131E+01  0.44162599341E+00  0.34257904668E+00  0.11802800777E+01  0.00000000000E+00 0. -1.
         11    1    3    3    0    0  0.28878938564E+02  0.19871472678E+02 -0.21467531101E+02  0.41106245399E+02  0.51100000000E-03 0. -1.
        -11    1    3    3    0    0 -0.16703269020E+01 -0.13278889572E+02  0.81966161655E+00  0.13408607148E+02  0.51100000000E-03 0.  1.
        -12    1    3    3    0    0 -0.28248163075E+02 -0.70342090996E+01  0.20305290437E+02  0.35492867375E+02  0.00000000000E+00 0.  1.
</event>
<event>
 7    1  0.1501154E-015  0.9000773E+02  0.7816164E-02  0.1186339E+00
        -11   -1    0    0    0    0  0.00000000000E+00  0.00000000000E+00  0.45593999997E+02  0.45594000000E+02  0.51100000000E-03 0. -1.
         11   -1    0    0    0    0 -0.00000000000E+00 -0.00000000000E+00 -0.45593999997E+02  0.45594000000E+02  0.51100000000E-03 0.  1.
    9900012    2    1    2    0    0 -0.37850252037E-01  0.86935391617E+00  0.79738809970E+00  0.90007730262E+02  0.89999991501E+02 0.  0.
         12    1    1    2    0    0  0.37850252037E-01 -0.86935391617E+00 -0.79738809970E+00  0.11802697381E+01  0.00000000000E+00 0. -1.
         11    1    3    3    0    0 -0.20234656050E+02 -0.14154036438E+02  0.31249472997E+02  0.39828477447E+02  0.51100000000E-03 0. -1.
        -11    1    3    3    0    0  0.64439900374E+01  0.52414448639E+01  0.58406783628E+01  0.10154372253E+02  0.51100000000E-03 0.  1.
        -12    1    3    3    0    0  0.13752815761E+02  0.97819454898E+01 -0.36292763260E+02  0.40024880561E+02  0.00000000000E+00 0.  1.
</event>
<event>
 7    1  0.1501154E-015  0.9000725E+02  0.7816164E-02  0.1186340E+00
        -11   -1    0    0    0    0  0.00000000000E+00  0.00000000000E+00  0.45593999997E+02  0.45594000000E+02  0.51100000000E-03 0. -1.
         11   -1    0    0    0    0 -0.00000000000E+00 -0.00000000000E+00 -0.45593999997E+02  0.45594000000E+02  0.51100000000E-03 0.  1.
    9900012    2    1    2    0    0  0.23747868416E+00 -0.11562729186E+01 -0.28225825483E-01  0.90007254522E+02  0.89999509480E+02 0.  0.
         12    1    1    2    0    0 -0.23747868416E+00  0.11562729186E+01  0.28225825483E-01  0.11807454784E+01  0.00000000000E+00 0. -1.
         11    1    3    3    0    0  0.18227961649E+02 -0.29687146282E+02  0.11966815350E+02  0.36834629225E+02  0.51100000000E-03 0. -1.
        -11    1    3    3    0    0  0.41065700166E+01 -0.76022020274E+01 -0.57048520277E+01  0.10353875114E+02  0.51100000000E-03 0.  1.
        -12    1    3    3    0    0 -0.22097052981E+02  0.36133075391E+02 -0.62901891481E+01  0.42818750182E+02  0.00000000000E+00 0.  1.
</event>
<event>
 7    1  0.1501154E-015  0.9000776E+02  0.7816164E-02  0.1186339E+00
        -11   -1    0    0    0    0  0.00000000000E+00  0.00000000000E+00  0.45593999997E+02  0.45594000000E+02  0.51100000000E-03 0. -1.
         11   -1    0    0    0    0 -0.00000000000E+00 -0.00000000000E+00 -0.45593999997E+02  0.45594000000E+02  0.51100000000E-03 0.  1.
    9900012    2    1    2    0    0 -0.27786603311E+00  0.10739393059E+01 -0.40298921592E+00  0.90007764653E+02  0.90000026347E+02 0.  0.
         12    1    1    2    0    0  0.27786603311E+00 -0.10739393059E+01  0.40298921592E+00  0.11802353465E+01  0.00000000000E+00 0. -1.
         11    1    3    3    0    0  0.80037117893E+01 -0.66308732650E+01  0.19103544698E+01  0.10567749861E+02  0.51100000000E-03 0. -1.
        -11    1    3    3    0    0  0.33505188826E+02 -0.80367234803E+01  0.23968319544E+01  0.34538839098E+02  0.51100000000E-03 0.  1.
         12    1    3    3    0    0 -0.41786766648E+02  0.15741536051E+02 -0.47101756401E+01  0.44901175694E+02  0.00000000000E+00 0. -1.
</event>
<event>
 7    1  0.1501154E-015  0.9000795E+02  0.7816164E-02  0.1186339E+00
        -11   -1    0    0    0    0  0.00000000000E+00  0.00000000000E+00  0.45593999997E+02  0.45594000000E+02  0.51100000000E-03 0.  1.
         11   -1    0    0    0    0 -0.00000000000E+00 -0.00000000000E+00 -0.45593999997E+02  0.45594000000E+02  0.51100000000E-03 0. -1.
    9900012    2    1    2    0    0  0.26109406921E+00 -0.47246896802E+00  0.10493426662E+01  0.90007950395E+02  0.90000214540E+02 0.  0.
         12    1    1    2    0    0 -0.26109406921E+00  0.47246896802E+00 -0.10493426662E+01  0.11800496048E+01  0.00000000000E+00 0. -1.
         11    1    3    3    0    0 -0.85001171110E+01 -0.17320883005E+01  0.58255864403E+01  0.10449381724E+02  0.51100000000E-03 0. -1.
        -11    1    3    3    0    0 -0.21335128002E+02 -0.28131723520E+02 -0.11118086521E+02  0.37016123557E+02  0.51100000000E-03 0.  1.
         12    1    3    3    0    0  0.30096339182E+02  0.29391342853E+02  0.63418427469E+01  0.42542445114E+02  0.00000000000E+00 0. -1.
</event>
<event>
 7    1  0.1932470E-015  0.9000773E+02  0.7816164E-02  0.1186339E+00
        -11   -1    0    0    0    0  0.00000000000E+00  0.00000000000E+00  0.45593999997E+02  0.45594000000E+02  0.51100000000E-03 0.  1.
         11   -1    0    0    0    0 -0.00000000000E+00 -0.00000000000E+00 -0.45593999997E+02  0.45594000000E+02  0.51100000000E-03 0. -1.
    9900012    2    1    2    0    0 -0.87525670078E+00 -0.68437903891E+00  0.39822604958E+00  0.90007731832E+02  0.89999993092E+02 0.  0.
         12    1    1    2    0    0  0.87525670078E+00  0.68437903891E+00 -0.39822604958E+00  0.11802681677E+01  0.00000000000E+00 0. -1.
         11    1    3    3    0    0  0.37941612379E+02 -0.59052609271E+01 -0.10624397065E+02  0.39841132888E+02  0.51100000000E-03 0. -1.
        -11    1    3    3    0    0 -0.36991732633E+01  0.24361162764E+01 -0.87223626378E+01  0.97825434112E+01  0.51100000000E-03 0.  1.
        -12    1    3    3    0    0 -0.35117695816E+02  0.27847656118E+01  0.19744985753E+02  0.40384055533E+02  0.00000000000E+00 0.  1.
</event>
<event>
 7    1  0.1501154E-015  0.9000776E+02  0.7816164E-02  0.1186339E+00
        -11   -1    0    0    0    0  0.00000000000E+00  0.00000000000E+00  0.45593999997E+02  0.45594000000E+02  0.51100000000E-03 0. -1.
         11   -1    0    0    0    0 -0.00000000000E+00 -0.00000000000E+00 -0.45593999997E+02  0.45594000000E+02  0.51100000000E-03 0.  1.
    9900012    2    1    2    0    0  0.57340283448E+00 -0.97903862893E+00  0.32506320367E+00  0.90007757002E+02  0.90000018595E+02 0.  0.
         12    1    1    2    0    0 -0.57340283448E+00  0.97903862893E+00 -0.32506320367E+00  0.11802429978E+01  0.00000000000E+00 0. -1.
         11    1    3    3    0    0  0.22852973165E+02 -0.10532874409E+02  0.24276317475E+02  0.34964831133E+02  0.51100000000E-03 0. -1.
        -11    1    3    3    0    0  0.30564479530E+01 -0.26517269834E+01  0.10099663267E+02  0.10880107005E+02  0.51100000000E-03 0.  1.
        -12    1    3    3    0    0 -0.25336018284E+02  0.12205562763E+02 -0.34050917538E+02  0.44162818864E+02  0.00000000000E+00 0.  1.
</event>
<event>
 7    1  0.1501154E-015  0.9000775E+02  0.7816164E-02  0.1186339E+00
        -11   -1    0    0    0    0  0.00000000000E+00  0.00000000000E+00  0.45593999997E+02  0.45594000000E+02  0.51100000000E-03 0.  1.
         11   -1    0    0    0    0 -0.00000000000E+00 -0.00000000000E+00 -0.45593999997E+02  0.45594000000E+02  0.51100000000E-03 0. -1.
    9900012    2    1    2    0    0 -0.26437894995E+00  0.41108957660E+00  0.10742928243E+01  0.90007747509E+02  0.90000008977E+02 0.  0.
         12    1    1    2    0    0  0.26437894995E+00 -0.41108957660E+00 -0.10742928243E+01  0.11802524905E+01  0.00000000000E+00 0. -1.
         11    1    3    3    0    0 -0.15357927791E+02 -0.15228082087E+02 -0.37430870022E+02  0.43229971790E+02  0.51100000000E-03 0. -1.
        -11    1    3    3    0    0  0.14857740057E+01  0.83878603644E+01  0.49568473172E+01  0.98556613921E+01  0.51100000000E-03 0.  1.
        -12    1    3    3    0    0  0.13607774836E+02  0.72513112995E+01  0.33548315529E+02  0.36922114327E+02  0.00000000000E+00 0.  1.
</event>
<event>
 7    1  0.1501154E-015  0.9000887E+02  0.7816164E-02  0.1186337E+00
        -11   -1    0    0    0    0  0.00000000000E+00  0.00000000000E+00  0.45593999997E+02  0.45594000000E+02  0.51100000000E-03 0. -1.
         11   -1    0    0    0    0 -0.00000000000E+00 -0.00000000000E+00 -0.45593999997E+02  0.45594000000E+02  0.51100000000E-03 0.  1.
    9900012    2    1    2    0    0 -0.64313985793E+00  0.66345452168E-01 -0.98605885619E+00  0.90008872075E+02  0.90001148379E+02 0.  0.
         12    1    1    2    0    0  0.64313985793E+00 -0.66345452168E-01  0.98605885619E+00  0.11791279251E+01  0.00000000000E+00 0. -1.
         11    1    3    3    0    0 -0.81752968045E+01 -0.39525341000E+01 -0.47237070384E+01  0.10235790741E+02  0.51100000000E-03 0. -1.
        -11    1    3    3    0    0 -0.32877156536E+02 -0.24946671715E+01 -0.13147288842E+02  0.35496225016E+02  0.51100000000E-03 0.  1.
         12    1    3    3    0    0  0.40409313483E+02  0.65135467237E+01  0.16884937024E+02  0.44276856318E+02  0.00000000000E+00 0. -1.
</event>
<event>
 7    1  0.1501154E-015  0.9000759E+02  0.7816164E-02  0.1186339E+00
        -11   -1    0    0    0    0  0.00000000000E+00  0.00000000000E+00  0.45593999997E+02  0.45594000000E+02  0.51100000000E-03 0.  1.
         11   -1    0    0    0    0 -0.00000000000E+00 -0.00000000000E+00 -0.45593999997E+02  0.45594000000E+02  0.51100000000E-03 0. -1.
    9900012    2    1    2    0    0  0.99382286963E+00 -0.45872756233E+00  0.44187648045E+00  0.90007589183E+02  0.89999848560E+02 0.  0.
         12    1    1    2    0    0 -0.99382286963E+00  0.45872756233E+00 -0.44187648045E+00  0.11804108169E+01  0.00000000000E+00 0. -1.
         11    1    3    3    0    0 -0.31970753472E+01  0.77075362006E+01 -0.16670338456E+02  0.18642091878E+02  0.51100000000E-03 0. -1.
        -11    1    3    3    0    0 -0.11465137253E+02 -0.34378174290E+02 -0.25415231311E+00  0.36240486109E+02  0.51100000000E-03 0.  1.
         12    1    3    3    0    0  0.15656035470E+02  0.26211910527E+02  0.17366367250E+02  0.35125011197E+02  0.00000000000E+00 0. -1.
</event>
<event>
 7    1  0.1501154E-015  0.9000776E+02  0.7816164E-02  0.1186339E+00
        -11   -1    0    0    0    0  0.00000000000E+00  0.00000000000E+00  0.45593999997E+02  0.45594000000E+02  0.51100000000E-03 0.  1.
         11   -1    0    0    0    0 -0.00000000000E+00 -0.00000000000E+00 -0.45593999997E+02  0.45594000000E+02  0.51100000000E-03 0. -1.
    9900012    2    1    2    0    0  0.95062057575E+00 -0.62353762563E+00  0.31700128126E+00  0.90007759151E+02  0.90000020772E+02 0.  0.
         12    1    1    2    0    0 -0.95062057575E+00  0.62353762563E+00 -0.31700128126E+00  0.11802408491E+01  0.00000000000E+00 0. -1.
         11    1    3    3    0    0  0.74299617187E+01  0.37509529420E+02  0.11055416749E+02  0.39804413929E+02  0.51100000000E-03 0. -1.
        -11    1    3    3    0    0  0.62321363809E-01  0.38892021735E+01  0.36229154287E+01  0.53155708972E+01  0.51100000000E-03 0.  1.
        -12    1    3    3    0    0 -0.65416625068E+01 -0.42022269219E+02 -0.14361330897E+02  0.44887774325E+02  0.00000000000E+00 0.  1.
</event>
<event>
 7    1  0.1577811E-015  0.9000776E+02  0.7816164E-02  0.1186339E+00
        -11   -1    0    0    0    0  0.00000000000E+00  0.00000000000E+00  0.45593999997E+02  0.45594000000E+02  0.51100000000E-03 0. -1.
         11   -1    0    0    0    0 -0.00000000000E+00 -0.00000000000E+00 -0.45593999997E+02  0.45594000000E+02  0.51100000000E-03 0.  1.
    9900012    2    1    2    0    0 -0.23229937299E+00  0.11486654867E+01 -0.13989440387E+00  0.90007760260E+02  0.90000021896E+02 0.  0.
         12    1    1    2    0    0  0.23229937299E+00 -0.11486654867E+01  0.13989440387E+00  0.11802397398E+01  0.00000000000E+00 0. -1.
         11    1    3    3    0    0  0.26682983909E+02 -0.69681688768E+01  0.22549846173E+02  0.35623483413E+02  0.51100000000E-03 0. -1.
        -11    1    3    3    0    0  0.66896756745E+01 -0.50846920901E+01  0.41733710515E+01  0.93820509739E+01  0.51100000000E-03 0.  1.
        -12    1    3    3    0    0 -0.33604958957E+02  0.13201526454E+02 -0.26863111629E+02  0.45002225873E+02  0.00000000000E+00 0.  1.
</event>
<event>
 7    1  0.1501154E-015  0.9000774E+02  0.7816164E-02  0.1186339E+00
        -11   -1    0    0    0    0  0.00000000000E+00  0.00000000000E+00  0.45593999997E+02  0.45594000000E+02  0.51100000000E-03 0. -1.
         11   -1    0    0    0    0 -0.00000000000E+00 -0.00000000000E+00 -0.45593999997E+02  0.45594000000E+02  0.51100000000E-03 0.  1.
    9900012    2    1    2    0    0  0.10812467869E+01  0.27723122321E+00 -0.38350081240E+00  0.90007735352E+02  0.89999996659E+02 0.  0.
         12    1    1    2    0    0 -0.10812467869E+01 -0.27723122321E+00  0.38350081240E+00  0.11802646476E+01  0.00000000000E+00 0. -1.
         11    1    3    3    0    0 -0.18878805769E+02 -0.12902818469E+02  0.26124195334E+02  0.34718375737E+02  0.51100000000E-03 0. -1.
        -11    1    3    3    0    0 -0.56459863882E+01  0.48591511473E+01  0.83854550212E+01  0.11216254649E+02  0.51100000000E-03 0.  1.
        -12    1    3    3    0    0  0.25606038944E+02  0.83208985447E+01 -0.34893151168E+02  0.44073104967E+02  0.00000000000E+00 0.  1.
</event>
<event>
 7    1  0.1501154E-015  0.9000770E+02  0.7816164E-02  0.1186339E+00
        -11   -1    0    0    0    0  0.00000000000E+00  0.00000000000E+00  0.45593999997E+02  0.45594000000E+02  0.51100000000E-03 0.  1.
         11   -1    0    0    0    0 -0.00000000000E+00 -0.00000000000E+00 -0.45593999997E+02  0.45594000000E+02  0.51100000000E-03 0. -1.
    9900012    2    1    2    0    0  0.20022019414E+00 -0.98392180302E+00 -0.62041855809E+00  0.90007699433E+02  0.89999960266E+02 0.  0.
         12    1    1    2    0    0 -0.20022019414E+00  0.98392180302E+00  0.62041855809E+00  0.11803005667E+01  0.00000000000E+00 0. -1.
         11    1    3    3    0    0  0.25458206921E+01 -0.31264801754E+02 -0.30821452171E+02  0.43976481736E+02  0.51100000000E-03 0. -1.
        -11    1    3    3    0    0 -0.55113603577E+01  0.14815472799E+01  0.59980285291E+01  0.82792766490E+01  0.51100000000E-03 0.  1.
        -12    1    3    3    0    0  0.31657598598E+01  0.28799332671E+02  0.24203005084E+02  0.37751941048E+02  0.00000000000E+00 0.  1.
</event>
<event>
 7    1  0.1501154E-015  0.9000782E+02  0.7816164E-02  0.1186339E+00
        -11   -1    0    0    0    0  0.00000000000E+00  0.00000000000E+00  0.45593999997E+02  0.45594000000E+02  0.51100000000E-03 0.  1.
         11   -1    0    0    0    0 -0.00000000000E+00 -0.00000000000E+00 -0.45593999997E+02  0.45594000000E+02  0.51100000000E-03 0. -1.
    9900012    2    1    2    0    0  0.93513572194E+00 -0.67373563284E+00 -0.25382963635E+00  0.90007818656E+02  0.90000081062E+02 0.  0.
         12    1    1    2    0    0 -0.93513572194E+00  0.67373563284E+00  0.25382963635E+00  0.11801813444E+01  0.00000000000E+00 0. -1.
         11    1    3    3    0    0 -0.43220556835E+02  0.77167145160E+01  0.62945560263E+00  0.43908546214E+02  0.51100000000E-03 0. -1.
        -11    1    3    3    0    0  0.79187522722E+01 -0.48402329988E+01  0.22641391800E+01  0.95530528900E+01  0.51100000000E-03 0.  1.
        -12    1    3    3    0    0  0.36236940285E+02 -0.35502171501E+01 -0.31474244190E+01  0.36546219551E+02  0.00000000000E+00 0.  1.
</event>
<event>
 7    1  0.1501154E-015  0.9000767E+02  0.7816164E-02  0.1186339E+00
        -11   -1    0    0    0    0  0.00000000000E+00  0.00000000000E+00  0.45593999997E+02  0.45594000000E+02  0.51100000000E-03 0.  1.
         11   -1    0    0    0    0 -0.00000000000E+00 -0.00000000000E+00 -0.45593999997E+02  0.45594000000E+02  0.51100000000E-03 0. -1.
    9900012    2    1    2    0    0 -0.90108641328E+00 -0.75691409153E+00 -0.91112939042E-01  0.90007670710E+02  0.89999931163E+02 0.  0.
         12    1    1    2    0    0  0.90108641328E+00  0.75691409153E+00  0.91112939042E-01  0.11803292904E+01  0.00000000000E+00 0. -1.
         11    1    3    3    0    0  0.19731334105E+01  0.50611618915E+01 -0.70093550789E+01  0.88679013318E+01  0.51100000000E-03 0. -1.
        -11    1    3    3    0    0  0.32617070996E+02 -0.24410614671E+02  0.47296095972E+01  0.41013664018E+02  0.51100000000E-03 0.  1.
         12    1    3    3    0    0 -0.35491290820E+02  0.18592538688E+02  0.21886325427E+01  0.40126105360E+02  0.00000000000E+00 0. -1.
</event>
<event>
 7    1  0.1501154E-015  0.9000777E+02  0.7816164E-02  0.1186339E+00
        -11   -1    0    0    0    0  0.00000000000E+00  0.00000000000E+00  0.45593999997E+02  0.45594000000E+02  0.51100000000E-03 0. -1.
         11   -1    0    0    0    0 -0.00000000000E+00 -0.00000000000E+00 -0.45593999997E+02  0.45594000000E+02  0.51100000000E-03 0.  1.
    9900012    2    1    2    0    0 -0.11827899039E+00 -0.83094697725E+00 -0.82974450600E+00  0.90007771741E+02  0.90000033528E+02 0.  0.
         12    1    1    2    0    0  0.11827899039E+00  0.83094697725E+00  0.82974450600E+00  0.11802282592E+01  0.00000000000E+00 0. -1.
         11    1    3    3    0    0 -0.32744664552E+02  0.22764814294E+01  0.16676521942E+02  0.36817140148E+02  0.51100000000E-03 0. -1.
        -11    1    3    3    0    0 -0.43573270391E+01 -0.99573398961E+01  0.16287267073E+01  0.10990344293E+02  0.51100000000E-03 0.  1.
        -12    1    3    3    0    0  0.36983712601E+02  0.68499114894E+01 -0.19134993156E+02  0.42200287300E+02  0.00000000000E+00 0.  1.
</event>
<event>
 7    1  0.1501154E-015  0.9000785E+02  0.7816164E-02  0.1186339E+00
        -11   -1    0    0    0    0  0.00000000000E+00  0.00000000000E+00  0.45593999997E+02  0.45594000000E+02  0.51100000000E-03 0.  1.
         11   -1    0    0    0    0 -0.00000000000E+00 -0.00000000000E+00 -0.45593999997E+02  0.45594000000E+02  0.51100000000E-03 0. -1.
    9900012    2    1    2    0    0  0.32661561577E+00 -0.12024621335E+00  0.11276606653E+01  0.90007849379E+02  0.90000112191E+02 0.  0.
         12    1    1    2    0    0 -0.32661561577E+00  0.12024621335E+00 -0.11276606653E+01  0.11801506211E+01  0.00000000000E+00 0. -1.
         11    1    3    3    0    0  0.22228077372E+02  0.32605339197E+02  0.11350246835E+02  0.41061218580E+02  0.51100000000E-03 0. -1.
        -11    1    3    3    0    0 -0.15841827954E+01  0.12389284532E+01 -0.91354342991E+01  0.93541829646E+01  0.51100000000E-03 0.  1.
        -12    1    3    3    0    0 -0.20317278961E+02 -0.33964513863E+02 -0.10871518702E+01  0.39592447835E+02  0.00000000000E+00 0.  1.
</event>
<event>
 7    1  0.1501154E-015  0.9000777E+02  0.7816164E-02  0.1186339E+00
        -11   -1    0    0    0    0  0.00000000000E+00  0.00000000000E+00  0.45593999997E+02  0.45594000000E+02  0.51100000000E-03 0.  1.
         11   -1    0    0    0    0 -0.00000000000E+00 -0.00000000000E+00 -0.45593999997E+02  0.45594000000E+02  0.51100000000E-03 0. -1.
    9900012    2    1    2    0    0 -0.23543181813E+00  0.45081702022E+00  0.10650297565E+01  0.90007765909E+02  0.90000027619E+02 0.  0.
         12    1    1    2    0    0  0.23543181813E+00 -0.45081702022E+00 -0.10650297565E+01  0.11802340908E+01  0.00000000000E+00 0. -1.
         11    1    3    3    0    0  0.13822949680E+01 -0.45224152818E+01  0.95176495567E+01  0.10627729424E+02  0.51100000000E-03 0. -1.
        -11    1    3    3    0    0  0.29853651342E+02  0.67505185781E+01  0.20289775275E+02  0.36721723550E+02  0.51100000000E-03 0.  1.
         12    1    3    3    0    0 -0.31471378128E+02 -0.17772862760E+01 -0.28742395076E+02  0.42658312935E+02  0.00000000000E+00 0. -1.
</event>
<event>
 7    1  0.1501154E-015  0.9000777E+02  0.7816164E-02  0.1186339E+00
        -11   -1    0    0    0    0  0.00000000000E+00  0.00000000000E+00  0.45593999997E+02  0.45594000000E+02  0.51100000000E-03 0. -1.
         11   -1    0    0    0    0 -0.00000000000E+00 -0.00000000000E+00 -0.45593999997E+02  0.45594000000E+02  0.51100000000E-03 0.  1.
    9900012    2    1    2    0    0 -0.68778738334E+00  0.85584409100E+00 -0.43291381872E+00  0.90007773341E+02  0.90000035149E+02 0.  0.
         12    1    1    2    0    0  0.68778738334E+00 -0.85584409100E+00  0.43291381872E+00  0.11802266593E+01  0.00000000000E+00 0. -1.
         11    1    3    3    0    0 -0.35779874141E+02  0.22815190115E+02 -0.11313205813E+02  0.43917205279E+02  0.51100000000E-03 0. -1.
        -11    1    3    3    0    0  0.77200970478E+01  0.15824340882E+01 -0.13019697168E+01  0.79874352251E+01  0.51100000000E-03 0.  1.
        -12    1    3    3    0    0  0.27371989710E+02 -0.23541780113E+02  0.12182261711E+02  0.38103132836E+02  0.00000000000E+00 0.  1.
</event>
<event>
 7    1  0.1501154E-015  0.9000796E+02  0.7816164E-02  0.1186339E+00
        -11   -1    0    0    0    0  0.00000000000E+00  0.00000000000E+00  0.45593999997E+02  0.45594000000E+02  0.51100000000E-03 0. -1.
         11   -1    0    0    0    0 -0.00000000000E+00 -0.00000000000E+00 -0.45593999997E+02  0.45594000000E+02  0.51100000000E-03 0.  1.
    9900012    2    1    2    0    0  0.10806211932E+01 -0.88695647852E-01  0.46571583118E+00  0.90007957494E+02  0.90000221732E+02 0.  0.
         12    1    1    2    0    0 -0.10806211932E+01  0.88695647852E-01 -0.46571583118E+00  0.11800425063E+01  0.00000000000E+00 0. -1.
         11    1    3    3    0    0 -0.49309405000E+00  0.53834487545E+01 -0.81018987148E+01  0.97398883608E+01  0.51100000000E-03 0. -1.
        -11    1    3    3    0    0  0.35412641747E+02  0.11465533543E+02  0.17885475072E+02  0.41296535857E+02  0.51100000000E-03 0.  1.
         12    1    3    3    0    0 -0.33838926504E+02 -0.16937677945E+02 -0.93178605261E+01  0.38971533276E+02  0.00000000000E+00 0. -1.
</event>
<event>
 7    1  0.1501154E-015  0.9000768E+02  0.7816164E-02  0.1186339E+00
        -11   -1    0    0    0    0  0.00000000000E+00  0.00000000000E+00  0.45593999997E+02  0.45594000000E+02  0.51100000000E-03 0.  1.
         11   -1    0    0    0    0 -0.00000000000E+00 -0.00000000000E+00 -0.45593999997E+02  0.45594000000E+02  0.51100000000E-03 0. -1.
    9900012    2    1    2    0    0  0.41138858717E+00 -0.30030595680E+00  0.10647709730E+01  0.90007677391E+02  0.89999937932E+02 0.  0.
         12    1    1    2    0    0 -0.41138858717E+00  0.30030595680E+00 -0.10647709730E+01  0.11803226094E+01  0.00000000000E+00 0. -1.
         11    1    3    3    0    0  0.26037992310E+02  0.27710752645E+02 -0.17511833986E+02  0.41863196074E+02  0.51100000000E-03 0. -1.
        -11    1    3    3    0    0  0.27902522966E+01 -0.96770837756E+01  0.12569720508E+01  0.10149455024E+02  0.51100000000E-03 0.  1.
        -12    1    3    3    0    0 -0.28416856020E+02 -0.18333974826E+02  0.17319632908E+02  0.37995026293E+02  0.00000000000E+00 0.  1.
</event>
<event>
 7    1  0.1501154E-015  0.9000771E+02  0.7816164E-02  0.1186339E+00
        -11   -1    0    0    0    0  0.00000000000E+00  0.00000000000E+00  0.45593999997E+02  0.45594000000E+02  0.51100000000E-03 0. -1.
         11   -1    0    0    0    0 -0.00000000000E+00 -0.00000000000E+00 -0.45593999997E+02  0.45594000000E+02  0.51100000000E-03 0.  1.
    9900012    2    1    2    0    0 -0.96174320708E+00 -0.43179690682E+00  0.53073833610E+00  0.90007711160E+02  0.89999972147E+02 0.  0.
         12    1    1    2    0    0  0.96174320708E+00  0.43179690682E+00 -0.53073833610E+00  0.11802888403E+01  0.00000000000E+00 0. -1.
         11    1    3    3    0    0  0.19298284529E+01  0.77285538330E+01  0.20883050401E+01  0.82350349367E+01  0.51100000000E-03 0. -1.
        -11    1    3    3    0    0  0.57437987756E+01  0.30017286018E+02 -0.21959109532E+02  0.37632847035E+02  0.51100000000E-03 0.  1.
         12    1    3    3    0    0 -0.86353704356E+01 -0.38177636758E+02  0.20401542828E+02  0.44139829188E+02  0.00000000000E+00 0. -1.
</event>
<event>
 7    1  0.1501154E-015  0.9000780E+02  0.7816164E-02  0.1186339E+00
        -11   -1    0    0    0    0  0.00000000000E+00  0.00000000000E+00  0.45593999997E+02  0.45594000000E+02  0.51100000000E-03 0.  1.
         11   -1    0    0    0    0 -0.00000000000E+00 -0.00000000000E+00 -0.45593999997E+02  0.45594000000E+02  0.51100000000E-03 0. -1.
    9900012    2    1    2    0    0  0.86106631039E+00  0.58110919666E+00  0.56014310992E+00  0.90007795190E+02  0.90000057287E+02 0.  0.
         12    1    1    2    0    0 -0.86106631039E+00 -0.58110919666E+00 -0.56014310992E+00  0.11802048097E+01  0.00000000000E+00 0. -1.
         11    1    3    3    0    0  0.26348895014E+01  0.10755554644E+02 -0.20860124975E+01  0.11268364868E+02  0.51100000000E-03 0. -1.
        -11    1    3    3    0    0 -0.35308390938E+02  0.64717954841E+01 -0.12978862940E+02  0.38170898482E+02  0.51100000000E-03 0.  1.
         12    1    3    3    0    0  0.33534567747E+02 -0.16646240932E+02  0.15625018547E+02  0.40568531841E+02  0.00000000000E+00 0. -1.
</event>
<event>
 7    1  0.1501154E-015  0.9000770E+02  0.7816164E-02  0.1186339E+00
        -11   -1    0    0    0    0  0.00000000000E+00  0.00000000000E+00  0.45593999997E+02  0.45594000000E+02  0.51100000000E-03 0.  1.
         11   -1    0    0    0    0 -0.00000000000E+00 -0.00000000000E+00 -0.45593999997E+02  0.45594000000E+02  0.51100000000E-03 0. -1.
    9900012    2    1    2    0    0  0.43941994734E+00 -0.85004542322E+00  0.69097489502E+00  0.90007697743E+02  0.89999958553E+02 0.  0.
         12    1    1    2    0    0 -0.43941994734E+00  0.85004542322E+00 -0.69097489502E+00  0.11803022567E+01  0.00000000000E+00 0. -1.
         11    1    3    3    0    0  0.66195806771E+01  0.88422482718E+01  0.64014906855E+01  0.12766490751E+02  0.51100000000E-03 0. -1.
        -11    1    3    3    0    0 -0.11392538527E+01  0.75409399928E+00  0.34940794345E+02  0.34967494431E+02  0.51100000000E-03 0.  1.
         12    1    3    3    0    0 -0.50409068771E+01 -0.10446387694E+02 -0.40651310135E+02  0.42273712561E+02  0.00000000000E+00 0. -1.
</event>
<event>
 7    1  0.1501154E-015  0.9000788E+02  0.7816164E-02  0.1186339E+00
        -11   -1    0    0    0    0  0.00000000000E+00  0.00000000000E+00  0.45593999997E+02  0.45594000000E+02  0.51100000000E-03 0.  1.
         11   -1    0    0    0    0 -0.00000000000E+00 -0.00000000000E+00 -0.45593999997E+02  0.45594000000E+02  0.51100000000E-03 0. -1.
    9900012    2    1    2    0    0 -0.82847313179E-01 -0.62219703814E-02  0.11771906590E+01  0.90007881261E+02  0.90000144494E+02 0.  0.
         12    1    1    2    0    0  0.82847313179E-01  0.62219703814E-02 -0.11771906590E+01  0.11801187388E+01  0.00000000000E+00 0. -1.
         11    1    3    3    0    0  0.72833733402E+00  0.17175945332E+01 -0.86920398027E+01  0.88900035121E+01  0.51100000000E-03 0. -1.
        -11    1    3    3    0    0  0.24788274804E+02  0.27546442063E+02  0.18298662505E+02  0.41329240108E+02  0.51100000000E-03 0.  1.
         12    1    3    3    0    0 -0.25599459452E+02 -0.29270258567E+02 -0.84294320438E+01  0.39788637641E+02  0.00000000000E+00 0. -1.
</event>
<event>
 7    1  0.1501154E-015  0.9000784E+02  0.7816164E-02  0.1186339E+00
        -11   -1    0    0    0    0  0.00000000000E+00  0.00000000000E+00  0.45593999997E+02  0.45594000000E+02  0.51100000000E-03 0.  1.
         11   -1    0    0    0    0 -0.00000000000E+00 -0.00000000000E+00 -0.45593999997E+02  0.45594000000E+02  0.51100000000E-03 0. -1.
    9900012    2    1    2    0    0 -0.47981278502E+00  0.71150058693E+00  0.81014326220E+00  0.90007836664E+02  0.90000099308E+02 0.  0.
         12    1    1    2    0    0  0.47981278502E+00 -0.71150058693E+00 -0.81014326220E+00  0.11801633358E+01  0.00000000000E+00 0. -1.
         11    1    3    3    0    0  0.26520309789E+02 -0.23127162637E+02 -0.48703101421E+00  0.35191329649E+02  0.51100000000E-03 0. -1.
        -11    1    3    3    0    0  0.59057046112E+01 -0.58807892028E+01 -0.54613989199E+01  0.99643317400E+01  0.51100000000E-03 0.  1.
        -12    1    3    3    0    0 -0.32905827185E+02  0.29719452427E+02  0.67585731963E+01  0.44852175276E+02  0.00000000000E+00 0.  1.
</event>
<event>
 7    1  0.1501154E-015  0.9000768E+02  0.7816164E-02  0.1186339E+00
        -11   -1    0    0    0    0  0.00000000000E+00  0.00000000000E+00  0.45593999997E+02  0.45594000000E+02  0.51100000000E-03 0.  1.
         11   -1    0    0    0    0 -0.00000000000E+00 -0.00000000000E+00 -0.45593999997E+02  0.45594000000E+02  0.51100000000E-03 0. -1.
    9900012    2    1    2    0    0 -0.26116172296E+00 -0.15518413420E+00  0.11405526148E+01  0.90007683166E+02  0.89999943784E+02 0.  0.
         12    1    1    2    0    0  0.26116172296E+00  0.15518413420E+00 -0.11405526148E+01  0.11803168338E+01  0.00000000000E+00 0. -1.
         11    1    3    3    0    0  0.12339641387E+02  0.30066718533E+02 -0.96116920497E+01  0.33891871256E+02  0.51100000000E-03 0. -1.
        -11    1    3    3    0    0  0.32080302490E+01  0.28757481522E+01 -0.12138039620E+02  0.12879960854E+02  0.51100000000E-03 0.  1.
        -12    1    3    3    0    0 -0.15808833359E+02 -0.33097650819E+02  0.22890284285E+02  0.43235851056E+02  0.00000000000E+00 0.  1.
</event>
<event>
 7    1  0.1501154E-015  0.9000767E+02  0.7816164E-02  0.1186339E+00
        -11   -1    0    0    0    0  0.00000000000E+00  0.00000000000E+00  0.45593999997E+02  0.45594000000E+02  0.51100000000E-03 0.  1.
         11   -1    0    0    0    0 -0.00000000000E+00 -0.00000000000E+00 -0.45593999997E+02  0.45594000000E+02  0.51100000000E-03 0. -1.
    9900012    2    1    2    0    0 -0.11218122919E+01 -0.29133495720E+00 -0.22325642013E+00  0.90007668562E+02  0.89999928987E+02 0.  0.
         12    1    1    2    0    0  0.11218122919E+01  0.29133495720E+00  0.22325642013E+00  0.11803314384E+01  0.00000000000E+00 0. -1.
         11    1    3    3    0    0 -0.46230558575E+01 -0.14135367451E+02 -0.39326269941E+02  0.42044461778E+02  0.51100000000E-03 0. -1.
        -11    1    3    3    0    0 -0.79118601566E+01  0.53468032794E+01  0.45148961522E+01  0.10562675985E+02  0.51100000000E-03 0.  1.
        -12    1    3    3    0    0  0.11413103722E+02  0.84972292139E+01  0.34588117369E+02  0.37400530799E+02  0.00000000000E+00 0.  1.
</event>
<event>
 7    1  0.1501154E-015  0.9000664E+02  0.7816164E-02  0.1186341E+00
        -11   -1    0    0    0    0  0.00000000000E+00  0.00000000000E+00  0.45593999997E+02  0.45594000000E+02  0.51100000000E-03 0. -1.
         11   -1    0    0    0    0 -0.00000000000E+00 -0.00000000000E+00 -0.45593999997E+02  0.45594000000E+02  0.51100000000E-03 0.  1.
    9900012    2    1    2    0    0 -0.10297771436E+01  0.57265325545E+00  0.85076791021E-01  0.90006640285E+02  0.89998887130E+02 0.  0.
         12    1    1    2    0    0  0.10297771436E+01 -0.57265325545E+00 -0.85076791021E-01  0.11813597153E+01  0.00000000000E+00 0. -1.
         11    1    3    3    0    0  0.18188468303E+01  0.18489871165E+01  0.78908670518E+01  0.83061868652E+01  0.51100000000E-03 0. -1.
        -11    1    3    3    0    0  0.10860480913E+02  0.21335745012E+02 -0.35879730145E+02  0.43133735016E+02  0.51100000000E-03 0.  1.
         12    1    3    3    0    0 -0.13709104887E+02 -0.22612078873E+02  0.28073939884E+02  0.38566718403E+02  0.00000000000E+00 0. -1.
</event>
<event>
 7    1  0.1501154E-015  0.9000767E+02  0.7816164E-02  0.1186339E+00
        -11   -1    0    0    0    0  0.00000000000E+00  0.00000000000E+00  0.45593999997E+02  0.45594000000E+02  0.51100000000E-03 0.  1.
         11   -1    0    0    0    0 -0.00000000000E+00 -0.00000000000E+00 -0.45593999997E+02  0.45594000000E+02  0.51100000000E-03 0. -1.
    9900012    2    1    2    0    0  0.12492944877E+00 -0.10648463272E+01  0.49364014804E+00  0.90007667139E+02  0.89999927545E+02 0.  0.
         12    1    1    2    0    0 -0.12492944877E+00  0.10648463272E+01 -0.49364014804E+00  0.11803328613E+01  0.00000000000E+00 0. -1.
         11    1    3    3    0    0  0.75275081299E+00  0.27756921049E+01  0.35107151398E+01  0.45383060167E+01  0.51100000000E-03 0. -1.
        -11    1    3    3    0    0 -0.52759764562E+01  0.27217479905E+02  0.29348232005E+02  0.40372588003E+02  0.51100000000E-03 0.  1.
         12    1    3    3    0    0  0.46481550920E+01 -0.31058018337E+02 -0.32365306997E+02  0.45096773119E+02  0.00000000000E+00 0. -1.
</event>
<event>
 7    1  0.1501154E-015  0.9000784E+02  0.7816164E-02  0.1186339E+00
        -11   -1    0    0    0    0  0.00000000000E+00  0.00000000000E+00  0.45593999997E+02  0.45594000000E+02  0.51100000000E-03 0.  1.
         11   -1    0    0    0    0 -0.00000000000E+00 -0.00000000000E+00 -0.45593999997E+02  0.45594000000E+02  0.51100000000E-03 0. -1.
    9900012    2    1    2    0    0 -0.59742258254E+00  0.19490868969E+00  0.99893968856E+00  0.90007837452E+02  0.90000100106E+02 0.  0.
         12    1    1    2    0    0  0.59742258254E+00 -0.19490868969E+00 -0.99893968856E+00  0.11801625485E+01  0.00000000000E+00 0. -1.
         11    1    3    3    0    0  0.13432241271E+01 -0.25064292288E+01  0.77366606141E+01  0.82427153446E+01  0.51100000000E-03 0. -1.
        -11    1    3    3    0    0  0.23259486399E+02 -0.18200047755E+02  0.23079531829E+02  0.37482132217E+02  0.51100000000E-03 0.  1.
         12    1    3    3    0    0 -0.25200133109E+02  0.20901385674E+02 -0.29817252754E+02  0.44282989890E+02  0.00000000000E+00 0. -1.
</event>
<event>
 7    1  0.1501154E-015  0.9000763E+02  0.7816164E-02  0.1186339E+00
        -11   -1    0    0    0    0  0.00000000000E+00  0.00000000000E+00  0.45593999997E+02  0.45594000000E+02  0.51100000000E-03 0. -1.
         11   -1    0    0    0    0 -0.00000000000E+00 -0.00000000000E+00 -0.45593999997E+02  0.45594000000E+02  0.51100000000E-03 0.  1.
    9900012    2    1    2    0    0 -0.72348124202E+00  0.44541616020E+00 -0.81942668196E+00  0.90007626860E+02  0.89999886734E+02 0.  0.
         12    1    1    2    0    0  0.72348124202E+00 -0.44541616020E+00  0.81942668196E+00  0.11803731403E+01  0.00000000000E+00 0. -1.
         11    1    3    3    0    0  0.42921809749E+01 -0.64682387862E+01 -0.10307997008E+01  0.78309309026E+01  0.51100000000E-03 0. -1.
        -11    1    3    3    0    0  0.30504721142E+02 -0.20965202225E+02 -0.45233428770E+00  0.37017324631E+02  0.51100000000E-03 0.  1.
         12    1    3    3    0    0 -0.35520383359E+02  0.27878857172E+02  0.66370730653E+00  0.45159371326E+02  0.00000000000E+00 0. -1.
</event>
<event>
 7    1  0.1501154E-015  0.9000777E+02  0.7816164E-02  0.1186339E+00
        -11   -1    0    0    0    0  0.00000000000E+00  0.00000000000E+00  0.45593999997E+02  0.45594000000E+02  0.51100000000E-03 0.  1.
         11   -1    0    0    0    0 -0.00000000000E+00 -0.00000000000E+00 -0.45593999997E+02  0.45594000000E+02  0.51100000000E-03 0. -1.
    9900012    2    1    2    0    0 -0.11029879659E+01 -0.41977502790E+00  0.12480802032E-01  0.90007767270E+02  0.90000028998E+02 0.  0.
         12    1    1    2    0    0  0.11029879659E+01  0.41977502790E+00 -0.12480802032E-01  0.11802327302E+01  0.00000000000E+00 0. -1.
         11    1    3    3    0    0 -0.26463364540E+02 -0.16175825508E+02 -0.18633379352E+02  0.36182451824E+02  0.51100000000E-03 0. -1.
        -11    1    3    3    0    0 -0.69934989333E+01  0.15839245252E-02 -0.67979889954E+01  0.97530346294E+01  0.51100000000E-03 0.  1.
        -12    1    3    3    0    0  0.32353875508E+02  0.15754466555E+02  0.25443849150E+02  0.44072280816E+02  0.00000000000E+00 0.  1.
</event>
<event>
 7    1  0.1501154E-015  0.9000773E+02  0.7816164E-02  0.1186339E+00
        -11   -1    0    0    0    0  0.00000000000E+00  0.00000000000E+00  0.45593999997E+02  0.45594000000E+02  0.51100000000E-03 0. -1.
         11   -1    0    0    0    0 -0.00000000000E+00 -0.00000000000E+00 -0.45593999997E+02  0.45594000000E+02  0.51100000000E-03 0.  1.
    9900012    2    1    2    0    0 -0.39311193031E+00  0.11113944949E+01 -0.57568561474E-01  0.90007725095E+02  0.89999986266E+02 0.  0.
         12    1    1    2    0    0  0.39311193031E+00 -0.11113944949E+01  0.57568561474E-01  0.11802749054E+01  0.00000000000E+00 0. -1.
         11    1    3    3    0    0 -0.32831122922E+02  0.22580681737E+02  0.37569767894E+01  0.40023551752E+02  0.51100000000E-03 0. -1.
        -11    1    3    3    0    0 -0.57441734014E+01 -0.58274762853E+01 -0.29969296029E+01  0.87141606151E+01  0.51100000000E-03 0.  1.
        -12    1    3    3    0    0  0.38182184393E+02 -0.15641810957E+02 -0.81761574797E+00  0.41270012727E+02  0.00000000000E+00 0.  1.
</event>
<event>
 7    1  0.1501154E-015  0.9000763E+02  0.7816164E-02  0.1186339E+00
        -11   -1    0    0    0    0  0.00000000000E+00  0.00000000000E+00  0.45593999997E+02  0.45594000000E+02  0.51100000000E-03 0.  1.
         11   -1    0    0    0    0 -0.00000000000E+00 -0.00000000000E+00 -0.45593999997E+02  0.45594000000E+02  0.51100000000E-03 0. -1.
    9900012    2    1    2    0    0 -0.86418369137E+00 -0.79928819349E+00 -0.87231393043E-01  0.90007625320E+02  0.89999885174E+02 0.  0.
         12    1    1    2    0    0  0.86418369137E+00  0.79928819349E+00  0.87231393043E-01  0.11803746798E+01  0.00000000000E+00 0. -1.
         11    1    3    3    0    0 -0.22929071950E+02 -0.25629839164E+02 -0.11977135747E+02  0.36415419495E+02  0.51100000000E-03 0. -1.
        -11    1    3    3    0    0 -0.18780766399E+01 -0.98442969115E+01  0.10121244298E+01  0.10072822329E+02  0.51100000000E-03 0.  1.
        -12    1    3    3    0    0  0.23942964898E+02  0.34674847882E+02  0.10877779925E+02  0.43519383496E+02  0.00000000000E+00 0.  1.
</event>
<event>
 7    1  0.1501154E-015  0.9000773E+02  0.7816164E-02  0.1186339E+00
        -11   -1    0    0    0    0  0.00000000000E+00  0.00000000000E+00  0.45593999997E+02  0.45594000000E+02  0.51100000000E-03 0.  1.
         11   -1    0    0    0    0 -0.00000000000E+00 -0.00000000000E+00 -0.45593999997E+02  0.45594000000E+02  0.51100000000E-03 0. -1.
    9900012    2    1    2    0    0  0.62934898123E+00 -0.30628306857E+00  0.95034103702E+00  0.90007729885E+02  0.89999991119E+02 0.  0.
         12    1    1    2    0    0 -0.62934898123E+00  0.30628306857E+00 -0.95034103702E+00  0.11802701152E+01  0.00000000000E+00 0. -1.
         11    1    3    3    0    0 -0.11718092092E+02 -0.23238056818E+02 -0.17917589116E+01  0.26086996133E+02  0.51100000000E-03 0. -1.
        -11    1    3    3    0    0  0.41220042696E+01 -0.18900958519E+02 -0.62873941509E+01  0.20341299802E+02  0.51100000000E-03 0.  1.
        -12    1    3    3    0    0  0.82254368039E+01  0.41832732269E+02  0.90294940995E+01  0.43579433950E+02  0.00000000000E+00 0.  1.
</event>
<event>
 7    1  0.1501154E-015  0.9000752E+02  0.7816164E-02  0.1186339E+00
        -11   -1    0    0    0    0  0.00000000000E+00  0.00000000000E+00  0.45593999997E+02  0.45594000000E+02  0.51100000000E-03 0.  1.
         11   -1    0    0    0    0 -0.00000000000E+00 -0.00000000000E+00 -0.45593999997E+02  0.45594000000E+02  0.51100000000E-03 0. -1.
    9900012    2    1    2    0    0  0.45770650442E-01  0.73266390408E+00  0.92446934802E+00  0.90007519198E+02  0.89999777651E+02 0.  0.
         12    1    1    2    0    0 -0.45770650442E-01 -0.73266390408E+00 -0.92446934802E+00  0.11804808021E+01  0.00000000000E+00 0. -1.
         11    1    3    3    0    0  0.21378909504E+01  0.14042336450E+02 -0.37313572420E+02  0.39925686941E+02  0.51100000000E-03 0. -1.
        -11    1    3    3    0    0  0.70384305969E+01 -0.51312951019E+01 -0.11910018961E+01  0.87913696583E+01  0.51100000000E-03 0.  1.
        -12    1    3    3    0    0 -0.91305508969E+01 -0.81783774438E+01  0.39429043665E+02  0.41290462598E+02  0.00000000000E+00 0.  1.
</event>
<event>
 7    1  0.1501154E-015  0.9000805E+02  0.7816164E-02  0.1186338E+00
        -11   -1    0    0    0    0  0.00000000000E+00  0.00000000000E+00  0.45593999997E+02  0.45594000000E+02  0.51100000000E-03 0.  1.
         11   -1    0    0    0    0 -0.00000000000E+00 -0.00000000000E+00 -0.45593999997E+02  0.45594000000E+02  0.51100000000E-03 0. -1.
    9900012    2    1    2    0    0 -0.13777860862E+00 -0.11706725013E+01 -0.53138620035E-01  0.90008050525E+02  0.90000315992E+02 0.  0.
         12    1    1    2    0    0  0.13777860862E+00  0.11706725013E+01  0.53138620035E-01  0.11799494748E+01  0.00000000000E+00 0. -1.
         11    1    3    3    0    0  0.27565771759E+01  0.11592010974E+02  0.14531688639E+02  0.18792110342E+02  0.51100000000E-03 0. -1.
        -11    1    3    3    0    0 -0.24553656096E+02 -0.23020026812E+02  0.11712271210E+02  0.35636792214E+02  0.51100000000E-03 0.  1.
         12    1    3    3    0    0  0.21659300312E+02  0.10257343337E+02 -0.26297098469E+02  0.35579147969E+02  0.00000000000E+00 0. -1.
</event>
<event>
 7    1  0.1501154E-015  0.9000745E+02  0.7816164E-02  0.1186340E+00
        -11   -1    0    0    0    0  0.00000000000E+00  0.00000000000E+00  0.45593999997E+02  0.45594000000E+02  0.51100000000E-03 0.  1.
         11   -1    0    0    0    0 -0.00000000000E+00 -0.00000000000E+00 -0.45593999997E+02  0.45594000000E+02  0.51100000000E-03 0. -1.
    9900012    2    1    2    0    0 -0.10868008915E+01 -0.26906027190E+00 -0.37438773815E+00  0.90007451066E+02  0.89999708619E+02 0.  0.
         12    1    1    2    0    0  0.10868008915E+01  0.26906027190E+00  0.37438773815E+00  0.11805489343E+01  0.00000000000E+00 0. -1.
         11    1    3    3    0    0  0.28057073539E+02  0.79041597293E+01 -0.22712921842E+02  0.36953375156E+02  0.51100000000E-03 0. -1.
        -11    1    3    3    0    0  0.18319075136E+01 -0.74652839125E+00 -0.84946368799E+01  0.87219290160E+01  0.51100000000E-03 0.  1.
        -12    1    3    3    0    0 -0.30975781944E+02 -0.74266916099E+01  0.30833170984E+02  0.44332146894E+02  0.00000000000E+00 0.  1.
</event>
<event>
 7    1  0.1501154E-015  0.9000792E+02  0.7816164E-02  0.1186339E+00
        -11   -1    0    0    0    0  0.00000000000E+00  0.00000000000E+00  0.45593999997E+02  0.45594000000E+02  0.51100000000E-03 0.  1.
         11   -1    0    0    0    0 -0.00000000000E+00 -0.00000000000E+00 -0.45593999997E+02  0.45594000000E+02  0.51100000000E-03 0. -1.
    9900012    2    1    2    0    0 -0.69092017293E+00 -0.74611363887E+00  0.59877997557E+00  0.90007917924E+02  0.90000181640E+02 0.  0.
         12    1    1    2    0    0  0.69092017293E+00  0.74611363887E+00 -0.59877997557E+00  0.11800820762E+01  0.00000000000E+00 0. -1.
         11    1    3    3    0    0 -0.29527351493E+02  0.10377586490E+02 -0.20589983081E+02  0.37463398019E+02  0.51100000000E-03 0. -1.
        -11    1    3    3    0    0 -0.19599191944E+01 -0.22087157909E+01 -0.84078807310E+01  0.89113504780E+01  0.51100000000E-03 0.  1.
        -12    1    3    3    0    0  0.30796350515E+02 -0.89149843380E+01  0.29596643788E+02  0.43633169427E+02  0.00000000000E+00 0.  1.
</event>
<event>
 7    1  0.1832236E-015  0.9000780E+02  0.7816164E-02  0.1186339E+00
        -11   -1    0    0    0    0  0.00000000000E+00  0.00000000000E+00  0.45593999997E+02  0.45594000000E+02  0.51100000000E-03 0.  1.
         11   -1    0    0    0    0 -0.00000000000E+00 -0.00000000000E+00 -0.45593999997E+02  0.45594000000E+02  0.51100000000E-03 0. -1.
    9900012    2    1    2    0    0 -0.76732814150E+00 -0.47930513650E+00  0.75785904794E+00  0.90007798226E+02  0.90000060363E+02 0.  0.
         12    1    1    2    0    0  0.76732814150E+00  0.47930513650E+00 -0.75785904794E+00  0.11802017739E+01  0.00000000000E+00 0. -1.
         11    1    3    3    0    0 -0.29992366299E+02  0.25441469604E+02 -0.46844625391E+01  0.39607506881E+02  0.51100000000E-03 0. -1.
        -11    1    3    3    0    0  0.60984333976E+01  0.66186172121E+01 -0.32057566683E+01  0.95537353837E+01  0.51100000000E-03 0.  1.
        -12    1    3    3    0    0  0.23126604760E+02 -0.32539391952E+02  0.86480782553E+01  0.40846555961E+02  0.00000000000E+00 0.  1.
</event>
<event>
 7    1  0.1501154E-015  0.9000770E+02  0.7816164E-02  0.1186339E+00
        -11   -1    0    0    0    0  0.00000000000E+00  0.00000000000E+00  0.45593999997E+02  0.45594000000E+02  0.51100000000E-03 0. -1.
         11   -1    0    0    0    0 -0.00000000000E+00 -0.00000000000E+00 -0.45593999997E+02  0.45594000000E+02  0.51100000000E-03 0.  1.
    9900012    2    1    2    0    0 -0.42067894148E+00  0.67080302518E+00 -0.87530146731E+00  0.90007703372E+02  0.89999964257E+02 0.  0.
         12    1    1    2    0    0  0.42067894148E+00 -0.67080302518E+00  0.87530146731E+00  0.11802966276E+01  0.00000000000E+00 0. -1.
         11    1    3    3    0    0  0.31305335823E+01 -0.84098551662E+01 -0.81464037213E+01  0.12119810158E+02  0.51100000000E-03 0. -1.
        -11    1    3    3    0    0  0.33886268090E+02  0.31072999399E+01 -0.11055867196E+02  0.35779416956E+02  0.51100000000E-03 0.  1.
         12    1    3    3    0    0 -0.37437480614E+02  0.59733582514E+01  0.18326969450E+02  0.42108476258E+02  0.00000000000E+00 0. -1.
</event>
<event>
 7    1  0.1501154E-015  0.9000764E+02  0.7816164E-02  0.1186339E+00
        -11   -1    0    0    0    0  0.00000000000E+00  0.00000000000E+00  0.45593999997E+02  0.45594000000E+02  0.51100000000E-03 0.  1.
         11   -1    0    0    0    0 -0.00000000000E+00 -0.00000000000E+00 -0.45593999997E+02  0.45594000000E+02  0.51100000000E-03 0. -1.
    9900012    2    1    2    0    0 -0.37469135643E+00  0.10819642582E+01  0.28672279764E+00  0.90007639788E+02  0.89999899833E+02 0.  0.
         12    1    1    2    0    0  0.37469135643E+00 -0.10819642582E+01 -0.28672279764E+00  0.11803602125E+01  0.00000000000E+00 0. -1.
         11    1    3    3    0    0  0.83517944008E+01 -0.49036828219E+01 -0.65583851091E+01  0.11696623035E+02  0.51100000000E-03 0. -1.
        -11    1    3    3    0    0  0.32513924920E+02  0.51748456138E+01  0.15139025358E+02  0.36237058791E+02  0.51100000000E-03 0.  1.
         12    1    3    3    0    0 -0.41240410677E+02  0.81080146622E+00 -0.82939174510E+01  0.42073957961E+02  0.00000000000E+00 0. -1.
</event>
<event>
 7    1  0.1501154E-015  0.9000777E+02  0.7816164E-02  0.1186339E+00
        -11   -1    0    0    0    0  0.00000000000E+00  0.00000000000E+00  0.45593999997E+02  0.45594000000E+02  0.51100000000E-03 0.  1.
         11   -1    0    0    0    0 -0.00000000000E+00 -0.00000000000E+00 -0.45593999997E+02  0.45594000000E+02  0.51100000000E-03 0. -1.
    9900012    2    1    2    0    0 -0.30730625153E+00  0.44913187369E+00  0.10472790695E+01  0.90007766963E+02  0.90000028687E+02 0.  0.
         12    1    1    2    0    0  0.30730625153E+00 -0.44913187369E+00 -0.10472790695E+01  0.11802330370E+01  0.00000000000E+00 0. -1.
         11    1    3    3    0    0 -0.30690448485E+02  0.14498631188E+02  0.18799485420E+02  0.38801218884E+02  0.51100000000E-03 0. -1.
        -11    1    3    3    0    0  0.13432156292E+01  0.75746404734E+01  0.42998859187E+01  0.88129691764E+01  0.51100000000E-03 0.  1.
        -12    1    3    3    0    0  0.29039926605E+02 -0.21624139788E+02 -0.22052092269E+02  0.42393578903E+02  0.00000000000E+00 0.  1.
</event>
<event>
 7    1  0.1501154E-015  0.9000771E+02  0.7816164E-02  0.1186339E+00
        -11   -1    0    0    0    0  0.00000000000E+00  0.00000000000E+00  0.45593999997E+02  0.45594000000E+02  0.51100000000E-03 0. -1.
         11   -1    0    0    0    0 -0.00000000000E+00 -0.00000000000E+00 -0.45593999997E+02  0.45594000000E+02  0.51100000000E-03 0.  1.
    9900012    2    1    2    0    0 -0.69852281083E+00 -0.68811070420E+00  0.65700526779E+00  0.90007709197E+02  0.89999970158E+02 0.  0.
         12    1    1    2    0    0  0.69852281083E+00  0.68811070420E+00 -0.65700526779E+00  0.11802908033E+01  0.00000000000E+00 0. -1.
         11    1    3    3    0    0  0.87759746422E-01  0.83119870452E+01  0.54438508099E+01  0.99364149628E+01  0.51100000000E-03 0. -1.
        -11    1    3    3    0    0  0.12629822009E+02  0.27073640151E+02 -0.22795909205E+02  0.37578556009E+02  0.51100000000E-03 0.  1.
         12    1    3    3    0    0 -0.13416104566E+02 -0.36073737900E+02  0.18009063663E+02  0.42492738225E+02  0.00000000000E+00 0. -1.
</event>
<event>
 7    1  0.1501154E-015  0.9000775E+02  0.7816164E-02  0.1186339E+00
        -11   -1    0    0    0    0  0.00000000000E+00  0.00000000000E+00  0.45593999997E+02  0.45594000000E+02  0.51100000000E-03 0.  1.
         11   -1    0    0    0    0 -0.00000000000E+00 -0.00000000000E+00 -0.45593999997E+02  0.45594000000E+02  0.51100000000E-03 0. -1.
    9900012    2    1    2    0    0 -0.10386025052E+01 -0.43332641039E+00  0.35571080366E+00  0.90007747011E+02  0.90000008472E+02 0.  0.
         12    1    1    2    0    0  0.10386025052E+01  0.43332641039E+00 -0.35571080366E+00  0.11802529888E+01  0.00000000000E+00 0. -1.
         11    1    3    3    0    0 -0.38036173277E+01 -0.41241827608E+01  0.79599733817E+01  0.97384580257E+01  0.51100000000E-03 0. -1.
        -11    1    3    3    0    0 -0.22978671266E+02 -0.19930461200E+02  0.19429135996E+02  0.36093405805E+02  0.51100000000E-03 0.  1.
         12    1    3    3    0    0  0.25743686089E+02  0.23621317551E+02 -0.27033398574E+02  0.44175883180E+02  0.00000000000E+00 0. -1.
</event>
<event>
 7    1  0.1501154E-015  0.9000780E+02  0.7816164E-02  0.1186339E+00
        -11   -1    0    0    0    0  0.00000000000E+00  0.00000000000E+00  0.45593999997E+02  0.45594000000E+02  0.51100000000E-03 0. -1.
         11   -1    0    0    0    0 -0.00000000000E+00 -0.00000000000E+00 -0.45593999997E+02  0.45594000000E+02  0.51100000000E-03 0.  1.
    9900012    2    1    2    0    0  0.66660955283E+00 -0.44047461549E+00 -0.86860967709E+00  0.90007801307E+02  0.90000063485E+02 0.  0.
         12    1    1    2    0    0 -0.66660955283E+00  0.44047461549E+00  0.86860967709E+00  0.11801986926E+01  0.00000000000E+00 0. -1.
         11    1    3    3    0    0 -0.42527945426E+01  0.67336895943E+01  0.47922626156E+01  0.92948705323E+01  0.51100000000E-03 0. -1.
        -11    1    3    3    0    0  0.32416209856E+02 -0.24009868663E+02  0.14292285710E+02  0.42796657412E+02  0.51100000000E-03 0.  1.
         12    1    3    3    0    0 -0.27496805760E+02  0.16835704453E+02 -0.19953158002E+02  0.37916273363E+02  0.00000000000E+00 0. -1.
</event>
<event>
 7    1  0.1501154E-015  0.9000774E+02  0.7816164E-02  0.1186339E+00
        -11   -1    0    0    0    0  0.00000000000E+00  0.00000000000E+00  0.45593999997E+02  0.45594000000E+02  0.51100000000E-03 0.  1.
         11   -1    0    0    0    0 -0.00000000000E+00 -0.00000000000E+00 -0.45593999997E+02  0.45594000000E+02  0.51100000000E-03 0. -1.
    9900012    2    1    2    0    0  0.41103594885E+00  0.74198880099E+00  0.82068645154E+00  0.90007735545E+02  0.89999996854E+02 0.  0.
         12    1    1    2    0    0 -0.41103594885E+00 -0.74198880099E+00 -0.82068645154E+00  0.11802644550E+01  0.00000000000E+00 0. -1.
         11    1    3    3    0    0 -0.10759432225E+01  0.31332875422E+02 -0.22543513109E+02  0.38614980507E+02  0.51100000000E-03 0. -1.
        -11    1    3    3    0    0 -0.79232949755E+01  0.23546406233E+01 -0.23045367558E+01  0.85810154209E+01  0.51100000000E-03 0.  1.
        -12    1    3    3    0    0  0.94102741469E+01 -0.32945527244E+02  0.25668736316E+02  0.42811739617E+02  0.00000000000E+00 0.  1.
</event>
<event>
 7    1  0.1501154E-015  0.9000784E+02  0.7816164E-02  0.1186339E+00
        -11   -1    0    0    0    0  0.00000000000E+00  0.00000000000E+00  0.45593999997E+02  0.45594000000E+02  0.51100000000E-03 0. -1.
         11   -1    0    0    0    0 -0.00000000000E+00 -0.00000000000E+00 -0.45593999997E+02  0.45594000000E+02  0.51100000000E-03 0.  1.
    9900012    2    1    2    0    0 -0.11279494278E+01 -0.27735130828E+00 -0.20877955505E+00  0.90007837908E+02  0.90000100569E+02 0.  0.
         12    1    1    2    0    0  0.11279494278E+01  0.27735130828E+00  0.20877955505E+00  0.11801620917E+01  0.00000000000E+00 0. -1.
         11    1    3    3    0    0 -0.31863252781E+02 -0.24490843897E+02 -0.81486690445E+01  0.41005720577E+02  0.51100000000E-03 0. -1.
        -11    1    3    3    0    0  0.59010109821E+01 -0.65267069023E+01  0.70621155494E+00  0.88271495184E+01  0.51100000000E-03 0.  1.
        -12    1    3    3    0    0  0.24834292371E+02  0.30740199491E+02  0.72336779345E+01  0.40174967813E+02  0.00000000000E+00 0.  1.
</event>
<event>
 7    1  0.1501154E-015  0.9000779E+02  0.7816164E-02  0.1186339E+00
        -11   -1    0    0    0    0  0.00000000000E+00  0.00000000000E+00  0.45593999997E+02  0.45594000000E+02  0.51100000000E-03 0.  1.
         11   -1    0    0    0    0 -0.00000000000E+00 -0.00000000000E+00 -0.45593999997E+02  0.45594000000E+02  0.51100000000E-03 0. -1.
    9900012    2    1    2    0    0 -0.86203198710E-01  0.76076489269E+00  0.89815930789E+00  0.90007794782E+02  0.90000056873E+02 0.  0.
         12    1    1    2    0    0  0.86203198710E-01 -0.76076489269E+00 -0.89815930789E+00  0.11802052176E+01  0.00000000000E+00 0. -1.
         11    1    3    3    0    0  0.34545369556E+01 -0.93147400855E+01 -0.25801365371E+01  0.10264273635E+02  0.51100000000E-03 0. -1.
        -11    1    3    3    0    0  0.16588968250E+02 -0.30169083387E+02 -0.15581792623E+01  0.34464407479E+02  0.51100000000E-03 0.  1.
         12    1    3    3    0    0 -0.20129708404E+02  0.40244588365E+02  0.50364751073E+01  0.45279113669E+02  0.00000000000E+00 0. -1.
</event>
<event>
 7    1  0.1501154E-015  0.9000767E+02  0.7816164E-02  0.1186339E+00
        -11   -1    0    0    0    0  0.00000000000E+00  0.00000000000E+00  0.45593999997E+02  0.45594000000E+02  0.51100000000E-03 0. -1.
         11   -1    0    0    0    0 -0.00000000000E+00 -0.00000000000E+00 -0.45593999997E+02  0.45594000000E+02  0.51100000000E-03 0.  1.
    9900012    2    1    2    0    0 -0.99034470994E+00  0.63698607366E+00 -0.81531473977E-01  0.90007668994E+02  0.89999929425E+02 0.  0.
         12    1    1    2    0    0  0.99034470994E+00 -0.63698607366E+00  0.81531473977E-01  0.11803310060E+01  0.00000000000E+00 0. -1.
         11    1    3    3    0    0  0.24147710150E+01  0.34024278368E+01  0.10165222767E+02  0.10988147633E+02  0.51100000000E-03 0. -1.
        -11    1    3    3    0    0  0.28633618137E+02  0.21898700899E+02  0.37278954066E+01  0.36239955754E+02  0.51100000000E-03 0.  1.
         12    1    3    3    0    0 -0.32038733862E+02 -0.24664142662E+02 -0.13974649648E+02  0.42779565607E+02  0.00000000000E+00 0. -1.
</event>
<event>
 7    1  0.1501154E-015  0.9000770E+02  0.7816164E-02  0.1186339E+00
        -11   -1    0    0    0    0  0.00000000000E+00  0.00000000000E+00  0.45593999997E+02  0.45594000000E+02  0.51100000000E-03 0.  1.
         11   -1    0    0    0    0 -0.00000000000E+00 -0.00000000000E+00 -0.45593999997E+02  0.45594000000E+02  0.51100000000E-03 0. -1.
    9900012    2    1    2    0    0  0.89640737099E+00 -0.66702574166E+00 -0.38031583539E+00  0.90007699339E+02  0.89999960171E+02 0.  0.
         12    1    1    2    0    0 -0.89640737099E+00  0.66702574166E+00  0.38031583539E+00  0.11803006606E+01  0.00000000000E+00 0. -1.
         11    1    3    3    0    0 -0.31720698354E+02  0.17787078988E+02  0.13786989422E+02  0.38892980865E+02  0.51100000000E-03 0. -1.
        -11    1    3    3    0    0  0.29227420018E+01  0.36310092127E+01  0.70540673731E+01  0.84549698685E+01  0.51100000000E-03 0.  1.
        -12    1    3    3    0    0  0.29694363723E+02 -0.22085113942E+02 -0.21221372631E+02  0.42659748606E+02  0.00000000000E+00 0.  1.
</event>
<event>
 7    1  0.1501154E-015  0.9000773E+02  0.7816164E-02  0.1186339E+00
        -11   -1    0    0    0    0  0.00000000000E+00  0.00000000000E+00  0.45593999997E+02  0.45594000000E+02  0.51100000000E-03 0.  1.
         11   -1    0    0    0    0 -0.00000000000E+00 -0.00000000000E+00 -0.45593999997E+02  0.45594000000E+02  0.51100000000E-03 0. -1.
    9900012    2    1    2    0    0  0.57475493070E+00  0.88833789437E+00  0.52301909739E+00  0.90007730361E+02  0.89999991602E+02 0.  0.
         12    1    1    2    0    0 -0.57475493070E+00 -0.88833789437E+00 -0.52301909739E+00  0.11802696392E+01  0.00000000000E+00 0. -1.
         11    1    3    3    0    0 -0.59029717143E+01  0.21722585465E+01  0.74212783700E+01  0.97282657837E+01  0.51100000000E-03 0. -1.
        -11    1    3    3    0    0 -0.91390023497E+01  0.32307041540E+02  0.15511483152E+02  0.36984759116E+02  0.51100000000E-03 0.  1.
         12    1    3    3    0    0  0.15616728995E+02 -0.33590962192E+02 -0.22409742424E+02  0.43294705462E+02  0.00000000000E+00 0. -1.
</event>
<event>
 7    1  0.1501154E-015  0.9000770E+02  0.7816164E-02  0.1186339E+00
        -11   -1    0    0    0    0  0.00000000000E+00  0.00000000000E+00  0.45593999997E+02  0.45594000000E+02  0.51100000000E-03 0.  1.
         11   -1    0    0    0    0 -0.00000000000E+00 -0.00000000000E+00 -0.45593999997E+02  0.45594000000E+02  0.51100000000E-03 0. -1.
    9900012    2    1    2    0    0  0.36419117768E+00  0.52187613606E+00  0.99404700106E+00  0.90007695228E+02  0.89999956005E+02 0.  0.
         12    1    1    2    0    0 -0.36419117768E+00 -0.52187613606E+00 -0.99404700106E+00  0.11803047723E+01  0.00000000000E+00 0. -1.
         11    1    3    3    0    0  0.31001824165E+01  0.28016349454E+02 -0.76521907519E+01  0.29207584483E+02  0.51100000000E-03 0. -1.
        -11    1    3    3    0    0 -0.20714799723E+02  0.45428953640E+01 -0.46855880325E+01  0.21718553389E+02  0.51100000000E-03 0.  1.
        -12    1    3    3    0    0  0.17978808484E+02 -0.32037368682E+02  0.13331825786E+02  0.39081557356E+02  0.00000000000E+00 0.  1.
</event>
<event>
 7    1  0.1501154E-015  0.9000767E+02  0.7816164E-02  0.1186339E+00
        -11   -1    0    0    0    0  0.00000000000E+00  0.00000000000E+00  0.45593999997E+02  0.45594000000E+02  0.51100000000E-03 0. -1.
         11   -1    0    0    0    0 -0.00000000000E+00 -0.00000000000E+00 -0.45593999997E+02  0.45594000000E+02  0.51100000000E-03 0.  1.
    9900012    2    1    2    0    0 -0.56013674998E+00 -0.76589217869E+00 -0.70201508519E+00  0.90007674118E+02  0.89999934616E+02 0.  0.
         12    1    1    2    0    0  0.56013674998E+00  0.76589217869E+00  0.70201508519E+00  0.11803258821E+01  0.00000000000E+00 0. -1.
         11    1    3    3    0    0  0.47569877677E+00 -0.96847625107E+01  0.16922516310E+01  0.98429990378E+01  0.51100000000E-03 0. -1.
        -11    1    3    3    0    0 -0.25339788940E+02  0.24921546447E+02  0.22335216475E+02  0.41976782584E+02  0.51100000000E-03 0.  1.
         12    1    3    3    0    0  0.24303953413E+02 -0.16002676115E+02 -0.24729483191E+02  0.38187892496E+02  0.00000000000E+00 0. -1.
</event>
<event>
 7    1  0.1501154E-015  0.9000767E+02  0.7816164E-02  0.1186339E+00
        -11   -1    0    0    0    0  0.00000000000E+00  0.00000000000E+00  0.45593999997E+02  0.45594000000E+02  0.51100000000E-03 0. -1.
         11   -1    0    0    0    0 -0.00000000000E+00 -0.00000000000E+00 -0.45593999997E+02  0.45594000000E+02  0.51100000000E-03 0.  1.
    9900012    2    1    2    0    0 -0.72151892311E+00  0.76441156235E+00  0.53690016356E+00  0.90007671072E+02  0.89999931530E+02 0.  0.
         12    1    1    2    0    0  0.72151892311E+00 -0.76441156235E+00 -0.53690016356E+00  0.11803289282E+01  0.00000000000E+00 0. -1.
         11    1    3    3    0    0 -0.10978475339E+02 -0.20686364691E+02  0.26227488600E+02  0.35161538127E+02  0.51100000000E-03 0. -1.
        -11    1    3    3    0    0 -0.98919528935E+01 -0.41889638539E+01  0.32743364517E+01  0.11230290721E+02  0.51100000000E-03 0.  1.
        -12    1    3    3    0    0  0.20148909310E+02  0.25639740108E+02 -0.28964924888E+02  0.43615842224E+02  0.00000000000E+00 0.  1.
</event>
<event>
 7    1  0.1501154E-015  0.9000763E+02  0.7816164E-02  0.1186339E+00
        -11   -1    0    0    0    0  0.00000000000E+00  0.00000000000E+00  0.45593999997E+02  0.45594000000E+02  0.51100000000E-03 0.  1.
         11   -1    0    0    0    0 -0.00000000000E+00 -0.00000000000E+00 -0.45593999997E+02  0.45594000000E+02  0.51100000000E-03 0. -1.
    9900012    2    1    2    0    0 -0.15591229248E+00 -0.89907120503E+00  0.74875261796E+00  0.90007632194E+02  0.89999892139E+02 0.  0.
         12    1    1    2    0    0  0.15591229248E+00  0.89907120503E+00 -0.74875261796E+00  0.11803678061E+01  0.00000000000E+00 0. -1.
         11    1    3    3    0    0  0.40756428296E+01  0.33604144897E+02 -0.11899836140E+02  0.35881130405E+02  0.51100000000E-03 0. -1.
        -11    1    3    3    0    0  0.11717147637E+02 -0.24040122942E+01  0.13803481615E+02  0.18264909767E+02  0.51100000000E-03 0.  1.
        -12    1    3    3    0    0 -0.15948702759E+02 -0.32099203808E+02 -0.11548928566E+01  0.35861592021E+02  0.00000000000E+00 0.  1.
</event>
<event>
 7    1  0.1501154E-015  0.9000777E+02  0.7816164E-02  0.1186339E+00
        -11   -1    0    0    0    0  0.00000000000E+00  0.00000000000E+00  0.45593999997E+02  0.45594000000E+02  0.51100000000E-03 0. -1.
         11   -1    0    0    0    0 -0.00000000000E+00 -0.00000000000E+00 -0.45593999997E+02  0.45594000000E+02  0.51100000000E-03 0.  1.
    9900012    2    1    2    0    0 -0.44105123988E+00  0.18124274241E+00  0.10796194347E+01  0.90007765595E+02  0.90000027300E+02 0.  0.
         12    1    1    2    0    0  0.44105123988E+00 -0.18124274241E+00 -0.10796194347E+01  0.11802344054E+01  0.00000000000E+00 0. -1.
         11    1    3    3    0    0  0.26265946384E+01  0.10369047964E+02  0.57784762366E+00  0.10712145593E+02  0.51100000000E-03 0. -1.
        -11    1    3    3    0    0  0.81582584064E+01  0.30486657648E+02  0.14646916759E+02  0.34792609066E+02  0.51100000000E-03 0.  1.
         12    1    3    3    0    0 -0.11225904285E+02 -0.40674462870E+02 -0.14145144948E+02  0.44503010936E+02  0.00000000000E+00 0. -1.
</event>
<event>
 7    1  0.1501154E-015  0.9000764E+02  0.7816164E-02  0.1186339E+00
        -11   -1    0    0    0    0  0.00000000000E+00  0.00000000000E+00  0.45593999997E+02  0.45594000000E+02  0.51100000000E-03 0.  1.
         11   -1    0    0    0    0 -0.00000000000E+00 -0.00000000000E+00 -0.45593999997E+02  0.45594000000E+02  0.51100000000E-03 0. -1.
    9900012    2    1    2    0    0 -0.11699071852E+01 -0.34601806572E-01  0.15287351573E+00  0.90007639708E+02  0.89999899752E+02 0.  0.
         12    1    1    2    0    0  0.11699071852E+01  0.34601806572E-01 -0.15287351573E+00  0.11803602920E+01  0.00000000000E+00 0. -1.
         11    1    3    3    0    0 -0.22395956118E+02  0.12777591787E+02 -0.28812135070E+02  0.38665033685E+02  0.51100000000E-03 0. -1.
        -11    1    3    3    0    0  0.34861495265E+01  0.63399096668E+01 -0.47851048682E+01  0.86743830885E+01  0.51100000000E-03 0.  1.
        -12    1    3    3    0    0  0.17739899406E+02 -0.19152103260E+02  0.33750113454E+02  0.42668222935E+02  0.00000000000E+00 0.  1.
</event>
<event>
 7    1  0.1501154E-015  0.9000774E+02  0.7816164E-02  0.1186339E+00
        -11   -1    0    0    0    0  0.00000000000E+00  0.00000000000E+00  0.45593999997E+02  0.45594000000E+02  0.51100000000E-03 0. -1.
         11   -1    0    0    0    0 -0.00000000000E+00 -0.00000000000E+00 -0.45593999997E+02  0.45594000000E+02  0.51100000000E-03 0.  1.
    9900012    2    1    2    0    0 -0.10396979808E+01 -0.18117506801E+00  0.52840986731E+00  0.90007740162E+02  0.90000001532E+02 0.  0.
         12    1    1    2    0    0  0.10396979808E+01  0.18117506801E+00 -0.52840986731E+00  0.11802598377E+01  0.00000000000E+00 0. -1.
         11    1    3    3    0    0 -0.46661354175E+01  0.25636167485E+01  0.79135275003E+01  0.95377601315E+01  0.51100000000E-03 0. -1.
        -11    1    3    3    0    0 -0.65702487191E+00  0.31336570393E+02 -0.26601860318E+02  0.41110476746E+02  0.51100000000E-03 0.  1.
         12    1    3    3    0    0  0.42834623086E+01 -0.34081362209E+02  0.19216742685E+02  0.39359503285E+02  0.00000000000E+00 0. -1.
</event>
<event>
 7    1  0.1501154E-015  0.9000755E+02  0.7816164E-02  0.1186339E+00
        -11   -1    0    0    0    0  0.00000000000E+00  0.00000000000E+00  0.45593999997E+02  0.45594000000E+02  0.51100000000E-03 0.  1.
         11   -1    0    0    0    0 -0.00000000000E+00 -0.00000000000E+00 -0.45593999997E+02  0.45594000000E+02  0.51100000000E-03 0. -1.
    9900012    2    1    2    0    0  0.47802010760E+00 -0.38386733729E+00  0.10087692067E+01  0.90007545567E+02  0.89999804368E+02 0.  0.
         12    1    1    2    0    0 -0.47802010760E+00  0.38386733729E+00 -0.10087692067E+01  0.11804544329E+01  0.00000000000E+00 0. -1.
         11    1    3    3    0    0  0.78298509474E+00  0.91390500483E+01 -0.44550442459E+01  0.10197191816E+02  0.51100000000E-03 0. -1.
        -11    1    3    3    0    0  0.46437653377E+01  0.14676469393E+02  0.36811637746E+02  0.39900626363E+02  0.51100000000E-03 0.  1.
         12    1    3    3    0    0 -0.49487303249E+01 -0.24199386778E+02 -0.31347824293E+02  0.39909727388E+02  0.00000000000E+00 0. -1.
</event>
<event>
 7    1  0.1501154E-015  0.9000803E+02  0.7816164E-02  0.1186338E+00
        -11   -1    0    0    0    0  0.00000000000E+00  0.00000000000E+00  0.45593999997E+02  0.45594000000E+02  0.51100000000E-03 0.  1.
         11   -1    0    0    0    0 -0.00000000000E+00 -0.00000000000E+00 -0.45593999997E+02  0.45594000000E+02  0.51100000000E-03 0. -1.
    9900012    2    1    2    0    0  0.72846366435E+00 -0.66297512195E+00 -0.64971953904E+00  0.90008029322E+02  0.90000294508E+02 0.  0.
         12    1    1    2    0    0 -0.72846366435E+00  0.66297512195E+00  0.64971953904E+00  0.11799706785E+01  0.00000000000E+00 0. -1.
         11    1    3    3    0    0  0.35708956806E+02  0.17091697086E+02 -0.20663546486E+02  0.44656890388E+02  0.51100000000E-03 0. -1.
        -11    1    3    3    0    0 -0.47425577329E+01 -0.71666268126E+01  0.32099831276E+01  0.91736789600E+01  0.51100000000E-03 0.  1.
        -12    1    3    3    0    0 -0.30237935408E+02 -0.10588045396E+02  0.16803843820E+02  0.36177459974E+02  0.00000000000E+00 0.  1.
</event>
<event>
 7    1  0.1501154E-015  0.9000777E+02  0.7816164E-02  0.1186339E+00
        -11   -1    0    0    0    0  0.00000000000E+00  0.00000000000E+00  0.45593999997E+02  0.45594000000E+02  0.51100000000E-03 0.  1.
         11   -1    0    0    0    0 -0.00000000000E+00 -0.00000000000E+00 -0.45593999997E+02  0.45594000000E+02  0.51100000000E-03 0. -1.
    9900012    2    1    2    0    0  0.96692967824E+00  0.51483992847E-01  0.67478642013E+00  0.90007771074E+02  0.90000032853E+02 0.  0.
         12    1    1    2    0    0 -0.96692967824E+00 -0.51483992847E-01 -0.67478642013E+00  0.11802289257E+01  0.00000000000E+00 0. -1.
         11    1    3    3    0    0 -0.86852895371E+01 -0.60763154464E+01  0.42216247201E+01  0.11409556489E+02  0.51100000000E-03 0. -1.
        -11    1    3    3    0    0  0.51328848260E+01 -0.35612044745E+02 -0.62865324379E+01  0.36525124612E+02  0.51100000000E-03 0.  1.
         12    1    3    3    0    0  0.45193343893E+01  0.41739844185E+02  0.27396941380E+01  0.42073089973E+02  0.00000000000E+00 0. -1.
</event>
<event>
 7    1  0.1501154E-015  0.9000774E+02  0.7816164E-02  0.1186339E+00
        -11   -1    0    0    0    0  0.00000000000E+00  0.00000000000E+00  0.45593999997E+02  0.45594000000E+02  0.51100000000E-03 0.  1.
         11   -1    0    0    0    0 -0.00000000000E+00 -0.00000000000E+00 -0.45593999997E+02  0.45594000000E+02  0.51100000000E-03 0. -1.
    9900012    2    1    2    0    0  0.47625641620E+00  0.98083279890E+00  0.45184129741E+00  0.90007739981E+02  0.90000001349E+02 0.  0.
         12    1    1    2    0    0 -0.47625641620E+00 -0.98083279890E+00 -0.45184129741E+00  0.11802600186E+01  0.00000000000E+00 0. -1.
         11    1    3    3    0    0 -0.26790548199E+01 -0.81196732956E+01 -0.51892213620E+01  0.10001722240E+02  0.51100000000E-03 0. -1.
        -11    1    3    3    0    0 -0.23080080961E+02 -0.42756494716E+01 -0.27178331309E+02  0.35911460686E+02  0.51100000000E-03 0.  1.
         12    1    3    3    0    0  0.26235392197E+02  0.13376155566E+02  0.32819393969E+02  0.44094557056E+02  0.00000000000E+00 0. -1.
</event>
<event>
 7    1  0.1501154E-015  0.9000776E+02  0.7816164E-02  0.1186339E+00
        -11   -1    0    0    0    0  0.00000000000E+00  0.00000000000E+00  0.45593999997E+02  0.45594000000E+02  0.51100000000E-03 0. -1.
         11   -1    0    0    0    0 -0.00000000000E+00 -0.00000000000E+00 -0.45593999997E+02  0.45594000000E+02  0.51100000000E-03 0.  1.
    9900012    2    1    2    0    0 -0.20279251795E+00 -0.31093656561E+00 -0.11203442590E+01  0.90007755275E+02  0.90000016844E+02 0.  0.
         12    1    1    2    0    0  0.20279251795E+00  0.31093656561E+00  0.11203442590E+01  0.11802447254E+01  0.00000000000E+00 0. -1.
         11    1    3    3    0    0  0.25471870282E+01 -0.33282751487E+00  0.33268153665E+02  0.33367184246E+02  0.51100000000E-03 0. -1.
        -11    1    3    3    0    0 -0.37088320588E+01  0.19443433546E+01  0.10705528070E+02  0.11495400725E+02  0.51100000000E-03 0.  1.
        -12    1    3    3    0    0  0.95885251259E+00 -0.19224524053E+01 -0.45094025994E+02  0.45145170304E+02  0.00000000000E+00 0.  1.
</event>
<event>
 7    1  0.1501154E-015  0.9000768E+02  0.7816164E-02  0.1186339E+00
        -11   -1    0    0    0    0  0.00000000000E+00  0.00000000000E+00  0.45593999997E+02  0.45594000000E+02  0.51100000000E-03 0.  1.
         11   -1    0    0    0    0 -0.00000000000E+00 -0.00000000000E+00 -0.45593999997E+02  0.45594000000E+02  0.51100000000E-03 0. -1.
    9900012    2    1    2    0    0  0.66852672655E+00 -0.82186269083E+00 -0.52035690719E+00  0.90007679036E+02  0.89999939599E+02 0.  0.
         12    1    1    2    0    0 -0.66852672655E+00  0.82186269083E+00  0.52035690719E+00  0.11803209638E+01  0.00000000000E+00 0. -1.
         11    1    3    3    0    0  0.90752922268E+01  0.14413803499E+02 -0.24434187029E+02  0.29785032422E+02  0.51100000000E-03 0. -1.
        -11    1    3    3    0    0 -0.17820783599E+02  0.64603207470E+01 -0.79379062529E+01  0.20550582186E+02  0.51100000000E-03 0.  1.
        -12    1    3    3    0    0  0.94140180988E+01 -0.21695986937E+02  0.31851736375E+02  0.39672064429E+02  0.00000000000E+00 0.  1.
</event>
<event>
 7    1  0.1501154E-015  0.9000767E+02  0.7816164E-02  0.1186339E+00
        -11   -1    0    0    0    0  0.00000000000E+00  0.00000000000E+00  0.45593999997E+02  0.45594000000E+02  0.51100000000E-03 0.  1.
         11   -1    0    0    0    0 -0.00000000000E+00 -0.00000000000E+00 -0.45593999997E+02  0.45594000000E+02  0.51100000000E-03 0. -1.
    9900012    2    1    2    0    0 -0.10767882299E+01 -0.91760463844E-01  0.47465329398E+00  0.90007665884E+02  0.89999926274E+02 0.  0.
         12    1    1    2    0    0  0.10767882299E+01  0.91760463844E-01 -0.47465329398E+00  0.11803341155E+01  0.00000000000E+00 0. -1.
         11    1    3    3    0    0 -0.21297100590E+02  0.35434791606E+02  0.72685592560E+01  0.41976456539E+02  0.51100000000E-03 0. -1.
        -11    1    3    3    0    0 -0.31318031573E+01 -0.58664615849E+01 -0.78228578965E+01  0.10267456768E+02  0.51100000000E-03 0.  1.
        -12    1    3    3    0    0  0.23352115517E+02 -0.29660090485E+02  0.10289519344E+01  0.37763752578E+02  0.00000000000E+00 0.  1.
</event>
<event>
 7    1  0.1501154E-015  0.9000772E+02  0.7816164E-02  0.1186339E+00
        -11   -1    0    0    0    0  0.00000000000E+00  0.00000000000E+00  0.45593999997E+02  0.45594000000E+02  0.51100000000E-03 0. -1.
         11   -1    0    0    0    0 -0.00000000000E+00 -0.00000000000E+00 -0.45593999997E+02  0.45594000000E+02  0.51100000000E-03 0.  1.
    9900012    2    1    2    0    0  0.91784076613E+00 -0.67177430963E+00 -0.31520447686E+00  0.90007717721E+02  0.89999978795E+02 0.  0.
         12    1    1    2    0    0 -0.91784076613E+00  0.67177430963E+00  0.31520447686E+00  0.11802822786E+01  0.00000000000E+00 0. -1.
         11    1    3    3    0    0 -0.74814591739E+01 -0.22809920821E+01  0.64102163413E+01  0.10112666812E+02  0.51100000000E-03 0. -1.
        -11    1    3    3    0    0  0.71538947197E+01  0.13688458212E+02 -0.40851012441E+02  0.43673302092E+02  0.51100000000E-03 0.  1.
         12    1    3    3    0    0  0.12454052204E+01 -0.12079240439E+02  0.34125591623E+02  0.36221748817E+02  0.00000000000E+00 0. -1.
</event>
<event>
 7    1  0.1501154E-015  0.9000774E+02  0.7816164E-02  0.1186339E+00
        -11   -1    0    0    0    0  0.00000000000E+00  0.00000000000E+00  0.45593999997E+02  0.45594000000E+02  0.51100000000E-03 0.  1.
         11   -1    0    0    0    0 -0.00000000000E+00 -0.00000000000E+00 -0.45593999997E+02  0.45594000000E+02  0.51100000000E-03 0. -1.
    9900012    2    1    2    0    0 -0.61716602865E-01  0.10500281685E+01  0.53539833942E+00  0.90007737540E+02  0.89999998875E+02 0.  0.
         12    1    1    2    0    0  0.61716602865E-01 -0.10500281685E+01 -0.53539833942E+00  0.11802624605E+01  0.00000000000E+00 0. -1.
         11    1    3    3    0    0  0.98234372509E+01 -0.35661046658E+02 -0.19091782803E+02  0.41625789350E+02  0.51100000000E-03 0. -1.
        -11    1    3    3    0    0 -0.10899491197E+02  0.41867692840E+01  0.48345002073E+01  0.12637259905E+02  0.51100000000E-03 0.  1.
        -12    1    3    3    0    0  0.10143373433E+01  0.32524305543E+02  0.14792680935E+02  0.35744688284E+02  0.00000000000E+00 0.  1.
</event>
<event>
 7    1  0.1501154E-015  0.9000778E+02  0.7816164E-02  0.1186339E+00
        -11   -1    0    0    0    0  0.00000000000E+00  0.00000000000E+00  0.45593999997E+02  0.45594000000E+02  0.51100000000E-03 0. -1.
         11   -1    0    0    0    0 -0.00000000000E+00 -0.00000000000E+00 -0.45593999997E+02  0.45594000000E+02  0.51100000000E-03 0.  1.
    9900012    2    1    2    0    0 -0.88932859024E+00 -0.46092282761E+00 -0.62414772260E+00  0.90007781557E+02  0.90000043473E+02 0.  0.
         12    1    1    2    0    0  0.88932859024E+00  0.46092282761E+00  0.62414772260E+00  0.11802184434E+01  0.00000000000E+00 0. -1.
         11    1    3    3    0    0 -0.31219986575E+02  0.19201013032E+02  0.40448951319E+01  0.36874484947E+02  0.51100000000E-03 0. -1.
        -11    1    3    3    0    0  0.12514555732E+01  0.10759913925E+02 -0.13934942595E+01  0.10921708439E+02  0.51100000000E-03 0.  1.
        -12    1    3    3    0    0  0.29079202412E+02 -0.30421849785E+02 -0.32755485949E+01  0.42211588170E+02  0.00000000000E+00 0.  1.
</event>
<event>
 7    1  0.1501154E-015  0.9000780E+02  0.7816164E-02  0.1186339E+00
        -11   -1    0    0    0    0  0.00000000000E+00  0.00000000000E+00  0.45593999997E+02  0.45594000000E+02  0.51100000000E-03 0.  1.
         11   -1    0    0    0    0 -0.00000000000E+00 -0.00000000000E+00 -0.45593999997E+02  0.45594000000E+02  0.51100000000E-03 0. -1.
    9900012    2    1    2    0    0 -0.63352775074E+00  0.16177456348E+00 -0.98251609338E+00  0.90007802434E+02  0.90000064626E+02 0.  0.
         12    1    1    2    0    0  0.63352775074E+00 -0.16177456348E+00  0.98251609338E+00  0.11801975657E+01  0.00000000000E+00 0. -1.
         11    1    3    3    0    0  0.26053952796E+02  0.16921159877E+02 -0.26452056088E+02  0.40802516827E+02  0.51100000000E-03 0. -1.
        -11    1    3    3    0    0  0.43781739225E+00 -0.11959177946E+02  0.42370952946E+00  0.11974687939E+02  0.51100000000E-03 0.  1.
        -12    1    3    3    0    0 -0.27125297939E+02 -0.48002073679E+01  0.25045830465E+02  0.37230597668E+02  0.00000000000E+00 0.  1.
</event>
<event>
 7    1  0.1501154E-015  0.9000792E+02  0.7816164E-02  0.1186339E+00
        -11   -1    0    0    0    0  0.00000000000E+00  0.00000000000E+00  0.45593999997E+02  0.45594000000E+02  0.51100000000E-03 0. -1.
         11   -1    0    0    0    0 -0.00000000000E+00 -0.00000000000E+00 -0.45593999997E+02  0.45594000000E+02  0.51100000000E-03 0.  1.
    9900012    2    1    2    0    0 -0.23416412019E+00  0.67507058453E-02 -0.11565908112E+01  0.90007923430E+02  0.90000187219E+02 0.  0.
         12    1    1    2    0    0  0.23416412019E+00 -0.67507058453E-02  0.11565908112E+01  0.11800765703E+01  0.00000000000E+00 0. -1.
         11    1    3    3    0    0  0.38503604789E+01 -0.47800883187E+01 -0.74588888374E+01  0.96596864908E+01  0.51100000000E-03 0. -1.
        -11    1    3    3    0    0  0.65235561487E+01 -0.30136935678E+02 -0.18741015195E+02  0.36083477212E+02  0.51100000000E-03 0.  1.
         12    1    3    3    0    0 -0.10608080748E+02  0.34923774702E+02  0.25043313221E+02  0.44264759727E+02  0.00000000000E+00 0. -1.
</event>
<event>
 7    1  0.1501154E-015  0.9000771E+02  0.7816164E-02  0.1186339E+00
        -11   -1    0    0    0    0  0.00000000000E+00  0.00000000000E+00  0.45593999997E+02  0.45594000000E+02  0.51100000000E-03 0. -1.
         11   -1    0    0    0    0 -0.00000000000E+00 -0.00000000000E+00 -0.45593999997E+02  0.45594000000E+02  0.51100000000E-03 0.  1.
    9900012    2    1    2    0    0 -0.10036262471E-01  0.11531572026E+00 -0.11746052519E+01  0.90007705147E+02  0.89999966055E+02 0.  0.
         12    1    1    2    0    0  0.10036262471E-01 -0.11531572026E+00  0.11746052519E+01  0.11802948529E+01  0.00000000000E+00 0. -1.
         11    1    3    3    0    0  0.31727345027E+01 -0.91678774533E+01  0.26133421432E+01  0.10047177646E+02  0.51100000000E-03 0. -1.
        -11    1    3    3    0    0 -0.11754537416E+02  0.47956237176E+01 -0.40266655462E+02  0.42220500933E+02  0.51100000000E-03 0.  1.
         12    1    3    3    0    0  0.85717666511E+01  0.44875694560E+01  0.36478708067E+02  0.37740026568E+02  0.00000000000E+00 0. -1.
</event>
<event>
 7    1  0.1501154E-015  0.9000741E+02  0.7816164E-02  0.1186340E+00
        -11   -1    0    0    0    0  0.00000000000E+00  0.00000000000E+00  0.45593999997E+02  0.45594000000E+02  0.51100000000E-03 0. -1.
         11   -1    0    0    0    0 -0.00000000000E+00 -0.00000000000E+00 -0.45593999997E+02  0.45594000000E+02  0.51100000000E-03 0.  1.
    9900012    2    1    2    0    0 -0.61113348014E+00  0.37705749779E+00 -0.93708994839E+00  0.90007409445E+02  0.89999666449E+02 0.  0.
         12    1    1    2    0    0  0.61113348014E+00 -0.37705749779E+00  0.93708994839E+00  0.11805905550E+01  0.00000000000E+00 0. -1.
         11    1    3    3    0    0  0.82920187563E+01 -0.12872034691E+01  0.35615234765E+01  0.91158607690E+01  0.51100000000E-03 0. -1.
        -11    1    3    3    0    0  0.18012348458E+02 -0.17283312691E+02 -0.30162859746E+02  0.39152978212E+02  0.51100000000E-03 0.  1.
         12    1    3    3    0    0 -0.26915500695E+02  0.18947573657E+02  0.25664246321E+02  0.41738570464E+02  0.00000000000E+00 0. -1.
</event>
<event>
 7    1  0.1501154E-015  0.9000765E+02  0.7816164E-02  0.1186339E+00
        -11   -1    0    0    0    0  0.00000000000E+00  0.00000000000E+00  0.45593999997E+02  0.45594000000E+02  0.51100000000E-03 0.  1.
         11   -1    0    0    0    0 -0.00000000000E+00 -0.00000000000E+00 -0.45593999997E+02  0.45594000000E+02  0.51100000000E-03 0. -1.
    9900012    2    1    2    0    0  0.10106506603E+01  0.53034531254E+00 -0.30089329258E+00  0.90007653576E+02  0.89999913803E+02 0.  0.
         12    1    1    2    0    0 -0.10106506603E+01 -0.53034531254E+00  0.30089329258E+00  0.11803464242E+01  0.00000000000E+00 0. -1.
         11    1    3    3    0    0 -0.15057918756E+01  0.75099510384E+01  0.70123572106E+01  0.10384600507E+02  0.51100000000E-03 0. -1.
        -11    1    3    3    0    0  0.35078342517E+02 -0.23630117312E+02 -0.79976627591E+01  0.43044571874E+02  0.51100000000E-03 0.  1.
         12    1    3    3    0    0 -0.32561899981E+02  0.16650511587E+02  0.68441225591E+00  0.36578481196E+02  0.00000000000E+00 0. -1.
</event>
<event>
 7    1  0.1501154E-015  0.9000773E+02  0.7816164E-02  0.1186339E+00
        -11   -1    0    0    0    0  0.00000000000E+00  0.00000000000E+00  0.45593999997E+02  0.45594000000E+02  0.51100000000E-03 0. -1.
         11   -1    0    0    0    0 -0.00000000000E+00 -0.00000000000E+00 -0.45593999997E+02  0.45594000000E+02  0.51100000000E-03 0.  1.
    9900012    2    1    2    0    0 -0.76352849795E+00 -0.86474424375E+00  0.24957234260E+00  0.90007726842E+02  0.89999988036E+02 0.  0.
         12    1    1    2    0    0  0.76352849795E+00  0.86474424375E+00 -0.24957234260E+00  0.11802731584E+01  0.00000000000E+00 0. -1.
         11    1    3    3    0    0 -0.43166382801E+01 -0.15233446761E+01  0.79390127153E+01  0.91641621657E+01  0.51100000000E-03 0. -1.
        -11    1    3    3    0    0  0.46198986213E+01  0.37617520466E+02 -0.18703084573E+02  0.42263775057E+02  0.51100000000E-03 0.  1.
         12    1    3    3    0    0 -0.10667888391E+01 -0.36958920033E+02  0.11013644201E+02  0.38579789619E+02  0.00000000000E+00 0. -1.
</event>
<event>
 7    1  0.1501154E-015  0.9000783E+02  0.7816164E-02  0.1186339E+00
        -11   -1    0    0    0    0  0.00000000000E+00  0.00000000000E+00  0.45593999997E+02  0.45594000000E+02  0.51100000000E-03 0.  1.
         11   -1    0    0    0    0 -0.00000000000E+00 -0.00000000000E+00 -0.45593999997E+02  0.45594000000E+02  0.51100000000E-03 0. -1.
    9900012    2    1    2    0    0 -0.57015860868E+00 -0.87050182176E+00  0.55673622931E+00  0.90007826500E+02  0.90000089010E+02 0.  0.
         12    1    1    2    0    0  0.57015860868E+00  0.87050182176E+00 -0.55673622931E+00  0.11801734999E+01  0.00000000000E+00 0. -1.
         11    1    3    3    0    0  0.49980581126E+01  0.26715579183E+02 -0.21194725860E+02  0.34466203164E+02  0.51100000000E-03 0. -1.
        -11    1    3    3    0    0 -0.17459874412E+01  0.91230917602E+01 -0.44297741512E+01  0.10290878228E+02  0.51100000000E-03 0.  1.
        -12    1    3    3    0    0 -0.38222292800E+01 -0.36709172765E+02  0.26181236241E+02  0.45250745108E+02  0.00000000000E+00 0.  1.
</event>
<event>
 7    1  0.1501154E-015  0.9000775E+02  0.7816164E-02  0.1186339E+00
        -11   -1    0    0    0    0  0.00000000000E+00  0.00000000000E+00  0.45593999997E+02  0.45594000000E+02  0.51100000000E-03 0.  1.
         11   -1    0    0    0    0 -0.00000000000E+00 -0.00000000000E+00 -0.45593999997E+02  0.45594000000E+02  0.51100000000E-03 0. -1.
    9900012    2    1    2    0    0 -0.91051476420E+00  0.11849277941E+00  0.74156621871E+00  0.90007746582E+02  0.90000008037E+02 0.  0.
         12    1    1    2    0    0  0.91051476420E+00 -0.11849277941E+00 -0.74156621871E+00  0.11802534183E+01  0.00000000000E+00 0. -1.
         11    1    3    3    0    0  0.21075495069E+02 -0.23611234559E+02 -0.23926350552E+02  0.39675397173E+02  0.51100000000E-03 0. -1.
        -11    1    3    3    0    0  0.28166061441E+01  0.10204459364E+02 -0.27783154765E+01  0.10944555643E+02  0.51100000000E-03 0.  1.
        -12    1    3    3    0    0 -0.24802615978E+02  0.13525267975E+02  0.27446232247E+02  0.39387793765E+02  0.00000000000E+00 0.  1.
</event>
<event>
 7    1  0.1501154E-015  0.9000755E+02  0.7816164E-02  0.1186339E+00
        -11   -1    0    0    0    0  0.00000000000E+00  0.00000000000E+00  0.45593999997E+02  0.45594000000E+02  0.51100000000E-03 0. -1.
         11   -1    0    0    0    0 -0.00000000000E+00 -0.00000000000E+00 -0.45593999997E+02  0.45594000000E+02  0.51100000000E-03 0.  1.
    9900012    2    1    2    0    0  0.82294665931E+00 -0.63537831032E+00  0.55903839044E+00  0.90007546391E+02  0.89999805203E+02 0.  0.
         12    1    1    2    0    0 -0.82294665931E+00  0.63537831032E+00 -0.55903839044E+00  0.11804536091E+01  0.00000000000E+00 0. -1.
         11    1    3    3    0    0  0.94422061332E+01  0.39674660384E+02  0.14657237297E+02  0.43336688137E+02  0.51100000000E-03 0. -1.
        -11    1    3    3    0    0 -0.47544481282E+01 -0.32333071466E+01 -0.64059592179E+01  0.86078665110E+01  0.51100000000E-03 0.  1.
        -12    1    3    3    0    0 -0.38648113457E+01 -0.37076731548E+02 -0.76922396891E+01  0.38062991743E+02  0.00000000000E+00 0.  1.
</event>
<event>
 7    1  0.1501154E-015  0.9000767E+02  0.7816164E-02  0.1186339E+00
        -11   -1    0    0    0    0  0.00000000000E+00  0.00000000000E+00  0.45593999997E+02  0.45594000000E+02  0.51100000000E-03 0.  1.
         11   -1    0    0    0    0 -0.00000000000E+00 -0.00000000000E+00 -0.45593999997E+02  0.45594000000E+02  0.51100000000E-03 0. -1.
    9900012    2    1    2    0    0 -0.83480406004E-01 -0.15953544909E+00  0.11665201046E+01  0.90007665432E+02  0.89999925816E+02 0.  0.
         12    1    1    2    0    0  0.83480406004E-01  0.15953544909E+00 -0.11665201046E+01  0.11803345679E+01  0.00000000000E+00 0. -1.
         11    1    3    3    0    0 -0.34351255978E+01  0.51360131686E+01 -0.67147177704E+01  0.91250289938E+01  0.51100000000E-03 0. -1.
        -11    1    3    3    0    0  0.58033177426E+01  0.36562476769E+02 -0.41728136328E+01  0.37254604792E+02  0.51100000000E-03 0.  1.
         12    1    3    3    0    0 -0.24516725508E+01 -0.41858025387E+02  0.12054051508E+02  0.43628031646E+02  0.00000000000E+00 0. -1.
</event>
<event>
 7    1  0.1501154E-015  0.9000775E+02  0.7816164E-02  0.1186339E+00
        -11   -1    0    0    0    0  0.00000000000E+00  0.00000000000E+00  0.45593999997E+02  0.45594000000E+02  0.51100000000E-03 0.  1.
         11   -1    0    0    0    0 -0.00000000000E+00 -0.00000000000E+00 -0.45593999997E+02  0.45594000000E+02  0.51100000000E-03 0. -1.
    9900012    2    1    2    0    0 -0.59617636688E-01  0.92024276784E+00 -0.73661023536E+00  0.90007747632E+02  0.90000009100E+02 0.  0.
         12    1    1    2    0    0  0.59617636688E-01 -0.92024276784E+00  0.73661023536E+00  0.11802523684E+01  0.00000000000E+00 0. -1.
         11    1    3    3    0    0 -0.31048041250E+02 -0.14510405125E+02 -0.18062805062E+02  0.38740129702E+02  0.51100000000E-03 0. -1.
        -11    1    3    3    0    0 -0.30684551246E+01 -0.67381307411E+01  0.98754291883E+00  0.74694754844E+01  0.51100000000E-03 0.  1.
        -12    1    3    3    0    0  0.34056878738E+02  0.22168778634E+02  0.16338651908E+02  0.43798142445E+02  0.00000000000E+00 0.  1.
</event>
<event>
 7    1  0.1501154E-015  0.9000783E+02  0.7816164E-02  0.1186339E+00
        -11   -1    0    0    0    0  0.00000000000E+00  0.00000000000E+00  0.45593999997E+02  0.45594000000E+02  0.51100000000E-03 0. -1.
         11   -1    0    0    0    0 -0.00000000000E+00 -0.00000000000E+00 -0.45593999997E+02  0.45594000000E+02  0.51100000000E-03 0.  1.
    9900012    2    1    2    0    0 -0.86716944134E+00  0.23941707016E+00 -0.76387447422E+00  0.90007827307E+02  0.90000089827E+02 0.  0.
         12    1    1    2    0    0  0.86716944134E+00 -0.23941707016E+00  0.76387447422E+00  0.11801726932E+01  0.00000000000E+00 0. -1.
         11    1    3    3    0    0 -0.11920236556E-01 -0.40075781926E+01 -0.80761085747E+01  0.90157836617E+01  0.51100000000E-03 0. -1.
        -11    1    3    3    0    0  0.24817373242E+02 -0.28588107314E+02  0.10214085223E+02  0.39211088121E+02  0.51100000000E-03 0.  1.
         12    1    3    3    0    0 -0.25672622447E+02  0.32835102577E+02 -0.29018511221E+01  0.41780955524E+02  0.00000000000E+00 0. -1.
</event>
<event>
 7    1  0.1501154E-015  0.9000772E+02  0.7816164E-02  0.1186339E+00
        -11   -1    0    0    0    0  0.00000000000E+00  0.00000000000E+00  0.45593999997E+02  0.45594000000E+02  0.51100000000E-03 0.  1.
         11   -1    0    0    0    0 -0.00000000000E+00 -0.00000000000E+00 -0.45593999997E+02  0.45594000000E+02  0.51100000000E-03 0. -1.
    9900012    2    1    2    0    0  0.11624764572E+01  0.38099108033E-01 -0.20065946060E+00  0.90007717290E+02  0.89999978359E+02 0.  0.
         12    1    1    2    0    0 -0.11624764572E+01 -0.38099108033E-01  0.20065946060E+00  0.11802827096E+01  0.00000000000E+00 0. -1.
         11    1    3    3    0    0 -0.12119748342E+02 -0.26440503880E+02  0.22093478695E+01  0.29169671982E+02  0.51100000000E-03 0. -1.
        -11    1    3    3    0    0 -0.10957417505E+02 -0.16716292735E+01  0.15931868416E+02  0.19408342904E+02  0.51100000000E-03 0.  1.
        -12    1    3    3    0    0  0.24239642304E+02  0.28150232261E+02 -0.18341875746E+02  0.41429702404E+02  0.00000000000E+00 0.  1.
</event>
<event>
 7    1  0.1501154E-015  0.9000777E+02  0.7816164E-02  0.1186339E+00
        -11   -1    0    0    0    0  0.00000000000E+00  0.00000000000E+00  0.45593999997E+02  0.45594000000E+02  0.51100000000E-03 0.  1.
         11   -1    0    0    0    0 -0.00000000000E+00 -0.00000000000E+00 -0.45593999997E+02  0.45594000000E+02  0.51100000000E-03 0. -1.
    9900012    2    1    2    0    0  0.11371171419E+01  0.51047850885E-01 -0.31191477403E+00  0.90007774554E+02  0.90000036378E+02 0.  0.
         12    1    1    2    0    0 -0.11371171419E+01 -0.51047850885E-01  0.31191477403E+00  0.11802254462E+01  0.00000000000E+00 0. -1.
         11    1    3    3    0    0  0.10027646233E+02 -0.29393914852E+00  0.34653647365E+01  0.10613615888E+02  0.51100000000E-03 0. -1.
        -11    1    3    3    0    0  0.16850480309E+02 -0.15803623266E+02  0.27412627475E+02  0.35848923838E+02  0.51100000000E-03 0.  1.
         12    1    3    3    0    0 -0.25741009400E+02  0.16148610266E+02 -0.31189906986E+02  0.43545234828E+02  0.00000000000E+00 0. -1.
</event>
<event>
 7    1  0.1501154E-015  0.9000758E+02  0.7816164E-02  0.1186339E+00
        -11   -1    0    0    0    0  0.00000000000E+00  0.00000000000E+00  0.45593999997E+02  0.45594000000E+02  0.51100000000E-03 0.  1.
         11   -1    0    0    0    0 -0.00000000000E+00 -0.00000000000E+00 -0.45593999997E+02  0.45594000000E+02  0.51100000000E-03 0. -1.
    9900012    2    1    2    0    0 -0.23987844676E-01 -0.91419983993E+00  0.74635983641E+00  0.90007580681E+02  0.89999839946E+02 0.  0.
         12    1    1    2    0    0  0.23987844676E-01  0.91419983993E+00 -0.74635983641E+00  0.11804193193E+01  0.00000000000E+00 0. -1.
         11    1    3    3    0    0  0.60559236121E+01 -0.36737287764E+01  0.64782369757E+01  0.95988566242E+01  0.51100000000E-03 0. -1.
        -11    1    3    3    0    0 -0.28796014908E+01 -0.63557111183E+01  0.36461679416E+02  0.37123324671E+02  0.51100000000E-03 0.  1.
         12    1    3    3    0    0 -0.32003099660E+01  0.91152400547E+01 -0.42193556555E+02  0.43285399385E+02  0.00000000000E+00 0. -1.
</event>
<event>
 7    1  0.1501154E-015  0.9000772E+02  0.7816164E-02  0.1186339E+00
        -11   -1    0    0    0    0  0.00000000000E+00  0.00000000000E+00  0.45593999997E+02  0.45594000000E+02  0.51100000000E-03 0. -1.
         11   -1    0    0    0    0 -0.00000000000E+00 -0.00000000000E+00 -0.45593999997E+02  0.45594000000E+02  0.51100000000E-03 0.  1.
    9900012    2    1    2    0    0  0.26486100704E+00  0.50923217541E+00  0.10313048221E+01  0.90007721051E+02  0.89999982169E+02 0.  0.
         12    1    1    2    0    0 -0.26486100704E+00 -0.50923217541E+00 -0.10313048221E+01  0.11802789490E+01  0.00000000000E+00 0. -1.
         11    1    3    3    0    0 -0.30956857243E+01 -0.34447051560E+02  0.67111680821E+01  0.35230986483E+02  0.51100000000E-03 0. -1.
        -11    1    3    3    0    0 -0.18542047413E+01 -0.87108013924E+01  0.39737848036E+01  0.97522870163E+01  0.51100000000E-03 0.  1.
        -12    1    3    3    0    0  0.52147514727E+01  0.43667085127E+02 -0.96536480636E+01  0.45024447552E+02  0.00000000000E+00 0.  1.
</event>
<event>
 7    1  0.1501154E-015  0.9000766E+02  0.7816164E-02  0.1186339E+00
        -11   -1    0    0    0    0  0.00000000000E+00  0.00000000000E+00  0.45593999997E+02  0.45594000000E+02  0.51100000000E-03 0.  1.
         11   -1    0    0    0    0 -0.00000000000E+00 -0.00000000000E+00 -0.45593999997E+02  0.45594000000E+02  0.51100000000E-03 0. -1.
    9900012    2    1    2    0    0 -0.22727584859E+00 -0.10502720051E+01  0.48834931928E+00  0.90007656553E+02  0.89999916819E+02 0.  0.
         12    1    1    2    0    0  0.22727584859E+00  0.10502720051E+01 -0.48834931928E+00  0.11803434473E+01  0.00000000000E+00 0. -1.
         11    1    3    3    0    0  0.42754537305E+01  0.36226329583E+02  0.11282641169E+02  0.38182776899E+02  0.51100000000E-03 0. -1.
        -11    1    3    3    0    0 -0.92555341181E+01  0.30389095407E+01 -0.45532572720E+01  0.10753233702E+02  0.51100000000E-03 0.  1.
        -12    1    3    3    0    0  0.47528045390E+01 -0.40315511129E+02 -0.62410345780E+01  0.41071645952E+02  0.00000000000E+00 0.  1.
</event>
<event>
 7    1  0.1501154E-015  0.9000772E+02  0.7816164E-02  0.1186339E+00
        -11   -1    0    0    0    0  0.00000000000E+00  0.00000000000E+00  0.45593999997E+02  0.45594000000E+02  0.51100000000E-03 0. -1.
         11   -1    0    0    0    0 -0.00000000000E+00 -0.00000000000E+00 -0.45593999997E+02  0.45594000000E+02  0.51100000000E-03 0.  1.
    9900012    2    1    2    0    0 -0.10001138253E+01  0.61441900696E+00 -0.12381487440E+00  0.90007716770E+02  0.89999977831E+02 0.  0.
         12    1    1    2    0    0  0.10001138253E+01 -0.61441900696E+00  0.12381487440E+00  0.11802832299E+01  0.00000000000E+00 0. -1.
         11    1    3    3    0    0  0.26389883251E+02  0.10591759792E+02  0.25518478438E+02  0.38207382213E+02  0.51100000000E-03 0. -1.
        -11    1    3    3    0    0 -0.49705318375E+01  0.66559931939E+01  0.55113551303E+01  0.99691257279E+01  0.51100000000E-03 0.  1.
        -12    1    3    3    0    0 -0.22419465239E+02 -0.16633333979E+02 -0.31153648443E+02  0.41831208830E+02  0.00000000000E+00 0.  1.
</event>
<event>
 7    1  0.1501154E-015  0.9000751E+02  0.7816164E-02  0.1186339E+00
        -11   -1    0    0    0    0  0.00000000000E+00  0.00000000000E+00  0.45593999997E+02  0.45594000000E+02  0.51100000000E-03 0.  1.
         11   -1    0    0    0    0 -0.00000000000E+00 -0.00000000000E+00 -0.45593999997E+02  0.45594000000E+02  0.51100000000E-03 0. -1.
    9900012    2    1    2    0    0 -0.40188708098E+00  0.96612907401E+00  0.54647100415E+00  0.90007513163E+02  0.89999771537E+02 0.  0.
         12    1    1    2    0    0  0.40188708098E+00 -0.96612907401E+00 -0.54647100415E+00  0.11804868368E+01  0.00000000000E+00 0. -1.
         11    1    3    3    0    0 -0.11284391519E+00  0.15355552760E+01  0.82163366732E+01  0.83593571728E+01  0.51100000000E-03 0. -1.
        -11    1    3    3    0    0 -0.13249036148E+02 -0.88405405646E+01  0.33829978586E+02  0.37391971969E+02  0.51100000000E-03 0.  1.
         12    1    3    3    0    0  0.12959992983E+02  0.82711143626E+01 -0.41499844255E+02  0.44256184021E+02  0.00000000000E+00 0. -1.
</event>
<event>
 7    1  0.1501154E-015  0.9000782E+02  0.7816164E-02  0.1186339E+00
        -11   -1    0    0    0    0  0.00000000000E+00  0.00000000000E+00  0.45593999997E+02  0.45594000000E+02  0.51100000000E-03 0.  1.
         11   -1    0    0    0    0 -0.00000000000E+00 -0.00000000000E+00 -0.45593999997E+02  0.45594000000E+02  0.51100000000E-03 0. -1.
    9900012    2    1    2    0    0  0.62892821673E+00  0.26855319647E+00  0.96185018908E+00  0.90007818951E+02  0.90000081362E+02 0.  0.
         12    1    1    2    0    0 -0.62892821673E+00 -0.26855319647E+00 -0.96185018908E+00  0.11801810486E+01  0.00000000000E+00 0. -1.
         11    1    3    3    0    0 -0.32979826839E+02 -0.11025672026E+02 -0.16588419611E+02  0.38528042870E+02  0.51100000000E-03 0. -1.
        -11    1    3    3    0    0  0.19026662276E+01  0.80923110199E+00 -0.87380522512E+01  0.89793402405E+01  0.51100000000E-03 0.  1.
        -12    1    3    3    0    0  0.31706088828E+02  0.10484994120E+02  0.26288322051E+02  0.42500435841E+02  0.00000000000E+00 0.  1.
</event>
<event>
 7    1  0.1501154E-015  0.9000772E+02  0.7816164E-02  0.1186339E+00
        -11   -1    0    0    0    0  0.00000000000E+00  0.00000000000E+00  0.45593999997E+02  0.45594000000E+02  0.51100000000E-03 0. -1.
         11   -1    0    0    0    0 -0.00000000000E+00 -0.00000000000E+00 -0.45593999997E+02  0.45594000000E+02  0.51100000000E-03 0.  1.
    9900012    2    1    2    0    0 -0.11714583490E+01  0.14084646428E+00  0.30234558650E-01  0.90007717611E+02  0.89999978683E+02 0.  0.
         12    1    1    2    0    0  0.11714583490E+01 -0.14084646428E+00 -0.30234558650E-01  0.11802823893E+01  0.00000000000E+00 0. -1.
         11    1    3    3    0    0 -0.70650029814E+01  0.19576019056E+01  0.30966706597E+02  0.31822686720E+02  0.51100000000E-03 0. -1.
        -11    1    3    3    0    0  0.93045515565E+01 -0.52824260642E+01  0.11362647772E+02  0.15607321021E+02  0.51100000000E-03 0.  1.
        -12    1    3    3    0    0 -0.34110069241E+01  0.34656706229E+01 -0.42299119810E+02  0.42577709870E+02  0.00000000000E+00 0.  1.
</event>
<event>
 7    1  0.1501154E-015  0.9000817E+02  0.7816164E-02  0.1186338E+00
        -11   -1    0    0    0    0  0.00000000000E+00  0.00000000000E+00  0.45593999997E+02  0.45594000000E+02  0.51100000000E-03 0.  1.
         11   -1    0    0    0    0 -0.00000000000E+00 -0.00000000000E+00 -0.45593999997E+02  0.45594000000E+02  0.51100000000E-03 0. -1.
    9900012    2    1    2    0    0  0.40136656323E+00 -0.18599957564E+00  0.10937538569E+01  0.90008174394E+02  0.90000441495E+02 0.  0.
         12    1    1    2    0    0 -0.40136656323E+00  0.18599957564E+00 -0.10937538569E+01  0.11798256056E+01  0.00000000000E+00 0. -1.
         11    1    3    3    0    0 -0.23200120352E+00 -0.60973934420E+01 -0.73387249233E+01  0.95440512942E+01  0.51100000000E-03 0. -1.
        -11    1    3    3    0    0 -0.26504883059E+02 -0.97255130841E+00  0.33607336673E+02  0.42812472021E+02  0.51100000000E-03 0.  1.
         12    1    3    3    0    0  0.27138250826E+02  0.68839451748E+01 -0.25174857893E+02  0.37651651079E+02  0.00000000000E+00 0. -1.
</event>
<event>
 7    1  0.1501154E-015  0.9000778E+02  0.7816164E-02  0.1186339E+00
        -11   -1    0    0    0    0  0.00000000000E+00  0.00000000000E+00  0.45593999997E+02  0.45594000000E+02  0.51100000000E-03 0.  1.
         11   -1    0    0    0    0 -0.00000000000E+00 -0.00000000000E+00 -0.45593999997E+02  0.45594000000E+02  0.51100000000E-03 0. -1.
    9900012    2    1    2    0    0  0.80768863121E+00 -0.34826829571E+00  0.78693959117E+00  0.90007777288E+02  0.90000039148E+02 0.  0.
         12    1    1    2    0    0 -0.80768863121E+00  0.34826829571E+00 -0.78693959117E+00  0.11802227124E+01  0.00000000000E+00 0. -1.
         11    1    3    3    0    0 -0.35045810443E+01  0.20460653499E+02 -0.29129426470E+02  0.35769315294E+02  0.51100000000E-03 0. -1.
        -11    1    3    3    0    0  0.90983175687E+01  0.77133135909E+01 -0.91827072002E+00  0.11963185634E+02  0.51100000000E-03 0.  1.
        -12    1    3    3    0    0 -0.47860478931E+01 -0.28522235385E+02  0.30834636781E+02  0.42275276359E+02  0.00000000000E+00 0.  1.
</event>
<event>
 7    1  0.1501154E-015  0.9000773E+02  0.7816164E-02  0.1186339E+00
        -11   -1    0    0    0    0  0.00000000000E+00  0.00000000000E+00  0.45593999997E+02  0.45594000000E+02  0.51100000000E-03 0.  1.
         11   -1    0    0    0    0 -0.00000000000E+00 -0.00000000000E+00 -0.45593999997E+02  0.45594000000E+02  0.51100000000E-03 0. -1.
    9900012    2    1    2    0    0 -0.20588539924E+00 -0.71324382081E+00  0.91757194760E+00  0.90007727225E+02  0.89999988424E+02 0.  0.
         12    1    1    2    0    0  0.20588539924E+00  0.71324382081E+00 -0.91757194760E+00  0.11802727755E+01  0.00000000000E+00 0. -1.
         11    1    3    3    0    0  0.22345855606E+02 -0.13409956448E+02 -0.25184629101E+02  0.36241271196E+02  0.51100000000E-03 0. -1.
        -11    1    3    3    0    0 -0.15158460024E+01 -0.32093453399E+01 -0.91077776849E+01  0.97749322879E+01  0.51100000000E-03 0.  1.
        -12    1    3    3    0    0 -0.21035895003E+02  0.15906057967E+02  0.35209978733E+02  0.43991523741E+02  0.00000000000E+00 0.  1.
</event>
<event>
 7    1  0.1501154E-015  0.9000791E+02  0.7816164E-02  0.1186339E+00
        -11   -1    0    0    0    0  0.00000000000E+00  0.00000000000E+00  0.45593999997E+02  0.45594000000E+02  0.51100000000E-03 0.  1.
         11   -1    0    0    0    0 -0.00000000000E+00 -0.00000000000E+00 -0.45593999997E+02  0.45594000000E+02  0.51100000000E-03 0. -1.
    9900012    2    1    2    0    0  0.55916064384E+00  0.10278962187E+01 -0.15288402548E+00  0.90007913229E+02  0.90000176883E+02 0.  0.
         12    1    1    2    0    0 -0.55916064384E+00 -0.10278962187E+01  0.15288402548E+00  0.11800867711E+01  0.00000000000E+00 0. -1.
         11    1    3    3    0    0  0.25677420576E+01 -0.81743248481E+01  0.37843228711E+01  0.93666421865E+01  0.51100000000E-03 0. -1.
        -11    1    3    3    0    0  0.59066806502E-01  0.35572456739E+02  0.23418193708E+02  0.42588906585E+02  0.51100000000E-03 0.  1.
         12    1    3    3    0    0 -0.20676482203E+01 -0.26370235672E+02 -0.27355400604E+02  0.38052364457E+02  0.00000000000E+00 0. -1.
</event>
<event>
 7    1  0.1501154E-015  0.9000762E+02  0.7816164E-02  0.1186339E+00
        -11   -1    0    0    0    0  0.00000000000E+00  0.00000000000E+00  0.45593999997E+02  0.45594000000E+02  0.51100000000E-03 0.  1.
         11   -1    0    0    0    0 -0.00000000000E+00 -0.00000000000E+00 -0.45593999997E+02  0.45594000000E+02  0.51100000000E-03 0. -1.
    9900012    2    1    2    0    0 -0.63055169393E+00  0.98443403892E+00 -0.16304356759E+00  0.90007623356E+02  0.89999883185E+02 0.  0.
         12    1    1    2    0    0  0.63055169393E+00 -0.98443403892E+00  0.16304356759E+00  0.11803766436E+01  0.00000000000E+00 0. -1.
         11    1    3    3    0    0  0.18707620630E+02 -0.42568281660E+00  0.18248388249E+01  0.18801231675E+02  0.51100000000E-03 0. -1.
        -11    1    3    3    0    0  0.60015358899E+01  0.29441745948E+02  0.98299714342E+01  0.31614287532E+02  0.51100000000E-03 0.  1.
         12    1    3    3    0    0 -0.25339708213E+02 -0.28031629093E+02 -0.11817853827E+02  0.39592104150E+02  0.00000000000E+00 0. -1.
</event>
<event>
 7    1  0.1501154E-015  0.9000774E+02  0.7816164E-02  0.1186339E+00
        -11   -1    0    0    0    0  0.00000000000E+00  0.00000000000E+00  0.45593999997E+02  0.45594000000E+02  0.51100000000E-03 0.  1.
         11   -1    0    0    0    0 -0.00000000000E+00 -0.00000000000E+00 -0.45593999997E+02  0.45594000000E+02  0.51100000000E-03 0. -1.
    9900012    2    1    2    0    0  0.11504676534E+01  0.19483984730E+00 -0.17740339600E+00  0.90007741404E+02  0.90000002791E+02 0.  0.
         12    1    1    2    0    0 -0.11504676534E+01 -0.19483984730E+00  0.17740339600E+00  0.11802585956E+01  0.00000000000E+00 0. -1.
         11    1    3    3    0    0 -0.24988128855E+02 -0.24728987870E+02 -0.89587888032E+01  0.36279323614E+02  0.51100000000E-03 0. -1.
        -11    1    3    3    0    0  0.22402366482E+01 -0.95400577575E+01 -0.28512039338E+01  0.10205916245E+02  0.51100000000E-03 0.  1.
        -12    1    3    3    0    0  0.23898359861E+02  0.34463885475E+02  0.11632589341E+02  0.43522501546E+02  0.00000000000E+00 0.  1.
</event>
<event>
 7    1  0.1501154E-015  0.9000779E+02  0.7816164E-02  0.1186339E+00
        -11   -1    0    0    0    0  0.00000000000E+00  0.00000000000E+00  0.45593999997E+02  0.45594000000E+02  0.51100000000E-03 0.  1.
         11   -1    0    0    0    0 -0.00000000000E+00 -0.00000000000E+00 -0.45593999997E+02  0.45594000000E+02  0.51100000000E-03 0. -1.
    9900012    2    1    2    0    0 -0.68003558283E+00 -0.69078880315E+00  0.67324544552E+00  0.90007789428E+02  0.90000051448E+02 0.  0.
         12    1    1    2    0    0  0.68003558283E+00  0.69078880315E+00 -0.67324544552E+00  0.11802105721E+01  0.00000000000E+00 0. -1.
         11    1    3    3    0    0  0.17079909366E+02 -0.11828832881E+02 -0.22122791374E+02  0.30349011347E+02  0.51100000000E-03 0. -1.
        -11    1    3    3    0    0 -0.11572429426E+02 -0.15575844910E+02 -0.55877913514E+01  0.20192857152E+02  0.51100000000E-03 0.  1.
        -12    1    3    3    0    0 -0.61875155231E+01  0.26713888988E+02  0.28383828171E+02  0.39465920930E+02  0.00000000000E+00 0.  1.
</event>
<event>
 7    1  0.1501154E-015  0.9000766E+02  0.7816164E-02  0.1186339E+00
        -11   -1    0    0    0    0  0.00000000000E+00  0.00000000000E+00  0.45593999997E+02  0.45594000000E+02  0.51100000000E-03 0. -1.
         11   -1    0    0    0    0 -0.00000000000E+00 -0.00000000000E+00 -0.45593999997E+02  0.45594000000E+02  0.51100000000E-03 0.  1.
    9900012    2    1    2    0    0 -0.54983818408E+00  0.42052953322E+00 -0.95605408891E+00  0.90007658296E+02  0.89999918586E+02 0.  0.
         12    1    1    2    0    0  0.54983818408E+00 -0.42052953322E+00  0.95605408891E+00  0.11803417039E+01  0.00000000000E+00 0. -1.
         11    1    3    3    0    0  0.80726107522E+01 -0.22440572547E+02  0.35288524622E+02  0.42591387754E+02  0.51100000000E-03 0. -1.
        -11    1    3    3    0    0 -0.98347136265E+00 -0.26741765813E+01 -0.84048092376E+01  0.88746411134E+01  0.51100000000E-03 0.  1.
        -12    1    3    3    0    0 -0.76389775736E+01  0.25535278661E+02 -0.27839769473E+02  0.38541629428E+02  0.00000000000E+00 0.  1.
</event>
<event>
 7    1  0.1501154E-015  0.9000765E+02  0.7816164E-02  0.1186339E+00
        -11   -1    0    0    0    0  0.00000000000E+00  0.00000000000E+00  0.45593999997E+02  0.45594000000E+02  0.51100000000E-03 0. -1.
         11   -1    0    0    0    0 -0.00000000000E+00 -0.00000000000E+00 -0.45593999997E+02  0.45594000000E+02  0.51100000000E-03 0.  1.
    9900012    2    1    2    0    0 -0.10308675787E+01 -0.42183619641E+00 -0.39063246240E+00  0.90007649433E+02  0.89999909605E+02 0.  0.
         12    1    1    2    0    0  0.10308675787E+01  0.42183619641E+00  0.39063246240E+00  0.11803505674E+01  0.00000000000E+00 0. -1.
         11    1    3    3    0    0 -0.10377276636E+02 -0.13378966522E+02  0.33021580476E+02  0.37109424584E+02  0.51100000000E-03 0. -1.
        -11    1    3    3    0    0  0.10584690937E+01  0.60265155442E+01  0.80160118629E+01  0.10084428237E+02  0.51100000000E-03 0.  1.
        -12    1    3    3    0    0  0.82879399639E+01  0.69306147811E+01 -0.41428224801E+02  0.42813796611E+02  0.00000000000E+00 0.  1.
</event>
<event>
 7    1  0.1501154E-015  0.9000775E+02  0.7816164E-02  0.1186339E+00
        -11   -1    0    0    0    0  0.00000000000E+00  0.00000000000E+00  0.45593999997E+02  0.45594000000E+02  0.51100000000E-03 0. -1.
         11   -1    0    0    0    0 -0.00000000000E+00 -0.00000000000E+00 -0.45593999997E+02  0.45594000000E+02  0.51100000000E-03 0.  1.
    9900012    2    1    2    0    0 -0.10904146613E+01 -0.15306140441E+00 -0.42491134199E+00  0.90007753595E+02  0.90000015143E+02 0.  0.
         12    1    1    2    0    0  0.10904146613E+01  0.15306140441E+00  0.42491134199E+00  0.11802464046E+01  0.00000000000E+00 0. -1.
         11    1    3    3    0    0  0.20365611658E+02 -0.68097935302E+01  0.29829476386E+02  0.36754987251E+02  0.51100000000E-03 0. -1.
        -11    1    3    3    0    0  0.70079138719E+01  0.43602810586E+01  0.35641500274E+01  0.89903322199E+01  0.51100000000E-03 0.  1.
        -12    1    3    3    0    0 -0.28463940191E+02  0.22964510672E+01 -0.33818537755E+02  0.44262434124E+02  0.00000000000E+00 0.  1.
</event>
<event>
 7    1  0.1501154E-015  0.9000767E+02  0.7816164E-02  0.1186339E+00
        -11   -1    0    0    0    0  0.00000000000E+00  0.00000000000E+00  0.45593999997E+02  0.45594000000E+02  0.51100000000E-03 0.  1.
         11   -1    0    0    0    0 -0.00000000000E+00 -0.00000000000E+00 -0.45593999997E+02  0.45594000000E+02  0.51100000000E-03 0. -1.
    9900012    2    1    2    0    0 -0.34470419299E+00 -0.10774788073E+01  0.33673171309E+00  0.90007673855E+02  0.89999934350E+02 0.  0.
         12    1    1    2    0    0  0.34470419299E+00  0.10774788073E+01 -0.33673171309E+00  0.11803261445E+01  0.00000000000E+00 0. -1.
         11    1    3    3    0    0  0.71398921855E+01  0.17293437380E+01 -0.63252287814E+01  0.96941843176E+01  0.51100000000E-03 0. -1.
        -11    1    3    3    0    0  0.32698753600E+00 -0.40913766702E+02  0.64044096269E+01  0.41413279145E+02  0.51100000000E-03 0.  1.
         12    1    3    3    0    0 -0.78115839145E+01  0.38106944156E+02  0.25755086763E+00  0.38900210393E+02  0.00000000000E+00 0. -1.
</event>
<event>
 7    1  0.1501154E-015  0.9000788E+02  0.7816164E-02  0.1186339E+00
        -11   -1    0    0    0    0  0.00000000000E+00  0.00000000000E+00  0.45593999997E+02  0.45594000000E+02  0.51100000000E-03 0.  1.
         11   -1    0    0    0    0 -0.00000000000E+00 -0.00000000000E+00 -0.45593999997E+02  0.45594000000E+02  0.51100000000E-03 0. -1.
    9900012    2    1    2    0    0  0.35479978692E+00  0.10413973773E+01  0.42695921554E+00  0.90007879007E+02  0.90000142210E+02 0.  0.
         12    1    1    2    0    0 -0.35479978692E+00 -0.10413973773E+01 -0.42695921554E+00  0.11801209930E+01  0.00000000000E+00 0. -1.
         11    1    3    3    0    0  0.92054720219E+01  0.28374596339E+02 -0.19800173064E+02  0.35803704922E+02  0.51100000000E-03 0. -1.
        -11    1    3    3    0    0  0.60008173084E+00  0.60635430398E+01 -0.75837391012E+01  0.97282964231E+01  0.51100000000E-03 0.  1.
        -12    1    3    3    0    0 -0.94507539658E+01 -0.33396742001E+02  0.27810871381E+02  0.44475877662E+02  0.00000000000E+00 0.  1.
</event>
<event>
 7    1  0.1501154E-015  0.9000775E+02  0.7816164E-02  0.1186339E+00
        -11   -1    0    0    0    0  0.00000000000E+00  0.00000000000E+00  0.45593999997E+02  0.45594000000E+02  0.51100000000E-03 0. -1.
         11   -1    0    0    0    0 -0.00000000000E+00 -0.00000000000E+00 -0.45593999997E+02  0.45594000000E+02  0.51100000000E-03 0.  1.
    9900012    2    1    2    0    0 -0.98780233815E+00 -0.16961465299E+00  0.62327413117E+00  0.90007748657E+02  0.90000010139E+02 0.  0.
         12    1    1    2    0    0  0.98780233815E+00  0.16961465299E+00 -0.62327413117E+00  0.11802513429E+01  0.00000000000E+00 0. -1.
         11    1    3    3    0    0  0.66406466398E+01 -0.19554048987E+02  0.29338870013E+02  0.35877964177E+02  0.51100000000E-03 0. -1.
        -11    1    3    3    0    0  0.22796570049E+01  0.46033210521E+01  0.10154627235E+02  0.11379976068E+02  0.51100000000E-03 0.  1.
        -12    1    3    3    0    0 -0.99081059828E+01  0.14781113282E+02 -0.38870223117E+02  0.42749808411E+02  0.00000000000E+00 0.  1.
</event>
<event>
 7    1  0.1501154E-015  0.9000782E+02  0.7816164E-02  0.1186339E+00
        -11   -1    0    0    0    0  0.00000000000E+00  0.00000000000E+00  0.45593999997E+02  0.45594000000E+02  0.51100000000E-03 0.  1.
         11   -1    0    0    0    0 -0.00000000000E+00 -0.00000000000E+00 -0.45593999997E+02  0.45594000000E+02  0.51100000000E-03 0. -1.
    9900012    2    1    2    0    0  0.11614262421E+00  0.76739953219E+00  0.88906604873E+00  0.90007817984E+02  0.90000080382E+02 0.  0.
         12    1    1    2    0    0 -0.11614262421E+00 -0.76739953219E+00 -0.88906604873E+00  0.11801820157E+01  0.00000000000E+00 0. -1.
         11    1    3    3    0    0 -0.75319962810E+01  0.18101174896E+01 -0.29400534962E+01  0.82856145291E+01  0.51100000000E-03 0. -1.
        -11    1    3    3    0    0 -0.31626881415E+02 -0.47773924395E+01  0.21451659669E+02  0.38513073227E+02  0.51100000000E-03 0.  1.
         12    1    3    3    0    0  0.39275020320E+02  0.37346744821E+01 -0.17622540124E+02  0.43209130228E+02  0.00000000000E+00 0. -1.
</event>
<event>
 7    1  0.1501154E-015  0.9000769E+02  0.7816164E-02  0.1186339E+00
        -11   -1    0    0    0    0  0.00000000000E+00  0.00000000000E+00  0.45593999997E+02  0.45594000000E+02  0.51100000000E-03 0. -1.
         11   -1    0    0    0    0 -0.00000000000E+00 -0.00000000000E+00 -0.45593999997E+02  0.45594000000E+02  0.51100000000E-03 0.  1.
    9900012    2    1    2    0    0 -0.70151021583E+00  0.94882400670E+00  0.27533676913E-01  0.90007685770E+02  0.89999946422E+02 0.  0.
         12    1    1    2    0    0  0.70151021583E+00 -0.94882400670E+00 -0.27533676913E-01  0.11803142302E+01  0.00000000000E+00 0. -1.
         11    1    3    3    0    0  0.24783835258E+02 -0.53503786398E+00  0.34165979563E+02  0.42211833831E+02  0.51100000000E-03 0. -1.
        -11    1    3    3    0    0 -0.96953871177E+01  0.37335629218E+01 -0.30774370804E+00  0.10393975654E+02  0.51100000000E-03 0.  1.
        -12    1    3    3    0    0 -0.15789958356E+02 -0.22497010511E+01 -0.33830702179E+02  0.37401876284E+02  0.00000000000E+00 0.  1.
</event>
<event>
 7    1  0.1501154E-015  0.9000769E+02  0.7816164E-02  0.1186339E+00
        -11   -1    0    0    0    0  0.00000000000E+00  0.00000000000E+00  0.45593999997E+02  0.45594000000E+02  0.51100000000E-03 0.  1.
         11   -1    0    0    0    0 -0.00000000000E+00 -0.00000000000E+00 -0.45593999997E+02  0.45594000000E+02  0.51100000000E-03 0. -1.
    9900012    2    1    2    0    0  0.62109119202E+00  0.96104652184E+00 -0.28940779732E+00  0.90007694294E+02  0.89999955059E+02 0.  0.
         12    1    1    2    0    0 -0.62109119202E+00 -0.96104652184E+00  0.28940779732E+00  0.11803057058E+01  0.00000000000E+00 0. -1.
         11    1    3    3    0    0 -0.90096242403E+01 -0.58219936067E+01  0.33017297329E+01  0.11223651723E+02  0.51100000000E-03 0. -1.
        -11    1    3    3    0    0 -0.21932092019E+02  0.29851573289E+02  0.82221103515E+01  0.37943855722E+02  0.51100000000E-03 0.  1.
         12    1    3    3    0    0  0.31562807452E+02 -0.23068533160E+02 -0.11813247882E+02  0.40840186849E+02  0.00000000000E+00 0. -1.
</event>
<event>
 7    1  0.1501154E-015  0.9000777E+02  0.7816164E-02  0.1186339E+00
        -11   -1    0    0    0    0  0.00000000000E+00  0.00000000000E+00  0.45593999997E+02  0.45594000000E+02  0.51100000000E-03 0. -1.
         11   -1    0    0    0    0 -0.00000000000E+00 -0.00000000000E+00 -0.45593999997E+02  0.45594000000E+02  0.51100000000E-03 0.  1.
    9900012    2    1    2    0    0  0.32542509186E+00  0.93883964832E+00 -0.63688733336E+00  0.90007768306E+02  0.90000030048E+02 0.  0.
         12    1    1    2    0    0 -0.32542509186E+00 -0.93883964832E+00  0.63688733336E+00  0.11802316938E+01  0.00000000000E+00 0. -1.
         11    1    3    3    0    0  0.11373579641E+02  0.70197978142E+01  0.10337191593E+01  0.13405388870E+02  0.51100000000E-03 0. -1.
        -11    1    3    3    0    0 -0.22768625933E+02  0.29653028503E+02  0.69339076600E+01  0.38023565088E+02  0.51100000000E-03 0.  1.
         12    1    3    3    0    0  0.11720471384E+02 -0.35733986669E+02 -0.86045141527E+01  0.38578814348E+02  0.00000000000E+00 0. -1.
</event>
<event>
 7    1  0.1501154E-015  0.9000779E+02  0.7816164E-02  0.1186339E+00
        -11   -1    0    0    0    0  0.00000000000E+00  0.00000000000E+00  0.45593999997E+02  0.45594000000E+02  0.51100000000E-03 0.  1.
         11   -1    0    0    0    0 -0.00000000000E+00 -0.00000000000E+00 -0.45593999997E+02  0.45594000000E+02  0.51100000000E-03 0. -1.
    9900012    2    1    2    0    0 -0.75349697612E+00 -0.31593684751E+00 -0.85166417063E+00  0.90007785763E+02  0.90000047736E+02 0.  0.
         12    1    1    2    0    0  0.75349697612E+00  0.31593684751E+00  0.85166417063E+00  0.11802142366E+01  0.00000000000E+00 0. -1.
         11    1    3    3    0    0 -0.39693610284E+01  0.19289539914E+01  0.88412109658E+01  0.98814827874E+01  0.51100000000E-03 0. -1.
        -11    1    3    3    0    0  0.15750673867E+02  0.35196631807E+02  0.29359922862E+01  0.38671781298E+02  0.51100000000E-03 0.  1.
         12    1    3    3    0    0 -0.12534809815E+02 -0.37441522646E+02 -0.12628867423E+02  0.41454521678E+02  0.00000000000E+00 0. -1.
</event>
<event>
 7    1  0.1501154E-015  0.9000782E+02  0.7816164E-02  0.1186339E+00
        -11   -1    0    0    0    0  0.00000000000E+00  0.00000000000E+00  0.45593999997E+02  0.45594000000E+02  0.51100000000E-03 0.  1.
         11   -1    0    0    0    0 -0.00000000000E+00 -0.00000000000E+00 -0.45593999997E+02  0.45594000000E+02  0.51100000000E-03 0. -1.
    9900012    2    1    2    0    0 -0.48003700392E+00 -0.84363886006E+00  0.67131855719E+00  0.90007817533E+02  0.90000079924E+02 0.  0.
         12    1    1    2    0    0  0.48003700392E+00  0.84363886006E+00 -0.67131855719E+00  0.11801824675E+01  0.00000000000E+00 0. -1.
         11    1    3    3    0    0  0.33120437357E+02  0.14092727803E+01  0.14236123973E+02  0.36077924643E+02  0.51100000000E-03 0. -1.
        -11    1    3    3    0    0  0.84771791614E+01 -0.25966585836E+01  0.19569090421E+01  0.90793554614E+01  0.51100000000E-03 0.  1.
        -12    1    3    3    0    0 -0.42077653522E+02  0.34374694317E+00 -0.15521714458E+02  0.44850537428E+02  0.00000000000E+00 0.  1.
</event>
<event>
 7    1  0.1501154E-015  0.9000772E+02  0.7816164E-02  0.1186339E+00
        -11   -1    0    0    0    0  0.00000000000E+00  0.00000000000E+00  0.45593999997E+02  0.45594000000E+02  0.51100000000E-03 0. -1.
         11   -1    0    0    0    0 -0.00000000000E+00 -0.00000000000E+00 -0.45593999997E+02  0.45594000000E+02  0.51100000000E-03 0.  1.
    9900012    2    1    2    0    0 -0.96413818042E+00  0.19525195817E+00 -0.65220764295E+00  0.90007720132E+02  0.89999981237E+02 0.  0.
         12    1    1    2    0    0  0.96413818042E+00 -0.19525195817E+00  0.65220764295E+00  0.11802798684E+01  0.00000000000E+00 0. -1.
         11    1    3    3    0    0  0.19682572132E+01 -0.18941397636E+02  0.32160066245E+02  0.37375398887E+02  0.51100000000E-03 0. -1.
        -11    1    3    3    0    0  0.41333926220E+01  0.60560153651E+01  0.69985582040E+01  0.10136077834E+02  0.51100000000E-03 0.  1.
        -12    1    3    3    0    0 -0.70657880156E+01  0.13080634229E+02 -0.39810832092E+02  0.42496243410E+02  0.00000000000E+00 0.  1.
</event>
<event>
 7    1  0.1600390E-015  0.9000770E+02  0.7816164E-02  0.1186339E+00
        -11   -1    0    0    0    0  0.00000000000E+00  0.00000000000E+00  0.45593999997E+02  0.45594000000E+02  0.51100000000E-03 0.  1.
         11   -1    0    0    0    0 -0.00000000000E+00 -0.00000000000E+00 -0.45593999997E+02  0.45594000000E+02  0.51100000000E-03 0. -1.
    9900012    2    1    2    0    0 -0.98171022042E+00 -0.63266483073E+00 -0.17054683452E+00  0.90007700899E+02  0.89999961751E+02 0.  0.
         12    1    1    2    0    0  0.98171022042E+00  0.63266483073E+00  0.17054683452E+00  0.11802991009E+01  0.00000000000E+00 0. -1.
         11    1    3    3    0    0  0.29104595571E+02 -0.24349062221E+02 -0.89318528591E+01  0.38983744178E+02  0.51100000000E-03 0. -1.
        -11    1    3    3    0    0  0.64167644059E+01  0.38543861939E+01  0.55974976046E+01  0.93468250260E+01  0.51100000000E-03 0.  1.
        -12    1    3    3    0    0 -0.36503070198E+02  0.19862011196E+02  0.31638084201E+01  0.41677131695E+02  0.00000000000E+00 0.  1.
</event>
<event>
 7    1  0.1501154E-015  0.9000783E+02  0.7816164E-02  0.1186339E+00
        -11   -1    0    0    0    0  0.00000000000E+00  0.00000000000E+00  0.45593999997E+02  0.45594000000E+02  0.51100000000E-03 0. -1.
         11   -1    0    0    0    0 -0.00000000000E+00 -0.00000000000E+00 -0.45593999997E+02  0.45594000000E+02  0.51100000000E-03 0.  1.
    9900012    2    1    2    0    0 -0.38727436299E+00 -0.18073175484E+00 -0.11000705918E+01  0.90007830221E+02  0.90000092780E+02 0.  0.
         12    1    1    2    0    0  0.38727436299E+00  0.18073175484E+00  0.11000705918E+01  0.11801697786E+01  0.00000000000E+00 0. -1.
         11    1    3    3    0    0 -0.91754700876E+01  0.30428314791E+01 -0.47405733151E+01  0.10766666632E+02  0.51100000000E-03 0. -1.
        -11    1    3    3    0    0  0.10718827511E+02  0.17235924519E+02 -0.32120466657E+02  0.37995983153E+02  0.51100000000E-03 0.  1.
         12    1    3    3    0    0 -0.19306317865E+01 -0.20459487753E+02  0.35760969380E+02  0.41245180437E+02  0.00000000000E+00 0. -1.
</event>
<event>
 7    1  0.1501154E-015  0.9000771E+02  0.7816164E-02  0.1186339E+00
        -11   -1    0    0    0    0  0.00000000000E+00  0.00000000000E+00  0.45593999997E+02  0.45594000000E+02  0.51100000000E-03 0.  1.
         11   -1    0    0    0    0 -0.00000000000E+00 -0.00000000000E+00 -0.45593999997E+02  0.45594000000E+02  0.51100000000E-03 0. -1.
    9900012    2    1    2    0    0 -0.38163219237E+00 -0.11113247461E+01 -0.11138401048E+00  0.90007706723E+02  0.89999967652E+02 0.  0.
         12    1    1    2    0    0  0.38163219237E+00  0.11113247461E+01  0.11138401048E+00  0.11802932769E+01  0.00000000000E+00 0. -1.
         11    1    3    3    0    0 -0.25196061042E+01  0.21264625300E+02 -0.79267937060E+01  0.22833457092E+02  0.51100000000E-03 0. -1.
        -11    1    3    3    0    0  0.21595936670E+02  0.13794244483E+02  0.21886693526E+01  0.25718785650E+02  0.51100000000E-03 0.  1.
        -12    1    3    3    0    0 -0.19457962758E+02 -0.36170194529E+02  0.56267403429E+01  0.41455463981E+02  0.00000000000E+00 0.  1.
</event>
<event>
 7    1  0.1501154E-015  0.9000774E+02  0.7816164E-02  0.1186339E+00
        -11   -1    0    0    0    0  0.00000000000E+00  0.00000000000E+00  0.45593999997E+02  0.45594000000E+02  0.51100000000E-03 0.  1.
         11   -1    0    0    0    0 -0.00000000000E+00 -0.00000000000E+00 -0.45593999997E+02  0.45594000000E+02  0.51100000000E-03 0. -1.
    9900012    2    1    2    0    0 -0.81081032292E+00 -0.83022920209E+00 -0.21520951944E+00  0.90007741958E+02  0.90000003352E+02 0.  0.
         12    1    1    2    0    0  0.81081032292E+00  0.83022920209E+00  0.21520951944E+00  0.11802580417E+01  0.00000000000E+00 0. -1.
         11    1    3    3    0    0  0.23946925209E+02 -0.11373991754E+02 -0.24026349943E+02  0.35778323147E+02  0.51100000000E-03 0. -1.
        -11    1    3    3    0    0  0.81799832348E+00 -0.61472549663E+01 -0.80059579692E+01  0.10126856775E+02  0.51100000000E-03 0.  1.
        -12    1    3    3    0    0 -0.25575733855E+02  0.16691017518E+02  0.31817098393E+02  0.44102562036E+02  0.00000000000E+00 0.  1.
</event>
<event>
 7    1  0.1501154E-015  0.9000774E+02  0.7816164E-02  0.1186339E+00
        -11   -1    0    0    0    0  0.00000000000E+00  0.00000000000E+00  0.45593999997E+02  0.45594000000E+02  0.51100000000E-03 0.  1.
         11   -1    0    0    0    0 -0.00000000000E+00 -0.00000000000E+00 -0.45593999997E+02  0.45594000000E+02  0.51100000000E-03 0. -1.
    9900012    2    1    2    0    0 -0.11602032569E+01  0.21626189228E+00  0.12813176522E-01  0.90007743680E+02  0.90000005097E+02 0.  0.
         12    1    1    2    0    0  0.11602032569E+01 -0.21626189228E+00 -0.12813176522E-01  0.11802563200E+01  0.00000000000E+00 0. -1.
         11    1    3    3    0    0 -0.20607136509E+01  0.87902851302E+01  0.27106018048E+01  0.94267181896E+01  0.51100000000E-03 0. -1.
        -11    1    3    3    0    0 -0.31561808138E+02 -0.27827580505E+02  0.39308867565E+01  0.42260783721E+02  0.51100000000E-03 0.  1.
         12    1    3    3    0    0  0.32462318532E+02  0.19253557267E+02 -0.66286753847E+01  0.38320241770E+02  0.00000000000E+00 0. -1.
</event>
<event>
 7    1  0.1501154E-015  0.9000764E+02  0.7816164E-02  0.1186339E+00
        -11   -1    0    0    0    0  0.00000000000E+00  0.00000000000E+00  0.45593999997E+02  0.45594000000E+02  0.51100000000E-03 0.  1.
         11   -1    0    0    0    0 -0.00000000000E+00 -0.00000000000E+00 -0.45593999997E+02  0.45594000000E+02  0.51100000000E-03 0. -1.
    9900012    2    1    2    0    0  0.91279512130E+00 -0.49901818682E+00  0.55769896386E+00  0.90007643182E+02  0.89999903272E+02 0.  0.
         12    1    1    2    0    0 -0.91279512130E+00  0.49901818682E+00 -0.55769896386E+00  0.11803568183E+01  0.00000000000E+00 0. -1.
         11    1    3    3    0    0  0.66282094250E+00  0.86003171943E+01  0.60366463544E+01  0.10528337329E+02  0.51100000000E-03 0. -1.
        -11    1    3    3    0    0 -0.79532663001E+01  0.26820841152E+02  0.20254309577E+02  0.34537646441E+02  0.51100000000E-03 0.  1.
         12    1    3    3    0    0  0.82032404789E+01 -0.35920176533E+02 -0.25733256968E+02  0.44941659412E+02  0.00000000000E+00 0. -1.
</event>
<event>
 7    1  0.1501154E-015  0.9000802E+02  0.7816164E-02  0.1186338E+00
        -11   -1    0    0    0    0  0.00000000000E+00  0.00000000000E+00  0.45593999997E+02  0.45594000000E+02  0.51100000000E-03 0. -1.
         11   -1    0    0    0    0 -0.00000000000E+00 -0.00000000000E+00 -0.45593999997E+02  0.45594000000E+02  0.51100000000E-03 0.  1.
    9900012    2    1    2    0    0  0.58441712308E+00  0.50348580065E-01 -0.10238475314E+01  0.90008024525E+02  0.90000289649E+02 0.  0.
         12    1    1    2    0    0 -0.58441712308E+00 -0.50348580065E-01  0.10238475314E+01  0.11799754747E+01  0.00000000000E+00 0. -1.
         11    1    3    3    0    0  0.79216837008E+01  0.17352398074E+01  0.32634068641E+02  0.33626575297E+02  0.51100000000E-03 0. -1.
        -11    1    3    3    0    0  0.46143153034E+01  0.19845758860E+02 -0.18096894105E+02  0.27251488528E+02  0.51100000000E-03 0.  1.
        -12    1    3    3    0    0 -0.11951581881E+02 -0.21530650088E+02 -0.15561022068E+02  0.29129960701E+02  0.00000000000E+00 0.  1.
</event>
<event>
 7    1  0.1501154E-015  0.9000782E+02  0.7816164E-02  0.1186339E+00
        -11   -1    0    0    0    0  0.00000000000E+00  0.00000000000E+00  0.45593999997E+02  0.45594000000E+02  0.51100000000E-03 0.  1.
         11   -1    0    0    0    0 -0.00000000000E+00 -0.00000000000E+00 -0.45593999997E+02  0.45594000000E+02  0.51100000000E-03 0. -1.
    9900012    2    1    2    0    0  0.42993039630E+00  0.10140992405E+01 -0.42377308626E+00  0.90007821605E+02  0.90000084050E+02 0.  0.
         12    1    1    2    0    0 -0.42993039630E+00 -0.10140992405E+01  0.42377308626E+00  0.11801783949E+01  0.00000000000E+00 0. -1.
         11    1    3    3    0    0  0.14334765511E+02  0.24878611318E+02 -0.20260681486E+02  0.35141514167E+02  0.51100000000E-03 0. -1.
        -11    1    3    3    0    0  0.90666865880E+01 -0.21993525230E+01 -0.83640886573E+01  0.12529961554E+02  0.51100000000E-03 0.  1.
        -12    1    3    3    0    0 -0.22971521703E+02 -0.21665159555E+02  0.28200997057E+02  0.42336345885E+02  0.00000000000E+00 0.  1.
</event>
<event>
 7    1  0.1501154E-015  0.9000780E+02  0.7816164E-02  0.1186339E+00
        -11   -1    0    0    0    0  0.00000000000E+00  0.00000000000E+00  0.45593999997E+02  0.45594000000E+02  0.51100000000E-03 0.  1.
         11   -1    0    0    0    0 -0.00000000000E+00 -0.00000000000E+00 -0.45593999997E+02  0.45594000000E+02  0.51100000000E-03 0. -1.
    9900012    2    1    2    0    0 -0.27002361567E+00  0.16572004232E+00  0.11368808977E+01  0.90007799144E+02  0.90000061292E+02 0.  0.
         12    1    1    2    0    0  0.27002361567E+00 -0.16572004232E+00 -0.11368808977E+01  0.11802008562E+01  0.00000000000E+00 0. -1.
         11    1    3    3    0    0  0.15904979356E+02  0.11938656032E+02 -0.28047544529E+02  0.34382621054E+02  0.51100000000E-03 0. -1.
        -11    1    3    3    0    0  0.21654530667E+01  0.12314428033E+01 -0.10077896662E+02  0.10381215716E+02  0.51100000000E-03 0.  1.
        -12    1    3    3    0    0 -0.18340456039E+02 -0.13004378793E+02  0.39262322088E+02  0.45243962374E+02  0.00000000000E+00 0.  1.
</event>
<event>
 7    1  0.1501154E-015  0.9000780E+02  0.7816164E-02  0.1186339E+00
        -11   -1    0    0    0    0  0.00000000000E+00  0.00000000000E+00  0.45593999997E+02  0.45594000000E+02  0.51100000000E-03 0. -1.
         11   -1    0    0    0    0 -0.00000000000E+00 -0.00000000000E+00 -0.45593999997E+02  0.45594000000E+02  0.51100000000E-03 0.  1.
    9900012    2    1    2    0    0  0.96859438582E+00  0.56209219041E+00 -0.37248236767E+00  0.90007802631E+02  0.90000064826E+02 0.  0.
         12    1    1    2    0    0 -0.96859438582E+00 -0.56209219041E+00  0.37248236767E+00  0.11801973687E+01  0.00000000000E+00 0. -1.
         11    1    3    3    0    0 -0.27777927774E+02  0.19240818443E+02  0.10645552402E+02  0.35428098340E+02  0.51100000000E-03 0. -1.
        -11    1    3    3    0    0 -0.19035178044E+01  0.48510118229E+01  0.94957675239E+01  0.10831680242E+02  0.51100000000E-03 0.  1.
        -12    1    3    3    0    0  0.30650039964E+02 -0.23529738076E+02 -0.20513802294E+02  0.43748024050E+02  0.00000000000E+00 0.  1.
</event>
<event>
 7    1  0.1501154E-015  0.9000772E+02  0.7816164E-02  0.1186339E+00
        -11   -1    0    0    0    0  0.00000000000E+00  0.00000000000E+00  0.45593999997E+02  0.45594000000E+02  0.51100000000E-03 0.  1.
         11   -1    0    0    0    0 -0.00000000000E+00 -0.00000000000E+00 -0.45593999997E+02  0.45594000000E+02  0.51100000000E-03 0. -1.
    9900012    2    1    2    0    0 -0.41752737382E+00 -0.34617845934E+00  0.10482755554E+01  0.90007724492E+02  0.89999985656E+02 0.  0.
         12    1    1    2    0    0  0.41752737382E+00  0.34617845934E+00 -0.10482755554E+01  0.11802755075E+01  0.00000000000E+00 0. -1.
         11    1    3    3    0    0  0.83448158791E+01 -0.28198221466E+01  0.10507965932E+00  0.88089948911E+01  0.51100000000E-03 0. -1.
        -11    1    3    3    0    0  0.94286014030E+01 -0.11649673386E+02  0.36147167735E+02  0.39130948749E+02  0.51100000000E-03 0.  1.
         12    1    3    3    0    0 -0.18190944656E+02  0.14123317073E+02 -0.35203971839E+02  0.42067780853E+02  0.00000000000E+00 0. -1.
</event>
<event>
 7    1  0.1501154E-015  0.9000780E+02  0.7816164E-02  0.1186339E+00
        -11   -1    0    0    0    0  0.00000000000E+00  0.00000000000E+00  0.45593999997E+02  0.45594000000E+02  0.51100000000E-03 0.  1.
         11   -1    0    0    0    0 -0.00000000000E+00 -0.00000000000E+00 -0.45593999997E+02  0.45594000000E+02  0.51100000000E-03 0. -1.
    9900012    2    1    2    0    0  0.41013048590E+00 -0.74831725490E+00  0.81527655621E+00  0.90007804426E+02  0.90000066645E+02 0.  0.
         12    1    1    2    0    0 -0.41013048590E+00  0.74831725490E+00 -0.81527655621E+00  0.11801955739E+01  0.00000000000E+00 0. -1.
         11    1    3    3    0    0 -0.96670243417E+00  0.95071768009E+01 -0.22946591023E+01  0.98278372482E+01  0.51100000000E-03 0. -1.
        -11    1    3    3    0    0 -0.21574697272E+02 -0.47274396188E+01 -0.31386539063E+02  0.38378784274E+02  0.51100000000E-03 0.  1.
         12    1    3    3    0    0  0.22951530192E+02 -0.55280544370E+01  0.34496474721E+02  0.41801182904E+02  0.00000000000E+00 0. -1.
</event>
<event>
 7    1  0.1501154E-015  0.9000775E+02  0.7816164E-02  0.1186339E+00
        -11   -1    0    0    0    0  0.00000000000E+00  0.00000000000E+00  0.45593999997E+02  0.45594000000E+02  0.51100000000E-03 0.  1.
         11   -1    0    0    0    0 -0.00000000000E+00 -0.00000000000E+00 -0.45593999997E+02  0.45594000000E+02  0.51100000000E-03 0. -1.
    9900012    2    1    2    0    0  0.11173986880E-01 -0.74208173403E+00  0.91770211146E+00  0.90007751160E+02  0.90000012676E+02 0.  0.
         12    1    1    2    0    0 -0.11173986880E-01  0.74208173403E+00 -0.91770211146E+00  0.11802488396E+01  0.00000000000E+00 0. -1.
         11    1    3    3    0    0  0.14162208869E+02  0.25347791358E+02 -0.27022805300E+02  0.39664980693E+02  0.51100000000E-03 0. -1.
        -11    1    3    3    0    0  0.78259238042E+01 -0.12435906557E+02  0.43354598353E+01  0.15319695413E+02  0.51100000000E-03 0.  1.
        -12    1    3    3    0    0 -0.21976958687E+02 -0.13653966535E+02  0.23605047576E+02  0.35023075055E+02  0.00000000000E+00 0.  1.
</event>
<event>
 7    1  0.1501154E-015  0.9000748E+02  0.7816164E-02  0.1186340E+00
        -11   -1    0    0    0    0  0.00000000000E+00  0.00000000000E+00  0.45593999997E+02  0.45594000000E+02  0.51100000000E-03 0.  1.
         11   -1    0    0    0    0 -0.00000000000E+00 -0.00000000000E+00 -0.45593999997E+02  0.45594000000E+02  0.51100000000E-03 0. -1.
    9900012    2    1    2    0    0 -0.65052288454E+00  0.94526435019E+00  0.27733627796E+00  0.90007483111E+02  0.89999741087E+02 0.  0.
         12    1    1    2    0    0  0.65052288454E+00 -0.94526435019E+00 -0.27733627796E+00  0.11805168894E+01  0.00000000000E+00 0. -1.
         11    1    3    3    0    0 -0.42227927245E+01  0.64386957079E+01 -0.77734520711E+01  0.10941450460E+02  0.51100000000E-03 0. -1.
        -11    1    3    3    0    0 -0.47966360961E+00 -0.40757153230E+02  0.13954813083E+02  0.43082623237E+02  0.51100000000E-03 0.  1.
         12    1    3    3    0    0  0.40519334496E+01  0.35263721872E+02 -0.59040247337E+01  0.35983409413E+02  0.00000000000E+00 0. -1.
</event>
<event>
 7    1  0.1501154E-015  0.9000778E+02  0.7816164E-02  0.1186339E+00
        -11   -1    0    0    0    0  0.00000000000E+00  0.00000000000E+00  0.45593999997E+02  0.45594000000E+02  0.51100000000E-03 0. -1.
         11   -1    0    0    0    0 -0.00000000000E+00 -0.00000000000E+00 -0.45593999997E+02  0.45594000000E+02  0.51100000000E-03 0.  1.
    9900012    2    1    2    0    0  0.94103601681E+00 -0.53184972548E+00 -0.47382426196E+00  0.90007778687E+02  0.90000040566E+02 0.  0.
         12    1    1    2    0    0 -0.94103601681E+00  0.53184972548E+00  0.47382426196E+00  0.11802213126E+01  0.00000000000E+00 0. -1.
         11    1    3    3    0    0  0.29498188328E+02 -0.21630662558E+02  0.15320711674E+02  0.39657948558E+02  0.51100000000E-03 0. -1.
        -11    1    3    3    0    0  0.65289060114E+01  0.42655471671E+01  0.11910771134E+01  0.78892440253E+01  0.51100000000E-03 0.  1.
        -12    1    3    3    0    0 -0.35086058323E+02  0.16833265666E+02 -0.16985613049E+02  0.42460586104E+02  0.00000000000E+00 0.  1.
</event>
<event>
 7    1  0.1501154E-015  0.9000757E+02  0.7816164E-02  0.1186339E+00
        -11   -1    0    0    0    0  0.00000000000E+00  0.00000000000E+00  0.45593999997E+02  0.45594000000E+02  0.51100000000E-03 0.  1.
         11   -1    0    0    0    0 -0.00000000000E+00 -0.00000000000E+00 -0.45593999997E+02  0.45594000000E+02  0.51100000000E-03 0. -1.
    9900012    2    1    2    0    0 -0.75053361429E+00 -0.88538408885E+00  0.21496008671E+00  0.90007570616E+02  0.89999829748E+02 0.  0.
         12    1    1    2    0    0  0.75053361429E+00  0.88538408885E+00 -0.21496008671E+00  0.11804293837E+01  0.00000000000E+00 0. -1.
         11    1    3    3    0    0 -0.25964217804E+02  0.11160813297E+01 -0.25517628719E+02  0.36421636693E+02  0.51100000000E-03 0. -1.
        -11    1    3    3    0    0 -0.45536930288E+01  0.10512105042E+02 -0.12255237409E+01  0.11521387995E+02  0.51100000000E-03 0.  1.
        -12    1    3    3    0    0  0.29767377218E+02 -0.12513570461E+02  0.26958112546E+02  0.42064545929E+02  0.00000000000E+00 0.  1.
</event>
<event>
 7    1  0.1501154E-015  0.9000884E+02  0.7816164E-02  0.1186337E+00
        -11   -1    0    0    0    0  0.00000000000E+00  0.00000000000E+00  0.45593999997E+02  0.45594000000E+02  0.51100000000E-03 0.  1.
         11   -1    0    0    0    0 -0.00000000000E+00 -0.00000000000E+00 -0.45593999997E+02  0.45594000000E+02  0.51100000000E-03 0. -1.
    9900012    2    1    2    0    0 -0.92065392633E+00  0.17112470179E+00  0.71661632903E+00  0.90008836619E+02  0.90001112456E+02 0.  0.
         12    1    1    2    0    0  0.92065392633E+00 -0.17112470179E+00 -0.71661632903E+00  0.11791633808E+01  0.00000000000E+00 0. -1.
         11    1    3    3    0    0 -0.30917829064E+02  0.89113244491E+01  0.14458752572E+02  0.35275761985E+02  0.51100000000E-03 0. -1.
        -11    1    3    3    0    0 -0.72678866896E+01 -0.56426579438E+01  0.73720683908E+01  0.11790214511E+02  0.51100000000E-03 0.  1.
        -12    1    3    3    0    0  0.37265061827E+02 -0.30975418034E+01 -0.21114204634E+02  0.42942860123E+02  0.00000000000E+00 0.  1.
</event>
<event>
 7    1  0.1501154E-015  0.9000774E+02  0.7816164E-02  0.1186339E+00
        -11   -1    0    0    0    0  0.00000000000E+00  0.00000000000E+00  0.45593999997E+02  0.45594000000E+02  0.51100000000E-03 0.  1.
         11   -1    0    0    0    0 -0.00000000000E+00 -0.00000000000E+00 -0.45593999997E+02  0.45594000000E+02  0.51100000000E-03 0. -1.
    9900012    2    1    2    0    0  0.22291635087E+00  0.67773730179E-01  0.11570366245E+01  0.90007737856E+02  0.89999999196E+02 0.  0.
         12    1    1    2    0    0 -0.22291635087E+00 -0.67773730179E-01 -0.11570366245E+01  0.11802621439E+01  0.00000000000E+00 0. -1.
         11    1    3    3    0    0 -0.16699710710E+02 -0.12123742210E+02  0.29928833435E+02  0.36353824201E+02  0.51100000000E-03 0. -1.
        -11    1    3    3    0    0 -0.80464367118E+01 -0.25799598211E+01  0.44482387673E+01  0.95492494379E+01  0.51100000000E-03 0.  1.
        -12    1    3    3    0    0  0.24969063773E+02  0.14771475762E+02 -0.33220035578E+02  0.44104664217E+02  0.00000000000E+00 0.  1.
</event>
<event>
 7    1  0.1501154E-015  0.9000775E+02  0.7816164E-02  0.1186339E+00
        -11   -1    0    0    0    0  0.00000000000E+00  0.00000000000E+00  0.45593999997E+02  0.45594000000E+02  0.51100000000E-03 0. -1.
         11   -1    0    0    0    0 -0.00000000000E+00 -0.00000000000E+00 -0.45593999997E+02  0.45594000000E+02  0.51100000000E-03 0.  1.
    9900012    2    1    2    0    0 -0.43810633195E+00  0.71438044861E+00 -0.83109670447E+00  0.90007746504E+02  0.90000007958E+02 0.  0.
         12    1    1    2    0    0  0.43810633195E+00 -0.71438044861E+00  0.83109670447E+00  0.11802534963E+01  0.00000000000E+00 0. -1.
         11    1    3    3    0    0  0.21922188469E+02  0.86171248154E+01 -0.15392031847E+02  0.28138085081E+02  0.51100000000E-03 0. -1.
        -11    1    3    3    0    0 -0.19550946709E+02  0.16021179275E+02 -0.10261796143E+02  0.27280435534E+02  0.51100000000E-03 0.  1.
        -12    1    3    3    0    0 -0.28093480921E+01 -0.23923923642E+02  0.24822731285E+02  0.34589225889E+02  0.00000000000E+00 0.  1.
</event>
<event>
 7    1  0.1501154E-015  0.9000775E+02  0.7816164E-02  0.1186339E+00
        -11   -1    0    0    0    0  0.00000000000E+00  0.00000000000E+00  0.45593999997E+02  0.45594000000E+02  0.51100000000E-03 0.  1.
         11   -1    0    0    0    0 -0.00000000000E+00 -0.00000000000E+00 -0.45593999997E+02  0.45594000000E+02  0.51100000000E-03 0. -1.
    9900012    2    1    2    0    0  0.11298268791E+01  0.31362347431E+00 -0.13458131693E+00  0.90007754012E+02  0.90000015565E+02 0.  0.
         12    1    1    2    0    0 -0.11298268791E+01 -0.31362347431E+00  0.13458131693E+00  0.11802459876E+01  0.00000000000E+00 0. -1.
         11    1    3    3    0    0  0.97959269493E+01 -0.12292886255E+01  0.89081303787E+00  0.99128645432E+01  0.51100000000E-03 0. -1.
        -11    1    3    3    0    0  0.93677622981E+01  0.77295537892E+01  0.36247958580E+02  0.38228464182E+02  0.51100000000E-03 0.  1.
         12    1    3    3    0    0 -0.18033862368E+02 -0.61866416893E+01 -0.37273352935E+02  0.41866425287E+02  0.00000000000E+00 0. -1.
</event>
<event>
 7    1  0.1501154E-015  0.9000774E+02  0.7816164E-02  0.1186339E+00
        -11   -1    0    0    0    0  0.00000000000E+00  0.00000000000E+00  0.45593999997E+02  0.45594000000E+02  0.51100000000E-03 0.  1.
         11   -1    0    0    0    0 -0.00000000000E+00 -0.00000000000E+00 -0.45593999997E+02  0.45594000000E+02  0.51100000000E-03 0. -1.
    9900012    2    1    2    0    0 -0.53270151722E+00  0.40416569632E+00  0.97256763551E+00  0.90007742137E+02  0.90000003534E+02 0.  0.
         12    1    1    2    0    0  0.53270151722E+00 -0.40416569632E+00 -0.97256763551E+00  0.11802578626E+01  0.00000000000E+00 0. -1.
         11    1    3    3    0    0  0.86871033851E+01  0.64251676461E+01  0.53267030454E+00  0.10818145979E+02  0.51100000000E-03 0. -1.
        -11    1    3    3    0    0  0.21680357215E+01  0.26295188061E+02  0.25535889687E+02  0.36718101209E+02  0.51100000000E-03 0.  1.
         12    1    3    3    0    0 -0.11387840624E+02 -0.32316190011E+02 -0.25095992356E+02  0.42471494949E+02  0.00000000000E+00 0. -1.
</event>
<event>
 7    1  0.1501154E-015  0.9000764E+02  0.7816164E-02  0.1186339E+00
        -11   -1    0    0    0    0  0.00000000000E+00  0.00000000000E+00  0.45593999997E+02  0.45594000000E+02  0.51100000000E-03 0. -1.
         11   -1    0    0    0    0 -0.00000000000E+00 -0.00000000000E+00 -0.45593999997E+02  0.45594000000E+02  0.51100000000E-03 0.  1.
    9900012    2    1    2    0    0  0.89422062583E+00  0.55042619602E+00 -0.53911521444E+00  0.90007642114E+02  0.89999902190E+02 0.  0.
         12    1    1    2    0    0 -0.89422062583E+00 -0.55042619602E+00  0.53911521444E+00  0.11803578861E+01  0.00000000000E+00 0. -1.
         11    1    3    3    0    0 -0.92911495641E+00 -0.85646255047E+01 -0.54743316522E+01  0.10207074602E+02  0.51100000000E-03 0. -1.
        -11    1    3    3    0    0  0.27871797023E+02 -0.12690410339E+02 -0.20938603348E+02  0.37098634669E+02  0.51100000000E-03 0.  1.
         12    1    3    3    0    0 -0.26048461441E+02  0.21805462040E+02  0.25873819785E+02  0.42701932843E+02  0.00000000000E+00 0. -1.
</event>
<event>
 7    1  0.1501154E-015  0.9000762E+02  0.7816164E-02  0.1186339E+00
        -11   -1    0    0    0    0  0.00000000000E+00  0.00000000000E+00  0.45593999997E+02  0.45594000000E+02  0.51100000000E-03 0.  1.
         11   -1    0    0    0    0 -0.00000000000E+00 -0.00000000000E+00 -0.45593999997E+02  0.45594000000E+02  0.51100000000E-03 0. -1.
    9900012    2    1    2    0    0  0.10814578458E+01  0.19099151486E+00 -0.43274673050E+00  0.90007619314E+02  0.89999879089E+02 0.  0.
         12    1    1    2    0    0 -0.10814578458E+01 -0.19099151486E+00  0.43274673050E+00  0.11803806859E+01  0.00000000000E+00 0. -1.
         11    1    3    3    0    0  0.19202697686E+02 -0.30683373079E+02 -0.96360184672E+00  0.36209688078E+02  0.51100000000E-03 0. -1.
        -11    1    3    3    0    0 -0.35047440998E+01 -0.86443776377E+01 -0.60983781071E+01  0.11144447575E+02  0.51100000000E-03 0.  1.
        -12    1    3    3    0    0 -0.14616495740E+02  0.39518742232E+02  0.66292332233E+01  0.42653483661E+02  0.00000000000E+00 0.  1.
</event>
<event>
 7    1  0.1501154E-015  0.9000794E+02  0.7816164E-02  0.1186339E+00
        -11   -1    0    0    0    0  0.00000000000E+00  0.00000000000E+00  0.45593999997E+02  0.45594000000E+02  0.51100000000E-03 0.  1.
         11   -1    0    0    0    0 -0.00000000000E+00 -0.00000000000E+00 -0.45593999997E+02  0.45594000000E+02  0.51100000000E-03 0. -1.
    9900012    2    1    2    0    0 -0.84327420204E+00 -0.18686601820E+00  0.80405255665E+00  0.90007944577E+02  0.90000208645E+02 0.  0.
         12    1    1    2    0    0  0.84327420204E+00  0.18686601820E+00 -0.80405255665E+00  0.11800554235E+01  0.00000000000E+00 0. -1.
         11    1    3    3    0    0 -0.44611076873E+01  0.52205007226E+01 -0.50197238490E+01  0.85060412281E+01  0.51100000000E-03 0. -1.
        -11    1    3    3    0    0 -0.26248394911E+02  0.26383158585E+02 -0.16231987530E+01  0.37251631733E+02  0.51100000000E-03 0.  1.
         12    1    3    3    0    0  0.29866228396E+02 -0.31790525325E+02  0.74469751587E+01  0.44250271616E+02  0.00000000000E+00 0. -1.
</event>
<event>
 7    1  0.1501154E-015  0.9000784E+02  0.7816164E-02  0.1186339E+00
        -11   -1    0    0    0    0  0.00000000000E+00  0.00000000000E+00  0.45593999997E+02  0.45594000000E+02  0.51100000000E-03 0. -1.
         11   -1    0    0    0    0 -0.00000000000E+00 -0.00000000000E+00 -0.45593999997E+02  0.45594000000E+02  0.51100000000E-03 0.  1.
    9900012    2    1    2    0    0 -0.62798123643E+00  0.21828646392E+00 -0.97507319506E+00  0.90007840202E+02  0.90000102892E+02 0.  0.
         12    1    1    2    0    0  0.62798123643E+00 -0.21828646392E+00  0.97507319506E+00  0.11801597982E+01  0.00000000000E+00 0. -1.
         11    1    3    3    0    0 -0.21691546463E+01  0.12817239453E+02  0.40679033545E+02  0.42705627609E+02  0.51100000000E-03 0. -1.
        -11    1    3    3    0    0 -0.36925296649E+01  0.34985400942E+01 -0.62390770907E+01  0.80498845533E+01  0.51100000000E-03 0.  1.
        -12    1    3    3    0    0  0.52337030747E+01 -0.16097493084E+02 -0.35415029649E+02  0.39252328039E+02  0.00000000000E+00 0.  1.
</event>
<event>
 7    1  0.1501154E-015  0.9000780E+02  0.7816164E-02  0.1186339E+00
        -11   -1    0    0    0    0  0.00000000000E+00  0.00000000000E+00  0.45593999997E+02  0.45594000000E+02  0.51100000000E-03 0. -1.
         11   -1    0    0    0    0 -0.00000000000E+00 -0.00000000000E+00 -0.45593999997E+02  0.45594000000E+02  0.51100000000E-03 0.  1.
    9900012    2    1    2    0    0  0.90386368180E+00 -0.60171864155E+00 -0.46241636758E+00  0.90007803501E+02  0.90000065707E+02 0.  0.
         12    1    1    2    0    0 -0.90386368180E+00  0.60171864155E+00  0.46241636758E+00  0.11801964988E+01  0.00000000000E+00 0. -1.
         11    1    3    3    0    0  0.51224065874E+01 -0.32462475409E+01 -0.64340516860E+01  0.88416171429E+01  0.51100000000E-03 0. -1.
        -11    1    3    3    0    0  0.10226264355E+02  0.82182660655E-01 -0.35622166302E+02  0.37061057311E+02  0.51100000000E-03 0.  1.
         12    1    3    3    0    0 -0.14444807261E+02  0.25623462387E+01  0.41593801621E+02  0.44105129048E+02  0.00000000000E+00 0. -1.
</event>
<event>
 7    1  0.1501154E-015  0.9000777E+02  0.7816164E-02  0.1186339E+00
        -11   -1    0    0    0    0  0.00000000000E+00  0.00000000000E+00  0.45593999997E+02  0.45594000000E+02  0.51100000000E-03 0. -1.
         11   -1    0    0    0    0 -0.00000000000E+00 -0.00000000000E+00 -0.45593999997E+02  0.45594000000E+02  0.51100000000E-03 0.  1.
    9900012    2    1    2    0    0 -0.97136129382E+00 -0.64982702164E+00 -0.16471959887E+00  0.90007766774E+02  0.90000028496E+02 0.  0.
         12    1    1    2    0    0  0.97136129382E+00  0.64982702164E+00  0.16471959887E+00  0.11802332259E+01  0.00000000000E+00 0. -1.
         11    1    3    3    0    0 -0.74166349697E+01 -0.27335281679E+01 -0.38492519671E+01  0.87917797678E+01  0.51100000000E-03 0. -1.
        -11    1    3    3    0    0 -0.22442619235E+02 -0.10207004883E+02 -0.27522340045E+02  0.36950416894E+02  0.51100000000E-03 0.  1.
         12    1    3    3    0    0  0.28887892911E+02  0.12290706030E+02  0.31206872413E+02  0.44265570112E+02  0.00000000000E+00 0. -1.
</event>
<event>
 7    1  0.1501154E-015  0.9000800E+02  0.7816164E-02  0.1186339E+00
        -11   -1    0    0    0    0  0.00000000000E+00  0.00000000000E+00  0.45593999997E+02  0.45594000000E+02  0.51100000000E-03 0.  1.
         11   -1    0    0    0    0 -0.00000000000E+00 -0.00000000000E+00 -0.45593999997E+02  0.45594000000E+02  0.51100000000E-03 0. -1.
    9900012    2    1    2    0    0 -0.86494392805E+00  0.51428117546E+00  0.61626725440E+00  0.90008000655E+02  0.90000265463E+02 0.  0.
         12    1    1    2    0    0  0.86494392805E+00 -0.51428117546E+00 -0.61626725440E+00  0.11799993453E+01  0.00000000000E+00 0. -1.
         11    1    3    3    0    0  0.12029166605E+01 -0.11891422263E+01 -0.96829034671E+01  0.98295313998E+01  0.51100000000E-03 0. -1.
        -11    1    3    3    0    0  0.18476051878E+02  0.21811590709E+02 -0.22635902308E+02  0.36462227795E+02  0.51100000000E-03 0.  1.
         12    1    3    3    0    0 -0.20543912466E+02 -0.20108167307E+02  0.32935073030E+02  0.43716241459E+02  0.00000000000E+00 0. -1.
</event>
<event>
 7    1  0.1501154E-015  0.9000779E+02  0.7816164E-02  0.1186339E+00
        -11   -1    0    0    0    0  0.00000000000E+00  0.00000000000E+00  0.45593999997E+02  0.45594000000E+02  0.51100000000E-03 0. -1.
         11   -1    0    0    0    0 -0.00000000000E+00 -0.00000000000E+00 -0.45593999997E+02  0.45594000000E+02  0.51100000000E-03 0.  1.
    9900012    2    1    2    0    0  0.11607598897E+01 -0.54548606568E-01  0.20627094570E+00  0.90007793757E+02  0.90000055835E+02 0.  0.
         12    1    1    2    0    0 -0.11607598897E+01  0.54548606568E-01 -0.20627094570E+00  0.11802062425E+01  0.00000000000E+00 0. -1.
         11    1    3    3    0    0  0.57710092120E+01  0.76539538750E+01 -0.19653481755E+01  0.97852006090E+01  0.51100000000E-03 0. -1.
        -11    1    3    3    0    0  0.14365736427E+02 -0.39463937584E+02 -0.57546859247E+01  0.42389776634E+02  0.51100000000E-03 0.  1.
         12    1    3    3    0    0 -0.18975985749E+02  0.31755435103E+02  0.79263050459E+01  0.37832816514E+02  0.00000000000E+00 0. -1.
</event>
<event>
 7    1  0.1501154E-015  0.9000764E+02  0.7816164E-02  0.1186339E+00
        -11   -1    0    0    0    0  0.00000000000E+00  0.00000000000E+00  0.45593999997E+02  0.45594000000E+02  0.51100000000E-03 0. -1.
         11   -1    0    0    0    0 -0.00000000000E+00 -0.00000000000E+00 -0.45593999997E+02  0.45594000000E+02  0.51100000000E-03 0.  1.
    9900012    2    1    2    0    0  0.51785409551E+00 -0.95893481451E+00  0.45334879807E+00  0.90007638201E+02  0.89999898226E+02 0.  0.
         12    1    1    2    0    0 -0.51785409551E+00  0.95893481451E+00 -0.45334879807E+00  0.11803617985E+01  0.00000000000E+00 0. -1.
         11    1    3    3    0    0 -0.33582185215E+01  0.12248592571E+01 -0.86561025846E+01  0.93651494410E+01  0.51100000000E-03 0. -1.
        -11    1    3    3    0    0 -0.34502242326E+02 -0.10570761489E+02 -0.92916883048E+01  0.37262329446E+02  0.51100000000E-03 0.  1.
         12    1    3    3    0    0  0.38378314943E+02  0.83869674173E+01  0.18401139687E+02  0.43380159314E+02  0.00000000000E+00 0. -1.
</event>
<event>
 7    1  0.1501154E-015  0.9000765E+02  0.7816164E-02  0.1186339E+00
        -11   -1    0    0    0    0  0.00000000000E+00  0.00000000000E+00  0.45593999997E+02  0.45594000000E+02  0.51100000000E-03 0.  1.
         11   -1    0    0    0    0 -0.00000000000E+00 -0.00000000000E+00 -0.45593999997E+02  0.45594000000E+02  0.51100000000E-03 0. -1.
    9900012    2    1    2    0    0 -0.89621328526E+00 -0.26158229755E+00  0.72221820043E+00  0.90007651458E+02  0.89999911657E+02 0.  0.
         12    1    1    2    0    0  0.89621328526E+00  0.26158229755E+00 -0.72221820043E+00  0.11803485418E+01  0.00000000000E+00 0. -1.
         11    1    3    3    0    0  0.28085930271E+02 -0.29221796412E+02 -0.31006907211E+01  0.40649073150E+02  0.51100000000E-03 0. -1.
        -11    1    3    3    0    0  0.31063944759E+00  0.82398668975E+01 -0.80906318394E+01  0.11552065927E+02  0.51100000000E-03 0.  1.
        -12    1    3    3    0    0 -0.29292783004E+02  0.20720347217E+02  0.11913540761E+02  0.37806512381E+02  0.00000000000E+00 0.  1.
</event>
<event>
 7    1  0.1501154E-015  0.9000761E+02  0.7816164E-02  0.1186339E+00
        -11   -1    0    0    0    0  0.00000000000E+00  0.00000000000E+00  0.45593999997E+02  0.45594000000E+02  0.51100000000E-03 0.  1.
         11   -1    0    0    0    0 -0.00000000000E+00 -0.00000000000E+00 -0.45593999997E+02  0.45594000000E+02  0.51100000000E-03 0. -1.
    9900012    2    1    2    0    0  0.89629381795E+00  0.37616747529E+00  0.66967741869E+00  0.90007613444E+02  0.89999873141E+02 0.  0.
         12    1    1    2    0    0 -0.89629381795E+00 -0.37616747529E+00 -0.66967741869E+00  0.11803865565E+01  0.00000000000E+00 0. -1.
         11    1    3    3    0    0 -0.92633654113E+01  0.30002020170E+01 -0.75295446199E+01  0.12308744588E+02  0.51100000000E-03 0. -1.
        -11    1    3    3    0    0 -0.27971695309E+02  0.28769673930E+01 -0.15853930937E+02  0.32280641355E+02  0.51100000000E-03 0.  1.
         12    1    3    3    0    0  0.38131354538E+02 -0.55010019347E+01  0.24053152976E+02  0.45418227501E+02  0.00000000000E+00 0. -1.
</event>
<event>
 7    1  0.1501154E-015  0.9000770E+02  0.7816164E-02  0.1186339E+00
        -11   -1    0    0    0    0  0.00000000000E+00  0.00000000000E+00  0.45593999997E+02  0.45594000000E+02  0.51100000000E-03 0. -1.
         11   -1    0    0    0    0 -0.00000000000E+00 -0.00000000000E+00 -0.45593999997E+02  0.45594000000E+02  0.51100000000E-03 0.  1.
    9900012    2    1    2    0    0 -0.10783672744E+01 -0.19634469520E-01 -0.47941898792E+00  0.90007701709E+02  0.89999962571E+02 0.  0.
         12    1    1    2    0    0  0.10783672744E+01  0.19634469520E-01  0.47941898792E+00  0.11802982915E+01  0.00000000000E+00 0. -1.
         11    1    3    3    0    0  0.10009220254E+02 -0.43231502774E+01 -0.14583046354E+02  0.18208222309E+02  0.51100000000E-03 0. -1.
        -11    1    3    3    0    0 -0.19433472307E+00 -0.12935027793E+02 -0.24745903184E+02  0.27923331367E+02  0.51100000000E-03 0.  1.
         12    1    3    3    0    0 -0.10893252806E+02  0.17238543601E+02  0.38849530550E+02  0.43876148032E+02  0.00000000000E+00 0. -1.
</event>
<event>
 7    1  0.1501154E-015  0.9000814E+02  0.7816164E-02  0.1186338E+00
        -11   -1    0    0    0    0  0.00000000000E+00  0.00000000000E+00  0.45593999997E+02  0.45594000000E+02  0.51100000000E-03 0.  1.
         11   -1    0    0    0    0 -0.00000000000E+00 -0.00000000000E+00 -0.45593999997E+02  0.45594000000E+02  0.51100000000E-03 0. -1.
    9900012    2    1    2    0    0 -0.23838787797E+00 -0.80001465419E+00  0.83379273714E+00  0.90008142993E+02  0.90000409680E+02 0.  0.
         12    1    1    2    0    0  0.23838787797E+00  0.80001465419E+00 -0.83379273714E+00  0.11798570065E+01  0.00000000000E+00 0. -1.
         11    1    3    3    0    0  0.51058114433E+01  0.82792924273E+01 -0.24470836065E+01  0.10030165105E+02  0.51100000000E-03 0. -1.
        -11    1    3    3    0    0  0.30484155568E+02  0.57662839209E+01 -0.17869848884E+02  0.35803146096E+02  0.51100000000E-03 0.  1.
         12    1    3    3    0    0 -0.35828354889E+02 -0.14845591002E+02  0.21150725228E+02  0.44174831793E+02  0.00000000000E+00 0. -1.
</event>
<event>
 7    1  0.1501154E-015  0.9000767E+02  0.7816164E-02  0.1186339E+00
        -11   -1    0    0    0    0  0.00000000000E+00  0.00000000000E+00  0.45593999997E+02  0.45594000000E+02  0.51100000000E-03 0.  1.
         11   -1    0    0    0    0 -0.00000000000E+00 -0.00000000000E+00 -0.45593999997E+02  0.45594000000E+02  0.51100000000E-03 0. -1.
    9900012    2    1    2    0    0 -0.11952022316E+00 -0.11129917388E+01 -0.37437093362E+00  0.90007665602E+02  0.89999925988E+02 0.  0.
         12    1    1    2    0    0  0.11952022316E+00  0.11129917388E+01  0.37437093362E+00  0.11803343977E+01  0.00000000000E+00 0. -1.
         11    1    3    3    0    0  0.14477885299E+01 -0.21038814252E+01 -0.93693017703E+01  0.97111392021E+01  0.51100000000E-03 0. -1.
        -11    1    3    3    0    0 -0.19096769714E+02 -0.34167518591E+02  0.11878342881E+02  0.40904779305E+02  0.51100000000E-03 0.  1.
         12    1    3    3    0    0  0.17529460960E+02  0.35158408278E+02 -0.28834120439E+01  0.39391747095E+02  0.00000000000E+00 0. -1.
</event>
<event>
 7    1  0.1501154E-015  0.9000772E+02  0.7816164E-02  0.1186339E+00
        -11   -1    0    0    0    0  0.00000000000E+00  0.00000000000E+00  0.45593999997E+02  0.45594000000E+02  0.51100000000E-03 0. -1.
         11   -1    0    0    0    0 -0.00000000000E+00 -0.00000000000E+00 -0.45593999997E+02  0.45594000000E+02  0.51100000000E-03 0.  1.
    9900012    2    1    2    0    0 -0.60431508714E+00 -0.87315473192E+00  0.51522617696E+00  0.90007722946E+02  0.89999984089E+02 0.  0.
         12    1    1    2    0    0  0.60431508714E+00  0.87315473192E+00 -0.51522617695E+00  0.11802770539E+01  0.00000000000E+00 0. -1.
         11    1    3    3    0    0 -0.23827004967E+02 -0.96719622634E+00  0.30372983086E+02  0.38615796458E+02  0.51100000000E-03 0. -1.
        -11    1    3    3    0    0 -0.84083441695E+01  0.16068679575E+01 -0.11282747959E+01  0.86345399751E+01  0.51100000000E-03 0.  1.
        -12    1    3    3    0    0  0.31631034050E+02 -0.15128264631E+01 -0.28729482113E+02  0.42757386513E+02  0.00000000000E+00 0.  1.
</event>
<event>
 7    1  0.1501154E-015  0.9000765E+02  0.7816164E-02  0.1186339E+00
        -11   -1    0    0    0    0  0.00000000000E+00  0.00000000000E+00  0.45593999997E+02  0.45594000000E+02  0.51100000000E-03 0. -1.
         11   -1    0    0    0    0 -0.00000000000E+00 -0.00000000000E+00 -0.45593999997E+02  0.45594000000E+02  0.51100000000E-03 0.  1.
    9900012    2    1    2    0    0  0.11160761154E+01  0.77795819240E-01 -0.37622717558E+00  0.90007650487E+02  0.89999910674E+02 0.  0.
         12    1    1    2    0    0 -0.11160761154E+01 -0.77795819240E-01  0.37622717558E+00  0.11803495128E+01  0.00000000000E+00 0. -1.
         11    1    3    3    0    0 -0.33109181147E+02 -0.51284380338E+01  0.25959946928E+02  0.42384402764E+02  0.51100000000E-03 0. -1.
        -11    1    3    3    0    0  0.95875969030E+01 -0.29174584122E+01  0.83480311495E+00  0.10056364873E+02  0.51100000000E-03 0.  1.
        -12    1    3    3    0    0  0.24637660359E+02  0.81236922652E+01 -0.27170977219E+02  0.37566882850E+02  0.00000000000E+00 0.  1.
</event>
<event>
 7    1  0.1501154E-015  0.9000777E+02  0.7816164E-02  0.1186339E+00
        -11   -1    0    0    0    0  0.00000000000E+00  0.00000000000E+00  0.45593999997E+02  0.45594000000E+02  0.51100000000E-03 0.  1.
         11   -1    0    0    0    0 -0.00000000000E+00 -0.00000000000E+00 -0.45593999997E+02  0.45594000000E+02  0.51100000000E-03 0. -1.
    9900012    2    1    2    0    0  0.47466650054E+00  0.28035548553E+00  0.10435646951E+01  0.90007773429E+02  0.90000035239E+02 0.  0.
         12    1    1    2    0    0 -0.47466650054E+00 -0.28035548553E+00 -0.10435646951E+01  0.11802265706E+01  0.00000000000E+00 0. -1.
         11    1    3    3    0    0 -0.13534716820E+02  0.36192541144E+02 -0.16582155982E+02  0.42048263830E+02  0.51100000000E-03 0. -1.
        -11    1    3    3    0    0 -0.61526373347E+01 -0.65927239112E+01  0.37763137241E+01  0.97764768881E+01  0.51100000000E-03 0.  1.
        -12    1    3    3    0    0  0.20162020655E+02 -0.29319461747E+02  0.13849406953E+02  0.38183032711E+02  0.00000000000E+00 0.  1.
</event>
<event>
 7    1  0.1703023E-015  0.9000770E+02  0.7816164E-02  0.1186339E+00
        -11   -1    0    0    0    0  0.00000000000E+00  0.00000000000E+00  0.45593999997E+02  0.45594000000E+02  0.51100000000E-03 0. -1.
         11   -1    0    0    0    0 -0.00000000000E+00 -0.00000000000E+00 -0.45593999997E+02  0.45594000000E+02  0.51100000000E-03 0.  1.
    9900012    2    1    2    0    0  0.88280006771E+00  0.61800038850E+00 -0.48149478769E+00  0.90007704414E+02  0.89999965312E+02 0.  0.
         12    1    1    2    0    0 -0.88280006771E+00 -0.61800038850E+00  0.48149478769E+00  0.11802955860E+01  0.00000000000E+00 0. -1.
         11    1    3    3    0    0  0.18892061466E+01  0.91587248623E+01 -0.18545674417E+01  0.95336646482E+01  0.51100000000E-03 0. -1.
        -11    1    3    3    0    0 -0.12686972082E+02  0.14034691367E+02 -0.32811472504E+02  0.37875117829E+02  0.51100000000E-03 0.  1.
         12    1    3    3    0    0  0.11680566003E+02 -0.22575415841E+02  0.34184545158E+02  0.42598921937E+02  0.00000000000E+00 0. -1.
</event>
<event>
 7    1  0.1501154E-015  0.9000780E+02  0.7816164E-02  0.1186339E+00
        -11   -1    0    0    0    0  0.00000000000E+00  0.00000000000E+00  0.45593999997E+02  0.45594000000E+02  0.51100000000E-03 0.  1.
         11   -1    0    0    0    0 -0.00000000000E+00 -0.00000000000E+00 -0.45593999997E+02  0.45594000000E+02  0.51100000000E-03 0. -1.
    9900012    2    1    2    0    0 -0.43009701543E+00  0.10392828975E+01  0.35747101851E+00  0.90007797512E+02  0.90000059639E+02 0.  0.
         12    1    1    2    0    0  0.43009701543E+00 -0.10392828975E+01 -0.35747101851E+00  0.11802024881E+01  0.00000000000E+00 0. -1.
         11    1    3    3    0    0 -0.88327726185E+01  0.20492008876E+01 -0.44665515789E+01  0.10107778177E+02  0.51100000000E-03 0. -1.
        -11    1    3    3    0    0  0.85499449695E+01 -0.28102820383E+02  0.30661537633E+02  0.42461747052E+02  0.51100000000E-03 0.  1.
         12    1    3    3    0    0 -0.14726936647E+00  0.27092902393E+02 -0.25837515035E+02  0.37438272283E+02  0.00000000000E+00 0. -1.
</event>
<event>
 7    1  0.1501154E-015  0.9000768E+02  0.7816164E-02  0.1186339E+00
        -11   -1    0    0    0    0  0.00000000000E+00  0.00000000000E+00  0.45593999997E+02  0.45594000000E+02  0.51100000000E-03 0. -1.
         11   -1    0    0    0    0 -0.00000000000E+00 -0.00000000000E+00 -0.45593999997E+02  0.45594000000E+02  0.51100000000E-03 0.  1.
    9900012    2    1    2    0    0 -0.43511370517E+00 -0.74353620699E+00 -0.80683875158E+00  0.90007678519E+02  0.89999939075E+02 0.  0.
         12    1    1    2    0    0  0.43511370517E+00  0.74353620699E+00  0.80683875158E+00  0.11803214810E+01  0.00000000000E+00 0. -1.
         11    1    3    3    0    0  0.25877956764E+02 -0.77188745488E+01 -0.23818188795E+02  0.36007718454E+02  0.51100000000E-03 0. -1.
        -11    1    3    3    0    0  0.51360786706E+01 -0.27370648846E+01  0.20135642975E+02  0.20959841282E+02  0.51100000000E-03 0.  1.
        -12    1    3    3    0    0 -0.31449149139E+02  0.97124032265E+01  0.28757070687E+01  0.33040118783E+02  0.00000000000E+00 0.  1.
</event>
<event>
 7    1  0.1501154E-015  0.9000779E+02  0.7816164E-02  0.1186339E+00
        -11   -1    0    0    0    0  0.00000000000E+00  0.00000000000E+00  0.45593999997E+02  0.45594000000E+02  0.51100000000E-03 0. -1.
         11   -1    0    0    0    0 -0.00000000000E+00 -0.00000000000E+00 -0.45593999997E+02  0.45594000000E+02  0.51100000000E-03 0.  1.
    9900012    2    1    2    0    0 -0.32378896500E+00  0.87607189202E+00  0.72149513045E+00  0.90007789647E+02  0.90000051670E+02 0.  0.
         12    1    1    2    0    0  0.32378896500E+00 -0.87607189202E+00 -0.72149513045E+00  0.11802103529E+01  0.00000000000E+00 0. -1.
         11    1    3    3    0    0 -0.72522499770E+01 -0.50254269917E+00  0.48821060568E+01  0.87568623778E+01  0.51100000000E-03 0. -1.
        -11    1    3    3    0    0 -0.18346724758E+02  0.48608032983E+01 -0.35851728443E+02  0.40565701654E+02  0.51100000000E-03 0.  1.
         12    1    3    3    0    0  0.25275185770E+02 -0.34821887071E+01  0.31691117517E+02  0.40685225615E+02  0.00000000000E+00 0. -1.
</event>
<event>
 7    1  0.1501154E-015  0.9000765E+02  0.7816164E-02  0.1186339E+00
        -11   -1    0    0    0    0  0.00000000000E+00  0.00000000000E+00  0.45593999997E+02  0.45594000000E+02  0.51100000000E-03 0.  1.
         11   -1    0    0    0    0 -0.00000000000E+00 -0.00000000000E+00 -0.45593999997E+02  0.45594000000E+02  0.51100000000E-03 0. -1.
    9900012    2    1    2    0    0 -0.16742712085E+00  0.11502215610E+01  0.20539213930E+00  0.90007649454E+02  0.89999909627E+02 0.  0.
         12    1    1    2    0    0  0.16742712085E+00 -0.11502215610E+01 -0.20539213930E+00  0.11803505458E+01  0.00000000000E+00 0. -1.
         11    1    3    3    0    0 -0.27898174789E+01 -0.58569847424E+01  0.84318620779E+01  0.10638780485E+02  0.51100000000E-03 0. -1.
        -11    1    3    3    0    0  0.20726450428E+02 -0.29689177044E+02  0.45699685419E+01  0.36495446204E+02  0.51100000000E-03 0.  1.
         12    1    3    3    0    0 -0.18104060070E+02  0.36696383348E+02 -0.12796438481E+02  0.42873422765E+02  0.00000000000E+00 0. -1.
</event>
<event>
 7    1  0.1501154E-015  0.9000767E+02  0.7816164E-02  0.1186339E+00
        -11   -1    0    0    0    0  0.00000000000E+00  0.00000000000E+00  0.45593999997E+02  0.45594000000E+02  0.51100000000E-03 0. -1.
         11   -1    0    0    0    0 -0.00000000000E+00 -0.00000000000E+00 -0.45593999997E+02  0.45594000000E+02  0.51100000000E-03 0.  1.
    9900012    2    1    2    0    0 -0.42359159247E+00  0.10829432480E+01  0.20242856425E+00  0.90007672402E+02  0.89999932877E+02 0.  0.
         12    1    1    2    0    0  0.42359159247E+00 -0.10829432480E+01 -0.20242856425E+00  0.11803275983E+01  0.00000000000E+00 0. -1.
         11    1    3    3    0    0 -0.94398964317E+01  0.31805689261E+02 -0.11948616213E+02  0.35263053522E+02  0.51100000000E-03 0. -1.
        -11    1    3    3    0    0 -0.52886610685E+01  0.51001599947E+01 -0.83002514393E+01  0.11084933111E+02  0.51100000000E-03 0.  1.
        -12    1    3    3    0    0  0.14304965908E+02 -0.35822906008E+02  0.20451296216E+02  0.43659685768E+02  0.00000000000E+00 0.  1.
</event>
<event>
 7    1  0.1501154E-015  0.9000766E+02  0.7816164E-02  0.1186339E+00
        -11   -1    0    0    0    0  0.00000000000E+00  0.00000000000E+00  0.45593999997E+02  0.45594000000E+02  0.51100000000E-03 0.  1.
         11   -1    0    0    0    0 -0.00000000000E+00 -0.00000000000E+00 -0.45593999997E+02  0.45594000000E+02  0.51100000000E-03 0. -1.
    9900012    2    1    2    0    0  0.72932633737E+00  0.90591461016E+00 -0.20148471899E+00  0.90007663489E+02  0.89999923847E+02 0.  0.
         12    1    1    2    0    0 -0.72932633737E+00 -0.90591461016E+00  0.20148471899E+00  0.11803365110E+01  0.00000000000E+00 0. -1.
         11    1    3    3    0    0  0.32423050540E+02  0.10209137248E+02  0.17226773241E+02  0.38108298390E+02  0.51100000000E-03 0. -1.
        -11    1    3    3    0    0  0.40566160817E+01  0.81118147830E+01 -0.23388952321E+01  0.93663282174E+01  0.51100000000E-03 0.  1.
        -12    1    3    3    0    0 -0.35750340284E+02 -0.17415037421E+02 -0.15089362728E+02  0.42533036881E+02  0.00000000000E+00 0.  1.
</event>
<event>
 7    1  0.1501154E-015  0.9000766E+02  0.7816164E-02  0.1186339E+00
        -11   -1    0    0    0    0  0.00000000000E+00  0.00000000000E+00  0.45593999997E+02  0.45594000000E+02  0.51100000000E-03 0. -1.
         11   -1    0    0    0    0 -0.00000000000E+00 -0.00000000000E+00 -0.45593999997E+02  0.45594000000E+02  0.51100000000E-03 0.  1.
    9900012    2    1    2    0    0  0.15629620429E+00 -0.61453619635E+00 -0.99554785061E+00  0.90007661590E+02  0.89999921923E+02 0.  0.
         12    1    1    2    0    0 -0.15629620429E+00  0.61453619635E+00  0.99554785061E+00  0.11803384104E+01  0.00000000000E+00 0. -1.
         11    1    3    3    0    0 -0.26976439723E+02 -0.21410804456E+02  0.12971250519E+02  0.36802230746E+02  0.51100000000E-03 0. -1.
        -11    1    3    3    0    0 -0.37988504552E+01  0.12710577527E+02  0.69733257033E+01  0.14987238488E+02  0.51100000000E-03 0.  1.
        -12    1    3    3    0    0  0.30931586383E+02  0.80856907321E+01 -0.20940124073E+02  0.38218192356E+02  0.00000000000E+00 0.  1.
</event>
<event>
 7    1  0.1501154E-015  0.9000763E+02  0.7816164E-02  0.1186339E+00
        -11   -1    0    0    0    0  0.00000000000E+00  0.00000000000E+00  0.45593999997E+02  0.45594000000E+02  0.51100000000E-03 0.  1.
         11   -1    0    0    0    0 -0.00000000000E+00 -0.00000000000E+00 -0.45593999997E+02  0.45594000000E+02  0.51100000000E-03 0. -1.
    9900012    2    1    2    0    0 -0.64015798279E-01 -0.89787124963E+00  0.76354471307E+00  0.90007630849E+02  0.89999890776E+02 0.  0.
         12    1    1    2    0    0  0.64015798279E-01  0.89787124963E+00 -0.76354471307E+00  0.11803691508E+01  0.00000000000E+00 0. -1.
         11    1    3    3    0    0  0.26988164860E+01  0.17610758383E+02 -0.42850919856E+00  0.17821505033E+02  0.51100000000E-03 0. -1.
        -11    1    3    3    0    0  0.10953681623E+02  0.24592589354E+02 -0.44425433114E+00  0.26925377517E+02  0.51100000000E-03 0.  1.
        -12    1    3    3    0    0 -0.13716513907E+02 -0.43101218987E+02  0.16363082428E+01  0.45260748299E+02  0.00000000000E+00 0.  1.
</event>
<event>
 7    1  0.1501154E-015  0.9000858E+02  0.7816164E-02  0.1186337E+00
        -11   -1    0    0    0    0  0.00000000000E+00  0.00000000000E+00  0.45593999997E+02  0.45594000000E+02  0.51100000000E-03 0.  1.
         11   -1    0    0    0    0 -0.00000000000E+00 -0.00000000000E+00 -0.45593999997E+02  0.45594000000E+02  0.51100000000E-03 0. -1.
    9900012    2    1    2    0    0  0.40191417293E+00 -0.70687745082E+00  0.85429346963E+00  0.90008581472E+02  0.90000853943E+02 0.  0.
         12    1    1    2    0    0 -0.40191417293E+00  0.70687745082E+00 -0.85429346963E+00  0.11794185284E+01  0.00000000000E+00 0. -1.
         11    1    3    3    0    0  0.39450512468E+02  0.75487946040E+01 -0.59431383110E+01  0.40603548209E+02  0.51100000000E-03 0. -1.
        -11    1    3    3    0    0 -0.34758108452E+01  0.85216099967E+01  0.38113074951E+01  0.99611828139E+01  0.51100000000E-03 0.  1.
        -12    1    3    3    0    0 -0.35572787449E+02 -0.16777282052E+02  0.29861242855E+01  0.39443850449E+02  0.00000000000E+00 0.  1.
</event>
<event>
 7    1  0.1501154E-015  0.9000777E+02  0.7816164E-02  0.1186339E+00
        -11   -1    0    0    0    0  0.00000000000E+00  0.00000000000E+00  0.45593999997E+02  0.45594000000E+02  0.51100000000E-03 0. -1.
         11   -1    0    0    0    0 -0.00000000000E+00 -0.00000000000E+00 -0.45593999997E+02  0.45594000000E+02  0.51100000000E-03 0.  1.
    9900012    2    1    2    0    0 -0.85893780141E-01  0.97436656036E+00 -0.66043043582E+00  0.90007772778E+02  0.90000034578E+02 0.  0.
         12    1    1    2    0    0  0.85893780141E-01 -0.97436656036E+00  0.66043043582E+00  0.11802272222E+01  0.00000000000E+00 0. -1.
         11    1    3    3    0    0  0.66628960214E+01 -0.16313167716E+01 -0.79407797811E+01  0.10493396094E+02  0.51100000000E-03 0. -1.
        -11    1    3    3    0    0  0.48408385335E+01 -0.36980441540E+02 -0.15652660733E+01  0.37328766821E+02  0.51100000000E-03 0.  1.
         12    1    3    3    0    0 -0.11589628335E+02  0.39586124872E+02  0.88456154186E+01  0.42185609863E+02  0.00000000000E+00 0. -1.
</event>
<event>
 7    1  0.1501154E-015  0.9000776E+02  0.7816164E-02  0.1186339E+00
        -11   -1    0    0    0    0  0.00000000000E+00  0.00000000000E+00  0.45593999997E+02  0.45594000000E+02  0.51100000000E-03 0.  1.
         11   -1    0    0    0    0 -0.00000000000E+00 -0.00000000000E+00 -0.45593999997E+02  0.45594000000E+02  0.51100000000E-03 0. -1.
    9900012    2    1    2    0    0  0.34635662980E-02  0.35739770092E+00  0.11248252648E+01  0.90007755538E+02  0.90000017111E+02 0.  0.
         12    1    1    2    0    0 -0.34635662980E-02 -0.35739770092E+00 -0.11248252648E+01  0.11802444616E+01  0.00000000000E+00 0. -1.
         11    1    3    3    0    0  0.95467225768E+01  0.43824130563E+01 -0.52948850525E+01  0.11763556611E+02  0.51100000000E-03 0. -1.
        -11    1    3    3    0    0 -0.25898490062E+02 -0.33595971700E+02 -0.46763120028E+01  0.42676562610E+02  0.51100000000E-03 0.  1.
         12    1    3    3    0    0  0.16355231052E+02  0.29570956345E+02  0.11096022320E+02  0.35567636318E+02  0.00000000000E+00 0. -1.
</event>
<event>
 7    1  0.1501154E-015  0.9000768E+02  0.7816164E-02  0.1186339E+00
        -11   -1    0    0    0    0  0.00000000000E+00  0.00000000000E+00  0.45593999997E+02  0.45594000000E+02  0.51100000000E-03 0. -1.
         11   -1    0    0    0    0 -0.00000000000E+00 -0.00000000000E+00 -0.45593999997E+02  0.45594000000E+02  0.51100000000E-03 0.  1.
    9900012    2    1    2    0    0  0.25340137222E+00 -0.15368576556E+00 -0.11425123151E+01  0.90007675485E+02  0.89999936002E+02 0.  0.
         12    1    1    2    0    0 -0.25340137222E+00  0.15368576556E+00  0.11425123151E+01  0.11803245148E+01  0.00000000000E+00 0. -1.
         11    1    3    3    0    0  0.34368742708E+02 -0.18646476099E+02  0.16440750217E+02  0.42416975543E+02  0.51100000000E-03 0. -1.
        -11    1    3    3    0    0 -0.58479622324E+00  0.20828176351E+01 -0.90394653812E+01  0.92947324094E+01  0.51100000000E-03 0.  1.
        -12    1    3    3    0    0 -0.33530545113E+02  0.16409972698E+02 -0.85437971510E+01  0.38295967533E+02  0.00000000000E+00 0.  1.
</event>
<event>
 7    1  0.1501154E-015  0.9000786E+02  0.7816164E-02  0.1186339E+00
        -11   -1    0    0    0    0  0.00000000000E+00  0.00000000000E+00  0.45593999997E+02  0.45594000000E+02  0.51100000000E-03 0. -1.
         11   -1    0    0    0    0 -0.00000000000E+00 -0.00000000000E+00 -0.45593999997E+02  0.45594000000E+02  0.51100000000E-03 0.  1.
    9900012    2    1    2    0    0 -0.11494549901E+01 -0.26681244425E+00  0.16955151231E-01  0.90007863088E+02  0.90000126080E+02 0.  0.
         12    1    1    2    0    0  0.11494549901E+01  0.26681244425E+00 -0.16955151231E-01  0.11801369123E+01  0.00000000000E+00 0. -1.
         11    1    3    3    0    0 -0.40161914874E+01  0.81487866369E+01 -0.35488441602E+01  0.97532975373E+01  0.51100000000E-03 0. -1.
        -11    1    3    3    0    0  0.27703774270E+02 -0.17343847687E+02  0.28930178393E+02  0.43649322829E+02  0.51100000000E-03 0.  1.
         12    1    3    3    0    0 -0.24837037773E+02  0.89282486054E+01 -0.25364379081E+02  0.36605242721E+02  0.00000000000E+00 0. -1.
</event>
<event>
 7    1  0.1501154E-015  0.9000774E+02  0.7816164E-02  0.1186339E+00
        -11   -1    0    0    0    0  0.00000000000E+00  0.00000000000E+00  0.45593999997E+02  0.45594000000E+02  0.51100000000E-03 0.  1.
         11   -1    0    0    0    0 -0.00000000000E+00 -0.00000000000E+00 -0.45593999997E+02  0.45594000000E+02  0.51100000000E-03 0. -1.
    9900012    2    1    2    0    0 -0.20693885567E+00 -0.91128403569E+00 -0.72093863285E+00  0.90007739522E+02  0.90000000884E+02 0.  0.
         12    1    1    2    0    0  0.20693885567E+00  0.91128403569E+00  0.72093863285E+00  0.11802604780E+01  0.00000000000E+00 0. -1.
         11    1    3    3    0    0  0.33719456072E+02  0.14843141287E+02 -0.49567866224E+01  0.37173785050E+02  0.51100000000E-03 0. -1.
        -11    1    3    3    0    0  0.73116178447E+01 -0.60023915958E+01  0.44587342635E+01  0.10457952566E+02  0.51100000000E-03 0.  1.
        -12    1    3    3    0    0 -0.41238012773E+02 -0.97520337269E+01 -0.22288627387E+00  0.42376001906E+02  0.00000000000E+00 0.  1.
</event>
<event>
 7    1  0.1501154E-015  0.9000774E+02  0.7816164E-02  0.1186339E+00
        -11   -1    0    0    0    0  0.00000000000E+00  0.00000000000E+00  0.45593999997E+02  0.45594000000E+02  0.51100000000E-03 0.  1.
         11   -1    0    0    0    0 -0.00000000000E+00 -0.00000000000E+00 -0.45593999997E+02  0.45594000000E+02  0.51100000000E-03 0. -1.
    9900012    2    1    2    0    0  0.69317763366E+00 -0.18158425757E+00  0.93783998114E+00  0.90007740747E+02  0.90000002125E+02 0.  0.
         12    1    1    2    0    0 -0.69317763366E+00  0.18158425757E+00 -0.93783998114E+00  0.11802592531E+01  0.00000000000E+00 0. -1.
         11    1    3    3    0    0 -0.36249000820E+01 -0.78713210397E+01 -0.45845839741E+01  0.98038770897E+01  0.51100000000E-03 0. -1.
        -11    1    3    3    0    0  0.23126085111E+02  0.29715496182E+02 -0.19070533751E+02  0.42207958772E+02  0.51100000000E-03 0.  1.
         12    1    3    3    0    0 -0.18808007395E+02 -0.22025759399E+02  0.24592957706E+02  0.37995904885E+02  0.00000000000E+00 0. -1.
</event>
<event>
 7    1  0.1501154E-015  0.9000779E+02  0.7816164E-02  0.1186339E+00
        -11   -1    0    0    0    0  0.00000000000E+00  0.00000000000E+00  0.45593999997E+02  0.45594000000E+02  0.51100000000E-03 0.  1.
         11   -1    0    0    0    0 -0.00000000000E+00 -0.00000000000E+00 -0.45593999997E+02  0.45594000000E+02  0.51100000000E-03 0. -1.
    9900012    2    1    2    0    0 -0.72576569365E+00  0.78645624841E+00  0.49763772119E+00  0.90007791301E+02  0.90000053346E+02 0.  0.
         12    1    1    2    0    0  0.72576569365E+00 -0.78645624841E+00 -0.49763772119E+00  0.11802086995E+01  0.00000000000E+00 0. -1.
         11    1    3    3    0    0 -0.18975957682E+02  0.20275401534E+02  0.23660568006E+02  0.36482891277E+02  0.51100000000E-03 0. -1.
        -11    1    3    3    0    0 -0.14859077115E+01  0.64699287002E+01  0.66102048246E+01  0.93681752330E+01  0.51100000000E-03 0.  1.
        -12    1    3    3    0    0  0.19736099700E+02 -0.25958873986E+02 -0.29773135109E+02  0.44156724790E+02  0.00000000000E+00 0.  1.
</event>
<event>
 7    1  0.1501154E-015  0.9000774E+02  0.7816164E-02  0.1186339E+00
        -11   -1    0    0    0    0  0.00000000000E+00  0.00000000000E+00  0.45593999997E+02  0.45594000000E+02  0.51100000000E-03 0.  1.
         11   -1    0    0    0    0 -0.00000000000E+00 -0.00000000000E+00 -0.45593999997E+02  0.45594000000E+02  0.51100000000E-03 0. -1.
    9900012    2    1    2    0    0 -0.61868029239E+00  0.26951641244E+00 -0.96830321859E+00  0.90007739214E+02  0.90000000571E+02 0.  0.
         12    1    1    2    0    0  0.61868029239E+00 -0.26951641244E+00  0.96830321859E+00  0.11802607864E+01  0.00000000000E+00 0. -1.
         11    1    3    3    0    0 -0.57252428768E+01 -0.11595982377E+02 -0.37782636786E+02  0.39934607248E+02  0.51100000000E-03 0. -1.
        -11    1    3    3    0    0  0.85097663512E+01  0.46774059268E+01 -0.24472427456E+01  0.10014152329E+02  0.51100000000E-03 0.  1.
        -12    1    3    3    0    0 -0.34032037668E+01  0.71880928630E+01  0.39261576313E+02  0.40058979636E+02  0.00000000000E+00 0.  1.
</event>
<event>
 7    1  0.1501154E-015  0.9000769E+02  0.7816164E-02  0.1186339E+00
        -11   -1    0    0    0    0  0.00000000000E+00  0.00000000000E+00  0.45593999997E+02  0.45594000000E+02  0.51100000000E-03 0. -1.
         11   -1    0    0    0    0 -0.00000000000E+00 -0.00000000000E+00 -0.45593999997E+02  0.45594000000E+02  0.51100000000E-03 0.  1.
    9900012    2    1    2    0    0  0.93058925714E+00 -0.71531261852E+00 -0.12434804917E+00  0.90007690318E+02  0.89999951030E+02 0.  0.
         12    1    1    2    0    0 -0.93058925714E+00  0.71531261852E+00  0.12434804917E+00  0.11803096818E+01  0.00000000000E+00 0. -1.
         11    1    3    3    0    0 -0.29161050480E+02 -0.22285087937E+02  0.87660744025E+01  0.37733752400E+02  0.51100000000E-03 0. -1.
        -11    1    3    3    0    0  0.29758998885E+01 -0.67837344087E+01  0.67662168604E+01  0.10032782442E+02  0.51100000000E-03 0.  1.
        -12    1    3    3    0    0  0.27115739849E+02  0.28353509727E+02 -0.15656639312E+02  0.42241155476E+02  0.00000000000E+00 0.  1.
</event>
<event>
 7    1  0.1501154E-015  0.9000773E+02  0.7816164E-02  0.1186339E+00
        -11   -1    0    0    0    0  0.00000000000E+00  0.00000000000E+00  0.45593999997E+02  0.45594000000E+02  0.51100000000E-03 0. -1.
         11   -1    0    0    0    0 -0.00000000000E+00 -0.00000000000E+00 -0.45593999997E+02  0.45594000000E+02  0.51100000000E-03 0.  1.
    9900012    2    1    2    0    0  0.56300046054E+00  0.10307733423E+01  0.11654678833E+00  0.90007726152E+02  0.89999987337E+02 0.  0.
         12    1    1    2    0    0 -0.56300046054E+00 -0.10307733423E+01 -0.11654678833E+00  0.11802738477E+01  0.00000000000E+00 0. -1.
         11    1    3    3    0    0 -0.70099790975E+01  0.11073201226E+01 -0.71646612111E+01  0.10084559253E+02  0.51100000000E-03 0. -1.
        -11    1    3    3    0    0  0.68005018069E+01 -0.84167652100E+00 -0.35990893596E+02  0.36637408018E+02  0.51100000000E-03 0.  1.
         12    1    3    3    0    0  0.77247775110E+00  0.76512974065E+00  0.43272101595E+02  0.43285758881E+02  0.00000000000E+00 0. -1.
</event>
<event>
 7    1  0.1501154E-015  0.9000792E+02  0.7816164E-02  0.1186339E+00
        -11   -1    0    0    0    0  0.00000000000E+00  0.00000000000E+00  0.45593999997E+02  0.45594000000E+02  0.51100000000E-03 0.  1.
         11   -1    0    0    0    0 -0.00000000000E+00 -0.00000000000E+00 -0.45593999997E+02  0.45594000000E+02  0.51100000000E-03 0. -1.
    9900012    2    1    2    0    0 -0.32452119348E+00  0.89545121115E+00  0.69673990021E+00  0.90007918068E+02  0.90000181787E+02 0.  0.
         12    1    1    2    0    0  0.32452119348E+00 -0.89545121115E+00 -0.69673990021E+00  0.11800819315E+01  0.00000000000E+00 0. -1.
         11    1    3    3    0    0  0.12913989535E+02 -0.20827694078E+01 -0.30695274468E+01  0.13436184470E+02  0.51100000000E-03 0. -1.
        -11    1    3    3    0    0  0.69165966996E+01 -0.32003178186E+02  0.12878565338E+02  0.35183805498E+02  0.51100000000E-03 0.  1.
         12    1    3    3    0    0 -0.20155107428E+02  0.34981398804E+02 -0.91122979912E+01  0.41387928100E+02  0.00000000000E+00 0. -1.
</event>
<event>
 7    1  0.1501154E-015  0.9000770E+02  0.7816164E-02  0.1186339E+00
        -11   -1    0    0    0    0  0.00000000000E+00  0.00000000000E+00  0.45593999997E+02  0.45594000000E+02  0.51100000000E-03 0.  1.
         11   -1    0    0    0    0 -0.00000000000E+00 -0.00000000000E+00 -0.45593999997E+02  0.45594000000E+02  0.51100000000E-03 0. -1.
    9900012    2    1    2    0    0 -0.85435134020E+00 -0.96426026469E-01  0.80863221765E+00  0.90007703319E+02  0.89999964203E+02 0.  0.
         12    1    1    2    0    0  0.85435134020E+00  0.96426026469E-01 -0.80863221765E+00  0.11802966807E+01  0.00000000000E+00 0. -1.
         11    1    3    3    0    0  0.50202365384E+01  0.54154263064E+01 -0.31823390951E+02  0.32668912269E+02  0.51100000000E-03 0. -1.
        -11    1    3    3    0    0  0.45862130263E+01  0.19063975793E+02  0.19196658039E+02  0.27440484746E+02  0.51100000000E-03 0.  1.
        -12    1    3    3    0    0 -0.10460800905E+02 -0.24575828126E+02  0.13435365129E+02  0.29898306304E+02  0.00000000000E+00 0.  1.
</event>
<event>
 7    1  0.1501154E-015  0.9000770E+02  0.7816164E-02  0.1186339E+00
        -11   -1    0    0    0    0  0.00000000000E+00  0.00000000000E+00  0.45593999997E+02  0.45594000000E+02  0.51100000000E-03 0.  1.
         11   -1    0    0    0    0 -0.00000000000E+00 -0.00000000000E+00 -0.45593999997E+02  0.45594000000E+02  0.51100000000E-03 0. -1.
    9900012    2    1    2    0    0  0.69813440515E+00  0.95010183524E+00  0.54999329002E-01  0.90007699161E+02  0.89999959990E+02 0.  0.
         12    1    1    2    0    0 -0.69813440515E+00 -0.95010183524E+00 -0.54999329002E-01  0.11803008393E+01  0.00000000000E+00 0. -1.
         11    1    3    3    0    0 -0.15368120949E+01 -0.78794820522E+01  0.57490866379E+01  0.98742101587E+01  0.51100000000E-03 0. -1.
        -11    1    3    3    0    0  0.42735688182E+01 -0.33665702844E+02  0.90244018455E+01  0.35115278261E+02  0.51100000000E-03 0.  1.
         12    1    3    3    0    0 -0.20386223182E+01  0.42495286731E+02 -0.14718489154E+02  0.45018210741E+02  0.00000000000E+00 0. -1.
</event>
<event>
 7    1  0.1501154E-015  0.9000769E+02  0.7816164E-02  0.1186339E+00
        -11   -1    0    0    0    0  0.00000000000E+00  0.00000000000E+00  0.45593999997E+02  0.45594000000E+02  0.51100000000E-03 0.  1.
         11   -1    0    0    0    0 -0.00000000000E+00 -0.00000000000E+00 -0.45593999997E+02  0.45594000000E+02  0.51100000000E-03 0. -1.
    9900012    2    1    2    0    0 -0.61742880284E-01  0.60337527915E+00  0.10125523880E+01  0.90007688071E+02  0.89999948754E+02 0.  0.
         12    1    1    2    0    0  0.61742880284E-01 -0.60337527915E+00 -0.10125523880E+01  0.11803119288E+01  0.00000000000E+00 0. -1.
         11    1    3    3    0    0  0.35338789275E+01  0.35599147602E+01  0.81868619381E+01  0.96013541769E+01  0.51100000000E-03 0. -1.
        -11    1    3    3    0    0  0.12997075691E+02  0.26937230669E+02  0.20633457592E+02  0.36335629141E+02  0.51100000000E-03 0.  1.
         12    1    3    3    0    0 -0.16592697499E+02 -0.29893770150E+02 -0.27807767142E+02  0.44070704753E+02  0.00000000000E+00 0. -1.
</event>
<event>
 7    1  0.1501154E-015  0.9000773E+02  0.7816164E-02  0.1186339E+00
        -11   -1    0    0    0    0  0.00000000000E+00  0.00000000000E+00  0.45593999997E+02  0.45594000000E+02  0.51100000000E-03 0. -1.
         11   -1    0    0    0    0 -0.00000000000E+00 -0.00000000000E+00 -0.45593999997E+02  0.45594000000E+02  0.51100000000E-03 0.  1.
    9900012    2    1    2    0    0 -0.33879246589E+00  0.64034482168E-01 -0.11287805930E+01  0.90007734616E+02  0.89999995913E+02 0.  0.
         12    1    1    2    0    0  0.33879246589E+00 -0.64034482168E-01  0.11287805930E+01  0.11802653841E+01  0.00000000000E+00 0. -1.
         11    1    3    3    0    0  0.70958891690E+00  0.79452964541E+01  0.81313337257E+01  0.11390778753E+02  0.51100000000E-03 0. -1.
        -11    1    3    3    0    0  0.24977613852E+02  0.13378998776E+02 -0.28254258732E+02  0.40014771507E+02  0.51100000000E-03 0.  1.
         12    1    3    3    0    0 -0.26025995235E+02 -0.21260260748E+02  0.18994144414E+02  0.38602184356E+02  0.00000000000E+00 0. -1.
</event>
<event>
 7    1  0.1501154E-015  0.9000772E+02  0.7816164E-02  0.1186339E+00
        -11   -1    0    0    0    0  0.00000000000E+00  0.00000000000E+00  0.45593999997E+02  0.45594000000E+02  0.51100000000E-03 0.  1.
         11   -1    0    0    0    0 -0.00000000000E+00 -0.00000000000E+00 -0.45593999997E+02  0.45594000000E+02  0.51100000000E-03 0. -1.
    9900012    2    1    2    0    0  0.10336147174E+01  0.56890254227E+00  0.32329874579E-01  0.90007722614E+02  0.89999983753E+02 0.  0.
         12    1    1    2    0    0 -0.10336147174E+01 -0.56890254227E+00 -0.32329874579E-01  0.11802773858E+01  0.00000000000E+00 0. -1.
         11    1    3    3    0    0  0.83616429087E+01  0.36739576592E+02  0.39307878763E+01  0.37883567070E+02  0.51100000000E-03 0. -1.
        -11    1    3    3    0    0  0.88237528542E+01  0.20931365494E+01  0.38889133300E+01  0.98672935598E+01  0.51100000000E-03 0.  1.
        -12    1    3    3    0    0 -0.16151781045E+02 -0.38263810600E+02 -0.77873713317E+01  0.42256861985E+02  0.00000000000E+00 0.  1.
</event>
<event>
 7    1  0.2370384E-015  0.9000773E+02  0.7816164E-02  0.1186339E+00
        -11   -1    0    0    0    0  0.00000000000E+00  0.00000000000E+00  0.45593999997E+02  0.45594000000E+02  0.51100000000E-03 0. -1.
         11   -1    0    0    0    0 -0.00000000000E+00 -0.00000000000E+00 -0.45593999997E+02  0.45594000000E+02  0.51100000000E-03 0.  1.
    9900012    2    1    2    0    0  0.73976545262E+00  0.77861034933E-01 -0.91636611544E+00  0.90007727945E+02  0.89999989154E+02 0.  0.
         12    1    1    2    0    0 -0.73976545262E+00 -0.77861034933E-01  0.91636611544E+00  0.11802720547E+01  0.00000000000E+00 0. -1.
         11    1    3    3    0    0 -0.83436275355E+01  0.30879512558E+01  0.31672742424E+01  0.94436851810E+01  0.51100000000E-03 0. -1.
        -11    1    3    3    0    0 -0.25156423108E+01  0.21612245588E+02 -0.33843819159E+02  0.40234583521E+02  0.51100000000E-03 0.  1.
         12    1    3    3    0    0  0.11599035299E+02 -0.24622335808E+02  0.29760178802E+02  0.40329459243E+02  0.00000000000E+00 0. -1.
</event>
<event>
 7    1  0.1501154E-015  0.9000771E+02  0.7816164E-02  0.1186339E+00
        -11   -1    0    0    0    0  0.00000000000E+00  0.00000000000E+00  0.45593999997E+02  0.45594000000E+02  0.51100000000E-03 0. -1.
         11   -1    0    0    0    0 -0.00000000000E+00 -0.00000000000E+00 -0.45593999997E+02  0.45594000000E+02  0.51100000000E-03 0.  1.
    9900012    2    1    2    0    0  0.11482783659E+01  0.19467062719E+00  0.19140116600E+00  0.90007714329E+02  0.89999975358E+02 0.  0.
         12    1    1    2    0    0 -0.11482783659E+01 -0.19467062719E+00 -0.19140116600E+00  0.11802856709E+01  0.00000000000E+00 0. -1.
         11    1    3    3    0    0 -0.32582639594E+01 -0.70361393313E+01  0.97134047435E+01  0.12428747833E+02  0.51100000000E-03 0. -1.
        -11    1    3    3    0    0 -0.33811463880E+01  0.41589680032E+02 -0.63296289724E+01  0.42204239588E+02  0.51100000000E-03 0.  1.
         12    1    3    3    0    0  0.77876887133E+01 -0.34358870073E+02 -0.31923746051E+01  0.35374726908E+02  0.00000000000E+00 0. -1.
</event>
<event>
 7    1  0.1501154E-015  0.9000754E+02  0.7816164E-02  0.1186339E+00
        -11   -1    0    0    0    0  0.00000000000E+00  0.00000000000E+00  0.45593999997E+02  0.45594000000E+02  0.51100000000E-03 0.  1.
         11   -1    0    0    0    0 -0.00000000000E+00 -0.00000000000E+00 -0.45593999997E+02  0.45594000000E+02  0.51100000000E-03 0. -1.
    9900012    2    1    2    0    0  0.87695907508E+00  0.73023087487E+00  0.30196183360E+00  0.90007544453E+02  0.89999803239E+02 0.  0.
         12    1    1    2    0    0 -0.87695907508E+00 -0.73023087487E+00 -0.30196183360E+00  0.11804555472E+01  0.00000000000E+00 0. -1.
         11    1    3    3    0    0 -0.18146735930E+02 -0.38660875621E+02 -0.33645334860E+01  0.42840254604E+02  0.51100000000E-03 0. -1.
        -11    1    3    3    0    0  0.90843551789E+01  0.36808981597E+01  0.23334765841E+01  0.10075695187E+02  0.51100000000E-03 0.  1.
        -12    1    3    3    0    0  0.99393398260E+01  0.35710208336E+02  0.13330187354E+01  0.37091594662E+02  0.00000000000E+00 0.  1.
</event>
<event>
 7    1  0.1501154E-015  0.9000784E+02  0.7816164E-02  0.1186339E+00
        -11   -1    0    0    0    0  0.00000000000E+00  0.00000000000E+00  0.45593999997E+02  0.45594000000E+02  0.51100000000E-03 0.  1.
         11   -1    0    0    0    0 -0.00000000000E+00 -0.00000000000E+00 -0.45593999997E+02  0.45594000000E+02  0.51100000000E-03 0. -1.
    9900012    2    1    2    0    0 -0.98774877231E+00  0.40902350716E+00  0.49981816521E+00  0.90007844898E+02  0.90000107651E+02 0.  0.
         12    1    1    2    0    0  0.98774877231E+00 -0.40902350716E+00 -0.49981816521E+00  0.11801551020E+01  0.00000000000E+00 0. -1.
         11    1    3    3    0    0  0.34344770165E+02  0.57794237028E+01  0.21615495883E+02  0.40990177342E+02  0.51100000000E-03 0. -1.
        -11    1    3    3    0    0 -0.89019460153E+01  0.22913247220E+01  0.55179241866E+01  0.10721114654E+02  0.51100000000E-03 0.  1.
        -12    1    3    3    0    0 -0.26430572922E+02 -0.76617249176E+01 -0.26633601904E+02  0.38296552901E+02  0.00000000000E+00 0.  1.
</event>
<event>
 7    1  0.1501154E-015  0.9000771E+02  0.7816164E-02  0.1186339E+00
        -11   -1    0    0    0    0  0.00000000000E+00  0.00000000000E+00  0.45593999997E+02  0.45594000000E+02  0.51100000000E-03 0.  1.
         11   -1    0    0    0    0 -0.00000000000E+00 -0.00000000000E+00 -0.45593999997E+02  0.45594000000E+02  0.51100000000E-03 0. -1.
    9900012    2    1    2    0    0 -0.10224017317E+01 -0.39175086724E+00  0.44080264564E+00  0.90007711469E+02  0.89999972461E+02 0.  0.
         12    1    1    2    0    0  0.10224017317E+01  0.39175086724E+00 -0.44080264564E+00  0.11802885306E+01  0.00000000000E+00 0. -1.
         11    1    3    3    0    0  0.10407208381E+02 -0.37531558631E+02 -0.16814231792E+02  0.42422237925E+02  0.51100000000E-03 0. -1.
        -11    1    3    3    0    0 -0.45786641921E-01  0.13033279691E+02 -0.38426183640E+01  0.13588016487E+02  0.51100000000E-03 0.  1.
        -12    1    3    3    0    0 -0.11383823471E+02  0.24106528073E+02  0.21097652802E+02  0.33997457057E+02  0.00000000000E+00 0.  1.
</event>
<event>
 7    1  0.1501154E-015  0.9000773E+02  0.7816164E-02  0.1186339E+00
        -11   -1    0    0    0    0  0.00000000000E+00  0.00000000000E+00  0.45593999997E+02  0.45594000000E+02  0.51100000000E-03 0. -1.
         11   -1    0    0    0    0 -0.00000000000E+00 -0.00000000000E+00 -0.45593999997E+02  0.45594000000E+02  0.51100000000E-03 0.  1.
    9900012    2    1    2    0    0 -0.69193829240E+00 -0.92544304610E+00 -0.24045848910E+00  0.90007727270E+02  0.89999988470E+02 0.  0.
         12    1    1    2    0    0  0.69193829240E+00  0.92544304610E+00  0.24045848910E+00  0.11802727299E+01  0.00000000000E+00 0. -1.
         11    1    3    3    0    0 -0.69067694583E+01  0.65931016687E+01 -0.19389047517E+00  0.95503951615E+01  0.51100000000E-03 0. -1.
        -11    1    3    3    0    0  0.82612260734E+01  0.18947834804E+02 -0.32508503626E+02  0.38523643496E+02  0.51100000000E-03 0.  1.
         12    1    3    3    0    0 -0.20463949076E+01 -0.26466379518E+02  0.32461935612E+02  0.41933688612E+02  0.00000000000E+00 0. -1.
</event>
<event>
 7    1  0.1501154E-015  0.9000764E+02  0.7816164E-02  0.1186339E+00
        -11   -1    0    0    0    0  0.00000000000E+00  0.00000000000E+00  0.45593999997E+02  0.45594000000E+02  0.51100000000E-03 0.  1.
         11   -1    0    0    0    0 -0.00000000000E+00 -0.00000000000E+00 -0.45593999997E+02  0.45594000000E+02  0.51100000000E-03 0. -1.
    9900012    2    1    2    0    0 -0.46837225823E+00 -0.73378768033E+00  0.79714014832E+00  0.90007640162E+02  0.89999900212E+02 0.  0.
         12    1    1    2    0    0  0.46837225823E+00  0.73378768033E+00 -0.79714014832E+00  0.11803598384E+01  0.00000000000E+00 0. -1.
         11    1    3    3    0    0 -0.42712059227E+01 -0.36349522773E+01 -0.32503784976E+01  0.64823636685E+01  0.51100000000E-03 0. -1.
        -11    1    3    3    0    0 -0.11074320150E+02 -0.35762274456E+02 -0.11673831297E+02  0.39215547662E+02  0.51100000000E-03 0.  1.
         12    1    3    3    0    0  0.14877153814E+02  0.38663439053E+02  0.15721349943E+02  0.44309728831E+02  0.00000000000E+00 0. -1.
</event>
<event>
 7    1  0.1501154E-015  0.9000770E+02  0.7816164E-02  0.1186339E+00
        -11   -1    0    0    0    0  0.00000000000E+00  0.00000000000E+00  0.45593999997E+02  0.45594000000E+02  0.51100000000E-03 0. -1.
         11   -1    0    0    0    0 -0.00000000000E+00 -0.00000000000E+00 -0.45593999997E+02  0.45594000000E+02  0.51100000000E-03 0.  1.
    9900012    2    1    2    0    0  0.25630609893E+00 -0.11267309586E+01  0.24062504007E+00  0.90007696700E+02  0.89999957497E+02 0.  0.
         12    1    1    2    0    0 -0.25630609893E+00  0.11267309586E+01 -0.24062504007E+00  0.11803032998E+01  0.00000000000E+00 0. -1.
         11    1    3    3    0    0 -0.25062694127E+01  0.42778628394E+01  0.60498308303E+01  0.78218891694E+01  0.51100000000E-03 0. -1.
        -11    1    3    3    0    0  0.15655421722E+02  0.70818410753E+01 -0.40019967230E+02  0.43552755133E+02  0.51100000000E-03 0.  1.
         12    1    3    3    0    0 -0.12892846210E+02 -0.12486434873E+02  0.34210761440E+02  0.38633052398E+02  0.00000000000E+00 0. -1.
</event>
<event>
 7    1  0.1501154E-015  0.9000776E+02  0.7816164E-02  0.1186339E+00
        -11   -1    0    0    0    0  0.00000000000E+00  0.00000000000E+00  0.45593999997E+02  0.45594000000E+02  0.51100000000E-03 0. -1.
         11   -1    0    0    0    0 -0.00000000000E+00 -0.00000000000E+00 -0.45593999997E+02  0.45594000000E+02  0.51100000000E-03 0.  1.
    9900012    2    1    2    0    0  0.59941862631E+00  0.84429578549E+00 -0.56641629824E+00  0.90007760412E+02  0.90000022049E+02 0.  0.
         12    1    1    2    0    0 -0.59941862631E+00 -0.84429578549E+00  0.56641629824E+00  0.11802395883E+01  0.00000000000E+00 0. -1.
         11    1    3    3    0    0 -0.12489390618E+01  0.35941328892E+02  0.23183591186E+02  0.42788057584E+02  0.51100000000E-03 0. -1.
        -11    1    3    3    0    0 -0.30747976441E+01 -0.75736779253E+00 -0.89683051042E+01  0.95109664718E+01  0.51100000000E-03 0.  1.
        -12    1    3    3    0    0  0.49231553322E+01 -0.34339665314E+02 -0.14781702380E+02  0.37708736356E+02  0.00000000000E+00 0.  1.
</event>
<event>
 7    1  0.1501154E-015  0.9000769E+02  0.7816164E-02  0.1186339E+00
        -11   -1    0    0    0    0  0.00000000000E+00  0.00000000000E+00  0.45593999997E+02  0.45594000000E+02  0.51100000000E-03 0. -1.
         11   -1    0    0    0    0 -0.00000000000E+00 -0.00000000000E+00 -0.45593999997E+02  0.45594000000E+02  0.51100000000E-03 0.  1.
    9900012    2    1    2    0    0  0.11360291495E+01 -0.29602767085E+00  0.12225997409E+00  0.90007685588E+02  0.89999946238E+02 0.  0.
         12    1    1    2    0    0 -0.11360291495E+01  0.29602767085E+00 -0.12225997409E+00  0.11803144122E+01  0.00000000000E+00 0. -1.
         11    1    3    3    0    0  0.32293016537E+02  0.65980184271E+01  0.20629666356E+02  0.38883877101E+02  0.51100000000E-03 0. -1.
        -11    1    3    3    0    0 -0.77464357653E+01 -0.18792532538E+02 -0.63805079544E+01  0.21304399271E+02  0.51100000000E-03 0.  1.
        -12    1    3    3    0    0 -0.23410551622E+02  0.11898486440E+02 -0.14126898427E+02  0.29819409216E+02  0.00000000000E+00 0.  1.
</event>
<event>
 7    1  0.1501154E-015  0.9000755E+02  0.7816164E-02  0.1186339E+00
        -11   -1    0    0    0    0  0.00000000000E+00  0.00000000000E+00  0.45593999997E+02  0.45594000000E+02  0.51100000000E-03 0. -1.
         11   -1    0    0    0    0 -0.00000000000E+00 -0.00000000000E+00 -0.45593999997E+02  0.45594000000E+02  0.51100000000E-03 0.  1.
    9900012    2    1    2    0    0 -0.56114912293E+00  0.18607549554E-01 -0.10383792450E+01  0.90007548376E+02  0.89999807215E+02 0.  0.
         12    1    1    2    0    0  0.56114912293E+00 -0.18607549554E-01  0.10383792450E+01  0.11804516236E+01  0.00000000000E+00 0. -1.
         11    1    3    3    0    0  0.17628182277E+02  0.16931691370E+01  0.34801616650E+02  0.39048330999E+02  0.51100000000E-03 0. -1.
        -11    1    3    3    0    0 -0.83440239377E+01  0.76527382676E+01  0.13229162695E+01  0.11399001982E+02  0.51100000000E-03 0.  1.
        -12    1    3    3    0    0 -0.98453074626E+01 -0.93272998551E+01 -0.37162912164E+02  0.39560215395E+02  0.00000000000E+00 0.  1.
</event>
<event>
 7    1  0.1501154E-015  0.9000774E+02  0.7816164E-02  0.1186339E+00
        -11   -1    0    0    0    0  0.00000000000E+00  0.00000000000E+00  0.45593999997E+02  0.45594000000E+02  0.51100000000E-03 0.  1.
         11   -1    0    0    0    0 -0.00000000000E+00 -0.00000000000E+00 -0.45593999997E+02  0.45594000000E+02  0.51100000000E-03 0. -1.
    9900012    2    1    2    0    0  0.10763571300E+01 -0.36813192375E+00  0.31456311019E+00  0.90007739124E+02  0.90000000481E+02 0.  0.
         12    1    1    2    0    0 -0.10763571300E+01  0.36813192375E+00 -0.31456311019E+00  0.11802608758E+01  0.00000000000E+00 0. -1.
         11    1    3    3    0    0 -0.30322048752E+02 -0.11399347206E+02  0.16786092835E+02  0.36484855354E+02  0.51100000000E-03 0. -1.
        -11    1    3    3    0    0 -0.64059794245E+01  0.11823349637E+01  0.56544716639E+01  0.86259804320E+01  0.51100000000E-03 0.  1.
        -12    1    3    3    0    0  0.37804385306E+02  0.98488803183E+01 -0.22126001389E+02  0.44896903339E+02  0.00000000000E+00 0.  1.
</event>
<event>
 7    1  0.1501154E-015  0.9000781E+02  0.7816164E-02  0.1186339E+00
        -11   -1    0    0    0    0  0.00000000000E+00  0.00000000000E+00  0.45593999997E+02  0.45594000000E+02  0.51100000000E-03 0. -1.
         11   -1    0    0    0    0 -0.00000000000E+00 -0.00000000000E+00 -0.45593999997E+02  0.45594000000E+02  0.51100000000E-03 0.  1.
    9900012    2    1    2    0    0 -0.10144377441E+01 -0.49656024250E+00  0.34233799659E+00  0.90007808780E+02  0.90000071056E+02 0.  0.
         12    1    1    2    0    0  0.10144377441E+01  0.49656024250E+00 -0.34233799659E+00  0.11801912197E+01  0.00000000000E+00 0. -1.
         11    1    3    3    0    0 -0.17704608980E+02 -0.26389949772E+02  0.21499741929E+02  0.38368235969E+02  0.51100000000E-03 0. -1.
        -11    1    3    3    0    0  0.41515698775E+01 -0.90136893816E+01 -0.58062350501E+01  0.11497586461E+02  0.51100000000E-03 0.  1.
        -12    1    3    3    0    0  0.12538601358E+02  0.34907078911E+02 -0.15351168882E+02  0.40141986350E+02  0.00000000000E+00 0.  1.
</event>
<event>
 7    1  0.1501154E-015  0.9000765E+02  0.7816164E-02  0.1186339E+00
        -11   -1    0    0    0    0  0.00000000000E+00  0.00000000000E+00  0.45593999997E+02  0.45594000000E+02  0.51100000000E-03 0. -1.
         11   -1    0    0    0    0 -0.00000000000E+00 -0.00000000000E+00 -0.45593999997E+02  0.45594000000E+02  0.51100000000E-03 0.  1.
    9900012    2    1    2    0    0  0.71694615419E+00 -0.22764916073E+00 -0.90961300528E+00  0.90007647617E+02  0.89999907766E+02 0.  0.
         12    1    1    2    0    0 -0.71694615419E+00  0.22764916073E+00  0.90961300528E+00  0.11803523829E+01  0.00000000000E+00 0. -1.
         11    1    3    3    0    0  0.27487498343E+02  0.21611957822E+02 -0.21342102286E+02  0.40964919337E+02  0.51100000000E-03 0. -1.
        -11    1    3    3    0    0  0.21018246507E+01 -0.69629242977E+01 -0.40908560900E+01  0.83447639540E+01  0.51100000000E-03 0.  1.
        -12    1    3    3    0    0 -0.28872376840E+02 -0.14876682685E+02  0.24523345370E+02  0.40697964326E+02  0.00000000000E+00 0.  1.
</event>
<event>
 7    1  0.1676034E-015  0.9000771E+02  0.7816164E-02  0.1186339E+00
        -11   -1    0    0    0    0  0.00000000000E+00  0.00000000000E+00  0.45593999997E+02  0.45594000000E+02  0.51100000000E-03 0.  1.
         11   -1    0    0    0    0 -0.00000000000E+00 -0.00000000000E+00 -0.45593999997E+02  0.45594000000E+02  0.51100000000E-03 0. -1.
    9900012    2    1    2    0    0 -0.30897535735E+00 -0.75337795861E+00  0.85442388300E+00  0.90007710081E+02  0.89999971055E+02 0.  0.
         12    1    1    2    0    0  0.30897535735E+00  0.75337795861E+00 -0.85442388300E+00  0.11802899185E+01  0.00000000000E+00 0. -1.
         11    1    3    3    0    0  0.24052288063E+02 -0.24180372186E+02 -0.17506609195E+02  0.38336462094E+02  0.51100000000E-03 0. -1.
        -11    1    3    3    0    0  0.35315575321E+01 -0.60580722543E+01  0.60386173355E+01  0.92540281838E+01  0.51100000000E-03 0.  1.
        -12    1    3    3    0    0 -0.27892820953E+02  0.29485066482E+02  0.12322415743E+02  0.42417219804E+02  0.00000000000E+00 0.  1.
</event>
<event>
 7    1  0.1501154E-015  0.9000774E+02  0.7816164E-02  0.1186339E+00
        -11   -1    0    0    0    0  0.00000000000E+00  0.00000000000E+00  0.45593999997E+02  0.45594000000E+02  0.51100000000E-03 0.  1.
         11   -1    0    0    0    0 -0.00000000000E+00 -0.00000000000E+00 -0.45593999997E+02  0.45594000000E+02  0.51100000000E-03 0. -1.
    9900012    2    1    2    0    0 -0.19066669774E+00 -0.64927190805E-01  0.11629466185E+01  0.90007739788E+02  0.90000001154E+02 0.  0.
         12    1    1    2    0    0  0.19066669774E+00  0.64927190805E-01 -0.11629466185E+01  0.11802602116E+01  0.00000000000E+00 0. -1.
         11    1    3    3    0    0  0.95835664725E+01 -0.31599872851E+01 -0.42575463086E+00  0.10100075903E+02  0.51100000000E-03 0. -1.
        -11    1    3    3    0    0  0.67452284825E+00 -0.29857171678E+02  0.24336924438E+02  0.38525206982E+02  0.51100000000E-03 0.  1.
         12    1    3    3    0    0 -0.10448756018E+02  0.32952231772E+02 -0.22748223189E+02  0.41382456903E+02  0.00000000000E+00 0. -1.
</event>
<event>
 7    1  0.1501154E-015  0.9000744E+02  0.7816164E-02  0.1186340E+00
        -11   -1    0    0    0    0  0.00000000000E+00  0.00000000000E+00  0.45593999997E+02  0.45594000000E+02  0.51100000000E-03 0.  1.
         11   -1    0    0    0    0 -0.00000000000E+00 -0.00000000000E+00 -0.45593999997E+02  0.45594000000E+02  0.51100000000E-03 0. -1.
    9900012    2    1    2    0    0  0.69790776955E+00 -0.31837966894E+00  0.89737273642E+00  0.90007441363E+02  0.89999698788E+02 0.  0.
         12    1    1    2    0    0 -0.69790776955E+00  0.31837966894E+00 -0.89737273642E+00  0.11805586374E+01  0.00000000000E+00 0. -1.
         11    1    3    3    0    0  0.23885240550E+01 -0.34188730531E+01  0.87243361037E+01  0.96699421315E+01  0.51100000000E-03 0. -1.
        -11    1    3    3    0    0 -0.37938370402E+02  0.11193692050E+02  0.73207242611E+01  0.40227002056E+02  0.51100000000E-03 0.  1.
         12    1    3    3    0    0  0.36247754116E+02 -0.80931986656E+01 -0.15147687628E+02  0.40110497175E+02  0.00000000000E+00 0. -1.
</event>
<event>
 7    1  0.1501154E-015  0.9000763E+02  0.7816164E-02  0.1186339E+00
        -11   -1    0    0    0    0  0.00000000000E+00  0.00000000000E+00  0.45593999997E+02  0.45594000000E+02  0.51100000000E-03 0.  1.
         11   -1    0    0    0    0 -0.00000000000E+00 -0.00000000000E+00 -0.45593999997E+02  0.45594000000E+02  0.51100000000E-03 0. -1.
    9900012    2    1    2    0    0  0.85177634706E-01 -0.11381994392E+01  0.30086422174E+00  0.90007630366E+02  0.89999890287E+02 0.  0.
         12    1    1    2    0    0 -0.85177634706E-01  0.11381994392E+01 -0.30086422174E+00  0.11803696340E+01  0.00000000000E+00 0. -1.
         11    1    3    3    0    0 -0.17746326137E+02 -0.93985307057E+01 -0.31017413061E+02  0.36950566762E+02  0.51100000000E-03 0. -1.
        -11    1    3    3    0    0  0.42084841352E+01 -0.10030537618E+02 -0.35065070872E+01  0.11428850154E+02  0.51100000000E-03 0.  1.
        -12    1    3    3    0    0  0.13623019637E+02  0.18290868885E+02  0.34824784370E+02  0.41628213450E+02  0.00000000000E+00 0.  1.
</event>
<event>
 7    1  0.1501154E-015  0.9000774E+02  0.7816164E-02  0.1186339E+00
        -11   -1    0    0    0    0  0.00000000000E+00  0.00000000000E+00  0.45593999997E+02  0.45594000000E+02  0.51100000000E-03 0.  1.
         11   -1    0    0    0    0 -0.00000000000E+00 -0.00000000000E+00 -0.45593999997E+02  0.45594000000E+02  0.51100000000E-03 0. -1.
    9900012    2    1    2    0    0  0.11357262303E+01 -0.16734507649E+00 -0.27409512665E+00  0.90007743001E+02  0.90000004409E+02 0.  0.
         12    1    1    2    0    0 -0.11357262303E+01  0.16734507649E+00  0.27409512665E+00  0.11802569988E+01  0.00000000000E+00 0. -1.
         11    1    3    3    0    0  0.15191695178E+01 -0.95291338352E+01  0.31874909000E+01  0.10162301224E+02  0.51100000000E-03 0. -1.
        -11    1    3    3    0    0  0.15275680755E+01 -0.29963039809E+02  0.18017409471E+02  0.34996346425E+02  0.51100000000E-03 0.  1.
         12    1    3    3    0    0 -0.19110113631E+01  0.39324828567E+02 -0.21478995498E+02  0.44849095352E+02  0.00000000000E+00 0. -1.
</event>
<event>
 7    1  0.1501154E-015  0.9000771E+02  0.7816164E-02  0.1186339E+00
        -11   -1    0    0    0    0  0.00000000000E+00  0.00000000000E+00  0.45593999997E+02  0.45594000000E+02  0.51100000000E-03 0.  1.
         11   -1    0    0    0    0 -0.00000000000E+00 -0.00000000000E+00 -0.45593999997E+02  0.45594000000E+02  0.51100000000E-03 0. -1.
    9900012    2    1    2    0    0 -0.67589562738E+00  0.44994217234E+00  0.85662602149E+00  0.90007707240E+02  0.89999968176E+02 0.  0.
         12    1    1    2    0    0  0.67589562738E+00 -0.44994217234E+00 -0.85662602149E+00  0.11802927595E+01  0.00000000000E+00 0. -1.
         11    1    3    3    0    0 -0.19058328379E+02 -0.95755014021E+01  0.28020319938E+02  0.35214321481E+02  0.51100000000E-03 0. -1.
        -11    1    3    3    0    0  0.10279083825E+02 -0.15879309404E+02 -0.45267019759E+01  0.19450014460E+02  0.51100000000E-03 0.  1.
        -12    1    3    3    0    0  0.81033489264E+01  0.25904752979E+02 -0.22636991940E+02  0.35343371300E+02  0.00000000000E+00 0.  1.
</event>
<event>
 7    1  0.1501154E-015  0.9000772E+02  0.7816164E-02  0.1186339E+00
        -11   -1    0    0    0    0  0.00000000000E+00  0.00000000000E+00  0.45593999997E+02  0.45594000000E+02  0.51100000000E-03 0. -1.
         11   -1    0    0    0    0 -0.00000000000E+00 -0.00000000000E+00 -0.45593999997E+02  0.45594000000E+02  0.51100000000E-03 0.  1.
    9900012    2    1    2    0    0  0.29065024901E+00 -0.70873900069E+00 -0.89792581902E+00  0.90007720662E+02  0.89999981775E+02 0.  0.
         12    1    1    2    0    0 -0.29065024901E+00  0.70873900069E+00  0.89792581902E+00  0.11802793376E+01  0.00000000000E+00 0. -1.
         11    1    3    3    0    0 -0.22854813529E+02 -0.91614555432E+01 -0.83455313507E+01  0.25998512705E+02  0.51100000000E-03 0. -1.
        -11    1    3    3    0    0  0.15866607836E+02 -0.19919536341E+02 -0.12700473678E+02  0.28457673906E+02  0.51100000000E-03 0.  1.
         12    1    3    3    0    0  0.72788559421E+01  0.28372252884E+02  0.20148079209E+02  0.35551534051E+02  0.00000000000E+00 0. -1.
</event>
<event>
 7    1  0.1501154E-015  0.9000765E+02  0.7816164E-02  0.1186339E+00
        -11   -1    0    0    0    0  0.00000000000E+00  0.00000000000E+00  0.45593999997E+02  0.45594000000E+02  0.51100000000E-03 0. -1.
         11   -1    0    0    0    0 -0.00000000000E+00 -0.00000000000E+00 -0.45593999997E+02  0.45594000000E+02  0.51100000000E-03 0.  1.
    9900012    2    1    2    0    0  0.20324065078E+00  0.82030153862E+00  0.82402711341E+00  0.90007651721E+02  0.89999911924E+02 0.  0.
         12    1    1    2    0    0 -0.20324065078E+00 -0.82030153862E+00 -0.82402711341E+00  0.11803482791E+01  0.00000000000E+00 0. -1.
         11    1    3    3    0    0 -0.34757615541E+02 -0.26740180249E+01 -0.59781811591E+01  0.35369207804E+02  0.51100000000E-03 0. -1.
        -11    1    3    3    0    0 -0.93712720959E+01  0.24966633083E+01 -0.43736626914E+00  0.97080048355E+01  0.51100000000E-03 0.  1.
        -12    1    3    3    0    0  0.44332128287E+02  0.99765625516E+00  0.72395745416E+01  0.44930439081E+02  0.00000000000E+00 0.  1.
</event>
<event>
 7    1  0.1501154E-015  0.9000766E+02  0.7816164E-02  0.1186339E+00
        -11   -1    0    0    0    0  0.00000000000E+00  0.00000000000E+00  0.45593999997E+02  0.45594000000E+02  0.51100000000E-03 0. -1.
         11   -1    0    0    0    0 -0.00000000000E+00 -0.00000000000E+00 -0.45593999997E+02  0.45594000000E+02  0.51100000000E-03 0.  1.
    9900012    2    1    2    0    0  0.10322809785E+01  0.43082060105E+00  0.37680858337E+00  0.90007663134E+02  0.89999923487E+02 0.  0.
         12    1    1    2    0    0 -0.10322809785E+01 -0.43082060105E+00 -0.37680858337E+00  0.11803368660E+01  0.00000000000E+00 0. -1.
         11    1    3    3    0    0  0.60612763391E+01  0.64691771212E+01  0.83633394703E+00  0.89044246427E+01  0.51100000000E-03 0. -1.
        -11    1    3    3    0    0  0.46589517018E+01 -0.11219534820E+02  0.38632064838E+02  0.40497163190E+02  0.51100000000E-03 0.  1.
         12    1    3    3    0    0 -0.96879470624E+01  0.51811782997E+01 -0.39091590202E+02  0.40606075301E+02  0.00000000000E+00 0. -1.
</event>
<event>
 7    1  0.1501154E-015  0.9000765E+02  0.7816164E-02  0.1186339E+00
        -11   -1    0    0    0    0  0.00000000000E+00  0.00000000000E+00  0.45593999997E+02  0.45594000000E+02  0.51100000000E-03 0.  1.
         11   -1    0    0    0    0 -0.00000000000E+00 -0.00000000000E+00 -0.45593999997E+02  0.45594000000E+02  0.51100000000E-03 0. -1.
    9900012    2    1    2    0    0 -0.11331242469E+01 -0.26590844985E+00 -0.19635516494E+00  0.90007646996E+02  0.89999907137E+02 0.  0.
         12    1    1    2    0    0  0.11331242469E+01  0.26590844985E+00  0.19635516494E+00  0.11803530037E+01  0.00000000000E+00 0. -1.
         11    1    3    3    0    0 -0.26270413186E+02 -0.21472133714E+02  0.10034274683E+02  0.35381828724E+02  0.51100000000E-03 0. -1.
        -11    1    3    3    0    0 -0.10194099970E+02 -0.14626907020E+01  0.27984306773E+01  0.10671942317E+02  0.51100000000E-03 0.  1.
        -12    1    3    3    0    0  0.35331388909E+02  0.22668915966E+02 -0.13029060525E+02  0.43953875955E+02  0.00000000000E+00 0.  1.
</event>
<event>
 7    1  0.1501154E-015  0.9000773E+02  0.7816164E-02  0.1186339E+00
        -11   -1    0    0    0    0  0.00000000000E+00  0.00000000000E+00  0.45593999997E+02  0.45594000000E+02  0.51100000000E-03 0. -1.
         11   -1    0    0    0    0 -0.00000000000E+00 -0.00000000000E+00 -0.45593999997E+02  0.45594000000E+02  0.51100000000E-03 0.  1.
    9900012    2    1    2    0    0 -0.77478498432E+00  0.69908862063E+00 -0.55137854910E+00  0.90007730973E+02  0.89999992222E+02 0.  0.
         12    1    1    2    0    0  0.77478498432E+00 -0.69908862063E+00  0.55137854910E+00  0.11802690269E+01  0.00000000000E+00 0. -1.
         11    1    3    3    0    0 -0.18787556899E+02 -0.28202718358E+02 -0.30410040651E+01  0.34023717067E+02  0.51100000000E-03 0. -1.
        -11    1    3    3    0    0 -0.48916957955E+01 -0.83965875043E+01 -0.59691382758E+01  0.11404471995E+02  0.51100000000E-03 0.  1.
        -12    1    3    3    0    0  0.22904467710E+02  0.37298394483E+02  0.84587637918E+01  0.44579541911E+02  0.00000000000E+00 0.  1.
</event>
<event>
 7    1  0.1501154E-015  0.9000779E+02  0.7816164E-02  0.1186339E+00
        -11   -1    0    0    0    0  0.00000000000E+00  0.00000000000E+00  0.45593999997E+02  0.45594000000E+02  0.51100000000E-03 0. -1.
         11   -1    0    0    0    0 -0.00000000000E+00 -0.00000000000E+00 -0.45593999997E+02  0.45594000000E+02  0.51100000000E-03 0.  1.
    9900012    2    1    2    0    0  0.98504000185E+00  0.58092484527E+00 -0.29176487883E+00  0.90007786364E+02  0.90000048344E+02 0.  0.
         12    1    1    2    0    0 -0.98504000185E+00 -0.58092484527E+00  0.29176487883E+00  0.11802136356E+01  0.00000000000E+00 0. -1.
         11    1    3    3    0    0 -0.37626833663E+01  0.23115931149E+01  0.64295636159E+01  0.78000344484E+01  0.51100000000E-03 0. -1.
        -11    1    3    3    0    0  0.76060539992E+00  0.33646282006E+02  0.18663479233E+02  0.38483454507E+02  0.51100000000E-03 0.  1.
         12    1    3    3    0    0  0.39871179682E+01 -0.35376950276E+02 -0.25384807728E+02  0.43724297409E+02  0.00000000000E+00 0. -1.
</event>
<event>
 7    1  0.1501154E-015  0.9000773E+02  0.7816164E-02  0.1186339E+00
        -11   -1    0    0    0    0  0.00000000000E+00  0.00000000000E+00  0.45593999997E+02  0.45594000000E+02  0.51100000000E-03 0. -1.
         11   -1    0    0    0    0 -0.00000000000E+00 -0.00000000000E+00 -0.45593999997E+02  0.45594000000E+02  0.51100000000E-03 0.  1.
    9900012    2    1    2    0    0 -0.14574594238E-01  0.11489054165E+01 -0.26988570289E+00  0.90007731231E+02  0.89999992483E+02 0.  0.
         12    1    1    2    0    0  0.14574594238E-01 -0.11489054165E+01  0.26988570289E+00  0.11802687692E+01  0.00000000000E+00 0. -1.
         11    1    3    3    0    0  0.39330869489E+02  0.28542984225E+01  0.49514193972E+00  0.39437412187E+02  0.51100000000E-03 0. -1.
        -11    1    3    3    0    0  0.21256237023E+01  0.65729798807E+00 -0.80906309502E+01  0.83909848172E+01  0.51100000000E-03 0.  1.
        -12    1    3    3    0    0 -0.41471067785E+02 -0.23626909940E+01  0.73256033076E+01  0.42179334227E+02  0.00000000000E+00 0.  1.
</event>
<event>
 7    1  0.1501154E-015  0.9000747E+02  0.7816164E-02  0.1186340E+00
        -11   -1    0    0    0    0  0.00000000000E+00  0.00000000000E+00  0.45593999997E+02  0.45594000000E+02  0.51100000000E-03 0.  1.
         11   -1    0    0    0    0 -0.00000000000E+00 -0.00000000000E+00 -0.45593999997E+02  0.45594000000E+02  0.51100000000E-03 0. -1.
    9900012    2    1    2    0    0  0.88072555319E+00  0.48493732538E-01  0.78461506913E+00  0.90007470479E+02  0.89999728289E+02 0.  0.
         12    1    1    2    0    0 -0.88072555319E+00 -0.48493732538E-01 -0.78461506913E+00  0.11805295205E+01  0.00000000000E+00 0. -1.
         11    1    3    3    0    0 -0.14094322905E+02  0.71346726548E+01  0.88885693523E+01  0.18126228439E+02  0.51100000000E-03 0. -1.
        -11    1    3    3    0    0  0.31063019788E+00 -0.20230447830E+02  0.25730695602E+02  0.32732800170E+02  0.51100000000E-03 0.  1.
         12    1    3    3    0    0  0.14664418260E+02  0.13144268907E+02 -0.33834649886E+02  0.39148441871E+02  0.00000000000E+00 0. -1.
</event>
<event>
 7    1  0.1501154E-015  0.9000770E+02  0.7816164E-02  0.1186339E+00
        -11   -1    0    0    0    0  0.00000000000E+00  0.00000000000E+00  0.45593999997E+02  0.45594000000E+02  0.51100000000E-03 0.  1.
         11   -1    0    0    0    0 -0.00000000000E+00 -0.00000000000E+00 -0.45593999997E+02  0.45594000000E+02  0.51100000000E-03 0. -1.
    9900012    2    1    2    0    0 -0.32193732483E+00 -0.12983280206E+00  0.11280965052E+01  0.90007702613E+02  0.89999963487E+02 0.  0.
         12    1    1    2    0    0  0.32193732483E+00  0.12983280206E+00 -0.11280965052E+01  0.11802973874E+01  0.00000000000E+00 0. -1.
         11    1    3    3    0    0  0.33640931449E+01 -0.84518693761E+01 -0.51011476014E+01  0.10429425955E+02  0.51100000000E-03 0. -1.
        -11    1    3    3    0    0 -0.22875563579E+02  0.18904615911E+02 -0.26769376574E+02  0.39965928417E+02  0.51100000000E-03 0.  1.
         12    1    3    3    0    0  0.19189533109E+02 -0.10582579337E+02  0.32998620680E+02  0.39612348241E+02  0.00000000000E+00 0. -1.
</event>
<event>
 7    1  0.1501154E-015  0.9000761E+02  0.7816164E-02  0.1186339E+00
        -11   -1    0    0    0    0  0.00000000000E+00  0.00000000000E+00  0.45593999997E+02  0.45594000000E+02  0.51100000000E-03 0.  1.
         11   -1    0    0    0    0 -0.00000000000E+00 -0.00000000000E+00 -0.45593999997E+02  0.45594000000E+02  0.51100000000E-03 0. -1.
    9900012    2    1    2    0    0  0.24544528339E+00 -0.47247113401E+00  0.10534945484E+01  0.90007608911E+02  0.89999868549E+02 0.  0.
         12    1    1    2    0    0 -0.24544528339E+00  0.47247113401E+00 -0.10534945484E+01  0.11803910890E+01  0.00000000000E+00 0. -1.
         11    1    3    3    0    0  0.30435255116E+01 -0.12610781102E+02 -0.38402815235E+02  0.40534813010E+02  0.51100000000E-03 0. -1.
        -11    1    3    3    0    0  0.67924705496E+01  0.56727544680E+01  0.53129547227E+00  0.88656683088E+01  0.51100000000E-03 0.  1.
        -12    1    3    3    0    0 -0.95905507778E+01  0.64655554997E+01  0.38925014311E+02  0.40607127592E+02  0.00000000000E+00 0.  1.
</event>
<event>
 7    1  0.1501154E-015  0.9000775E+02  0.7816164E-02  0.1186339E+00
        -11   -1    0    0    0    0  0.00000000000E+00  0.00000000000E+00  0.45593999997E+02  0.45594000000E+02  0.51100000000E-03 0. -1.
         11   -1    0    0    0    0 -0.00000000000E+00 -0.00000000000E+00 -0.45593999997E+02  0.45594000000E+02  0.51100000000E-03 0.  1.
    9900012    2    1    2    0    0 -0.22438546471E+00 -0.78066756284E+00 -0.85626756091E+00  0.90007752222E+02  0.90000013752E+02 0.  0.
         12    1    1    2    0    0  0.22438546471E+00  0.78066756284E+00  0.85626756091E+00  0.11802477775E+01  0.00000000000E+00 0. -1.
         11    1    3    3    0    0  0.15664680182E+01  0.86369650800E+01 -0.85668289562E+00  0.88195744619E+01  0.51100000000E-03 0. -1.
        -11    1    3    3    0    0  0.21636148909E+02 -0.17286902038E+02 -0.30982857978E+02  0.41555955175E+02  0.51100000000E-03 0.  1.
         12    1    3    3    0    0 -0.23427002392E+02  0.78692693950E+01  0.30983273313E+02  0.39632222586E+02  0.00000000000E+00 0. -1.
</event>
<event>
 7    1  0.1501154E-015  0.9000763E+02  0.7816164E-02  0.1186339E+00
        -11   -1    0    0    0    0  0.00000000000E+00  0.00000000000E+00  0.45593999997E+02  0.45594000000E+02  0.51100000000E-03 0. -1.
         11   -1    0    0    0    0 -0.00000000000E+00 -0.00000000000E+00 -0.45593999997E+02  0.45594000000E+02  0.51100000000E-03 0.  1.
    9900012    2    1    2    0    0 -0.45231091776E+00  0.84244855663E+00 -0.69207319542E+00  0.90007631395E+02  0.89999891329E+02 0.  0.
         12    1    1    2    0    0  0.45231091776E+00 -0.84244855663E+00  0.69207319542E+00  0.11803686054E+01  0.00000000000E+00 0. -1.
         11    1    3    3    0    0 -0.35177666872E+00 -0.35963213124E+01 -0.76140826432E+01  0.84280204417E+01  0.51100000000E-03 0. -1.
        -11    1    3    3    0    0 -0.12341500133E+01 -0.17789968079E+01 -0.37071374234E+02  0.37134549192E+02  0.51100000000E-03 0.  1.
         12    1    3    3    0    0  0.11336157642E+01  0.62177666770E+01  0.43993383681E+02  0.44445061760E+02  0.00000000000E+00 0. -1.
</event>
<event>
 7    1  0.1501154E-015  0.9000903E+02  0.7816164E-02  0.1186336E+00
        -11   -1    0    0    0    0  0.00000000000E+00  0.00000000000E+00  0.45593999997E+02  0.45594000000E+02  0.51100000000E-03 0.  1.
         11   -1    0    0    0    0 -0.00000000000E+00 -0.00000000000E+00 -0.45593999997E+02  0.45594000000E+02  0.51100000000E-03 0. -1.
    9900012    2    1    2    0    0 -0.62363734476E+00 -0.63314669974E+00  0.77470423018E+00  0.90009032263E+02  0.90001310679E+02 0.  0.
         12    1    1    2    0    0  0.62363734476E+00  0.63314669974E+00 -0.77470423018E+00  0.11789677372E+01  0.00000000000E+00 0. -1.
         11    1    3    3    0    0 -0.54837312832E+01  0.57934364050E+01 -0.34094104308E+01  0.86752114621E+01  0.51100000000E-03 0. -1.
        -11    1    3    3    0    0  0.12196146189E+02  0.73368502643E+01  0.39899212853E+02  0.42361805205E+02  0.51100000000E-03 0.  1.
         12    1    3    3    0    0 -0.73360522509E+01 -0.13763433369E+02 -0.35715098192E+02  0.38972015596E+02  0.00000000000E+00 0. -1.
</event>
<event>
 7    1  0.1501154E-015  0.9000771E+02  0.7816164E-02  0.1186339E+00
        -11   -1    0    0    0    0  0.00000000000E+00  0.00000000000E+00  0.45593999997E+02  0.45594000000E+02  0.51100000000E-03 0.  1.
         11   -1    0    0    0    0 -0.00000000000E+00 -0.00000000000E+00 -0.45593999997E+02  0.45594000000E+02  0.51100000000E-03 0. -1.
    9900012    2    1    2    0    0  0.74054293202E+00 -0.51634427525E-02  0.91905021458E+00  0.90007710293E+02  0.89999971269E+02 0.  0.
         12    1    1    2    0    0 -0.74054293202E+00  0.51634427525E-02 -0.91905021458E+00  0.11802897069E+01  0.00000000000E+00 0. -1.
         11    1    3    3    0    0 -0.19864211021E+02  0.84321236371E+01 -0.28249514979E+02  0.35548877413E+02  0.51100000000E-03 0. -1.
        -11    1    3    3    0    0 -0.29883468453E+01  0.19332961025E+01 -0.82723306444E+01  0.90055152678E+01  0.51100000000E-03 0.  1.
        -12    1    3    3    0    0  0.23593100799E+02 -0.10370583182E+02  0.37440895838E+02  0.45453317612E+02  0.00000000000E+00 0.  1.
</event>
<event>
 7    1  0.1501154E-015  0.9000769E+02  0.7816164E-02  0.1186339E+00
        -11   -1    0    0    0    0  0.00000000000E+00  0.00000000000E+00  0.45593999997E+02  0.45594000000E+02  0.51100000000E-03 0. -1.
         11   -1    0    0    0    0 -0.00000000000E+00 -0.00000000000E+00 -0.45593999997E+02  0.45594000000E+02  0.51100000000E-03 0.  1.
    9900012    2    1    2    0    0 -0.86833614560E+00 -0.36580074150E+00 -0.71085580758E+00  0.90007689099E+02  0.89999949795E+02 0.  0.
         12    1    1    2    0    0  0.86833614560E+00  0.36580074150E+00  0.71085580758E+00  0.11803109012E+01  0.00000000000E+00 0. -1.
         11    1    3    3    0    0  0.28553142881E+01 -0.43555073803E+01  0.81999637474E+01  0.97140449836E+01  0.51100000000E-03 0. -1.
        -11    1    3    3    0    0 -0.95007915131E+01 -0.36443938508E+02 -0.11468305883E+02  0.39369375579E+02  0.51100000000E-03 0.  1.
         12    1    3    3    0    0  0.57771410794E+01  0.40433645147E+02  0.25574863282E+01  0.40924268537E+02  0.00000000000E+00 0. -1.
</event>
<event>
 7    1  0.1501154E-015  0.9000773E+02  0.7816164E-02  0.1186339E+00
        -11   -1    0    0    0    0  0.00000000000E+00  0.00000000000E+00  0.45593999997E+02  0.45594000000E+02  0.51100000000E-03 0.  1.
         11   -1    0    0    0    0 -0.00000000000E+00 -0.00000000000E+00 -0.45593999997E+02  0.45594000000E+02  0.51100000000E-03 0. -1.
    9900012    2    1    2    0    0  0.11042181438E+01  0.38112165956E+00  0.16880045333E+00  0.90007726717E+02  0.89999987910E+02 0.  0.
         12    1    1    2    0    0 -0.11042181438E+01 -0.38112165956E+00 -0.16880045333E+00  0.11802732825E+01  0.00000000000E+00 0. -1.
         11    1    3    3    0    0 -0.23954899718E+02 -0.18912120323E+02 -0.17027120048E+02  0.34948938940E+02  0.51100000000E-03 0. -1.
        -11    1    3    3    0    0 -0.74585324612E+01 -0.66286226833E+01 -0.20280000314E+00  0.99804545615E+01  0.51100000000E-03 0.  1.
        -12    1    3    3    0    0  0.32517650323E+02  0.25921864666E+02  0.17398720505E+02  0.45078333216E+02  0.00000000000E+00 0.  1.
</event>
<event>
 7    1  0.1501154E-015  0.9000775E+02  0.7816164E-02  0.1186339E+00
        -11   -1    0    0    0    0  0.00000000000E+00  0.00000000000E+00  0.45593999997E+02  0.45594000000E+02  0.51100000000E-03 0.  1.
         11   -1    0    0    0    0 -0.00000000000E+00 -0.00000000000E+00 -0.45593999997E+02  0.45594000000E+02  0.51100000000E-03 0. -1.
    9900012    2    1    2    0    0  0.82309177890E+00  0.82924528490E+00  0.16690334900E+00  0.90007752337E+02  0.90000013867E+02 0.  0.
         12    1    1    2    0    0 -0.82309177890E+00 -0.82924528490E+00 -0.16690334900E+00  0.11802476634E+01  0.00000000000E+00 0. -1.
         11    1    3    3    0    0  0.84938266172E+01  0.13688281833E+00 -0.59958050259E+01  0.10397764456E+02  0.51100000000E-03 0. -1.
        -11    1    3    3    0    0 -0.86390557604E+01 -0.37337246226E+02 -0.77580349199E+01  0.39101027432E+02  0.51100000000E-03 0.  1.
         12    1    3    3    0    0  0.96832092210E+00  0.38029608693E+02  0.13920743295E+02  0.40508960448E+02  0.00000000000E+00 0. -1.
</event>
<event>
 7    1  0.1501154E-015  0.9000764E+02  0.7816164E-02  0.1186339E+00
        -11   -1    0    0    0    0  0.00000000000E+00  0.00000000000E+00  0.45593999997E+02  0.45594000000E+02  0.51100000000E-03 0.  1.
         11   -1    0    0    0    0 -0.00000000000E+00 -0.00000000000E+00 -0.45593999997E+02  0.45594000000E+02  0.51100000000E-03 0. -1.
    9900012    2    1    2    0    0 -0.10563623422E+01 -0.15806191721E+00  0.50236978953E+00  0.90007635491E+02  0.89999895480E+02 0.  0.
         12    1    1    2    0    0  0.10563623422E+01  0.15806191721E+00 -0.50236978953E+00  0.11803645086E+01  0.00000000000E+00 0. -1.
         11    1    3    3    0    0  0.35599869511E+01 -0.19767144637E+01  0.61471408628E+01  0.73734827735E+01  0.51100000000E-03 0. -1.
        -11    1    3    3    0    0  0.23843402689E+02  0.26101753413E+02  0.16656363637E+02  0.39079967156E+02  0.51100000000E-03 0.  1.
         12    1    3    3    0    0 -0.28459751983E+02 -0.24283100866E+02 -0.22301134710E+02  0.43554185562E+02  0.00000000000E+00 0. -1.
</event>
<event>
 7    1  0.1501154E-015  0.9000763E+02  0.7816164E-02  0.1186339E+00
        -11   -1    0    0    0    0  0.00000000000E+00  0.00000000000E+00  0.45593999997E+02  0.45594000000E+02  0.51100000000E-03 0. -1.
         11   -1    0    0    0    0 -0.00000000000E+00 -0.00000000000E+00 -0.45593999997E+02  0.45594000000E+02  0.51100000000E-03 0.  1.
    9900012    2    1    2    0    0 -0.15096981162E+00  0.11696919001E+01  0.47878392357E-01  0.90007634224E+02  0.89999894196E+02 0.  0.
         12    1    1    2    0    0  0.15096981162E+00 -0.11696919001E+01 -0.47878392357E-01  0.11803657762E+01  0.00000000000E+00 0. -1.
         11    1    3    3    0    0  0.60000906023E+01  0.11914874632E+02 -0.56863704877E+01  0.14501728666E+02  0.51100000000E-03 0. -1.
        -11    1    3    3    0    0  0.21623026091E+02  0.22026666774E+02 -0.48958319206E+01  0.31252175556E+02  0.51100000000E-03 0.  1.
         12    1    3    3    0    0 -0.27774086505E+02 -0.32771849506E+02  0.10630080801E+02  0.44253730002E+02  0.00000000000E+00 0. -1.
</event>
<event>
 7    1  0.1501154E-015  0.9000758E+02  0.7816164E-02  0.1186339E+00
        -11   -1    0    0    0    0  0.00000000000E+00  0.00000000000E+00  0.45593999997E+02  0.45594000000E+02  0.51100000000E-03 0.  1.
         11   -1    0    0    0    0 -0.00000000000E+00 -0.00000000000E+00 -0.45593999997E+02  0.45594000000E+02  0.51100000000E-03 0. -1.
    9900012    2    1    2    0    0  0.53923258671E+00 -0.73811063446E+00  0.74687550412E+00  0.90007575454E+02  0.89999834649E+02 0.  0.
         12    1    1    2    0    0 -0.53923258671E+00  0.73811063446E+00 -0.74687550412E+00  0.11804245465E+01  0.00000000000E+00 0. -1.
         11    1    3    3    0    0  0.67020170490E+01  0.37704724912E+01  0.62569970662E+01  0.99138039056E+01  0.51100000000E-03 0. -1.
        -11    1    3    3    0    0 -0.60961311922E+01 -0.23341076151E+02  0.30840189719E+02  0.39154641533E+02  0.51100000000E-03 0.  1.
         12    1    3    3    0    0 -0.66653270085E-01  0.18832493025E+02 -0.36350311281E+02  0.40939130015E+02  0.00000000000E+00 0. -1.
</event>
<event>
 7    1  0.1501154E-015  0.9000791E+02  0.7816164E-02  0.1186339E+00
        -11   -1    0    0    0    0  0.00000000000E+00  0.00000000000E+00  0.45593999997E+02  0.45594000000E+02  0.51100000000E-03 0.  1.
         11   -1    0    0    0    0 -0.00000000000E+00 -0.00000000000E+00 -0.45593999997E+02  0.45594000000E+02  0.51100000000E-03 0. -1.
    9900012    2    1    2    0    0 -0.62201072964E+00 -0.87451362644E-01  0.99903758575E+00  0.90007906281E+02  0.90000169843E+02 0.  0.
         12    1    1    2    0    0  0.62201072964E+00  0.87451362644E-01 -0.99903758575E+00  0.11800937193E+01  0.00000000000E+00 0. -1.
         11    1    3    3    0    0 -0.55940271726E+00 -0.62531896799E+01  0.66614367405E+01  0.91536906372E+01  0.51100000000E-03 0. -1.
        -11    1    3    3    0    0 -0.30183957890E+02 -0.23584078240E+02 -0.19246194171E+01  0.38353412110E+02  0.51100000000E-03 0.  1.
         12    1    3    3    0    0  0.30121349877E+02  0.29749816557E+02 -0.37377797377E+01  0.42500803533E+02  0.00000000000E+00 0. -1.
</event>
<event>
 7    1  0.1501154E-015  0.9000791E+02  0.7816164E-02  0.1186339E+00
        -11   -1    0    0    0    0  0.00000000000E+00  0.00000000000E+00  0.45593999997E+02  0.45594000000E+02  0.51100000000E-03 0. -1.
         11   -1    0    0    0    0 -0.00000000000E+00 -0.00000000000E+00 -0.45593999997E+02  0.45594000000E+02  0.51100000000E-03 0.  1.
    9900012    2    1    2    0    0 -0.70164917912E+00 -0.37913370859E+00 -0.86979879707E+00  0.90007913610E+02  0.90000177270E+02 0.  0.
         12    1    1    2    0    0  0.70164917912E+00  0.37913370859E+00  0.86979879707E+00  0.11800863896E+01  0.00000000000E+00 0. -1.
         11    1    3    3    0    0  0.43259829318E+00  0.85270329216E+01 -0.68564423953E+01  0.10950261838E+02  0.51100000000E-03 0. -1.
        -11    1    3    3    0    0 -0.12605265040E+02 -0.23369111184E+02 -0.29111191957E+02  0.39401390352E+02  0.51100000000E-03 0.  1.
         12    1    3    3    0    0  0.11471017567E+02  0.14462944554E+02  0.35097835555E+02  0.39656261421E+02  0.00000000000E+00 0. -1.
</event>
<event>
 7    1  0.1501154E-015  0.9000775E+02  0.7816164E-02  0.1186339E+00
        -11   -1    0    0    0    0  0.00000000000E+00  0.00000000000E+00  0.45593999997E+02  0.45594000000E+02  0.51100000000E-03 0.  1.
         11   -1    0    0    0    0 -0.00000000000E+00 -0.00000000000E+00 -0.45593999997E+02  0.45594000000E+02  0.51100000000E-03 0. -1.
    9900012    2    1    2    0    0  0.51608062667E+00  0.10600773006E+01  0.53667417332E-01  0.90007752870E+02  0.90000014408E+02 0.  0.
         12    1    1    2    0    0 -0.51608062667E+00 -0.10600773006E+01 -0.53667417332E-01  0.11802471301E+01  0.00000000000E+00 0. -1.
         11    1    3    3    0    0 -0.24208927218E+01  0.22175581971E+01  0.81174760757E+01  0.87562380067E+01  0.51100000000E-03 0. -1.
        -11    1    3    3    0    0 -0.16734385491E+02  0.19533688700E+02  0.26157141611E+02  0.36685156529E+02  0.51100000000E-03 0.  1.
         12    1    3    3    0    0  0.19671358840E+02 -0.20691169597E+02 -0.34220950269E+02  0.44566358335E+02  0.00000000000E+00 0. -1.
</event>
<event>
 7    1  0.1501154E-015  0.9000773E+02  0.7816164E-02  0.1186339E+00
        -11   -1    0    0    0    0  0.00000000000E+00  0.00000000000E+00  0.45593999997E+02  0.45594000000E+02  0.51100000000E-03 0.  1.
         11   -1    0    0    0    0 -0.00000000000E+00 -0.00000000000E+00 -0.45593999997E+02  0.45594000000E+02  0.51100000000E-03 0. -1.
    9900012    2    1    2    0    0  0.57414972427E+00  0.10165418971E+01  0.17326542281E+00  0.90007734673E+02  0.89999995971E+02 0.  0.
         12    1    1    2    0    0 -0.57414972427E+00 -0.10165418971E+01 -0.17326542281E+00  0.11802653266E+01  0.00000000000E+00 0. -1.
         11    1    3    3    0    0  0.24871144288E+02 -0.16188741227E+02 -0.20090688700E+02  0.35836921372E+02  0.51100000000E-03 0. -1.
        -11    1    3    3    0    0  0.43670111106E+01 -0.68381481054E+01 -0.45257597010E+01  0.92905089572E+01  0.51100000000E-03 0.  1.
        -12    1    3    3    0    0 -0.28664005674E+02  0.24043431230E+02  0.24789713824E+02  0.44880304344E+02  0.00000000000E+00 0.  1.
</event>
<event>
 7    1  0.1501154E-015  0.9000765E+02  0.7816164E-02  0.1186339E+00
        -11   -1    0    0    0    0  0.00000000000E+00  0.00000000000E+00  0.45593999997E+02  0.45594000000E+02  0.51100000000E-03 0. -1.
         11   -1    0    0    0    0 -0.00000000000E+00 -0.00000000000E+00 -0.45593999997E+02  0.45594000000E+02  0.51100000000E-03 0.  1.
    9900012    2    1    2    0    0  0.30103423741E+00 -0.94734526025E+00  0.63650520324E+00  0.90007651099E+02  0.89999911294E+02 0.  0.
         12    1    1    2    0    0 -0.30103423741E+00  0.94734526025E+00 -0.63650520324E+00  0.11803489009E+01  0.00000000000E+00 0. -1.
         11    1    3    3    0    0 -0.13541181327E+02 -0.79149280690E+01  0.50313693766E+01  0.16471926303E+02  0.51100000000E-03 0. -1.
        -11    1    3    3    0    0 -0.29335747562E+01 -0.30275528678E+02  0.68295538360E+01  0.31174609917E+02  0.51100000000E-03 0.  1.
         12    1    3    3    0    0  0.16775790321E+02  0.37243111487E+02 -0.11224418009E+02  0.42361114879E+02  0.00000000000E+00 0. -1.
</event>
<event>
 7    1  0.1501154E-015  0.9000775E+02  0.7816164E-02  0.1186339E+00
        -11   -1    0    0    0    0  0.00000000000E+00  0.00000000000E+00  0.45593999997E+02  0.45594000000E+02  0.51100000000E-03 0. -1.
         11   -1    0    0    0    0 -0.00000000000E+00 -0.00000000000E+00 -0.45593999997E+02  0.45594000000E+02  0.51100000000E-03 0.  1.
    9900012    2    1    2    0    0  0.61685070423E+00  0.75137236986E+00  0.66926857364E+00  0.90007751868E+02  0.90000013393E+02 0.  0.
         12    1    1    2    0    0 -0.61685070423E+00 -0.75137236986E+00 -0.66926857364E+00  0.11802481320E+01  0.00000000000E+00 0. -1.
         11    1    3    3    0    0 -0.93857338530E+01 -0.41435154326E+01  0.11101962648E+02  0.15116689287E+02  0.51100000000E-03 0. -1.
        -11    1    3    3    0    0  0.17008612053E+02  0.34778998798E+02  0.73656814954E+01  0.39409705727E+02  0.51100000000E-03 0.  1.
         12    1    3    3    0    0 -0.70060274954E+01 -0.29884110996E+02 -0.17798375570E+02  0.35481356854E+02  0.00000000000E+00 0. -1.
</event>
<event>
 7    1  0.1501154E-015  0.9000747E+02  0.7816164E-02  0.1186340E+00
        -11   -1    0    0    0    0  0.00000000000E+00  0.00000000000E+00  0.45593999997E+02  0.45594000000E+02  0.51100000000E-03 0.  1.
         11   -1    0    0    0    0 -0.00000000000E+00 -0.00000000000E+00 -0.45593999997E+02  0.45594000000E+02  0.51100000000E-03 0. -1.
    9900012    2    1    2    0    0  0.86256927365E+00  0.74002408068E+00  0.31936479151E+00  0.90007468229E+02  0.89999726009E+02 0.  0.
         12    1    1    2    0    0 -0.86256927365E+00 -0.74002408068E+00 -0.31936479151E+00  0.11805317708E+01  0.00000000000E+00 0. -1.
         11    1    3    3    0    0  0.36424972486E+01 -0.61420249099E+01  0.59197725354E+01  0.92755573058E+01  0.51100000000E-03 0. -1.
        -11    1    3    3    0    0  0.57652865562E+01 -0.11054084045E+02  0.34116408170E+02  0.36323003866E+02  0.51100000000E-03 0.  1.
         12    1    3    3    0    0 -0.85452145312E+01  0.17936133035E+02 -0.39716815914E+02  0.44408907057E+02  0.00000000000E+00 0. -1.
</event>
<event>
 7    1  0.1501154E-015  0.9000736E+02  0.7816164E-02  0.1186340E+00
        -11   -1    0    0    0    0  0.00000000000E+00  0.00000000000E+00  0.45593999997E+02  0.45594000000E+02  0.51100000000E-03 0.  1.
         11   -1    0    0    0    0 -0.00000000000E+00 -0.00000000000E+00 -0.45593999997E+02  0.45594000000E+02  0.51100000000E-03 0. -1.
    9900012    2    1    2    0    0 -0.53388245155E+00 -0.92242194975E+00 -0.50795228337E+00  0.90007361085E+02  0.89999617450E+02 0.  0.
         12    1    1    2    0    0  0.53388245155E+00  0.92242194975E+00  0.50795228337E+00  0.11806389150E+01  0.00000000000E+00 0. -1.
         11    1    3    3    0    0  0.33382555550E+01  0.33255974092E-01 -0.86652399480E+01  0.92860885053E+01  0.51100000000E-03 0. -1.
        -11    1    3    3    0    0  0.36882252793E+02  0.36417462720E+01 -0.55575917468E+01  0.37475988490E+02  0.51100000000E-03 0.  1.
         12    1    3    3    0    0 -0.40754390800E+02 -0.45974241958E+01  0.13714879411E+02  0.43245284090E+02  0.00000000000E+00 0. -1.
</event>
<event>
 7    1  0.1501154E-015  0.9000774E+02  0.7816164E-02  0.1186339E+00
        -11   -1    0    0    0    0  0.00000000000E+00  0.00000000000E+00  0.45593999997E+02  0.45594000000E+02  0.51100000000E-03 0.  1.
         11   -1    0    0    0    0 -0.00000000000E+00 -0.00000000000E+00 -0.45593999997E+02  0.45594000000E+02  0.51100000000E-03 0. -1.
    9900012    2    1    2    0    0 -0.17176305353E+00 -0.75477183297E+00  0.89097519236E+00  0.90007737377E+02  0.89999998710E+02 0.  0.
         12    1    1    2    0    0  0.17176305353E+00  0.75477183297E+00 -0.89097519236E+00  0.11802626232E+01  0.00000000000E+00 0. -1.
         11    1    3    3    0    0  0.78100598225E-02 -0.29350400320E+02  0.77809235555E+01  0.30364268995E+02  0.51100000000E-03 0. -1.
        -11    1    3    3    0    0  0.23016261972E+02  0.25387321753E+01  0.30832761631E+01  0.23360224065E+02  0.51100000000E-03 0.  1.
        -12    1    3    3    0    0 -0.23195835085E+02  0.26056896312E+02 -0.99732245263E+01  0.36283244317E+02  0.00000000000E+00 0.  1.
</event>
<event>
 7    1  0.1501154E-015  0.9000774E+02  0.7816164E-02  0.1186339E+00
        -11   -1    0    0    0    0  0.00000000000E+00  0.00000000000E+00  0.45593999997E+02  0.45594000000E+02  0.51100000000E-03 0.  1.
         11   -1    0    0    0    0 -0.00000000000E+00 -0.00000000000E+00 -0.45593999997E+02  0.45594000000E+02  0.51100000000E-03 0. -1.
    9900012    2    1    2    0    0 -0.75048413302E+00 -0.71325999968E+00 -0.56661910608E+00  0.90007735846E+02  0.89999997160E+02 0.  0.
         12    1    1    2    0    0  0.75048413302E+00  0.71325999968E+00  0.56661910608E+00  0.11802641537E+01  0.00000000000E+00 0. -1.
         11    1    3    3    0    0  0.34632131579E+02 -0.20331019613E+02  0.48204631000E+01  0.40447147748E+02  0.51100000000E-03 0. -1.
        -11    1    3    3    0    0  0.15035980420E+00  0.66403548678E+01  0.71016955543E+01  0.97237338944E+01  0.51100000000E-03 0.  1.
        -12    1    3    3    0    0 -0.35532975516E+02  0.12977404745E+02 -0.12488777760E+02  0.39836854204E+02  0.00000000000E+00 0.  1.
</event>
<event>
 7    1  0.1501154E-015  0.9000774E+02  0.7816164E-02  0.1186339E+00
        -11   -1    0    0    0    0  0.00000000000E+00  0.00000000000E+00  0.45593999997E+02  0.45594000000E+02  0.51100000000E-03 0.  1.
         11   -1    0    0    0    0 -0.00000000000E+00 -0.00000000000E+00 -0.45593999997E+02  0.45594000000E+02  0.51100000000E-03 0. -1.
    9900012    2    1    2    0    0  0.10481780896E+01 -0.30210116393E+00  0.45063507435E+00  0.90007739694E+02  0.90000001058E+02 0.  0.
         12    1    1    2    0    0 -0.10481780896E+01  0.30210116393E+00 -0.45063507435E+00  0.11802603064E+01  0.00000000000E+00 0. -1.
         11    1    3    3    0    0  0.47223978964E+01  0.25372543978E+01 -0.77694017666E+01  0.94394017735E+01  0.51100000000E-03 0. -1.
        -11    1    3    3    0    0  0.16862880530E+02  0.31120209592E+02  0.17978666217E+02  0.39699579645E+02  0.51100000000E-03 0.  1.
         12    1    3    3    0    0 -0.20537100337E+02 -0.33959565153E+02 -0.97586293758E+01  0.40868758275E+02  0.00000000000E+00 0. -1.
</event>
<event>
 7    1  0.1501154E-015  0.9000744E+02  0.7816164E-02  0.1186340E+00
        -11   -1    0    0    0    0  0.00000000000E+00  0.00000000000E+00  0.45593999997E+02  0.45594000000E+02  0.51100000000E-03 0. -1.
         11   -1    0    0    0    0 -0.00000000000E+00 -0.00000000000E+00 -0.45593999997E+02  0.45594000000E+02  0.51100000000E-03 0.  1.
    9900012    2    1    2    0    0  0.26158797368E+00 -0.11429305025E+01 -0.13783067356E+00  0.90007442633E+02  0.89999700076E+02 0.  0.
         12    1    1    2    0    0 -0.26158797368E+00  0.11429305025E+01  0.13783067356E+00  0.11805573667E+01  0.00000000000E+00 0. -1.
         11    1    3    3    0    0 -0.91588094207E+01 -0.59573720658E+01  0.21797038456E+00  0.10928018269E+02  0.51100000000E-03 0. -1.
        -11    1    3    3    0    0 -0.75664284254E+01 -0.26867525482E+02 -0.23362215362E+02  0.36399283943E+02  0.51100000000E-03 0.  1.
         12    1    3    3    0    0  0.16986825820E+02  0.31681967045E+02  0.23006414304E+02  0.42680140422E+02  0.00000000000E+00 0. -1.
</event>
<event>
 7    1  0.1501154E-015  0.9000771E+02  0.7816164E-02  0.1186339E+00
        -11   -1    0    0    0    0  0.00000000000E+00  0.00000000000E+00  0.45593999997E+02  0.45594000000E+02  0.51100000000E-03 0. -1.
         11   -1    0    0    0    0 -0.00000000000E+00 -0.00000000000E+00 -0.45593999997E+02  0.45594000000E+02  0.51100000000E-03 0.  1.
    9900012    2    1    2    0    0 -0.47053437868E+00  0.10697677473E+01 -0.16513180363E+00  0.90007714379E+02  0.89999975409E+02 0.  0.
         12    1    1    2    0    0  0.47053437868E+00 -0.10697677473E+01  0.16513180363E+00  0.11802856210E+01  0.00000000000E+00 0. -1.
         11    1    3    3    0    0 -0.65095045655E+01  0.81869812431E+01  0.16467764531E+01  0.10588304138E+02  0.51100000000E-03 0. -1.
        -11    1    3    3    0    0  0.26315804602E+02  0.27447296172E+02  0.62735744016E+01  0.38538725654E+02  0.51100000000E-03 0.  1.
         12    1    3    3    0    0 -0.20276834415E+02 -0.34564509668E+02 -0.80854826583E+01  0.40880684587E+02  0.00000000000E+00 0. -1.
</event>
<event>
 7    1  0.1501154E-015  0.9000770E+02  0.7816164E-02  0.1186339E+00
        -11   -1    0    0    0    0  0.00000000000E+00  0.00000000000E+00  0.45593999997E+02  0.45594000000E+02  0.51100000000E-03 0.  1.
         11   -1    0    0    0    0 -0.00000000000E+00 -0.00000000000E+00 -0.45593999997E+02  0.45594000000E+02  0.51100000000E-03 0. -1.
    9900012    2    1    2    0    0 -0.46937301298E-01 -0.11639575516E+01  0.19004575296E+00  0.90007695937E+02  0.89999956724E+02 0.  0.
         12    1    1    2    0    0  0.46937301298E-01  0.11639575516E+01 -0.19004575296E+00  0.11803040627E+01  0.00000000000E+00 0. -1.
         11    1    3    3    0    0 -0.39617008411E+01 -0.27043989118E+02 -0.33567071672E+02  0.43287650916E+02  0.51100000000E-03 0. -1.
        -11    1    3    3    0    0  0.62035833872E+01  0.63912676122E+01  0.16011362658E+01  0.90496622111E+01  0.51100000000E-03 0.  1.
        -12    1    3    3    0    0 -0.22888198474E+01  0.19488763954E+02  0.32155981159E+02  0.37670382810E+02  0.00000000000E+00 0.  1.
</event>
<event>
 7    1  0.1501154E-015  0.9000771E+02  0.7816164E-02  0.1186339E+00
        -11   -1    0    0    0    0  0.00000000000E+00  0.00000000000E+00  0.45593999997E+02  0.45594000000E+02  0.51100000000E-03 0. -1.
         11   -1    0    0    0    0 -0.00000000000E+00 -0.00000000000E+00 -0.45593999997E+02  0.45594000000E+02  0.51100000000E-03 0.  1.
    9900012    2    1    2    0    0  0.75504084087E+00  0.22181737554E+00 -0.87966217703E+00  0.90007705475E+02  0.89999966388E+02 0.  0.
         12    1    1    2    0    0 -0.75504084087E+00 -0.22181737554E+00  0.87966217703E+00  0.11802945248E+01  0.00000000000E+00 0. -1.
         11    1    3    3    0    0  0.65813797800E+01  0.59987961089E+01  0.21128014269E+02  0.22927998207E+02  0.51100000000E-03 0. -1.
        -11    1    3    3    0    0  0.27297564762E+02  0.40480453577E+01 -0.33082541728E+01  0.27793673005E+02  0.51100000000E-03 0.  1.
        -12    1    3    3    0    0 -0.33123903701E+02 -0.98250240911E+01 -0.18699422273E+02  0.39286034264E+02  0.00000000000E+00 0.  1.
</event>
<event>
 7    1  0.1501154E-015  0.9000777E+02  0.7816164E-02  0.1186339E+00
        -11   -1    0    0    0    0  0.00000000000E+00  0.00000000000E+00  0.45593999997E+02  0.45594000000E+02  0.51100000000E-03 0. -1.
         11   -1    0    0    0    0 -0.00000000000E+00 -0.00000000000E+00 -0.45593999997E+02  0.45594000000E+02  0.51100000000E-03 0.  1.
    9900012    2    1    2    0    0 -0.87232336468E+00 -0.37084148189E+00  0.70317934700E+00  0.90007774322E+02  0.90000036143E+02 0.  0.
         12    1    1    2    0    0  0.87232336468E+00  0.37084148189E+00 -0.70317934700E+00  0.11802256781E+01  0.00000000000E+00 0. -1.
         11    1    3    3    0    0  0.37790450589E+02  0.34021492270E+01 -0.57282829693E+01  0.38373245903E+02  0.51100000000E-03 0. -1.
        -11    1    3    3    0    0  0.10203656701E+01  0.93241649419E+01  0.21831166482E+01  0.96305345919E+01  0.51100000000E-03 0.  1.
        -12    1    3    3    0    0 -0.39683139624E+02 -0.13097155651E+02  0.42483456681E+01  0.42003993827E+02  0.00000000000E+00 0.  1.
</event>
<event>
 7    1  0.1501154E-015  0.9000776E+02  0.7816164E-02  0.1186339E+00
        -11   -1    0    0    0    0  0.00000000000E+00  0.00000000000E+00  0.45593999997E+02  0.45594000000E+02  0.51100000000E-03 0.  1.
         11   -1    0    0    0    0 -0.00000000000E+00 -0.00000000000E+00 -0.45593999997E+02  0.45594000000E+02  0.51100000000E-03 0. -1.
    9900012    2    1    2    0    0  0.49739545939E+00 -0.45606541688E+00  0.96827670163E+00  0.90007763719E+02  0.90000025400E+02 0.  0.
         12    1    1    2    0    0 -0.49739545939E+00  0.45606541688E+00 -0.96827670163E+00  0.11802362808E+01  0.00000000000E+00 0. -1.
         11    1    3    3    0    0 -0.52044456035E+01 -0.81573156249E+01  0.22611253309E+01  0.99368375386E+01  0.51100000000E-03 0. -1.
        -11    1    3    3    0    0 -0.23599977489E+02 -0.15215554341E+01  0.28665899581E+02  0.37161914206E+02  0.51100000000E-03 0.  1.
         12    1    3    3    0    0  0.29301818552E+02  0.92228056422E+01 -0.29958748210E+02  0.42909011975E+02  0.00000000000E+00 0. -1.
</event>
<event>
 7    1  0.1501154E-015  0.9000760E+02  0.7816164E-02  0.1186339E+00
        -11   -1    0    0    0    0  0.00000000000E+00  0.00000000000E+00  0.45593999997E+02  0.45594000000E+02  0.51100000000E-03 0.  1.
         11   -1    0    0    0    0 -0.00000000000E+00 -0.00000000000E+00 -0.45593999997E+02  0.45594000000E+02  0.51100000000E-03 0. -1.
    9900012    2    1    2    0    0 -0.17954737565E+00  0.52460342502E+00  0.10420631821E+01  0.90007601047E+02  0.89999860580E+02 0.  0.
         12    1    1    2    0    0  0.17954737565E+00 -0.52460342502E+00 -0.10420631821E+01  0.11803989534E+01  0.00000000000E+00 0. -1.
         11    1    3    3    0    0  0.59341350847E+01  0.83614051164E+01 -0.47031082399E+01  0.11280349379E+02  0.51100000000E-03 0. -1.
        -11    1    3    3    0    0  0.10166775667E+01  0.16449997298E+02  0.35813192048E+02  0.39423606752E+02  0.51100000000E-03 0.  1.
         12    1    3    3    0    0 -0.71303600270E+01 -0.24286798990E+02 -0.30068020626E+02  0.39303644916E+02  0.00000000000E+00 0. -1.
</event>
<event>
 7    1  0.1501154E-015  0.9000780E+02  0.7816164E-02  0.1186339E+00
        -11   -1    0    0    0    0  0.00000000000E+00  0.00000000000E+00  0.45593999997E+02  0.45594000000E+02  0.51100000000E-03 0.  1.
         11   -1    0    0    0    0 -0.00000000000E+00 -0.00000000000E+00 -0.45593999997E+02  0.45594000000E+02  0.51100000000E-03 0. -1.
    9900012    2    1    2    0    0  0.10657279365E+01 -0.38831167043E+00  0.32605597709E+00  0.90007798963E+02  0.90000061109E+02 0.  0.
         12    1    1    2    0    0 -0.10657279365E+01  0.38831167043E+00 -0.32605597709E+00  0.11802010372E+01  0.00000000000E+00 0. -1.
         11    1    3    3    0    0  0.20721423846E+02 -0.29999477441E+02 -0.45887229033E+01  0.36747822127E+02  0.51100000000E-03 0. -1.
        -11    1    3    3    0    0  0.66100773404E+01 -0.43447493711E+01  0.65941422024E+01  0.10298188248E+02  0.51100000000E-03 0.  1.
        -12    1    3    3    0    0 -0.26265773250E+02  0.33955915142E+02 -0.16793633220E+01  0.42961788588E+02  0.00000000000E+00 0.  1.
</event>
<event>
 7    1  0.1501154E-015  0.9000774E+02  0.7816164E-02  0.1186339E+00
        -11   -1    0    0    0    0  0.00000000000E+00  0.00000000000E+00  0.45593999997E+02  0.45594000000E+02  0.51100000000E-03 0.  1.
         11   -1    0    0    0    0 -0.00000000000E+00 -0.00000000000E+00 -0.45593999997E+02  0.45594000000E+02  0.51100000000E-03 0. -1.
    9900012    2    1    2    0    0  0.84003867552E+00  0.79904845447E+00  0.22105101590E+00  0.90007742841E+02  0.90000004247E+02 0.  0.
         12    1    1    2    0    0 -0.84003867552E+00 -0.79904845447E+00 -0.22105101590E+00  0.11802571587E+01  0.00000000000E+00 0. -1.
         11    1    3    3    0    0  0.18680408208E+01  0.26226461430E+01 -0.66744864304E+01  0.74105747868E+01  0.51100000000E-03 0. -1.
        -11    1    3    3    0    0  0.22508864086E+02 -0.23560486649E+02 -0.22111229677E+02  0.39378318548E+02  0.51100000000E-03 0.  1.
         12    1    3    3    0    0 -0.23536866231E+02  0.21736888961E+02  0.29006767124E+02  0.43218849506E+02  0.00000000000E+00 0. -1.
</event>
<event>
 7    1  0.1501155E-015  0.9000781E+02  0.7816164E-02  0.1186339E+00
        -11   -1    0    0    0    0  0.00000000000E+00  0.00000000000E+00  0.45593999997E+02  0.45594000000E+02  0.51100000000E-03 0. -1.
         11   -1    0    0    0    0 -0.00000000000E+00 -0.00000000000E+00 -0.45593999997E+02  0.45594000000E+02  0.51100000000E-03 0.  1.
    9900012    2    1    2    0    0 -0.62179561668E+00  0.68121614545E+00 -0.73632077732E+00  0.90007807849E+02  0.90000070113E+02 0.  0.
         12    1    1    2    0    0  0.62179561668E+00 -0.68121614545E+00  0.73632077732E+00  0.11801921508E+01  0.00000000000E+00 0. -1.
         11    1    3    3    0    0  0.15943095854E+02 -0.17676140973E+02  0.31882974840E+02  0.39788847056E+02  0.51100000000E-03 0. -1.
        -11    1    3    3    0    0 -0.87006613680E+01 -0.50611803698E+01 -0.10315731044E+01  0.10118359467E+02  0.51100000000E-03 0.  1.
        -12    1    3    3    0    0 -0.78642301030E+01  0.23418537488E+02 -0.31587722513E+02  0.40100601326E+02  0.00000000000E+00 0.  1.
</event>
<event>
 7    1  0.1501154E-015  0.9000774E+02  0.7816164E-02  0.1186339E+00
        -11   -1    0    0    0    0  0.00000000000E+00  0.00000000000E+00  0.45593999997E+02  0.45594000000E+02  0.51100000000E-03 0. -1.
         11   -1    0    0    0    0 -0.00000000000E+00 -0.00000000000E+00 -0.45593999997E+02  0.45594000000E+02  0.51100000000E-03 0.  1.
    9900012    2    1    2    0    0 -0.13827837725E-02  0.92349767334E+00 -0.73495468539E+00  0.90007742293E+02  0.90000003692E+02 0.  0.
         12    1    1    2    0    0  0.13827837725E-02 -0.92349767334E+00  0.73495468539E+00  0.11802577067E+01  0.00000000000E+00 0. -1.
         11    1    3    3    0    0  0.50122620371E+01  0.49393825832E+01 -0.62016636683E+01  0.93798136201E+01  0.51100000000E-03 0. -1.
        -11    1    3    3    0    0  0.29036415707E+02  0.12772133542E+02  0.22628602283E+02  0.38965298329E+02  0.51100000000E-03 0.  1.
         12    1    3    3    0    0 -0.34050060528E+02 -0.16788018452E+02 -0.17161893300E+02  0.41662630344E+02  0.00000000000E+00 0. -1.
</event>
<event>
 7    1  0.1501154E-015  0.9000769E+02  0.7816164E-02  0.1186339E+00
        -11   -1    0    0    0    0  0.00000000000E+00  0.00000000000E+00  0.45593999997E+02  0.45594000000E+02  0.51100000000E-03 0.  1.
         11   -1    0    0    0    0 -0.00000000000E+00 -0.00000000000E+00 -0.45593999997E+02  0.45594000000E+02  0.51100000000E-03 0. -1.
    9900012    2    1    2    0    0 -0.59734050067E-01 -0.11106875604E+01  0.39490240321E+00  0.90007685245E+02  0.89999945890E+02 0.  0.
         12    1    1    2    0    0  0.59734050067E-01  0.11106875604E+01 -0.39490240321E+00  0.11803147553E+01  0.00000000000E+00 0. -1.
         11    1    3    3    0    0  0.31125136955E+01 -0.31618359291E+01  0.11774565991E+02  0.12582740261E+02  0.51100000000E-03 0. -1.
        -11    1    3    3    0    0  0.38561175275E+01 -0.47003409825E+01  0.32199954077E+02  0.32768886014E+02  0.51100000000E-03 0.  1.
         12    1    3    3    0    0 -0.70283652731E+01  0.67514893512E+01 -0.43579617665E+02  0.44656058970E+02  0.00000000000E+00 0. -1.
</event>
<event>
 7    1  0.1501154E-015  0.9000779E+02  0.7816164E-02  0.1186339E+00
        -11   -1    0    0    0    0  0.00000000000E+00  0.00000000000E+00  0.45593999997E+02  0.45594000000E+02  0.51100000000E-03 0.  1.
         11   -1    0    0    0    0 -0.00000000000E+00 -0.00000000000E+00 -0.45593999997E+02  0.45594000000E+02  0.51100000000E-03 0. -1.
    9900012    2    1    2    0    0  0.11437744980E+01 -0.28644518219E+00 -0.51304027850E-01  0.90007786863E+02  0.90000048850E+02 0.  0.
         12    1    1    2    0    0 -0.11437744980E+01  0.28644518219E+00  0.51304027850E-01  0.11802131367E+01  0.00000000000E+00 0. -1.
         11    1    3    3    0    0 -0.30683817870E+02  0.16353011755E+02 -0.17301762935E+02  0.38836434871E+02  0.51100000000E-03 0. -1.
        -11    1    3    3    0    0  0.76842308917E+01  0.80293132694E+01 -0.25158229671E+01  0.11395027049E+02  0.51100000000E-03 0.  1.
        -12    1    3    3    0    0  0.24143361476E+02 -0.24668770207E+02  0.19766281874E+02  0.39776324944E+02  0.00000000000E+00 0.  1.
</event>
<event>
 7    1  0.1501154E-015  0.9000778E+02  0.7816164E-02  0.1186339E+00
        -11   -1    0    0    0    0  0.00000000000E+00  0.00000000000E+00  0.45593999997E+02  0.45594000000E+02  0.51100000000E-03 0.  1.
         11   -1    0    0    0    0 -0.00000000000E+00 -0.00000000000E+00 -0.45593999997E+02  0.45594000000E+02  0.51100000000E-03 0. -1.
    9900012    2    1    2    0    0  0.59228161014E+00  0.79244664054E+00 -0.64355139408E+00  0.90007776470E+02  0.90000038319E+02 0.  0.
         12    1    1    2    0    0 -0.59228161014E+00 -0.79244664054E+00  0.64355139408E+00  0.11802235299E+01  0.00000000000E+00 0. -1.
         11    1    3    3    0    0 -0.10412249524E+02 -0.36413935366E+02  0.72013836599E+01  0.38551907293E+02  0.51100000000E-03 0. -1.
        -11    1    3    3    0    0  0.27053536600E+01 -0.60718298224E+01 -0.23375233768E+01  0.70462806938E+01  0.51100000000E-03 0.  1.
        -12    1    3    3    0    0  0.82991774741E+01  0.43278211829E+02 -0.55074116772E+01  0.44409588484E+02  0.00000000000E+00 0.  1.
</event>
<event>
 7    1  0.1501154E-015  0.9000762E+02  0.7816164E-02  0.1186339E+00
        -11   -1    0    0    0    0  0.00000000000E+00  0.00000000000E+00  0.45593999997E+02  0.45594000000E+02  0.51100000000E-03 0.  1.
         11   -1    0    0    0    0 -0.00000000000E+00 -0.00000000000E+00 -0.45593999997E+02  0.45594000000E+02  0.51100000000E-03 0. -1.
    9900012    2    1    2    0    0  0.84229579326E+00 -0.47813586748E+00  0.67469209636E+00  0.90007624833E+02  0.89999884680E+02 0.  0.
         12    1    1    2    0    0 -0.84229579326E+00  0.47813586748E+00 -0.67469209636E+00  0.11803751675E+01  0.00000000000E+00 0. -1.
         11    1    3    3    0    0  0.24084015742E+01 -0.33734806485E+02 -0.18478121800E+02  0.38539311777E+02  0.51100000000E-03 0. -1.
        -11    1    3    3    0    0 -0.93171294473E+01 -0.28461657253E+01  0.87768494060E+01  0.13112690274E+02  0.51100000000E-03 0.  1.
        -12    1    3    3    0    0  0.77510236664E+01  0.36102836343E+02  0.10375964490E+02  0.38355622782E+02  0.00000000000E+00 0.  1.
</event>
<event>
 7    1  0.1501154E-015  0.9000784E+02  0.7816164E-02  0.1186339E+00
        -11   -1    0    0    0    0  0.00000000000E+00  0.00000000000E+00  0.45593999997E+02  0.45594000000E+02  0.51100000000E-03 0.  1.
         11   -1    0    0    0    0 -0.00000000000E+00 -0.00000000000E+00 -0.45593999997E+02  0.45594000000E+02  0.51100000000E-03 0. -1.
    9900012    2    1    2    0    0  0.44855124356E+00 -0.79470084175E+00  0.74835599594E+00  0.90007837154E+02  0.90000099805E+02 0.  0.
         12    1    1    2    0    0 -0.44855124356E+00  0.79470084175E+00 -0.74835599594E+00  0.11801628458E+01  0.00000000000E+00 0. -1.
         11    1    3    3    0    0 -0.36566673477E+00  0.55542789694E+01 -0.70804289486E+01  0.90064533190E+01  0.51100000000E-03 0. -1.
        -11    1    3    3    0    0  0.37293824128E+02  0.75673159089E+01  0.15711506211E+02  0.41169709931E+02  0.51100000000E-03 0.  1.
         12    1    3    3    0    0 -0.36479606150E+02 -0.13916295720E+02 -0.78827212663E+01  0.39831673904E+02  0.00000000000E+00 0. -1.
</event>
<event>
 7    1  0.1501154E-015  0.9000775E+02  0.7816164E-02  0.1186339E+00
        -11   -1    0    0    0    0  0.00000000000E+00  0.00000000000E+00  0.45593999997E+02  0.45594000000E+02  0.51100000000E-03 0.  1.
         11   -1    0    0    0    0 -0.00000000000E+00 -0.00000000000E+00 -0.45593999997E+02  0.45594000000E+02  0.51100000000E-03 0. -1.
    9900012    2    1    2    0    0  0.55223156181E+00  0.54253016875E+00  0.89089535051E+00  0.90007748668E+02  0.90000010150E+02 0.  0.
         12    1    1    2    0    0 -0.55223156181E+00 -0.54253016875E+00 -0.89089535051E+00  0.11802513323E+01  0.00000000000E+00 0. -1.
         11    1    3    3    0    0  0.22884035582E+02  0.23265661146E+02 -0.12944570808E+02  0.35107434921E+02  0.51100000000E-03 0. -1.
        -11    1    3    3    0    0  0.58619167768E+01  0.50606815666E+01 -0.67600878999E+01  0.10279657333E+02  0.51100000000E-03 0.  1.
        -12    1    3    3    0    0 -0.28193720797E+02 -0.27783812544E+02  0.20595554058E+02  0.44620656414E+02  0.00000000000E+00 0.  1.
</event>
<event>
 7    1  0.1501154E-015  0.9000769E+02  0.7816164E-02  0.1186339E+00
        -11   -1    0    0    0    0  0.00000000000E+00  0.00000000000E+00  0.45593999997E+02  0.45594000000E+02  0.51100000000E-03 0.  1.
         11   -1    0    0    0    0 -0.00000000000E+00 -0.00000000000E+00 -0.45593999997E+02  0.45594000000E+02  0.51100000000E-03 0. -1.
    9900012    2    1    2    0    0  0.51233042372E+00 -0.89062466496E+00  0.58089007605E+00  0.90007691550E+02  0.89999952278E+02 0.  0.
         12    1    1    2    0    0 -0.51233042372E+00  0.89062466496E+00 -0.58089007605E+00  0.11803084501E+01  0.00000000000E+00 0. -1.
         11    1    3    3    0    0 -0.14173725155E+02 -0.31328124012E+02 -0.48087786866E+01  0.34719881791E+02  0.51100000000E-03 0. -1.
        -11    1    3    3    0    0 -0.18663433596E+00 -0.10236099253E+02  0.62073087744E+01  0.11972603842E+02  0.51100000000E-03 0.  1.
        -12    1    3    3    0    0  0.14872689914E+02  0.40673598600E+02 -0.81764001168E+00  0.43315205916E+02  0.00000000000E+00 0.  1.
</event>
<event>
 7    1  0.1501154E-015  0.9000775E+02  0.7816164E-02  0.1186339E+00
        -11   -1    0    0    0    0  0.00000000000E+00  0.00000000000E+00  0.45593999997E+02  0.45594000000E+02  0.51100000000E-03 0.  1.
         11   -1    0    0    0    0 -0.00000000000E+00 -0.00000000000E+00 -0.45593999997E+02  0.45594000000E+02  0.51100000000E-03 0. -1.
    9900012    2    1    2    0    0  0.35324219813E+00 -0.79301779789E+00  0.79958301007E+00  0.90007749913E+02  0.90000011412E+02 0.  0.
         12    1    1    2    0    0 -0.35324219813E+00  0.79301779789E+00 -0.79958301007E+00  0.11802500872E+01  0.00000000000E+00 0. -1.
         11    1    3    3    0    0  0.11429057851E+02  0.13737475818E+02 -0.27568255960E+01  0.18081529052E+02  0.51100000000E-03 0. -1.
        -11    1    3    3    0    0 -0.13764839761E+02  0.26952191594E+02  0.10879925416E+01  0.30283249056E+02  0.51100000000E-03 0.  1.
        -12    1    3    3    0    0  0.26890241077E+01 -0.41482685210E+02  0.24684160645E+01  0.41642971805E+02  0.00000000000E+00 0.  1.
</event>
<event>
 7    1  0.1501154E-015  0.9000771E+02  0.7816164E-02  0.1186339E+00
        -11   -1    0    0    0    0  0.00000000000E+00  0.00000000000E+00  0.45593999997E+02  0.45594000000E+02  0.51100000000E-03 0.  1.
         11   -1    0    0    0    0 -0.00000000000E+00 -0.00000000000E+00 -0.45593999997E+02  0.45594000000E+02  0.51100000000E-03 0. -1.
    9900012    2    1    2    0    0 -0.15921271391E+00 -0.80316979922E+00  0.85009163314E+00  0.90007709273E+02  0.89999970236E+02 0.  0.
         12    1    1    2    0    0  0.15921271391E+00  0.80316979922E+00 -0.85009163314E+00  0.11802907266E+01  0.00000000000E+00 0. -1.
         11    1    3    3    0    0  0.16418055965E+02 -0.26726510194E+02 -0.11176828456E+02  0.33298354365E+02  0.51100000000E-03 0. -1.
        -11    1    3    3    0    0  0.84144554359E+01  0.67923079815E+01  0.21308817761E+02  0.23895694646E+02  0.51100000000E-03 0.  1.
         12    1    3    3    0    0 -0.24991724114E+02  0.19131032413E+02 -0.92818976715E+01  0.32813660262E+02  0.00000000000E+00 0. -1.
</event>
<event>
 7    1  0.1501154E-015  0.9000779E+02  0.7816164E-02  0.1186339E+00
        -11   -1    0    0    0    0  0.00000000000E+00  0.00000000000E+00  0.45593999997E+02  0.45594000000E+02  0.51100000000E-03 0.  1.
         11   -1    0    0    0    0 -0.00000000000E+00 -0.00000000000E+00 -0.45593999997E+02  0.45594000000E+02  0.51100000000E-03 0. -1.
    9900012    2    1    2    0    0 -0.10015438814E+01  0.57701600101E+00  0.23846293467E+00  0.90007787230E+02  0.90000049221E+02 0.  0.
         12    1    1    2    0    0  0.10015438814E+01 -0.57701600101E+00 -0.23846293467E+00  0.11802127702E+01  0.00000000000E+00 0. -1.
         11    1    3    3    0    0  0.35026847626E+01  0.83151375776E+01  0.15439160451E+01  0.91539057509E+01  0.51100000000E-03 0. -1.
        -11    1    3    3    0    0  0.23673737026E+02 -0.21994729265E+02 -0.25424824988E+02  0.41117340212E+02  0.51100000000E-03 0.  1.
         12    1    3    3    0    0 -0.28177965670E+02  0.14256607688E+02  0.24119371878E+02  0.39736541267E+02  0.00000000000E+00 0. -1.
</event>
<event>
 7    1  0.1501154E-015  0.9000766E+02  0.7816164E-02  0.1186339E+00
        -11   -1    0    0    0    0  0.00000000000E+00  0.00000000000E+00  0.45593999997E+02  0.45594000000E+02  0.51100000000E-03 0. -1.
         11   -1    0    0    0    0 -0.00000000000E+00 -0.00000000000E+00 -0.45593999997E+02  0.45594000000E+02  0.51100000000E-03 0.  1.
    9900012    2    1    2    0    0  0.28172613767E+00 -0.11132804147E+01 -0.27284377937E+00  0.90007658259E+02  0.89999918548E+02 0.  0.
         12    1    1    2    0    0 -0.28172613767E+00  0.11132804147E+01  0.27284377937E+00  0.11803417414E+01  0.00000000000E+00 0. -1.
         11    1    3    3    0    0 -0.22344612401E+02 -0.26835753951E+01  0.31025096129E+02  0.38328055916E+02  0.51100000000E-03 0. -1.
        -11    1    3    3    0    0 -0.41835769413E+01  0.64939651687E+01  0.26280067396E+01  0.81596764225E+01  0.51100000000E-03 0.  1.
        -12    1    3    3    0    0  0.26809915480E+02 -0.49236701883E+01 -0.33925946648E+02  0.43519925920E+02  0.00000000000E+00 0.  1.
</event>
<event>
 7    1  0.1501154E-015  0.9000773E+02  0.7816164E-02  0.1186339E+00
        -11   -1    0    0    0    0  0.00000000000E+00  0.00000000000E+00  0.45593999997E+02  0.45594000000E+02  0.51100000000E-03 0. -1.
         11   -1    0    0    0    0 -0.00000000000E+00 -0.00000000000E+00 -0.45593999997E+02  0.45594000000E+02  0.51100000000E-03 0.  1.
    9900012    2    1    2    0    0 -0.73594118523E+00 -0.53642556110E-01 -0.92116916292E+00  0.90007729023E+02  0.89999990246E+02 0.  0.
         12    1    1    2    0    0  0.73594118523E+00  0.53642556110E-01  0.92116916292E+00  0.11802709768E+01  0.00000000000E+00 0. -1.
         11    1    3    3    0    0  0.27711202443E+02 -0.93153535346E+01  0.23520466208E+02  0.37521978668E+02  0.51100000000E-03 0. -1.
        -11    1    3    3    0    0  0.27659506231E+01  0.87178385005E+01  0.42503592635E+01  0.10085471982E+02  0.51100000000E-03 0.  1.
        -12    1    3    3    0    0 -0.31213094251E+02  0.54387247805E+00 -0.28691994634E+02  0.42400278373E+02  0.00000000000E+00 0.  1.
</event>
<event>
 7    1  0.1501154E-015  0.9000772E+02  0.7816164E-02  0.1186339E+00
        -11   -1    0    0    0    0  0.00000000000E+00  0.00000000000E+00  0.45593999997E+02  0.45594000000E+02  0.51100000000E-03 0.  1.
         11   -1    0    0    0    0 -0.00000000000E+00 -0.00000000000E+00 -0.45593999997E+02  0.45594000000E+02  0.51100000000E-03 0. -1.
    9900012    2    1    2    0    0  0.46839102119E+00 -0.10620131999E+01 -0.21398120905E+00  0.90007724548E+02  0.89999985712E+02 0.  0.
         12    1    1    2    0    0 -0.46839102119E+00  0.10620131999E+01  0.21398120905E+00  0.11802754523E+01  0.00000000000E+00 0. -1.
         11    1    3    3    0    0 -0.93095654868E+01  0.21213645435E+01 -0.53184015919E+01  0.10929482734E+02  0.51100000000E-03 0. -1.
        -11    1    3    3    0    0  0.26449721366E+02 -0.58975547076E+01  0.35286158258E+02  0.44491368564E+02  0.51100000000E-03 0.  1.
         12    1    3    3    0    0 -0.16671764857E+02  0.27141769642E+01 -0.30181737875E+02  0.34586873250E+02  0.00000000000E+00 0. -1.
</event>
<event>
 7    1  0.1501154E-015  0.9000775E+02  0.7816164E-02  0.1186339E+00
        -11   -1    0    0    0    0  0.00000000000E+00  0.00000000000E+00  0.45593999997E+02  0.45594000000E+02  0.51100000000E-03 0.  1.
         11   -1    0    0    0    0 -0.00000000000E+00 -0.00000000000E+00 -0.45593999997E+02  0.45594000000E+02  0.51100000000E-03 0. -1.
    9900012    2    1    2    0    0  0.92848021204E+00 -0.12105516302E+00  0.71851724286E+00  0.90007747110E+02  0.90000008572E+02 0.  0.
         12    1    1    2    0    0 -0.92848021204E+00  0.12105516302E+00 -0.71851724286E+00  0.11802528902E+01  0.00000000000E+00 0. -1.
         11    1    3    3    0    0 -0.29661632414E+02 -0.21266034189E+02 -0.72533671672E+01  0.37211127142E+02  0.51100000000E-03 0. -1.
        -11    1    3    3    0    0  0.19770301023E+01 -0.10504969750E+01 -0.11475951002E+02  0.11692289920E+02  0.51100000000E-03 0.  1.
        -12    1    3    3    0    0  0.28613082524E+02  0.22195476001E+02  0.19447835412E+02  0.41104330048E+02  0.00000000000E+00 0.  1.
</event>
<event>
 7    1  0.1501154E-015  0.9000758E+02  0.7816164E-02  0.1186339E+00
        -11   -1    0    0    0    0  0.00000000000E+00  0.00000000000E+00  0.45593999997E+02  0.45594000000E+02  0.51100000000E-03 0.  1.
         11   -1    0    0    0    0 -0.00000000000E+00 -0.00000000000E+00 -0.45593999997E+02  0.45594000000E+02  0.51100000000E-03 0. -1.
    9900012    2    1    2    0    0 -0.74763386315E+00 -0.88709616802E-01  0.90915568605E+00  0.90007580646E+02  0.89999839911E+02 0.  0.
         12    1    1    2    0    0  0.74763386315E+00  0.88709616802E-01 -0.90915568605E+00  0.11804193538E+01  0.00000000000E+00 0. -1.
         11    1    3    3    0    0  0.45376159064E+01  0.72625681525E+01 -0.70354790602E+01  0.11082996894E+02  0.51100000000E-03 0. -1.
        -11    1    3    3    0    0 -0.79500108294E+01 -0.69700973408E+01  0.42738440913E+02  0.44026801622E+02  0.51100000000E-03 0.  1.
         12    1    3    3    0    0  0.26647610598E+01 -0.38118042853E+00 -0.34793806167E+02  0.34897782130E+02  0.00000000000E+00 0. -1.
</event>
<event>
 7    1  0.1501154E-015  0.9000779E+02  0.7816164E-02  0.1186339E+00
        -11   -1    0    0    0    0  0.00000000000E+00  0.00000000000E+00  0.45593999997E+02  0.45594000000E+02  0.51100000000E-03 0. -1.
         11   -1    0    0    0    0 -0.00000000000E+00 -0.00000000000E+00 -0.45593999997E+02  0.45594000000E+02  0.51100000000E-03 0.  1.
    9900012    2    1    2    0    0 -0.91151644510E+00 -0.69404515203E+00 -0.28341600378E+00  0.90007794283E+02  0.90000056368E+02 0.  0.
         12    1    1    2    0    0  0.91151644510E+00  0.69404515203E+00  0.28341600378E+00  0.11802057168E+01  0.00000000000E+00 0. -1.
         11    1    3    3    0    0  0.87491332272E+01 -0.23786731131E+01 -0.11741344599E+01  0.91424291081E+01  0.51100000000E-03 0. -1.
        -11    1    3    3    0    0 -0.69711819564E+01 -0.30930078977E+02 -0.23987194824E+02  0.39757422945E+02  0.51100000000E-03 0.  1.
         12    1    3    3    0    0 -0.26894677159E+01  0.32614706938E+02  0.24877913280E+02  0.41107942231E+02  0.00000000000E+00 0. -1.
</event>
<event>
 7    1  0.1501154E-015  0.9000776E+02  0.7816164E-02  0.1186339E+00
        -11   -1    0    0    0    0  0.00000000000E+00  0.00000000000E+00  0.45593999997E+02  0.45594000000E+02  0.51100000000E-03 0.  1.
         11   -1    0    0    0    0 -0.00000000000E+00 -0.00000000000E+00 -0.45593999997E+02  0.45594000000E+02  0.51100000000E-03 0. -1.
    9900012    2    1    2    0    0  0.99353940536E+00  0.45009453160E+00 -0.45084938896E+00  0.90007758157E+02  0.90000019764E+02 0.  0.
         12    1    1    2    0    0 -0.99353940536E+00 -0.45009453160E+00  0.45084938896E+00  0.11802418434E+01  0.00000000000E+00 0. -1.
         11    1    3    3    0    0 -0.27845766262E+02 -0.24786127721E+02 -0.39147138347E+01  0.37484180807E+02  0.51100000000E-03 0. -1.
        -11    1    3    3    0    0  0.34078034183E+01 -0.69483687188E+01 -0.67302994527E+01  0.10256211921E+02  0.51100000000E-03 0.  1.
        -12    1    3    3    0    0  0.25431502249E+02  0.32184590972E+02  0.10194163898E+02  0.42267365428E+02  0.00000000000E+00 0.  1.
</event>
<event>
 7    1  0.1603340E-015  0.9000777E+02  0.7816164E-02  0.1186339E+00
        -11   -1    0    0    0    0  0.00000000000E+00  0.00000000000E+00  0.45593999997E+02  0.45594000000E+02  0.51100000000E-03 0.  1.
         11   -1    0    0    0    0 -0.00000000000E+00 -0.00000000000E+00 -0.45593999997E+02  0.45594000000E+02  0.51100000000E-03 0. -1.
    9900012    2    1    2    0    0 -0.93570258020E+00  0.34089547869E+00  0.63339288775E+00  0.90007773074E+02  0.90000034879E+02 0.  0.
         12    1    1    2    0    0  0.93570258020E+00 -0.34089547869E+00 -0.63339288775E+00  0.11802269257E+01  0.00000000000E+00 0. -1.
         11    1    3    3    0    0  0.12927129125E+01 -0.26809439194E+02 -0.28353647379E+02  0.39042879716E+02  0.51100000000E-03 0. -1.
        -11    1    3    3    0    0  0.91597042557E+01  0.73044324337E+00 -0.11968097181E+01  0.92663953696E+01  0.51100000000E-03 0.  1.
        -12    1    3    3    0    0 -0.11388119748E+02  0.26419891429E+02  0.30183849985E+02  0.41698497988E+02  0.00000000000E+00 0.  1.
</event>
<event>
 7    1  0.1501154E-015  0.9000771E+02  0.7816164E-02  0.1186339E+00
        -11   -1    0    0    0    0  0.00000000000E+00  0.00000000000E+00  0.45593999997E+02  0.45594000000E+02  0.51100000000E-03 0. -1.
         11   -1    0    0    0    0 -0.00000000000E+00 -0.00000000000E+00 -0.45593999997E+02  0.45594000000E+02  0.51100000000E-03 0.  1.
    9900012    2    1    2    0    0 -0.54005063771E+00  0.10494403942E+01 -0.10750703607E-01  0.90007705372E+02  0.89999966282E+02 0.  0.
         12    1    1    2    0    0  0.54005063771E+00 -0.10494403942E+01  0.10750703607E-01  0.11802946285E+01  0.00000000000E+00 0. -1.
         11    1    3    3    0    0  0.48066682077E+00  0.31212620524E+02  0.28476239463E+02  0.42253460625E+02  0.51100000000E-03 0. -1.
        -11    1    3    3    0    0 -0.68159791697E+01  0.70399365740E+00 -0.40407881552E+01  0.79549448953E+01  0.51100000000E-03 0.  1.
        -12    1    3    3    0    0  0.57952617113E+01 -0.30867173787E+02 -0.24446202011E+02  0.39799299852E+02  0.00000000000E+00 0.  1.
</event>
<event>
 7    1  0.2340407E-015  0.9000786E+02  0.7816164E-02  0.1186339E+00
        -11   -1    0    0    0    0  0.00000000000E+00  0.00000000000E+00  0.45593999997E+02  0.45594000000E+02  0.51100000000E-03 0. -1.
         11   -1    0    0    0    0 -0.00000000000E+00 -0.00000000000E+00 -0.45593999997E+02  0.45594000000E+02  0.51100000000E-03 0.  1.
    9900012    2    1    2    0    0 -0.80904150269E+00 -0.46730021246E+00 -0.72097969290E+00  0.90007860449E+02  0.90000123407E+02 0.  0.
         12    1    1    2    0    0  0.80904150269E+00  0.46730021246E+00  0.72097969290E+00  0.11801395507E+01  0.00000000000E+00 0. -1.
         11    1    3    3    0    0 -0.21410996839E+01  0.18418919433E+02  0.34470573941E+02  0.39141555526E+02  0.51100000000E-03 0. -1.
        -11    1    3    3    0    0  0.63411726432E+01 -0.58321347464E+01  0.38203713882E+01  0.94244100079E+01  0.51100000000E-03 0.  1.
        -12    1    3    3    0    0 -0.50091144621E+01 -0.13054084899E+02 -0.39011925022E+02  0.41441894915E+02  0.00000000000E+00 0.  1.
</event>
<event>
 7    1  0.1501154E-015  0.9000783E+02  0.7816164E-02  0.1186339E+00
        -11   -1    0    0    0    0  0.00000000000E+00  0.00000000000E+00  0.45593999997E+02  0.45594000000E+02  0.51100000000E-03 0.  1.
         11   -1    0    0    0    0 -0.00000000000E+00 -0.00000000000E+00 -0.45593999997E+02  0.45594000000E+02  0.51100000000E-03 0. -1.
    9900012    2    1    2    0    0 -0.11054618016E+01  0.37771946005E+00  0.16757825733E+00  0.90007830411E+02  0.90000092973E+02 0.  0.
         12    1    1    2    0    0  0.11054618016E+01 -0.37771946005E+00 -0.16757825733E+00  0.11801695885E+01  0.00000000000E+00 0. -1.
         11    1    3    3    0    0  0.17816047609E+01 -0.11429776715E+02 -0.51151842573E+01  0.12648281367E+02  0.51100000000E-03 0. -1.
        -11    1    3    3    0    0  0.98453422450E+01 -0.30641851820E+02 -0.28169576358E+01  0.32307725043E+02  0.51100000000E-03 0.  1.
         12    1    3    3    0    0 -0.12732408808E+02  0.42449347996E+02  0.80997201504E+01  0.45051824001E+02  0.00000000000E+00 0. -1.
</event>
<event>
 7    1  0.1501154E-015  0.9000774E+02  0.7816164E-02  0.1186339E+00
        -11   -1    0    0    0    0  0.00000000000E+00  0.00000000000E+00  0.45593999997E+02  0.45594000000E+02  0.51100000000E-03 0.  1.
         11   -1    0    0    0    0 -0.00000000000E+00 -0.00000000000E+00 -0.45593999997E+02  0.45594000000E+02  0.51100000000E-03 0. -1.
    9900012    2    1    2    0    0  0.34299483762E+00  0.45934857751E+00  0.10316834717E+01  0.90007738436E+02  0.89999999783E+02 0.  0.
         12    1    1    2    0    0 -0.34299483762E+00 -0.45934857751E+00 -0.10316834717E+01  0.11802615643E+01  0.00000000000E+00 0. -1.
         11    1    3    3    0    0 -0.41256131399E-01 -0.33164997684E+01  0.10850537035E+02  0.11346145909E+02  0.51100000000E-03 0. -1.
        -11    1    3    3    0    0  0.30812014963E+02  0.22998496341E+01  0.19373283285E+02  0.36469078408E+02  0.51100000000E-03 0.  1.
         12    1    3    3    0    0 -0.30427763994E+02  0.14759987118E+01 -0.29192136848E+02  0.42192514119E+02  0.00000000000E+00 0. -1.
</event>
<event>
 7    1  0.1501154E-015  0.9000765E+02  0.7816164E-02  0.1186339E+00
        -11   -1    0    0    0    0  0.00000000000E+00  0.00000000000E+00  0.45593999997E+02  0.45594000000E+02  0.51100000000E-03 0.  1.
         11   -1    0    0    0    0 -0.00000000000E+00 -0.00000000000E+00 -0.45593999997E+02  0.45594000000E+02  0.51100000000E-03 0. -1.
    9900012    2    1    2    0    0 -0.34628199354E+00 -0.37433441545E+00  0.10645096182E+01  0.90007653356E+02  0.89999913580E+02 0.  0.
         12    1    1    2    0    0  0.34628199354E+00  0.37433441545E+00 -0.10645096182E+01  0.11803466443E+01  0.00000000000E+00 0. -1.
         11    1    3    3    0    0 -0.47298615871E+01 -0.15871010859E+02  0.71226095250E+01  0.18027538463E+02  0.51100000000E-03 0. -1.
        -11    1    3    3    0    0  0.90468877573E+01  0.40268418754E+02  0.95094580531E+01  0.42353530193E+02  0.51100000000E-03 0.  1.
         12    1    3    3    0    0 -0.46633081637E+01 -0.24771742311E+02 -0.15567557960E+02  0.29626584700E+02  0.00000000000E+00 0. -1.
</event>
<event>
 7    1  0.1501154E-015  0.9000775E+02  0.7816164E-02  0.1186339E+00
        -11   -1    0    0    0    0  0.00000000000E+00  0.00000000000E+00  0.45593999997E+02  0.45594000000E+02  0.51100000000E-03 0.  1.
         11   -1    0    0    0    0 -0.00000000000E+00 -0.00000000000E+00 -0.45593999997E+02  0.45594000000E+02  0.51100000000E-03 0. -1.
    9900012    2    1    2    0    0  0.55181584445E+00 -0.61712992170E+00  0.84121617424E+00  0.90007748028E+02  0.90000009502E+02 0.  0.
         12    1    1    2    0    0 -0.55181584445E+00  0.61712992170E+00 -0.84121617424E+00  0.11802519724E+01  0.00000000000E+00 0. -1.
         11    1    3    3    0    0  0.31447740147E+01 -0.55795311385E+01 -0.85052070209E+01  0.10647033298E+02  0.51100000000E-03 0. -1.
        -11    1    3    3    0    0  0.24877916674E+02  0.22678193581E+02 -0.16687515311E+02  0.37572388394E+02  0.51100000000E-03 0.  1.
         12    1    3    3    0    0 -0.27470874844E+02 -0.17715792364E+02  0.26033938506E+02  0.41788326335E+02  0.00000000000E+00 0. -1.
</event>
<event>
 7    1  0.1501154E-015  0.9000771E+02  0.7816164E-02  0.1186339E+00
        -11   -1    0    0    0    0  0.00000000000E+00  0.00000000000E+00  0.45593999997E+02  0.45594000000E+02  0.51100000000E-03 0. -1.
         11   -1    0    0    0    0 -0.00000000000E+00 -0.00000000000E+00 -0.45593999997E+02  0.45594000000E+02  0.51100000000E-03 0.  1.
    9900012    2    1    2    0    0 -0.60424681443E+00 -0.10132024847E+01  0.37171645764E-01  0.90007713925E+02  0.89999974949E+02 0.  0.
         12    1    1    2    0    0  0.60424681443E+00  0.10132024847E+01 -0.37171645764E-01  0.11802860751E+01  0.00000000000E+00 0. -1.
         11    1    3    3    0    0  0.70541894422E+01  0.65415762807E+01 -0.83937044275E-02  0.96204926921E+01  0.51100000000E-03 0. -1.
        -11    1    3    3    0    0  0.14619485009E+02  0.31555950271E+00 -0.35107863551E+02  0.38031447555E+02  0.51100000000E-03 0.  1.
         12    1    3    3    0    0 -0.22277921265E+02 -0.78703382681E+01  0.35153428901E+02  0.42355773678E+02  0.00000000000E+00 0. -1.
</event>
<event>
 7    1  0.1501154E-015  0.9000780E+02  0.7816164E-02  0.1186339E+00
        -11   -1    0    0    0    0  0.00000000000E+00  0.00000000000E+00  0.45593999997E+02  0.45594000000E+02  0.51100000000E-03 0. -1.
         11   -1    0    0    0    0 -0.00000000000E+00 -0.00000000000E+00 -0.45593999997E+02  0.45594000000E+02  0.51100000000E-03 0.  1.
    9900012    2    1    2    0    0  0.40019028729E+00  0.97425333032E-01 -0.11059919819E+01  0.90007804158E+02  0.90000066373E+02 0.  0.
         12    1    1    2    0    0 -0.40019028729E+00 -0.97425333032E-01  0.11059919819E+01  0.11801958420E+01  0.00000000000E+00 0. -1.
         11    1    3    3    0    0 -0.33150924801E+02  0.14841994106E+02  0.19799793613E+01  0.36375663880E+02  0.51100000000E-03 0. -1.
        -11    1    3    3    0    0 -0.77397780205E+01  0.33838944815E+01 -0.59890418146E+00  0.84683878128E+01  0.51100000000E-03 0.  1.
        -12    1    3    3    0    0  0.41290893108E+02 -0.18128463255E+02 -0.24870671617E+01  0.45163752465E+02  0.00000000000E+00 0.  1.
</event>
<event>
 7    1  0.1501154E-015  0.9000779E+02  0.7816164E-02  0.1186339E+00
        -11   -1    0    0    0    0  0.00000000000E+00  0.00000000000E+00  0.45593999997E+02  0.45594000000E+02  0.51100000000E-03 0.  1.
         11   -1    0    0    0    0 -0.00000000000E+00 -0.00000000000E+00 -0.45593999997E+02  0.45594000000E+02  0.51100000000E-03 0. -1.
    9900012    2    1    2    0    0  0.98899424788E+00  0.60698234461E+00  0.21532404992E+00  0.90007787462E+02  0.90000049456E+02 0.  0.
         12    1    1    2    0    0 -0.98899424788E+00 -0.60698234461E+00 -0.21532404992E+00  0.11802125383E+01  0.00000000000E+00 0. -1.
         11    1    3    3    0    0 -0.30779815067E+02 -0.21447303277E+02  0.44028326552E+01  0.37772592830E+02  0.51100000000E-03 0. -1.
        -11    1    3    3    0    0 -0.72783240196E+01  0.62650989856E+01 -0.31394697543E+01  0.10103550684E+02  0.51100000000E-03 0.  1.
        -12    1    3    3    0    0  0.39047133335E+02  0.15789186636E+02 -0.10480388510E+01  0.42131643948E+02  0.00000000000E+00 0.  1.
</event>
<event>
 7    1  0.1501154E-015  0.9000787E+02  0.7816164E-02  0.1186339E+00
        -11   -1    0    0    0    0  0.00000000000E+00  0.00000000000E+00  0.45593999997E+02  0.45594000000E+02  0.51100000000E-03 0.  1.
         11   -1    0    0    0    0 -0.00000000000E+00 -0.00000000000E+00 -0.45593999997E+02  0.45594000000E+02  0.51100000000E-03 0. -1.
    9900012    2    1    2    0    0 -0.64846212556E+00 -0.68796802378E+00  0.70633486572E+00  0.90007867773E+02  0.90000130828E+02 0.  0.
         12    1    1    2    0    0  0.64846212556E+00  0.68796802378E+00 -0.70633486572E+00  0.11801322267E+01  0.00000000000E+00 0. -1.
         11    1    3    3    0    0  0.23566797812E+02  0.14454371803E+02 -0.24278899292E+02  0.36793855118E+02  0.51100000000E-03 0. -1.
        -11    1    3    3    0    0 -0.35207329870E+01 -0.73058328072E+01 -0.93428556982E+01  0.12371730139E+02  0.51100000000E-03 0.  1.
        -12    1    3    3    0    0 -0.20694526951E+02 -0.78365070199E+01  0.34328089856E+02  0.40842282516E+02  0.00000000000E+00 0.  1.
</event>
<event>
 7    1  0.1501154E-015  0.9000771E+02  0.7816164E-02  0.1186339E+00
        -11   -1    0    0    0    0  0.00000000000E+00  0.00000000000E+00  0.45593999997E+02  0.45594000000E+02  0.51100000000E-03 0.  1.
         11   -1    0    0    0    0 -0.00000000000E+00 -0.00000000000E+00 -0.45593999997E+02  0.45594000000E+02  0.51100000000E-03 0. -1.
    9900012    2    1    2    0    0 -0.63409829046E+00 -0.44811142180E+00  0.88892739269E+00  0.90007713426E+02  0.89999974443E+02 0.  0.
         12    1    1    2    0    0  0.63409829046E+00  0.44811142180E+00 -0.88892739269E+00  0.11802865744E+01  0.00000000000E+00 0. -1.
         11    1    3    3    0    0  0.56113460306E+01  0.50742218005E+01  0.42103225922E+01  0.86580452613E+01  0.51100000000E-03 0. -1.
        -11    1    3    3    0    0 -0.22669516967E+02 -0.12708612418E+01 -0.37130683411E+02  0.43522519902E+02  0.51100000000E-03 0.  1.
         12    1    3    3    0    0  0.16424072646E+02 -0.42514719805E+01  0.33809288211E+02  0.37827148262E+02  0.00000000000E+00 0. -1.
</event>
<event>
 7    1  0.1501154E-015  0.9000850E+02  0.7816164E-02  0.1186338E+00
        -11   -1    0    0    0    0  0.00000000000E+00  0.00000000000E+00  0.45593999997E+02  0.45594000000E+02  0.51100000000E-03 0. -1.
         11   -1    0    0    0    0 -0.00000000000E+00 -0.00000000000E+00 -0.45593999997E+02  0.45594000000E+02  0.51100000000E-03 0.  1.
    9900012    2    1    2    0    0 -0.10505888769E+01  0.40940547770E+00  0.34621312255E+00  0.90008502921E+02  0.90000774356E+02 0.  0.
         12    1    1    2    0    0  0.10505888769E+01 -0.40940547770E+00 -0.34621312255E+00  0.11794970791E+01  0.00000000000E+00 0. -1.
         11    1    3    3    0    0 -0.29131194205E+02  0.13294915797E+02  0.19318354672E+02  0.37397594700E+02  0.51100000000E-03 0. -1.
        -11    1    3    3    0    0  0.26128789470E+01 -0.54489850023E+01  0.11019885474E+02  0.12568072647E+02  0.51100000000E-03 0.  1.
        -12    1    3    3    0    0  0.25467726381E+02 -0.74365253173E+01 -0.29992027024E+02  0.40042835574E+02  0.00000000000E+00 0.  1.
</event>
<event>
 7    1  0.1501154E-015  0.9000778E+02  0.7816164E-02  0.1186339E+00
        -11   -1    0    0    0    0  0.00000000000E+00  0.00000000000E+00  0.45593999997E+02  0.45594000000E+02  0.51100000000E-03 0. -1.
         11   -1    0    0    0    0 -0.00000000000E+00 -0.00000000000E+00 -0.45593999997E+02  0.45594000000E+02  0.51100000000E-03 0.  1.
    9900012    2    1    2    0    0  0.19475958931E-02 -0.10352435719E+01 -0.56672329848E+00  0.90007784620E+02  0.90000046577E+02 0.  0.
         12    1    1    2    0    0 -0.19475958931E-02  0.10352435719E+01  0.56672329848E+00  0.11802153800E+01  0.00000000000E+00 0. -1.
         11    1    3    3    0    0  0.89710828688E+01  0.32608891769E+01  0.39983280845E+01  0.10348930080E+02  0.51100000000E-03 0. -1.
        -11    1    3    3    0    0 -0.38760871434E+02 -0.16341187668E+02  0.11673430244E+02  0.43654421799E+02  0.51100000000E-03 0.  1.
         12    1    3    3    0    0  0.29791736161E+02  0.12045054919E+02 -0.16238481627E+02  0.36004432741E+02  0.00000000000E+00 0. -1.
</event>
<event>
 7    1  0.1501154E-015  0.9000783E+02  0.7816164E-02  0.1186339E+00
        -11   -1    0    0    0    0  0.00000000000E+00  0.00000000000E+00  0.45593999997E+02  0.45594000000E+02  0.51100000000E-03 0. -1.
         11   -1    0    0    0    0 -0.00000000000E+00 -0.00000000000E+00 -0.45593999997E+02  0.45594000000E+02  0.51100000000E-03 0.  1.
    9900012    2    1    2    0    0  0.33909353885E+00  0.63316267267E+00 -0.93643662398E+00  0.90007833508E+02  0.90000096110E+02 0.  0.
         12    1    1    2    0    0 -0.33909353885E+00 -0.63316267267E+00  0.93643662398E+00  0.11801664920E+01  0.00000000000E+00 0. -1.
         11    1    3    3    0    0 -0.10893272749E+02 -0.14389963672E+00 -0.22545216895E-01  0.10894246502E+02  0.51100000000E-03 0. -1.
        -11    1    3    3    0    0  0.26310105270E+02  0.13397660244E+02 -0.31231422396E+02  0.42978141938E+02  0.51100000000E-03 0.  1.
         12    1    3    3    0    0 -0.15077738982E+02 -0.12620597934E+02  0.30317530989E+02  0.36135445068E+02  0.00000000000E+00 0. -1.
</event>
<event>
 7    1  0.1501154E-015  0.9000771E+02  0.7816164E-02  0.1186339E+00
        -11   -1    0    0    0    0  0.00000000000E+00  0.00000000000E+00  0.45593999997E+02  0.45594000000E+02  0.51100000000E-03 0. -1.
         11   -1    0    0    0    0 -0.00000000000E+00 -0.00000000000E+00 -0.45593999997E+02  0.45594000000E+02  0.51100000000E-03 0.  1.
    9900012    2    1    2    0    0 -0.10400319061E+01  0.22510847452E+00  0.51062120498E+00  0.90007714354E+02  0.89999975384E+02 0.  0.
         12    1    1    2    0    0  0.10400319061E+01 -0.22510847452E+00 -0.51062120498E+00  0.11802856459E+01  0.00000000000E+00 0. -1.
         11    1    3    3    0    0 -0.45352515325E+01  0.28591054490E+02  0.31740552800E+02  0.42959045562E+02  0.51100000000E-03 0. -1.
        -11    1    3    3    0    0  0.61951638047E+01 -0.62276713249E+01 -0.13836447780E+00  0.87853906964E+01  0.51100000000E-03 0.  1.
        -12    1    3    3    0    0 -0.26999441783E+01 -0.22138274691E+02 -0.31091567117E+02  0.38263278096E+02  0.00000000000E+00 0.  1.
</event>
<event>
 7    1  0.1501154E-015  0.9000779E+02  0.7816164E-02  0.1186339E+00
        -11   -1    0    0    0    0  0.00000000000E+00  0.00000000000E+00  0.45593999997E+02  0.45594000000E+02  0.51100000000E-03 0.  1.
         11   -1    0    0    0    0 -0.00000000000E+00 -0.00000000000E+00 -0.45593999997E+02  0.45594000000E+02  0.51100000000E-03 0. -1.
    9900012    2    1    2    0    0  0.28953963676E+00  0.11227549095E+01 -0.22021496069E+00  0.90007785436E+02  0.90000047404E+02 0.  0.
         12    1    1    2    0    0 -0.28953963676E+00 -0.11227549095E+01  0.22021496069E+00  0.11802145639E+01  0.00000000000E+00 0. -1.
         11    1    3    3    0    0 -0.26146377693E+01  0.13712911874E+02  0.98724619141E+01  0.17098122331E+02  0.51100000000E-03 0. -1.
        -11    1    3    3    0    0 -0.21437787167E+02 -0.15719407801E+02  0.20585898758E+02  0.33622280234E+02  0.51100000000E-03 0.  1.
         12    1    3    3    0    0  0.24341964573E+02  0.31292508365E+01 -0.30678575632E+02  0.39287382871E+02  0.00000000000E+00 0. -1.
</event>
<event>
 7    1  0.1501154E-015  0.9000786E+02  0.7816164E-02  0.1186339E+00
        -11   -1    0    0    0    0  0.00000000000E+00  0.00000000000E+00  0.45593999997E+02  0.45594000000E+02  0.51100000000E-03 0. -1.
         11   -1    0    0    0    0 -0.00000000000E+00 -0.00000000000E+00 -0.45593999997E+02  0.45594000000E+02  0.51100000000E-03 0.  1.
    9900012    2    1    2    0    0 -0.13883592674E+00 -0.40519855442E+00 -0.10996696001E+01  0.90007858266E+02  0.90000121195E+02 0.  0.
         12    1    1    2    0    0  0.13883592674E+00  0.40519855442E+00  0.10996696001E+01  0.11801417340E+01  0.00000000000E+00 0. -1.
         11    1    3    3    0    0  0.35108806228E+01  0.14136578967E+02  0.78858932887E+01  0.16563709152E+02  0.51100000000E-03 0. -1.
        -11    1    3    3    0    0  0.13881892753E+02 -0.25096489519E+01 -0.36232723149E+02  0.38882071849E+02  0.51100000000E-03 0.  1.
         12    1    3    3    0    0 -0.17531609302E+02 -0.12032128570E+02  0.27247160260E+02  0.34562077265E+02  0.00000000000E+00 0. -1.
</event>
<event>
 7    1  0.1501154E-015  0.9000767E+02  0.7816164E-02  0.1186339E+00
        -11   -1    0    0    0    0  0.00000000000E+00  0.00000000000E+00  0.45593999997E+02  0.45594000000E+02  0.51100000000E-03 0.  1.
         11   -1    0    0    0    0 -0.00000000000E+00 -0.00000000000E+00 -0.45593999997E+02  0.45594000000E+02  0.51100000000E-03 0. -1.
    9900012    2    1    2    0    0 -0.36865401047E+00 -0.11101481574E+01  0.15763688778E+00  0.90007667801E+02  0.89999928216E+02 0.  0.
         12    1    1    2    0    0  0.36865401047E+00  0.11101481574E+01 -0.15763688778E+00  0.11803321987E+01  0.00000000000E+00 0. -1.
         11    1    3    3    0    0 -0.94887953047E+01 -0.27012008314E+02  0.13854246831E+02  0.31806068368E+02  0.51100000000E-03 0. -1.
        -11    1    3    3    0    0 -0.11133671868E+02  0.26159296464E+02  0.69614938378E+01  0.29269947685E+02  0.51100000000E-03 0.  1.
         12    1    3    3    0    0  0.20253813162E+02 -0.25743630791E+00 -0.20658103781E+02  0.28931651749E+02  0.00000000000E+00 0. -1.
</event>
<event>
 7    1  0.1501154E-015  0.9000774E+02  0.7816164E-02  0.1186339E+00
        -11   -1    0    0    0    0  0.00000000000E+00  0.00000000000E+00  0.45593999997E+02  0.45594000000E+02  0.51100000000E-03 0.  1.
         11   -1    0    0    0    0 -0.00000000000E+00 -0.00000000000E+00 -0.45593999997E+02  0.45594000000E+02  0.51100000000E-03 0. -1.
    9900012    2    1    2    0    0  0.11618852448E+01 -0.10699626455E-01  0.20718650743E+00  0.90007738142E+02  0.89999999486E+02 0.  0.
         12    1    1    2    0    0 -0.11618852448E+01  0.10699626455E-01 -0.20718650743E+00  0.11802618578E+01  0.00000000000E+00 0. -1.
         11    1    3    3    0    0  0.46999761979E+01  0.19517896560E+01 -0.92664632831E+01  0.10571972435E+02  0.51100000000E-03 0. -1.
        -11    1    3    3    0    0  0.25398627592E+02 -0.16342898336E+02 -0.19570089753E+02  0.35988456799E+02  0.51100000000E-03 0.  1.
         12    1    3    3    0    0 -0.28936718545E+02  0.14380409054E+02  0.29043739543E+02  0.43447308908E+02  0.00000000000E+00 0. -1.
</event>
<event>
 7    1  0.1501154E-015  0.9000764E+02  0.7816164E-02  0.1186339E+00
        -11   -1    0    0    0    0  0.00000000000E+00  0.00000000000E+00  0.45593999997E+02  0.45594000000E+02  0.51100000000E-03 0.  1.
         11   -1    0    0    0    0 -0.00000000000E+00 -0.00000000000E+00 -0.45593999997E+02  0.45594000000E+02  0.51100000000E-03 0. -1.
    9900012    2    1    2    0    0  0.11704522338E+01  0.10690440288E+00 -0.10896513799E+00  0.90007635487E+02  0.89999895475E+02 0.  0.
         12    1    1    2    0    0 -0.11704522338E+01 -0.10690440288E+00  0.10896513799E+00  0.11803645133E+01  0.00000000000E+00 0. -1.
         11    1    3    3    0    0  0.85273381071E+01  0.60949702560E+01  0.65362885520E+00  0.10501970699E+02  0.51100000000E-03 0. -1.
        -11    1    3    3    0    0  0.44537022333E+01 -0.36058179119E+02  0.19635371404E+02  0.41298614449E+02  0.51100000000E-03 0.  1.
         12    1    3    3    0    0 -0.11810588107E+02  0.30070113266E+02 -0.20397965397E+02  0.38207050339E+02  0.00000000000E+00 0. -1.
</event>
<event>
 7    1  0.1501154E-015  0.9000773E+02  0.7816164E-02  0.1186339E+00
        -11   -1    0    0    0    0  0.00000000000E+00  0.00000000000E+00  0.45593999997E+02  0.45594000000E+02  0.51100000000E-03 0. -1.
         11   -1    0    0    0    0 -0.00000000000E+00 -0.00000000000E+00 -0.45593999997E+02  0.45594000000E+02  0.51100000000E-03 0.  1.
    9900012    2    1    2    0    0  0.66706845327E+00 -0.91338322043E+00  0.33732091336E+00  0.90007731121E+02  0.89999992372E+02 0.  0.
         12    1    1    2    0    0 -0.66706845327E+00  0.91338322043E+00 -0.33732091336E+00  0.11802688792E+01  0.00000000000E+00 0. -1.
         11    1    3    3    0    0 -0.22901379533E+02  0.14577961707E+02  0.30206190740E+02  0.40612856479E+02  0.51100000000E-03 0. -1.
        -11    1    3    3    0    0  0.45689998894E+01  0.73896987115E+01 -0.26617667169E+01  0.90867160929E+01  0.51100000000E-03 0.  1.
        -12    1    3    3    0    0  0.18999448097E+02 -0.22881043639E+02 -0.27207103110E+02  0.40308158549E+02  0.00000000000E+00 0.  1.
</event>
<event>
 7    1  0.1501154E-015  0.9000770E+02  0.7816164E-02  0.1186339E+00
        -11   -1    0    0    0    0  0.00000000000E+00  0.00000000000E+00  0.45593999997E+02  0.45594000000E+02  0.51100000000E-03 0. -1.
         11   -1    0    0    0    0 -0.00000000000E+00 -0.00000000000E+00 -0.45593999997E+02  0.45594000000E+02  0.51100000000E-03 0.  1.
    9900012    2    1    2    0    0  0.79550390192E+00 -0.72400812281E+00  0.48588983150E+00  0.90007702093E+02  0.89999962961E+02 0.  0.
         12    1    1    2    0    0 -0.79550390192E+00  0.72400812281E+00 -0.48588983150E+00  0.11802979066E+01  0.00000000000E+00 0. -1.
         11    1    3    3    0    0 -0.82012912604E+00  0.28338988554E+01 -0.81977327735E+01  0.87124289032E+01  0.51100000000E-03 0. -1.
        -11    1    3    3    0    0 -0.20755426930E+01  0.88302020423E+01 -0.34783520135E+02  0.35946816532E+02  0.51100000000E-03 0.  1.
         12    1    3    3    0    0  0.36911757210E+01 -0.12388109021E+02  0.43467142740E+02  0.45348456658E+02  0.00000000000E+00 0. -1.
</event>
<event>
 7    1  0.1501154E-015  0.9000768E+02  0.7816164E-02  0.1186339E+00
        -11   -1    0    0    0    0  0.00000000000E+00  0.00000000000E+00  0.45593999997E+02  0.45594000000E+02  0.51100000000E-03 0.  1.
         11   -1    0    0    0    0 -0.00000000000E+00 -0.00000000000E+00 -0.45593999997E+02  0.45594000000E+02  0.51100000000E-03 0. -1.
    9900012    2    1    2    0    0  0.63832397288E+00 -0.33989847500E+00  0.93282862330E+00  0.90007678981E+02  0.89999939543E+02 0.  0.
         12    1    1    2    0    0 -0.63832397288E+00  0.33989847500E+00 -0.93282862330E+00  0.11803210191E+01  0.00000000000E+00 0. -1.
         11    1    3    3    0    0  0.43600654129E+01 -0.42355727488E+01 -0.49819955753E+01  0.78594228216E+01  0.51100000000E-03 0. -1.
        -11    1    3    3    0    0 -0.21479618615E+02 -0.33375133171E+02  0.91693540653E+01  0.40735127154E+02  0.51100000000E-03 0.  1.
         12    1    3    3    0    0  0.17757877175E+02  0.37270807445E+02 -0.32545298668E+01  0.41413129005E+02  0.00000000000E+00 0. -1.
</event>
<event>
 7    1  0.1501154E-015  0.9000772E+02  0.7816164E-02  0.1186339E+00
        -11   -1    0    0    0    0  0.00000000000E+00  0.00000000000E+00  0.45593999997E+02  0.45594000000E+02  0.51100000000E-03 0.  1.
         11   -1    0    0    0    0 -0.00000000000E+00 -0.00000000000E+00 -0.45593999997E+02  0.45594000000E+02  0.51100000000E-03 0. -1.
    9900012    2    1    2    0    0 -0.32247550654E+00 -0.11299583748E+01  0.11070726076E+00  0.90007723558E+02  0.89999984709E+02 0.  0.
         12    1    1    2    0    0  0.32247550654E+00  0.11299583748E+01 -0.11070726076E+00  0.11802764416E+01  0.00000000000E+00 0. -1.
         11    1    3    3    0    0  0.39470626358E+01 -0.36886894302E+01 -0.37760317591E+02  0.38144820329E+02  0.51100000000E-03 0. -1.
        -11    1    3    3    0    0  0.69035827013E+01  0.29772122966E+01 -0.40060445822E+01  0.85188990267E+01  0.51100000000E-03 0.  1.
        -12    1    3    3    0    0 -0.11173120844E+02 -0.41848124123E+00  0.41877069434E+02  0.43344004202E+02  0.00000000000E+00 0.  1.
</event>
<event>
 7    1  0.1501154E-015  0.9000774E+02  0.7816164E-02  0.1186339E+00
        -11   -1    0    0    0    0  0.00000000000E+00  0.00000000000E+00  0.45593999997E+02  0.45594000000E+02  0.51100000000E-03 0.  1.
         11   -1    0    0    0    0 -0.00000000000E+00 -0.00000000000E+00 -0.45593999997E+02  0.45594000000E+02  0.51100000000E-03 0. -1.
    9900012    2    1    2    0    0 -0.54619980051E+00  0.10172504055E+01  0.24472973496E+00  0.90007735092E+02  0.89999996395E+02 0.  0.
         12    1    1    2    0    0  0.54619980051E+00 -0.10172504055E+01 -0.24472973496E+00  0.11802649078E+01  0.00000000000E+00 0. -1.
         11    1    3    3    0    0 -0.28831462737E+02 -0.10626544526E+02 -0.27429228759E+02  0.41189067515E+02  0.51100000000E-03 0. -1.
        -11    1    3    3    0    0  0.66431946866E+01 -0.84039725667E+01  0.70758017110E+01  0.12838448530E+02  0.51100000000E-03 0.  1.
        -12    1    3    3    0    0  0.21642068250E+02  0.20047767499E+02  0.20598156783E+02  0.35980219047E+02  0.00000000000E+00 0.  1.
</event>
<event>
 7    1  0.1501154E-015  0.9000780E+02  0.7816164E-02  0.1186339E+00
        -11   -1    0    0    0    0  0.00000000000E+00  0.00000000000E+00  0.45593999997E+02  0.45594000000E+02  0.51100000000E-03 0.  1.
         11   -1    0    0    0    0 -0.00000000000E+00 -0.00000000000E+00 -0.45593999997E+02  0.45594000000E+02  0.51100000000E-03 0. -1.
    9900012    2    1    2    0    0  0.45396261317E+00 -0.54739336895E+00  0.94188062741E+00  0.90007804817E+02  0.90000067040E+02 0.  0.
         12    1    1    2    0    0 -0.45396261317E+00  0.54739336895E+00 -0.94188062741E+00  0.11801951834E+01  0.00000000000E+00 0. -1.
         11    1    3    3    0    0  0.40207484741E+01  0.15773223763E+02  0.44790520918E+01  0.16882621659E+02  0.51100000000E-03 0. -1.
        -11    1    3    3    0    0 -0.45672966180E+01  0.25884027700E+02  0.10976085559E+02  0.28483636404E+02  0.51100000000E-03 0.  1.
        -12    1    3    3    0    0  0.10005107570E+01 -0.42204644832E+02 -0.14513257023E+02  0.44641546754E+02  0.00000000000E+00 0.  1.
</event>
<event>
 7    1  0.1501154E-015  0.9000740E+02  0.7816164E-02  0.1186340E+00
        -11   -1    0    0    0    0  0.00000000000E+00  0.00000000000E+00  0.45593999997E+02  0.45594000000E+02  0.51100000000E-03 0.  1.
         11   -1    0    0    0    0 -0.00000000000E+00 -0.00000000000E+00 -0.45593999997E+02  0.45594000000E+02  0.51100000000E-03 0. -1.
    9900012    2    1    2    0    0  0.17475875891E+00  0.95570380410E+00  0.67075301088E+00  0.90007398464E+02  0.89999655323E+02 0.  0.
         12    1    1    2    0    0 -0.17475875891E+00 -0.95570380410E+00 -0.67075301088E+00  0.11806015359E+01  0.00000000000E+00 0. -1.
         11    1    3    3    0    0  0.83289543350E+01 -0.45739633148E+01  0.32837859764E+00  0.95079153069E+01  0.51100000000E-03 0. -1.
        -11    1    3    3    0    0  0.12456580190E+02  0.38330324105E+00  0.36496751177E+02  0.38565867787E+02  0.51100000000E-03 0.  1.
         12    1    3    3    0    0 -0.20610775766E+02  0.51463638778E+01 -0.36154376764E+02  0.41933615370E+02  0.00000000000E+00 0. -1.
</event>
<event>
 7    1  0.1501154E-015  0.9000766E+02  0.7816164E-02  0.1186339E+00
        -11   -1    0    0    0    0  0.00000000000E+00  0.00000000000E+00  0.45593999997E+02  0.45594000000E+02  0.51100000000E-03 0.  1.
         11   -1    0    0    0    0 -0.00000000000E+00 -0.00000000000E+00 -0.45593999997E+02  0.45594000000E+02  0.51100000000E-03 0. -1.
    9900012    2    1    2    0    0 -0.10172021643E+01  0.44153090638E+00  0.40443013594E+00  0.90007655339E+02  0.89999915589E+02 0.  0.
         12    1    1    2    0    0  0.10172021643E+01 -0.44153090638E+00 -0.40443013594E+00  0.11803446612E+01  0.00000000000E+00 0. -1.
         11    1    3    3    0    0  0.29431164971E+01 -0.17676931964E+01  0.86568739485E+01  0.93127944664E+01  0.51100000000E-03 0. -1.
        -11    1    3    3    0    0  0.32129669800E+02  0.22127118786E+02 -0.27646063159E+01  0.39109693371E+02  0.51100000000E-03 0.  1.
         12    1    3    3    0    0 -0.36089988461E+02 -0.19917894683E+02 -0.54878374967E+01  0.41585167502E+02  0.00000000000E+00 0. -1.
</event>
<event>
 7    1  0.1501154E-015  0.9000771E+02  0.7816164E-02  0.1186339E+00
        -11   -1    0    0    0    0  0.00000000000E+00  0.00000000000E+00  0.45593999997E+02  0.45594000000E+02  0.51100000000E-03 0.  1.
         11   -1    0    0    0    0 -0.00000000000E+00 -0.00000000000E+00 -0.45593999997E+02  0.45594000000E+02  0.51100000000E-03 0. -1.
    9900012    2    1    2    0    0 -0.56434526191E+00  0.96827425150E+00  0.37020186329E+00  0.90007707655E+02  0.89999968596E+02 0.  0.
         12    1    1    2    0    0  0.56434526191E+00 -0.96827425150E+00 -0.37020186329E+00  0.11802923453E+01  0.00000000000E+00 0. -1.
         11    1    3    3    0    0  0.22233732245E+01  0.28811991106E+02 -0.64281309991E+01  0.29603970821E+02  0.51100000000E-03 0. -1.
        -11    1    3    3    0    0  0.96668794761E+00  0.15839206697E+02 -0.87754312432E+00  0.15892924104E+02  0.51100000000E-03 0.  1.
        -12    1    3    3    0    0 -0.37544064340E+01 -0.43682923551E+02  0.76758759867E+01  0.44510812729E+02  0.00000000000E+00 0.  1.
</event>
<event>
 7    1  0.1501154E-015  0.9000842E+02  0.7816164E-02  0.1186338E+00
        -11   -1    0    0    0    0  0.00000000000E+00  0.00000000000E+00  0.45593999997E+02  0.45594000000E+02  0.51100000000E-03 0.  1.
         11   -1    0    0    0    0 -0.00000000000E+00 -0.00000000000E+00 -0.45593999997E+02  0.45594000000E+02  0.51100000000E-03 0. -1.
    9900012    2    1    2    0    0  0.10828999354E+01  0.34245340465E+00  0.31853749402E+00  0.90008418405E+02  0.90000688725E+02 0.  0.
         12    1    1    2    0    0 -0.10828999354E+01 -0.34245340465E+00 -0.31853749402E+00  0.11795815951E+01  0.00000000000E+00 0. -1.
         11    1    3    3    0    0  0.11322919604E+02  0.56586117194E+01 -0.41404020263E+02  0.43295742159E+02  0.51100000000E-03 0. -1.
        -11    1    3    3    0    0 -0.34020368349E+01 -0.69574193669E+01  0.47673646733E+01  0.90943556705E+01  0.51100000000E-03 0.  1.
        -12    1    3    3    0    0 -0.68379828334E+01  0.16412610522E+01  0.36955193083E+02  0.37618320575E+02  0.00000000000E+00 0.  1.
</event>
<event>
 7    1  0.1501154E-015  0.9000776E+02  0.7816164E-02  0.1186339E+00
        -11   -1    0    0    0    0  0.00000000000E+00  0.00000000000E+00  0.45593999997E+02  0.45594000000E+02  0.51100000000E-03 0. -1.
         11   -1    0    0    0    0 -0.00000000000E+00 -0.00000000000E+00 -0.45593999997E+02  0.45594000000E+02  0.51100000000E-03 0.  1.
    9900012    2    1    2    0    0 -0.82287685197E+00 -0.73037422333E+00 -0.42708283976E+00  0.90007757410E+02  0.90000019008E+02 0.  0.
         12    1    1    2    0    0  0.82287685197E+00  0.73037422333E+00  0.42708283976E+00  0.11802425902E+01  0.00000000000E+00 0. -1.
         11    1    3    3    0    0 -0.27202678583E+01  0.34610521207E+01 -0.49396632827E+01  0.66165710614E+01  0.51100000000E-03 0. -1.
        -11    1    3    3    0    0 -0.25974589400E+02  0.29566882378E+02 -0.23921805620E+00  0.39356537622E+02  0.51100000000E-03 0.  1.
         12    1    3    3    0    0  0.27871980406E+02 -0.33758308722E+02  0.47517984992E+01  0.44034648727E+02  0.00000000000E+00 0. -1.
</event>
<event>
 7    1  0.1501154E-015  0.9000775E+02  0.7816164E-02  0.1186339E+00
        -11   -1    0    0    0    0  0.00000000000E+00  0.00000000000E+00  0.45593999997E+02  0.45594000000E+02  0.51100000000E-03 0.  1.
         11   -1    0    0    0    0 -0.00000000000E+00 -0.00000000000E+00 -0.45593999997E+02  0.45594000000E+02  0.51100000000E-03 0. -1.
    9900012    2    1    2    0    0  0.33426790728E+00 -0.10323054970E+01 -0.46432472769E+00  0.90007751244E+02  0.90000012761E+02 0.  0.
         12    1    1    2    0    0 -0.33426790728E+00  0.10323054970E+01  0.46432472769E+00  0.11802487559E+01  0.00000000000E+00 0. -1.
         11    1    3    3    0    0 -0.27824549577E+02  0.18364348977E+02  0.20267388321E+02  0.39015662267E+02  0.51100000000E-03 0. -1.
        -11    1    3    3    0    0 -0.23994506214E+01  0.61048004662E+01 -0.47661956921E+01  0.81081794290E+01  0.51100000000E-03 0.  1.
        -12    1    3    3    0    0  0.30558268106E+02 -0.25501454940E+02 -0.15965517356E+02  0.42883909548E+02  0.00000000000E+00 0.  1.
</event>
<event>
 7    1  0.1501154E-015  0.9000770E+02  0.7816164E-02  0.1186339E+00
        -11   -1    0    0    0    0  0.00000000000E+00  0.00000000000E+00  0.45593999997E+02  0.45594000000E+02  0.51100000000E-03 0. -1.
         11   -1    0    0    0    0 -0.00000000000E+00 -0.00000000000E+00 -0.45593999997E+02  0.45594000000E+02  0.51100000000E-03 0.  1.
    9900012    2    1    2    0    0  0.10237406476E+01 -0.13208345288E+00 -0.57238059057E+00  0.90007698982E+02  0.89999959809E+02 0.  0.
         12    1    1    2    0    0 -0.10237406476E+01  0.13208345288E+00  0.57238059057E+00  0.11803010178E+01  0.00000000000E+00 0. -1.
         11    1    3    3    0    0  0.33179198842E+02 -0.19502797763E+02 -0.71604221409E+00  0.38493260100E+02  0.51100000000E-03 0. -1.
        -11    1    3    3    0    0  0.49332467590E+01 -0.26952913996E+01 -0.56507358350E+01  0.79707173486E+01  0.51100000000E-03 0.  1.
        -12    1    3    3    0    0 -0.37088704953E+02  0.22066005710E+02  0.57943974585E+01  0.43543721534E+02  0.00000000000E+00 0.  1.
</event>
<event>
 7    1  0.1501154E-015  0.9000778E+02  0.7816164E-02  0.1186339E+00
        -11   -1    0    0    0    0  0.00000000000E+00  0.00000000000E+00  0.45593999997E+02  0.45594000000E+02  0.51100000000E-03 0.  1.
         11   -1    0    0    0    0 -0.00000000000E+00 -0.00000000000E+00 -0.45593999997E+02  0.45594000000E+02  0.51100000000E-03 0. -1.
    9900012    2    1    2    0    0  0.56505688194E+00 -0.29093430466E+00  0.99447851134E+00  0.90007779868E+02  0.90000041763E+02 0.  0.
         12    1    1    2    0    0 -0.56505688194E+00  0.29093430466E+00 -0.99447851134E+00  0.11802201316E+01  0.00000000000E+00 0. -1.
         11    1    3    3    0    0  0.31381207093E+02  0.16162517784E+02  0.83569547970E+01  0.36274589363E+02  0.51100000000E-03 0. -1.
        -11    1    3    3    0    0  0.74522443998E+01  0.51943142796E+01 -0.29233052135E+01  0.95426705414E+01  0.51100000000E-03 0.  1.
        -12    1    3    3    0    0 -0.38268394611E+02 -0.21647766369E+02 -0.44391710722E+01  0.44190519964E+02  0.00000000000E+00 0.  1.
</event>
<event>
 7    1  0.1501154E-015  0.9000772E+02  0.7816164E-02  0.1186339E+00
        -11   -1    0    0    0    0  0.00000000000E+00  0.00000000000E+00  0.45593999997E+02  0.45594000000E+02  0.51100000000E-03 0.  1.
         11   -1    0    0    0    0 -0.00000000000E+00 -0.00000000000E+00 -0.45593999997E+02  0.45594000000E+02  0.51100000000E-03 0. -1.
    9900012    2    1    2    0    0  0.25719751424E+00 -0.52198343514E+00  0.10268653737E+01  0.90007716236E+02  0.89999977290E+02 0.  0.
         12    1    1    2    0    0 -0.25719751424E+00  0.52198343514E+00 -0.10268653737E+01  0.11802837640E+01  0.00000000000E+00 0. -1.
         11    1    3    3    0    0 -0.12898496321E+02 -0.36634169084E+02  0.14643300841E+02  0.41507346478E+02  0.51100000000E-03 0. -1.
        -11    1    3    3    0    0  0.89152659531E+01  0.60012840874E+00  0.24910275962E+01  0.92761705389E+01  0.51100000000E-03 0.  1.
        -12    1    3    3    0    0  0.42404278824E+01  0.35512057240E+02 -0.16107463064E+02  0.39224199219E+02  0.00000000000E+00 0.  1.
</event>
<event>
 7    1  0.1501154E-015  0.9000750E+02  0.7816164E-02  0.1186340E+00
        -11   -1    0    0    0    0  0.00000000000E+00  0.00000000000E+00  0.45593999997E+02  0.45594000000E+02  0.51100000000E-03 0.  1.
         11   -1    0    0    0    0 -0.00000000000E+00 -0.00000000000E+00 -0.45593999997E+02  0.45594000000E+02  0.51100000000E-03 0. -1.
    9900012    2    1    2    0    0 -0.11095763838E+01 -0.35789786797E+00  0.18528227988E+00  0.90007500039E+02  0.89999758239E+02 0.  0.
         12    1    1    2    0    0  0.11095763838E+01  0.35789786797E+00 -0.18528227988E+00  0.11804999613E+01  0.00000000000E+00 0. -1.
         11    1    3    3    0    0  0.12021720385E+01 -0.22543101087E+01  0.96757129386E+01  0.10007324958E+02  0.51100000000E-03 0. -1.
        -11    1    3    3    0    0  0.14205224719E+02 -0.31747591441E+02 -0.21201641483E+02  0.40733371742E+02  0.51100000000E-03 0.  1.
         12    1    3    3    0    0 -0.16516973141E+02  0.33644003682E+02  0.11711210824E+02  0.39266803339E+02  0.00000000000E+00 0. -1.
</event>
<event>
 7    1  0.1501154E-015  0.9000766E+02  0.7816164E-02  0.1186339E+00
        -11   -1    0    0    0    0  0.00000000000E+00  0.00000000000E+00  0.45593999997E+02  0.45594000000E+02  0.51100000000E-03 0.  1.
         11   -1    0    0    0    0 -0.00000000000E+00 -0.00000000000E+00 -0.45593999997E+02  0.45594000000E+02  0.51100000000E-03 0. -1.
    9900012    2    1    2    0    0  0.44704914152E+00  0.33003949450E+00  0.10413597733E+01  0.90007657177E+02  0.89999917451E+02 0.  0.
         12    1    1    2    0    0 -0.44704914152E+00 -0.33003949450E+00 -0.10413597733E+01  0.11803428232E+01  0.00000000000E+00 0. -1.
         11    1    3    3    0    0  0.71869366070E+01 -0.68617384774E+01  0.31302873872E+01  0.10417975433E+02  0.51100000000E-03 0. -1.
        -11    1    3    3    0    0  0.21425689714E+02 -0.97734378101E+00  0.29508805768E+02  0.36479925969E+02  0.51100000000E-03 0.  1.
         12    1    3    3    0    0 -0.28165577180E+02  0.81691217529E+01 -0.31597733382E+02  0.43109755775E+02  0.00000000000E+00 0. -1.
</event>
<event>
 7    1  0.1501154E-015  0.9000774E+02  0.7816164E-02  0.1186339E+00
        -11   -1    0    0    0    0  0.00000000000E+00  0.00000000000E+00  0.45593999997E+02  0.45594000000E+02  0.51100000000E-03 0. -1.
         11   -1    0    0    0    0 -0.00000000000E+00 -0.00000000000E+00 -0.45593999997E+02  0.45594000000E+02  0.51100000000E-03 0.  1.
    9900012    2    1    2    0    0  0.11372157942E+01  0.21438363319E+00 -0.23191075156E+00  0.90007744646E+02  0.90000006075E+02 0.  0.
         12    1    1    2    0    0 -0.11372157942E+01 -0.21438363319E+00  0.23191075156E+00  0.11802553543E+01  0.00000000000E+00 0. -1.
         11    1    3    3    0    0 -0.10286838321E+02  0.24136322682E+02  0.12798630655E+02  0.29192226057E+02  0.51100000000E-03 0. -1.
        -11    1    3    3    0    0  0.11829240826E+02  0.72206239319E+01  0.13909734717E+02  0.19635403450E+02  0.51100000000E-03 0.  1.
        -12    1    3    3    0    0 -0.40518671097E+00 -0.31142562980E+02 -0.26940276123E+02  0.41180115139E+02  0.00000000000E+00 0.  1.
</event>
<event>
 7    1  0.1501154E-015  0.9000771E+02  0.7816164E-02  0.1186339E+00
        -11   -1    0    0    0    0  0.00000000000E+00  0.00000000000E+00  0.45593999997E+02  0.45594000000E+02  0.51100000000E-03 0.  1.
         11   -1    0    0    0    0 -0.00000000000E+00 -0.00000000000E+00 -0.45593999997E+02  0.45594000000E+02  0.51100000000E-03 0. -1.
    9900012    2    1    2    0    0  0.11383587541E+01  0.96467626877E-01  0.29649985241E+00  0.90007712400E+02  0.89999973404E+02 0.  0.
         12    1    1    2    0    0 -0.11383587541E+01 -0.96467626877E-01 -0.29649985241E+00  0.11802875999E+01  0.00000000000E+00 0. -1.
         11    1    3    3    0    0 -0.15191297476E+02  0.20329259768E+02 -0.29493202017E+02  0.38908910126E+02  0.51100000000E-03 0. -1.
        -11    1    3    3    0    0  0.28946844753E+01 -0.21066283160E+01 -0.70454723209E+01  0.79028957704E+01  0.51100000000E-03 0.  1.
        -12    1    3    3    0    0  0.13434971755E+02 -0.18126163825E+02  0.36835174190E+02  0.43195906504E+02  0.00000000000E+00 0.  1.
</event>
<event>
 7    1  0.1501154E-015  0.9000770E+02  0.7816164E-02  0.1186339E+00
        -11   -1    0    0    0    0  0.00000000000E+00  0.00000000000E+00  0.45593999997E+02  0.45594000000E+02  0.51100000000E-03 0.  1.
         11   -1    0    0    0    0 -0.00000000000E+00 -0.00000000000E+00 -0.45593999997E+02  0.45594000000E+02  0.51100000000E-03 0. -1.
    9900012    2    1    2    0    0 -0.60106197343E+00 -0.81625460858E+00  0.60462536796E+00  0.90007695413E+02  0.89999956193E+02 0.  0.
         12    1    1    2    0    0  0.60106197343E+00  0.81625460858E+00 -0.60462536796E+00  0.11803045868E+01  0.00000000000E+00 0. -1.
         11    1    3    3    0    0  0.74642110361E+01 -0.43346488573E+01 -0.54647387922E+01  0.10216016711E+02  0.51100000000E-03 0. -1.
        -11    1    3    3    0    0  0.27060634480E+01 -0.16461086966E+02  0.37487747263E+02  0.41031955335E+02  0.51100000000E-03 0.  1.
         12    1    3    3    0    0 -0.10771336458E+02  0.19979481214E+02 -0.31418383103E+02  0.38759723367E+02  0.00000000000E+00 0. -1.
</event>
<event>
 7    1  0.1501154E-015  0.9000772E+02  0.7816164E-02  0.1186339E+00
        -11   -1    0    0    0    0  0.00000000000E+00  0.00000000000E+00  0.45593999997E+02  0.45594000000E+02  0.51100000000E-03 0.  1.
         11   -1    0    0    0    0 -0.00000000000E+00 -0.00000000000E+00 -0.45593999997E+02  0.45594000000E+02  0.51100000000E-03 0. -1.
    9900012    2    1    2    0    0  0.61090657460E+00 -0.97560921480E+00 -0.26084081597E+00  0.90007721171E+02  0.89999982290E+02 0.  0.
         12    1    1    2    0    0 -0.61090657460E+00  0.97560921480E+00  0.26084081597E+00  0.11802788290E+01  0.00000000000E+00 0. -1.
         11    1    3    3    0    0  0.22623510465E+01  0.31448287190E+02 -0.20302643671E+02  0.37500804521E+02  0.51100000000E-03 0. -1.
        -11    1    3    3    0    0  0.18474466120E+01  0.78544443887E+01  0.40608352401E+01  0.90330359651E+01  0.51100000000E-03 0.  1.
        -12    1    3    3    0    0 -0.34988910839E+01 -0.40278340793E+02  0.15980967615E+02  0.43473880685E+02  0.00000000000E+00 0.  1.
</event>
<event>
 7    1  0.1501154E-015  0.9000774E+02  0.7816164E-02  0.1186339E+00
        -11   -1    0    0    0    0  0.00000000000E+00  0.00000000000E+00  0.45593999997E+02  0.45594000000E+02  0.51100000000E-03 0.  1.
         11   -1    0    0    0    0 -0.00000000000E+00 -0.00000000000E+00 -0.45593999997E+02  0.45594000000E+02  0.51100000000E-03 0. -1.
    9900012    2    1    2    0    0  0.33771664162E+00 -0.62486926523E+00  0.94260203758E+00  0.90007740397E+02  0.90000001770E+02 0.  0.
         12    1    1    2    0    0 -0.33771664162E+00  0.62486926523E+00 -0.94260203758E+00  0.11802596028E+01  0.00000000000E+00 0. -1.
         11    1    3    3    0    0 -0.70984098888E+01 -0.22238056383E+02 -0.29297594539E+02  0.37460213837E+02  0.51100000000E-03 0. -1.
        -11    1    3    3    0    0 -0.32224360797E+01 -0.35700933260E+01 -0.56543456275E+01  0.74230240051E+01  0.51100000000E-03 0.  1.
        -12    1    3    3    0    0  0.10658562610E+02  0.25183280444E+02  0.35894542204E+02  0.45124502555E+02  0.00000000000E+00 0.  1.
</event>
<event>
 7    1  0.1501154E-015  0.9000773E+02  0.7816164E-02  0.1186339E+00
        -11   -1    0    0    0    0  0.00000000000E+00  0.00000000000E+00  0.45593999997E+02  0.45594000000E+02  0.51100000000E-03 0. -1.
         11   -1    0    0    0    0 -0.00000000000E+00 -0.00000000000E+00 -0.45593999997E+02  0.45594000000E+02  0.51100000000E-03 0.  1.
    9900012    2    1    2    0    0  0.41198924833E+00  0.91339205502E-01 -0.11022524036E+01  0.90007729543E+02  0.89999990773E+02 0.  0.
         12    1    1    2    0    0 -0.41198924833E+00 -0.91339205502E-01  0.11022524036E+01  0.11802704573E+01  0.00000000000E+00 0. -1.
         11    1    3    3    0    0 -0.39322071645E+01  0.21466928753E+01 -0.46672673270E+01  0.64694611869E+01  0.51100000000E-03 0. -1.
        -11    1    3    3    0    0 -0.21946980216E+02  0.26685131903E+02 -0.18059966531E+02  0.38986261640E+02  0.51100000000E-03 0.  1.
         12    1    3    3    0    0  0.26291176629E+02 -0.28740485573E+02  0.21624981454E+02  0.44552006716E+02  0.00000000000E+00 0. -1.
</event>
<event>
 7    1  0.1501154E-015  0.9000761E+02  0.7816164E-02  0.1186339E+00
        -11   -1    0    0    0    0  0.00000000000E+00  0.00000000000E+00  0.45593999997E+02  0.45594000000E+02  0.51100000000E-03 0. -1.
         11   -1    0    0    0    0 -0.00000000000E+00 -0.00000000000E+00 -0.45593999997E+02  0.45594000000E+02  0.51100000000E-03 0.  1.
    9900012    2    1    2    0    0 -0.68575492414E+00  0.10154481693E+00 -0.95538055310E+00  0.90007608892E+02  0.89999868530E+02 0.  0.
         12    1    1    2    0    0  0.68575492414E+00 -0.10154481693E+00  0.95538055310E+00  0.11803911077E+01  0.00000000000E+00 0. -1.
         11    1    3    3    0    0  0.11777118160E+02  0.38625028538E+02  0.16910927705E+01  0.40416000999E+02  0.51100000000E-03 0. -1.
        -11    1    3    3    0    0 -0.76813983271E+01  0.18782063092E+01 -0.40485234484E+01  0.88838100820E+01  0.51100000000E-03 0.  1.
        -12    1    3    3    0    0 -0.47814747569E+01 -0.40401690030E+02  0.14020501248E+01  0.40707797812E+02  0.00000000000E+00 0.  1.
</event>
<event>
 7    1  0.1501154E-015  0.9000774E+02  0.7816164E-02  0.1186339E+00
        -11   -1    0    0    0    0  0.00000000000E+00  0.00000000000E+00  0.45593999997E+02  0.45594000000E+02  0.51100000000E-03 0. -1.
         11   -1    0    0    0    0 -0.00000000000E+00 -0.00000000000E+00 -0.45593999997E+02  0.45594000000E+02  0.51100000000E-03 0.  1.
    9900012    2    1    2    0    0 -0.57177215854E+00  0.15505205363E+00 -0.10208103681E+01  0.90007738017E+02  0.89999999359E+02 0.  0.
         12    1    1    2    0    0  0.57177215854E+00 -0.15505205363E+00  0.10208103681E+01  0.11802619829E+01  0.00000000000E+00 0. -1.
         11    1    3    3    0    0 -0.83565815024E+01 -0.31367956977E+01 -0.10542807930E+01  0.89879613877E+01  0.51100000000E-03 0. -1.
        -11    1    3    3    0    0 -0.14095525433E+02  0.36142752785E+02 -0.10457217150E+02  0.40178797977E+02  0.51100000000E-03 0.  1.
         12    1    3    3    0    0  0.21880334777E+02 -0.32850905033E+02  0.10490687575E+02  0.40840978652E+02  0.00000000000E+00 0. -1.
</event>
<event>
 7    1  0.1501154E-015  0.9000774E+02  0.7816164E-02  0.1186339E+00
        -11   -1    0    0    0    0  0.00000000000E+00  0.00000000000E+00  0.45593999997E+02  0.45594000000E+02  0.51100000000E-03 0. -1.
         11   -1    0    0    0    0 -0.00000000000E+00 -0.00000000000E+00 -0.45593999997E+02  0.45594000000E+02  0.51100000000E-03 0.  1.
    9900012    2    1    2    0    0 -0.10026415857E+01 -0.12413744284E+00 -0.61016819779E+00  0.90007743467E+02  0.90000004881E+02 0.  0.
         12    1    1    2    0    0  0.10026415857E+01  0.12413744284E+00  0.61016819779E+00  0.11802565330E+01  0.00000000000E+00 0. -1.
         11    1    3    3    0    0  0.27138721406E+01 -0.54228579811E+01  0.43569945923E+00  0.60796648722E+01  0.51100000000E-03 0. -1.
        -11    1    3    3    0    0 -0.42100523655E+02 -0.69400265033E+01 -0.68802610237E+01  0.43219857148E+02  0.51100000000E-03 0.  1.
         12    1    3    3    0    0  0.38384009929E+02  0.12238747042E+02  0.58343933667E+01  0.40708221446E+02  0.00000000000E+00 0. -1.
</event>
<event>
 7    1  0.1501154E-015  0.9000740E+02  0.7816164E-02  0.1186340E+00
        -11   -1    0    0    0    0  0.00000000000E+00  0.00000000000E+00  0.45593999997E+02  0.45594000000E+02  0.51100000000E-03 0. -1.
         11   -1    0    0    0    0 -0.00000000000E+00 -0.00000000000E+00 -0.45593999997E+02  0.45594000000E+02  0.51100000000E-03 0.  1.
    9900012    2    1    2    0    0 -0.46754938388E+00  0.19612173162E+00 -0.10661798996E+01  0.90007404498E+02  0.89999661437E+02 0.  0.
         12    1    1    2    0    0  0.46754938388E+00 -0.19612173162E+00  0.10661798996E+01  0.11805955016E+01  0.00000000000E+00 0. -1.
         11    1    3    3    0    0  0.31305668510E+01 -0.32310870964E+01 -0.78113702640E+01  0.90143151873E+01  0.51100000000E-03 0. -1.
        -11    1    3    3    0    0  0.46529045262E+01  0.33803320397E+02 -0.20118433223E+02  0.39611429486E+02  0.51100000000E-03 0.  1.
         12    1    3    3    0    0 -0.82510207611E+01 -0.30376111569E+02  0.26863623587E+02  0.41381659825E+02  0.00000000000E+00 0. -1.
</event>
<event>
 7    1  0.1501154E-015  0.9000773E+02  0.7816164E-02  0.1186339E+00
        -11   -1    0    0    0    0  0.00000000000E+00  0.00000000000E+00  0.45593999997E+02  0.45594000000E+02  0.51100000000E-03 0. -1.
         11   -1    0    0    0    0 -0.00000000000E+00 -0.00000000000E+00 -0.45593999997E+02  0.45594000000E+02  0.51100000000E-03 0.  1.
    9900012    2    1    2    0    0 -0.66640485459E+00 -0.45055945751E+00 -0.86367176693E+00  0.90007733854E+02  0.89999995141E+02 0.  0.
         12    1    1    2    0    0  0.66640485459E+00  0.45055945751E+00  0.86367176693E+00  0.11802661462E+01  0.00000000000E+00 0. -1.
         11    1    3    3    0    0  0.43071873916E+02  0.57790816192E+01 -0.72972722668E+01  0.44066248874E+02  0.51100000000E-03 0. -1.
        -11    1    3    3    0    0 -0.97498116689E+01 -0.25100319091E+01 -0.29404779842E+01  0.10488350623E+02  0.51100000000E-03 0.  1.
        -12    1    3    3    0    0 -0.33988467102E+02 -0.37196091676E+01  0.93740784841E+01  0.35453134357E+02  0.00000000000E+00 0.  1.
</event>
<event>
 7    1  0.1501154E-015  0.9000774E+02  0.7816164E-02  0.1186339E+00
        -11   -1    0    0    0    0  0.00000000000E+00  0.00000000000E+00  0.45593999997E+02  0.45594000000E+02  0.51100000000E-03 0.  1.
         11   -1    0    0    0    0 -0.00000000000E+00 -0.00000000000E+00 -0.45593999997E+02  0.45594000000E+02  0.51100000000E-03 0. -1.
    9900012    2    1    2    0    0 -0.69128925985E+00 -0.83017443835E+00 -0.47532414592E+00  0.90007744315E+02  0.90000005740E+02 0.  0.
         12    1    1    2    0    0  0.69128925985E+00  0.83017443835E+00  0.47532414592E+00  0.11802556853E+01  0.00000000000E+00 0. -1.
         11    1    3    3    0    0  0.13158192483E+02  0.26124561055E+02 -0.20085006159E+02  0.35482928182E+02  0.51100000000E-03 0. -1.
        -11    1    3    3    0    0  0.13089060091E+02 -0.72194945417E+00  0.31691142927E+01  0.13486585585E+02  0.51100000000E-03 0.  1.
        -12    1    3    3    0    0 -0.26938541834E+02 -0.26232786039E+02  0.16440567721E+02  0.41038230547E+02  0.00000000000E+00 0.  1.
</event>
<event>
 7    1  0.1501154E-015  0.9000743E+02  0.7816164E-02  0.1186340E+00
        -11   -1    0    0    0    0  0.00000000000E+00  0.00000000000E+00  0.45593999997E+02  0.45594000000E+02  0.51100000000E-03 0. -1.
         11   -1    0    0    0    0 -0.00000000000E+00 -0.00000000000E+00 -0.45593999997E+02  0.45594000000E+02  0.51100000000E-03 0.  1.
    9900012    2    1    2    0    0  0.74010341669E+00 -0.30421575832E+00 -0.86801173261E+00  0.90007430365E+02  0.89999687645E+02 0.  0.
         12    1    1    2    0    0 -0.74010341669E+00  0.30421575832E+00  0.86801173261E+00  0.11805696349E+01  0.00000000000E+00 0. -1.
         11    1    3    3    0    0 -0.63381053078E+01  0.20642696083E+01 -0.26180458441E+01  0.71614909210E+01  0.51100000000E-03 0. -1.
        -11    1    3    3    0    0  0.11733151323E+02  0.37773333488E+02  0.11662438004E+02  0.41237167983E+02  0.51100000000E-03 0.  1.
         12    1    3    3    0    0 -0.46549425987E+01 -0.40141818855E+02 -0.99124038927E+01  0.41608771461E+02  0.00000000000E+00 0. -1.
</event>
<event>
 7    1  0.1501154E-015  0.9000784E+02  0.7816164E-02  0.1186339E+00
        -11   -1    0    0    0    0  0.00000000000E+00  0.00000000000E+00  0.45593999997E+02  0.45594000000E+02  0.51100000000E-03 0.  1.
         11   -1    0    0    0    0 -0.00000000000E+00 -0.00000000000E+00 -0.45593999997E+02  0.45594000000E+02  0.51100000000E-03 0. -1.
    9900012    2    1    2    0    0 -0.64975578427E+00  0.85164612844E+00  0.49527227159E+00  0.90007839701E+02  0.90000102385E+02 0.  0.
         12    1    1    2    0    0  0.64975578427E+00 -0.85164612844E+00 -0.49527227159E+00  0.11801602986E+01  0.00000000000E+00 0. -1.
         11    1    3    3    0    0  0.30866358402E+02  0.23603995136E+01 -0.18414123524E+02  0.36019210323E+02  0.51100000000E-03 0. -1.
        -11    1    3    3    0    0 -0.14647005507E+00 -0.31680233540E+01 -0.10493001008E+02  0.10961792548E+02  0.51100000000E-03 0.  1.
        -12    1    3    3    0    0 -0.31369644131E+02  0.16592699688E+01  0.29402396805E+02  0.43026836830E+02  0.00000000000E+00 0.  1.
</event>
<event>
 7    1  0.1501154E-015  0.9000780E+02  0.7816164E-02  0.1186339E+00
        -11   -1    0    0    0    0  0.00000000000E+00  0.00000000000E+00  0.45593999997E+02  0.45594000000E+02  0.51100000000E-03 0.  1.
         11   -1    0    0    0    0 -0.00000000000E+00 -0.00000000000E+00 -0.45593999997E+02  0.45594000000E+02  0.51100000000E-03 0. -1.
    9900012    2    1    2    0    0  0.32757991331E+00  0.89181733967E+00  0.70015336558E+00  0.90007804464E+02  0.90000066683E+02 0.  0.
         12    1    1    2    0    0 -0.32757991331E+00 -0.89181733967E+00 -0.70015336558E+00  0.11801955356E+01  0.00000000000E+00 0. -1.
         11    1    3    3    0    0  0.52012513754E+01 -0.55535913685E+01 -0.57333405875E+01  0.95271500204E+01  0.51100000000E-03 0. -1.
        -11    1    3    3    0    0 -0.20749828013E+02 -0.30572856180E+02  0.13970881307E+02  0.39502410335E+02  0.51100000000E-03 0.  1.
         12    1    3    3    0    0  0.15876156551E+02  0.37018264888E+02 -0.75373873536E+01  0.40978244109E+02  0.00000000000E+00 0. -1.
</event>
<event>
 7    1  0.1501154E-015  0.9000772E+02  0.7816164E-02  0.1186339E+00
        -11   -1    0    0    0    0  0.00000000000E+00  0.00000000000E+00  0.45593999997E+02  0.45594000000E+02  0.51100000000E-03 0.  1.
         11   -1    0    0    0    0 -0.00000000000E+00 -0.00000000000E+00 -0.45593999997E+02  0.45594000000E+02  0.51100000000E-03 0. -1.
    9900012    2    1    2    0    0 -0.86428174346E+00  0.12204383316E-01  0.80369414108E+00  0.90007722002E+02  0.89999983133E+02 0.  0.
         12    1    1    2    0    0  0.86428174346E+00 -0.12204383316E-01 -0.80369414108E+00  0.11802779975E+01  0.00000000000E+00 0. -1.
         11    1    3    3    0    0  0.29110188645E+01 -0.14315589981E+01 -0.87176997990E+01  0.93017031796E+01  0.51100000000E-03 0. -1.
        -11    1    3    3    0    0 -0.32612683472E+02 -0.21378540451E+02 -0.82548371381E+01  0.39859396025E+02  0.51100000000E-03 0.  1.
         12    1    3    3    0    0  0.28837382864E+02  0.22822303832E+02  0.17776231078E+02  0.40846622798E+02  0.00000000000E+00 0. -1.
</event>
<event>
 7    1  0.1501154E-015  0.9000770E+02  0.7816164E-02  0.1186339E+00
        -11   -1    0    0    0    0  0.00000000000E+00  0.00000000000E+00  0.45593999997E+02  0.45594000000E+02  0.51100000000E-03 0.  1.
         11   -1    0    0    0    0 -0.00000000000E+00 -0.00000000000E+00 -0.45593999997E+02  0.45594000000E+02  0.51100000000E-03 0. -1.
    9900012    2    1    2    0    0  0.22076738257E+00  0.11237635261E+01 -0.28551518021E+00  0.90007702742E+02  0.89999963618E+02 0.  0.
         12    1    1    2    0    0 -0.22076738257E+00 -0.11237635261E+01  0.28551518021E+00  0.11802972583E+01  0.00000000000E+00 0. -1.
         11    1    3    3    0    0  0.34750447397E+01  0.95930591286E+00 -0.40333403992E+02  0.40494193184E+02  0.51100000000E-03 0. -1.
        -11    1    3    3    0    0 -0.49326517651E+01  0.77076604822E+01  0.44285798590E+00  0.91616159602E+01  0.51100000000E-03 0.  1.
        -12    1    3    3    0    0  0.16783744080E+01 -0.75432028690E+01  0.39605030826E+02  0.40351893598E+02  0.00000000000E+00 0.  1.
</event>
<event>
 7    1  0.1501154E-015  0.9000776E+02  0.7816164E-02  0.1186339E+00
        -11   -1    0    0    0    0  0.00000000000E+00  0.00000000000E+00  0.45593999997E+02  0.45594000000E+02  0.51100000000E-03 0.  1.
         11   -1    0    0    0    0 -0.00000000000E+00 -0.00000000000E+00 -0.45593999997E+02  0.45594000000E+02  0.51100000000E-03 0. -1.
    9900012    2    1    2    0    0  0.99575127269E+00  0.47705244493E+00  0.41696529274E+00  0.90007762868E+02  0.90000024538E+02 0.  0.
         12    1    1    2    0    0 -0.99575127269E+00 -0.47705244493E+00 -0.41696529274E+00  0.11802371319E+01  0.00000000000E+00 0. -1.
         11    1    3    3    0    0 -0.40377178813E+01 -0.28543485884E+02 -0.31715000775E+02  0.42858780040E+02  0.51100000000E-03 0. -1.
        -11    1    3    3    0    0  0.37154903401E+01  0.63969387745E+01 -0.50587110893E+00  0.74149578551E+01  0.51100000000E-03 0.  1.
        -12    1    3    3    0    0  0.13179788139E+01  0.22623599555E+02  0.32637837177E+02  0.39734024973E+02  0.00000000000E+00 0.  1.
</event>
<event>
 7    1  0.1501154E-015  0.9000770E+02  0.7816164E-02  0.1186339E+00
        -11   -1    0    0    0    0  0.00000000000E+00  0.00000000000E+00  0.45593999997E+02  0.45594000000E+02  0.51100000000E-03 0.  1.
         11   -1    0    0    0    0 -0.00000000000E+00 -0.00000000000E+00 -0.45593999997E+02  0.45594000000E+02  0.51100000000E-03 0. -1.
    9900012    2    1    2    0    0  0.21255218552E+00 -0.90598498732E+00  0.72602738799E+00  0.90007702158E+02  0.89999963026E+02 0.  0.
         12    1    1    2    0    0 -0.21255218552E+00  0.90598498732E+00 -0.72602738799E+00  0.11802978425E+01  0.00000000000E+00 0. -1.
         11    1    3    3    0    0 -0.35510933363E+02 -0.10868026252E+02  0.36506187424E+01  0.37315779510E+02  0.51100000000E-03 0. -1.
        -11    1    3    3    0    0 -0.59915877772E+01 -0.54637162430E+01  0.14793512828E+00  0.81100680847E+01  0.51100000000E-03 0.  1.
        -12    1    3    3    0    0  0.41715073326E+02  0.15425757508E+02 -0.30725264827E+01  0.44581854563E+02  0.00000000000E+00 0.  1.
</event>
<event>
 7    1  0.1501154E-015  0.9000697E+02  0.7816164E-02  0.1186341E+00
        -11   -1    0    0    0    0  0.00000000000E+00  0.00000000000E+00  0.45593999997E+02  0.45594000000E+02  0.51100000000E-03 0.  1.
         11   -1    0    0    0    0 -0.00000000000E+00 -0.00000000000E+00 -0.45593999997E+02  0.45594000000E+02  0.51100000000E-03 0. -1.
    9900012    2    1    2    0    0  0.39248993405E+00  0.93412515825E+00  0.60679459930E+00  0.90006967466E+02  0.89999218634E+02 0.  0.
         12    1    1    2    0    0 -0.39248993405E+00 -0.93412515825E+00 -0.60679459930E+00  0.11810325336E+01  0.00000000000E+00 0. -1.
         11    1    3    3    0    0 -0.37605492086E+02 -0.15762112211E+02  0.29905721265E+01  0.40884725000E+02  0.51100000000E-03 0. -1.
        -11    1    3    3    0    0 -0.27679936910E+00  0.10070060683E+02  0.10406700487E+01  0.10127474239E+02  0.51100000000E-03 0.  1.
        -12    1    3    3    0    0  0.38274781389E+02  0.66261766864E+01 -0.34244475759E+01  0.38994768227E+02  0.00000000000E+00 0.  1.
</event>
<event>
 7    1  0.1501154E-015  0.9000772E+02  0.7816164E-02  0.1186339E+00
        -11   -1    0    0    0    0  0.00000000000E+00  0.00000000000E+00  0.45593999997E+02  0.45594000000E+02  0.51100000000E-03 0.  1.
         11   -1    0    0    0    0 -0.00000000000E+00 -0.00000000000E+00 -0.45593999997E+02  0.45594000000E+02  0.51100000000E-03 0. -1.
    9900012    2    1    2    0    0 -0.37800020517E+00 -0.65626694262E+00  0.90525378033E+00  0.90007722549E+02  0.89999983686E+02 0.  0.
         12    1    1    2    0    0  0.37800020517E+00  0.65626694262E+00 -0.90525378033E+00  0.11802774512E+01  0.00000000000E+00 0. -1.
         11    1    3    3    0    0  0.85485830590E+01  0.37734545843E+00 -0.12711716511E+02  0.15323459102E+02  0.51100000000E-03 0. -1.
        -11    1    3    3    0    0 -0.27282337893E+02  0.22593847829E+02 -0.97278095367E+01  0.36734700207E+02  0.51100000000E-03 0.  1.
         12    1    3    3    0    0  0.18355754629E+02 -0.23627460230E+02  0.23344779828E+02  0.37949563241E+02  0.00000000000E+00 0. -1.
</event>
<event>
 7    1  0.1586762E-015  0.9000781E+02  0.7816164E-02  0.1186339E+00
        -11   -1    0    0    0    0  0.00000000000E+00  0.00000000000E+00  0.45593999997E+02  0.45594000000E+02  0.51100000000E-03 0.  1.
         11   -1    0    0    0    0 -0.00000000000E+00 -0.00000000000E+00 -0.45593999997E+02  0.45594000000E+02  0.51100000000E-03 0. -1.
    9900012    2    1    2    0    0  0.55155897855E+00 -0.26660664155E+00 -0.10087384716E+01  0.90007809459E+02  0.90000071744E+02 0.  0.
         12    1    1    2    0    0 -0.55155897855E+00  0.26660664155E+00  0.10087384716E+01  0.11801905407E+01  0.00000000000E+00 0. -1.
         11    1    3    3    0    0 -0.17848648398E+01  0.23829230234E+02  0.26085910158E+02  0.35376442233E+02  0.51100000000E-03 0. -1.
        -11    1    3    3    0    0  0.13482627622E+00  0.34989557977E+01  0.87017455661E+01  0.93798318725E+01  0.51100000000E-03 0.  1.
        -12    1    3    3    0    0  0.22015975421E+01 -0.27594792673E+02 -0.35796394196E+02  0.45251535353E+02  0.00000000000E+00 0.  1.
</event>
<event>
 7    1  0.1501154E-015  0.9000778E+02  0.7816164E-02  0.1186339E+00
        -11   -1    0    0    0    0  0.00000000000E+00  0.00000000000E+00  0.45593999997E+02  0.45594000000E+02  0.51100000000E-03 0. -1.
         11   -1    0    0    0    0 -0.00000000000E+00 -0.00000000000E+00 -0.45593999997E+02  0.45594000000E+02  0.51100000000E-03 0.  1.
    9900012    2    1    2    0    0 -0.86119454475E+00  0.80467761001E+00  0.61288334036E-01  0.90007780376E+02  0.90000042277E+02 0.  0.
         12    1    1    2    0    0  0.86119454475E+00 -0.80467761001E+00 -0.61288334036E-01  0.11802196236E+01  0.00000000000E+00 0. -1.
         11    1    3    3    0    0 -0.82907894784E+01  0.36189397114E+00  0.37269186545E+01  0.90971468241E+01  0.51100000000E-03 0. -1.
        -11    1    3    3    0    0 -0.22533737602E+02 -0.30167634020E+01 -0.32181824116E+02  0.39402284140E+02  0.51100000000E-03 0.  1.
         12    1    3    3    0    0  0.29963332536E+02  0.34595470408E+01  0.28516193795E+02  0.41508349413E+02  0.00000000000E+00 0. -1.
</event>
<event>
 7    1  0.1501154E-015  0.9000785E+02  0.7816164E-02  0.1186339E+00
        -11   -1    0    0    0    0  0.00000000000E+00  0.00000000000E+00  0.45593999997E+02  0.45594000000E+02  0.51100000000E-03 0.  1.
         11   -1    0    0    0    0 -0.00000000000E+00 -0.00000000000E+00 -0.45593999997E+02  0.45594000000E+02  0.51100000000E-03 0. -1.
    9900012    2    1    2    0    0 -0.75695471235E+00 -0.89906393340E+00  0.10709327789E+00  0.90007845195E+02  0.90000107952E+02 0.  0.
         12    1    1    2    0    0  0.75695471235E+00  0.89906393340E+00 -0.10709327789E+00  0.11801548047E+01  0.00000000000E+00 0. -1.
         11    1    3    3    0    0 -0.95809757544E+01 -0.28126046471E+01  0.28757502760E+01  0.10391139553E+02  0.51100000000E-03 0. -1.
        -11    1    3    3    0    0  0.21775708029E+02 -0.30605847402E+02  0.14896646045E+02  0.40408036564E+02  0.51100000000E-03 0.  1.
         12    1    3    3    0    0 -0.12951686986E+02  0.32519388116E+02 -0.17665303043E+02  0.39208669077E+02  0.00000000000E+00 0. -1.
</event>
<event>
 7    1  0.1501154E-015  0.9000767E+02  0.7816164E-02  0.1186339E+00
        -11   -1    0    0    0    0  0.00000000000E+00  0.00000000000E+00  0.45593999997E+02  0.45594000000E+02  0.51100000000E-03 0. -1.
         11   -1    0    0    0    0 -0.00000000000E+00 -0.00000000000E+00 -0.45593999997E+02  0.45594000000E+02  0.51100000000E-03 0.  1.
    9900012    2    1    2    0    0  0.33167525099E+00  0.38465943985E+00 -0.10654640014E+01  0.90007667464E+02  0.89999927875E+02 0.  0.
         12    1    1    2    0    0 -0.33167525099E+00 -0.38465943985E+00  0.10654640014E+01  0.11803325358E+01  0.00000000000E+00 0. -1.
         11    1    3    3    0    0 -0.31214764364E+02 -0.22017732378E+02  0.93898796369E+01  0.39335885566E+02  0.51100000000E-03 0. -1.
        -11    1    3    3    0    0  0.49400226616E+01 -0.77667627174E+01 -0.35100790216E+01  0.98512477385E+01  0.51100000000E-03 0.  1.
        -12    1    3    3    0    0  0.26606416954E+02  0.30169154535E+02 -0.69452646168E+01  0.40820534160E+02  0.00000000000E+00 0.  1.
</event>
<event>
 7    1  0.1501154E-015  0.9000731E+02  0.7816164E-02  0.1186340E+00
        -11   -1    0    0    0    0  0.00000000000E+00  0.00000000000E+00  0.45593999997E+02  0.45594000000E+02  0.51100000000E-03 0.  1.
         11   -1    0    0    0    0 -0.00000000000E+00 -0.00000000000E+00 -0.45593999997E+02  0.45594000000E+02  0.51100000000E-03 0. -1.
    9900012    2    1    2    0    0 -0.19431546672E+00 -0.11645898158E+01 -0.35379832029E-02  0.90007305096E+02  0.89999560722E+02 0.  0.
         12    1    1    2    0    0  0.19431546672E+00  0.11645898158E+01  0.35379832029E-02  0.11806949043E+01  0.00000000000E+00 0. -1.
         11    1    3    3    0    0  0.82712823132E+01 -0.17419187150E+00 -0.48722047075E+01  0.96011891391E+01  0.51100000000E-03 0. -1.
        -11    1    3    3    0    0 -0.16371740308E+02 -0.38525264748E+02  0.38154979164E+01  0.42033176531E+02  0.51100000000E-03 0.  1.
         12    1    3    3    0    0  0.79061425285E+01  0.37534866804E+02  0.10531688078E+01  0.38372939426E+02  0.00000000000E+00 0. -1.
</event>
<event>
 7    1  0.1501154E-015  0.9000762E+02  0.7816164E-02  0.1186339E+00
        -11   -1    0    0    0    0  0.00000000000E+00  0.00000000000E+00  0.45593999997E+02  0.45594000000E+02  0.51100000000E-03 0. -1.
         11   -1    0    0    0    0 -0.00000000000E+00 -0.00000000000E+00 -0.45593999997E+02  0.45594000000E+02  0.51100000000E-03 0.  1.
    9900012    2    1    2    0    0 -0.97142119653E+00 -0.45523534803E+00  0.49233572859E+00  0.90007621742E+02  0.89999881549E+02 0.  0.
         12    1    1    2    0    0  0.97142119653E+00  0.45523534803E+00 -0.49233572859E+00  0.11803782584E+01  0.00000000000E+00 0. -1.
         11    1    3    3    0    0 -0.20373935055E+00  0.79476815844E+01 -0.50042833552E+01  0.93941473509E+01  0.51100000000E-03 0. -1.
        -11    1    3    3    0    0  0.21357253511E+02 -0.24121283833E+01 -0.30876373627E+02  0.37620487629E+02  0.51100000000E-03 0.  1.
         12    1    3    3    0    0 -0.22124935357E+02 -0.59907885491E+01  0.36372992711E+02  0.42992986762E+02  0.00000000000E+00 0. -1.
</event>
<event>
 7    1  0.1501154E-015  0.9000777E+02  0.7816164E-02  0.1186339E+00
        -11   -1    0    0    0    0  0.00000000000E+00  0.00000000000E+00  0.45593999997E+02  0.45594000000E+02  0.51100000000E-03 0.  1.
         11   -1    0    0    0    0 -0.00000000000E+00 -0.00000000000E+00 -0.45593999997E+02  0.45594000000E+02  0.51100000000E-03 0. -1.
    9900012    2    1    2    0    0 -0.26583276742E+00 -0.94976649344E+00  0.64824884515E+00  0.90007766965E+02  0.90000028689E+02 0.  0.
         12    1    1    2    0    0  0.26583276742E+00  0.94976649344E+00 -0.64824884515E+00  0.11802330353E+01  0.00000000000E+00 0. -1.
         11    1    3    3    0    0 -0.61923613626E+01 -0.10450548526E+02 -0.34165262432E+02  0.36260508284E+02  0.51100000000E-03 0. -1.
        -11    1    3    3    0    0 -0.82356963676E+01  0.12805867923E+01 -0.56679640619E+01  0.10079306229E+02  0.51100000000E-03 0.  1.
        -12    1    3    3    0    0  0.14162224963E+02  0.82201952399E+01  0.40481475339E+02  0.43667952451E+02  0.00000000000E+00 0.  1.
</event>
<event>
 7    1  0.1501154E-015  0.9000783E+02  0.7816164E-02  0.1186339E+00
        -11   -1    0    0    0    0  0.00000000000E+00  0.00000000000E+00  0.45593999997E+02  0.45594000000E+02  0.51100000000E-03 0. -1.
         11   -1    0    0    0    0 -0.00000000000E+00 -0.00000000000E+00 -0.45593999997E+02  0.45594000000E+02  0.51100000000E-03 0.  1.
    9900012    2    1    2    0    0  0.11785115198E+01  0.54859107938E-01  0.30177508630E-01  0.90007826451E+02  0.90000088960E+02 0.  0.
         12    1    1    2    0    0 -0.11785115198E+01 -0.54859107938E-01 -0.30177508630E-01  0.11801735491E+01  0.00000000000E+00 0. -1.
         11    1    3    3    0    0 -0.29738978596E+02  0.26170252777E+02  0.18147699569E+02  0.43573248425E+02  0.51100000000E-03 0. -1.
        -11    1    3    3    0    0  0.35494683741E+01 -0.95056188386E+01 -0.11769064474E+01  0.10214725855E+02  0.51100000000E-03 0.  1.
        -12    1    3    3    0    0  0.27368021742E+02 -0.16609774831E+02 -0.16940615613E+02  0.36219852171E+02  0.00000000000E+00 0.  1.
</event>
<event>
 7    1  0.1501154E-015  0.9000798E+02  0.7816164E-02  0.1186339E+00
        -11   -1    0    0    0    0  0.00000000000E+00  0.00000000000E+00  0.45593999997E+02  0.45594000000E+02  0.51100000000E-03 0.  1.
         11   -1    0    0    0    0 -0.00000000000E+00 -0.00000000000E+00 -0.45593999997E+02  0.45594000000E+02  0.51100000000E-03 0. -1.
    9900012    2    1    2    0    0  0.44516520923E+00 -0.82023501608E+00 -0.72214361077E+00  0.90007979263E+02  0.90000243789E+02 0.  0.
         12    1    1    2    0    0 -0.44516520923E+00  0.82023501608E+00  0.72214361077E+00  0.11800207370E+01  0.00000000000E+00 0. -1.
         11    1    3    3    0    0  0.17436653125E+01 -0.30097861771E+02  0.18195878825E+02  0.35213799260E+02  0.51100000000E-03 0. -1.
        -11    1    3    3    0    0  0.90173004128E+01 -0.69866982280E+01  0.21441191691E+01  0.11607019692E+02  0.51100000000E-03 0.  1.
        -12    1    3    3    0    0 -0.10315800516E+02  0.36264324982E+02 -0.21062141605E+02  0.43187160311E+02  0.00000000000E+00 0.  1.
</event>
<event>
 7    1  0.1501154E-015  0.9000777E+02  0.7816164E-02  0.1186339E+00
        -11   -1    0    0    0    0  0.00000000000E+00  0.00000000000E+00  0.45593999997E+02  0.45594000000E+02  0.51100000000E-03 0.  1.
         11   -1    0    0    0    0 -0.00000000000E+00 -0.00000000000E+00 -0.45593999997E+02  0.45594000000E+02  0.51100000000E-03 0. -1.
    9900012    2    1    2    0    0 -0.21084202176E+00 -0.77104142871E+00  0.86831957792E+00  0.90007772000E+02  0.90000033790E+02 0.  0.
         12    1    1    2    0    0  0.21084202176E+00  0.77104142871E+00 -0.86831957792E+00  0.11802280001E+01  0.00000000000E+00 0. -1.
         11    1    3    3    0    0 -0.81818931253E+01 -0.25373854086E+02 -0.30306624746E+02  0.40364184000E+02  0.51100000000E-03 0. -1.
        -11    1    3    3    0    0  0.51637364370E+00  0.15746512921E+01 -0.54760717531E+01  0.57213224466E+01  0.51100000000E-03 0.  1.
        -12    1    3    3    0    0  0.74546774599E+01  0.23028161365E+02  0.36651016077E+02  0.43922265553E+02  0.00000000000E+00 0.  1.
</event>
<event>
 7    1  0.1501154E-015  0.9000778E+02  0.7816164E-02  0.1186339E+00
        -11   -1    0    0    0    0  0.00000000000E+00  0.00000000000E+00  0.45593999997E+02  0.45594000000E+02  0.51100000000E-03 0.  1.
         11   -1    0    0    0    0 -0.00000000000E+00 -0.00000000000E+00 -0.45593999997E+02  0.45594000000E+02  0.51100000000E-03 0. -1.
    9900012    2    1    2    0    0  0.59744835128E+00 -0.18310467777E+00  0.10012267993E+01  0.90007776733E+02  0.90000038586E+02 0.  0.
         12    1    1    2    0    0 -0.59744835128E+00  0.18310467777E+00 -0.10012267993E+01  0.11802232666E+01  0.00000000000E+00 0. -1.
         11    1    3    3    0    0 -0.34339085062E+01 -0.25598128027E+01  0.92829487349E+01  0.10223380394E+02  0.51100000000E-03 0. -1.
        -11    1    3    3    0    0 -0.16374424442E+02 -0.23825314157E+02  0.20820703815E+02  0.35626802805E+02  0.51100000000E-03 0.  1.
         12    1    3    3    0    0  0.20405781300E+02  0.26202022282E+02 -0.29102425751E+02  0.44157593534E+02  0.00000000000E+00 0. -1.
</event>
<event>
 7    1  0.1501154E-015  0.9000774E+02  0.7816164E-02  0.1186339E+00
        -11   -1    0    0    0    0  0.00000000000E+00  0.00000000000E+00  0.45593999997E+02  0.45594000000E+02  0.51100000000E-03 0.  1.
         11   -1    0    0    0    0 -0.00000000000E+00 -0.00000000000E+00 -0.45593999997E+02  0.45594000000E+02  0.51100000000E-03 0. -1.
    9900012    2    1    2    0    0  0.10258077828E+01 -0.31246084505E-01  0.58289186963E+00  0.90007736954E+02  0.89999998282E+02 0.  0.
         12    1    1    2    0    0 -0.10258077828E+01  0.31246084505E-01 -0.58289186963E+00  0.11802630456E+01  0.00000000000E+00 0. -1.
         11    1    3    3    0    0 -0.92290323228E+01  0.10470748160E+01  0.10278725610E+01  0.93449411741E+01  0.51100000000E-03 0. -1.
        -11    1    3    3    0    0  0.88438264558E+01 -0.39507388125E+02  0.80572912244E+01  0.41279134257E+02  0.51100000000E-03 0.  1.
         12    1    3    3    0    0  0.14110136498E+01  0.38429067225E+02 -0.85022719157E+01  0.39383661524E+02  0.00000000000E+00 0. -1.
</event>
<event>
 7    1  0.1501154E-015  0.9000737E+02  0.7816164E-02  0.1186340E+00
        -11   -1    0    0    0    0  0.00000000000E+00  0.00000000000E+00  0.45593999997E+02  0.45594000000E+02  0.51100000000E-03 0.  1.
         11   -1    0    0    0    0 -0.00000000000E+00 -0.00000000000E+00 -0.45593999997E+02  0.45594000000E+02  0.51100000000E-03 0. -1.
    9900012    2    1    2    0    0  0.64441437212E+00 -0.61696130876E+00  0.77328625940E+00  0.90007371871E+02  0.89999628379E+02 0.  0.
         12    1    1    2    0    0 -0.64441437212E+00  0.61696130876E+00 -0.77328625940E+00  0.11806281288E+01  0.00000000000E+00 0. -1.
         11    1    3    3    0    0  0.31883944272E+01 -0.49802728353E+01 -0.76440605469E+01  0.96644005734E+01  0.51100000000E-03 0. -1.
        -11    1    3    3    0    0  0.10281065338E+02 -0.21873406128E+02  0.33866688357E+02  0.41606475225E+02  0.51100000000E-03 0.  1.
         12    1    3    3    0    0 -0.12825045393E+02  0.26236717654E+02 -0.25449341551E+02  0.38736496073E+02  0.00000000000E+00 0. -1.
</event>
<event>
 7    1  0.1501154E-015  0.9000780E+02  0.7816164E-02  0.1186339E+00
        -11   -1    0    0    0    0  0.00000000000E+00  0.00000000000E+00  0.45593999997E+02  0.45594000000E+02  0.51100000000E-03 0. -1.
         11   -1    0    0    0    0 -0.00000000000E+00 -0.00000000000E+00 -0.45593999997E+02  0.45594000000E+02  0.51100000000E-03 0.  1.
    9900012    2    1    2    0    0  0.52681688690E+00 -0.49623906456E+00 -0.93224066660E+00  0.90007804295E+02  0.90000066512E+02 0.  0.
         12    1    1    2    0    0 -0.52681688690E+00  0.49623906456E+00  0.93224066660E+00  0.11801957049E+01  0.00000000000E+00 0. -1.
         11    1    3    3    0    0  0.25613237854E+00 -0.13474896338E+01 -0.11039125577E+02  0.11124011231E+02  0.51100000000E-03 0. -1.
        -11    1    3    3    0    0  0.26799364839E+02  0.24648213444E+02 -0.10270267926E+02  0.37831452328E+02  0.51100000000E-03 0.  1.
         12    1    3    3    0    0 -0.26528680331E+02 -0.23796962874E+02  0.20377152837E+02  0.41052340735E+02  0.00000000000E+00 0. -1.
</event>
<event>
 7    1  0.1501154E-015  0.9000761E+02  0.7816164E-02  0.1186339E+00
        -11   -1    0    0    0    0  0.00000000000E+00  0.00000000000E+00  0.45593999997E+02  0.45594000000E+02  0.51100000000E-03 0. -1.
         11   -1    0    0    0    0 -0.00000000000E+00 -0.00000000000E+00 -0.45593999997E+02  0.45594000000E+02  0.51100000000E-03 0.  1.
    9900012    2    1    2    0    0 -0.71031516377E+00 -0.78167989475E+00 -0.52702231917E+00  0.90007608703E+02  0.89999868338E+02 0.  0.
         12    1    1    2    0    0  0.71031516377E+00  0.78167989475E+00  0.52702231917E+00  0.11803912973E+01  0.00000000000E+00 0. -1.
         11    1    3    3    0    0 -0.18849681011E+02  0.24699783632E+02  0.23086738261E+02  0.38709007602E+02  0.51100000000E-03 0. -1.
        -11    1    3    3    0    0 -0.63444807803E+01  0.28186263675E+01 -0.84135109028E+01  0.10907990509E+02  0.51100000000E-03 0.  1.
        -12    1    3    3    0    0  0.24483846628E+02 -0.28300089894E+02 -0.15200249678E+02  0.40390610592E+02  0.00000000000E+00 0.  1.
</event>
<event>
 7    1  0.1501154E-015  0.9000762E+02  0.7816164E-02  0.1186339E+00
        -11   -1    0    0    0    0  0.00000000000E+00  0.00000000000E+00  0.45593999997E+02  0.45594000000E+02  0.51100000000E-03 0. -1.
         11   -1    0    0    0    0 -0.00000000000E+00 -0.00000000000E+00 -0.45593999997E+02  0.45594000000E+02  0.51100000000E-03 0.  1.
    9900012    2    1    2    0    0 -0.36571006901E+00 -0.72888514737E+00 -0.85339355349E+00  0.90007619566E+02  0.89999879344E+02 0.  0.
         12    1    1    2    0    0  0.36571006901E+00  0.72888514737E+00  0.85339355349E+00  0.11803804343E+01  0.00000000000E+00 0. -1.
         11    1    3    3    0    0 -0.11999067922E+01 -0.10661515986E+02 -0.18816547844E+01  0.10892581164E+02  0.51100000000E-03 0. -1.
        -11    1    3    3    0    0  0.25738108748E+02 -0.19903738183E+02  0.17454197141E+02  0.36922324326E+02  0.51100000000E-03 0.  1.
         12    1    3    3    0    0 -0.24903912025E+02  0.29836369021E+02 -0.16425935910E+02  0.42192714075E+02  0.00000000000E+00 0. -1.
</event>
<event>
 7    1  0.1501154E-015  0.9000769E+02  0.7816164E-02  0.1186339E+00
        -11   -1    0    0    0    0  0.00000000000E+00  0.00000000000E+00  0.45593999997E+02  0.45594000000E+02  0.51100000000E-03 0. -1.
         11   -1    0    0    0    0 -0.00000000000E+00 -0.00000000000E+00 -0.45593999997E+02  0.45594000000E+02  0.51100000000E-03 0.  1.
    9900012    2    1    2    0    0 -0.12330424905E-01 -0.94930677429E+00 -0.70128761092E+00  0.90007686608E+02  0.89999947271E+02 0.  0.
         12    1    1    2    0    0  0.12330424905E-01  0.94930677429E+00  0.70128761092E+00  0.11803133924E+01  0.00000000000E+00 0. -1.
         11    1    3    3    0    0  0.90710140298E+00  0.23786308313E+02 -0.24788946842E+02  0.34367181758E+02  0.51100000000E-03 0. -1.
        -11    1    3    3    0    0  0.95286370105E+01  0.45072630248E+01 -0.62277172233E+01  0.12243153406E+02  0.51100000000E-03 0.  1.
        -12    1    3    3    0    0 -0.10448068838E+02 -0.29242878112E+02  0.30315376455E+02  0.43397351444E+02  0.00000000000E+00 0.  1.
</event>
<event>
 7    1  0.1501154E-015  0.9000779E+02  0.7816164E-02  0.1186339E+00
        -11   -1    0    0    0    0  0.00000000000E+00  0.00000000000E+00  0.45593999997E+02  0.45594000000E+02  0.51100000000E-03 0.  1.
         11   -1    0    0    0    0 -0.00000000000E+00 -0.00000000000E+00 -0.45593999997E+02  0.45594000000E+02  0.51100000000E-03 0. -1.
    9900012    2    1    2    0    0 -0.85518941475E+00  0.74952863730E+00  0.31583951295E+00  0.90007789548E+02  0.90000051570E+02 0.  0.
         12    1    1    2    0    0  0.85518941475E+00 -0.74952863730E+00 -0.31583951295E+00  0.11802104521E+01  0.00000000000E+00 0. -1.
         11    1    3    3    0    0 -0.13716302734E+01 -0.64593327938E+01 -0.12539738409E+02  0.14172134256E+02  0.51100000000E-03 0. -1.
        -11    1    3    3    0    0 -0.22308008060E+02  0.27023585614E+02  0.25225478153E+02  0.43176916881E+02  0.51100000000E-03 0.  1.
         12    1    3    3    0    0  0.22824448918E+02 -0.19814724183E+02 -0.12369900232E+02  0.32658738411E+02  0.00000000000E+00 0. -1.
</event>
<event>
 7    1  0.1501154E-015  0.9000772E+02  0.7816164E-02  0.1186339E+00
        -11   -1    0    0    0    0  0.00000000000E+00  0.00000000000E+00  0.45593999997E+02  0.45594000000E+02  0.51100000000E-03 0. -1.
         11   -1    0    0    0    0 -0.00000000000E+00 -0.00000000000E+00 -0.45593999997E+02  0.45594000000E+02  0.51100000000E-03 0.  1.
    9900012    2    1    2    0    0 -0.11189031265E+01  0.22238375527E-01 -0.37499678526E+00  0.90007719804E+02  0.89999980906E+02 0.  0.
         12    1    1    2    0    0  0.11189031265E+01 -0.22238375527E-01  0.37499678526E+00  0.11802801959E+01  0.00000000000E+00 0. -1.
         11    1    3    3    0    0  0.13151565279E+02 -0.33640075408E+01  0.10332431813E+01  0.13614250172E+02  0.51100000000E-03 0. -1.
        -11    1    3    3    0    0  0.89270171786E+00  0.33922896167E+02 -0.18069964489E+02  0.38445850460E+02  0.51100000000E-03 0.  1.
         12    1    3    3    0    0 -0.15163170123E+02 -0.30536650251E+02  0.16661724522E+02  0.37947619171E+02  0.00000000000E+00 0. -1.
</event>
<event>
 7    1  0.1501154E-015  0.9000780E+02  0.7816164E-02  0.1186339E+00
        -11   -1    0    0    0    0  0.00000000000E+00  0.00000000000E+00  0.45593999997E+02  0.45594000000E+02  0.51100000000E-03 0.  1.
         11   -1    0    0    0    0 -0.00000000000E+00 -0.00000000000E+00 -0.45593999997E+02  0.45594000000E+02  0.51100000000E-03 0. -1.
    9900012    2    1    2    0    0 -0.85716497248E+00  0.80212777945E+00  0.12141252626E+00  0.90007795879E+02  0.90000057985E+02 0.  0.
         12    1    1    2    0    0  0.85716497248E+00 -0.80212777945E+00 -0.12141252626E+00  0.11802041205E+01  0.00000000000E+00 0. -1.
         11    1    3    3    0    0  0.15766843137E+02 -0.29026522724E+02  0.12919409371E+02  0.35468908959E+02  0.51100000000E-03 0. -1.
        -11    1    3    3    0    0  0.42602701356E+00 -0.92160806993E+01  0.19941413896E+01  0.94389746592E+01  0.51100000000E-03 0.  1.
        -12    1    3    3    0    0 -0.17050035123E+02  0.39044731203E+02 -0.14792138235E+02  0.45099912261E+02  0.00000000000E+00 0.  1.
</event>
<event>
 7    1  0.1501154E-015  0.9000770E+02  0.7816164E-02  0.1186339E+00
        -11   -1    0    0    0    0  0.00000000000E+00  0.00000000000E+00  0.45593999997E+02  0.45594000000E+02  0.51100000000E-03 0.  1.
         11   -1    0    0    0    0 -0.00000000000E+00 -0.00000000000E+00 -0.45593999997E+02  0.45594000000E+02  0.51100000000E-03 0. -1.
    9900012    2    1    2    0    0 -0.16974422051E+00 -0.63644431523E+00  0.97940318328E+00  0.90007701283E+02  0.89999962140E+02 0.  0.
         12    1    1    2    0    0  0.16974422051E+00  0.63644431523E+00 -0.97940318328E+00  0.11802987174E+01  0.00000000000E+00 0. -1.
         11    1    3    3    0    0  0.18753652194E+01 -0.66678635776E+01 -0.41814926316E+00  0.69391821177E+01  0.51100000000E-03 0. -1.
        -11    1    3    3    0    0 -0.29741182112E+02 -0.24797076142E+02  0.11535415445E+02  0.40404191718E+02  0.51100000000E-03 0.  1.
         12    1    3    3    0    0  0.27696072672E+02  0.30828495404E+02 -0.10137862999E+02  0.42664327447E+02  0.00000000000E+00 0. -1.
</event>
<event>
 7    1  0.1501154E-015  0.9000760E+02  0.7816164E-02  0.1186339E+00
        -11   -1    0    0    0    0  0.00000000000E+00  0.00000000000E+00  0.45593999997E+02  0.45594000000E+02  0.51100000000E-03 0. -1.
         11   -1    0    0    0    0 -0.00000000000E+00 -0.00000000000E+00 -0.45593999997E+02  0.45594000000E+02  0.51100000000E-03 0.  1.
    9900012    2    1    2    0    0  0.73102571811E+00  0.57436397835E+00 -0.72735786670E+00  0.90007600895E+02  0.89999860427E+02 0.  0.
         12    1    1    2    0    0 -0.73102571811E+00 -0.57436397835E+00  0.72735786670E+00  0.11803991047E+01  0.00000000000E+00 0. -1.
         11    1    3    3    0    0  0.34416352435E+02 -0.38087188810E+01  0.16716595650E+02  0.38450438552E+02  0.51100000000E-03 0. -1.
        -11    1    3    3    0    0  0.53486524658E+01 -0.16171996775E+01 -0.98744098993E+01  0.11345809320E+02  0.51100000000E-03 0.  1.
        -12    1    3    3    0    0 -0.39033979183E+02  0.60002825369E+01 -0.75695436175E+01  0.40211353023E+02  0.00000000000E+00 0.  1.
</event>
<event>
 7    1  0.1501154E-015  0.9000774E+02  0.7816164E-02  0.1186339E+00
        -11   -1    0    0    0    0  0.00000000000E+00  0.00000000000E+00  0.45593999997E+02  0.45594000000E+02  0.51100000000E-03 0. -1.
         11   -1    0    0    0    0 -0.00000000000E+00 -0.00000000000E+00 -0.45593999997E+02  0.45594000000E+02  0.51100000000E-03 0.  1.
    9900012    2    1    2    0    0 -0.66005226772E+00 -0.87868331002E+00 -0.43040725071E+00  0.90007744199E+02  0.90000005622E+02 0.  0.
         12    1    1    2    0    0  0.66005226772E+00  0.87868331002E+00  0.43040725071E+00  0.11802558015E+01  0.00000000000E+00 0. -1.
         11    1    3    3    0    0 -0.11252464716E+02  0.33555510325E+02  0.14184204419E+02  0.38128491848E+02  0.51100000000E-03 0. -1.
        -11    1    3    3    0    0 -0.37962294077E+01  0.48310279938E+01  0.25798469846E+01  0.66637676969E+01  0.51100000000E-03 0.  1.
        -12    1    3    3    0    0  0.14388641856E+02 -0.39265221629E+02 -0.17194458654E+02  0.45215484653E+02  0.00000000000E+00 0.  1.
</event>
<event>
 7    1  0.1501154E-015  0.9000774E+02  0.7816164E-02  0.1186339E+00
        -11   -1    0    0    0    0  0.00000000000E+00  0.00000000000E+00  0.45593999997E+02  0.45594000000E+02  0.51100000000E-03 0.  1.
         11   -1    0    0    0    0 -0.00000000000E+00 -0.00000000000E+00 -0.45593999997E+02  0.45594000000E+02  0.51100000000E-03 0. -1.
    9900012    2    1    2    0    0  0.10516185617E+01 -0.16034710146E+00  0.51126908264E+00  0.90007742034E+02  0.90000003429E+02 0.  0.
         12    1    1    2    0    0 -0.10516185617E+01  0.16034710146E+00 -0.51126908264E+00  0.11802579663E+01  0.00000000000E+00 0. -1.
         11    1    3    3    0    0 -0.77713659115E+01 -0.32319247434E+01  0.36944407232E+01  0.91917549030E+01  0.51100000000E-03 0. -1.
        -11    1    3    3    0    0  0.64371574818E+01 -0.14408213162E+02  0.35198380346E+02  0.38574079149E+02  0.51100000000E-03 0.  1.
         12    1    3    3    0    0  0.23858269914E+01  0.17479790804E+02 -0.38381551987E+02  0.42241907981E+02  0.00000000000E+00 0. -1.
</event>
<event>
 7    1  0.1501154E-015  0.9000775E+02  0.7816164E-02  0.1186339E+00
        -11   -1    0    0    0    0  0.00000000000E+00  0.00000000000E+00  0.45593999997E+02  0.45594000000E+02  0.51100000000E-03 0. -1.
         11   -1    0    0    0    0 -0.00000000000E+00 -0.00000000000E+00 -0.45593999997E+02  0.45594000000E+02  0.51100000000E-03 0.  1.
    9900012    2    1    2    0    0 -0.69311330832E+00  0.70171879887E+00 -0.64820408206E+00  0.90007752626E+02  0.90000014161E+02 0.  0.
         12    1    1    2    0    0  0.69311330832E+00 -0.70171879887E+00  0.64820408206E+00  0.11802473736E+01  0.00000000000E+00 0. -1.
         11    1    3    3    0    0 -0.81051072881E+01 -0.35499248233E+01 -0.58056883996E+01  0.10583040605E+02  0.51100000000E-03 0. -1.
        -11    1    3    3    0    0 -0.23936082252E+02 -0.61975655114E+01 -0.24656971127E+02  0.34918649419E+02  0.51100000000E-03 0.  1.
         12    1    3    3    0    0  0.31348076231E+02  0.10449209134E+02  0.29814455444E+02  0.44506062602E+02  0.00000000000E+00 0. -1.
</event>
<event>
 7    1  0.1501154E-015  0.9000777E+02  0.7816164E-02  0.1186339E+00
        -11   -1    0    0    0    0  0.00000000000E+00  0.00000000000E+00  0.45593999997E+02  0.45594000000E+02  0.51100000000E-03 0.  1.
         11   -1    0    0    0    0 -0.00000000000E+00 -0.00000000000E+00 -0.45593999997E+02  0.45594000000E+02  0.51100000000E-03 0. -1.
    9900012    2    1    2    0    0  0.53597468315E+00  0.16808499418E+00  0.10379947733E+01  0.90007765034E+02  0.90000026732E+02 0.  0.
         12    1    1    2    0    0 -0.53597468315E+00 -0.16808499418E+00 -0.10379947733E+01  0.11802349663E+01  0.00000000000E+00 0. -1.
         11    1    3    3    0    0  0.10768604261E+01 -0.29441289306E+01 -0.87937288212E+01  0.93358015392E+01  0.51100000000E-03 0. -1.
        -11    1    3    3    0    0 -0.35471845830E+02  0.20396487520E+02  0.77334253388E+01  0.41642219171E+02  0.51100000000E-03 0.  1.
         12    1    3    3    0    0  0.34930960087E+02 -0.17284273596E+02  0.20982982557E+01  0.39029744323E+02  0.00000000000E+00 0. -1.
</event>
<event>
 7    1  0.1501154E-015  0.9000772E+02  0.7816164E-02  0.1186339E+00
        -11   -1    0    0    0    0  0.00000000000E+00  0.00000000000E+00  0.45593999997E+02  0.45594000000E+02  0.51100000000E-03 0. -1.
         11   -1    0    0    0    0 -0.00000000000E+00 -0.00000000000E+00 -0.45593999997E+02  0.45594000000E+02  0.51100000000E-03 0.  1.
    9900012    2    1    2    0    0 -0.88444264985E+00 -0.17258564332E+00 -0.76226359176E+00  0.90007715971E+02  0.89999977022E+02 0.  0.
         12    1    1    2    0    0  0.88444264985E+00  0.17258564332E+00  0.76226359176E+00  0.11802840287E+01  0.00000000000E+00 0. -1.
         11    1    3    3    0    0 -0.46419207567E-01 -0.39249605818E+01 -0.69327801323E+01  0.79668633059E+01  0.51100000000E-03 0. -1.
        -11    1    3    3    0    0 -0.19309024374E+02 -0.53910230454E+01 -0.32520272713E+02  0.38203006286E+02  0.51100000000E-03 0.  1.
         12    1    3    3    0    0  0.18471000931E+02  0.91433979839E+01  0.38690789253E+02  0.43837846379E+02  0.00000000000E+00 0. -1.
</event>
<event>
 7    1  0.1501154E-015  0.9000776E+02  0.7816164E-02  0.1186339E+00
        -11   -1    0    0    0    0  0.00000000000E+00  0.00000000000E+00  0.45593999997E+02  0.45594000000E+02  0.51100000000E-03 0. -1.
         11   -1    0    0    0    0 -0.00000000000E+00 -0.00000000000E+00 -0.45593999997E+02  0.45594000000E+02  0.51100000000E-03 0.  1.
    9900012    2    1    2    0    0  0.56056775782E+00 -0.88884933713E+00  0.53728549288E+00  0.90007760594E+02  0.90000022234E+02 0.  0.
         12    1    1    2    0    0 -0.56056775782E+00  0.88884933713E+00 -0.53728549288E+00  0.11802394063E+01  0.00000000000E+00 0. -1.
         11    1    3    3    0    0 -0.41707652023E+00 -0.73567854249E+00 -0.10038573687E+02  0.10074132105E+02  0.51100000000E-03 0. -1.
        -11    1    3    3    0    0  0.72288405557E+01 -0.27226713027E+02 -0.22989112118E+02  0.36359996071E+02  0.51100000000E-03 0.  1.
         12    1    3    3    0    0 -0.62511962776E+01  0.27073542232E+02  0.33564971298E+02  0.43573632418E+02  0.00000000000E+00 0. -1.
</event>
<event>
 7    1  0.1501154E-015  0.9000772E+02  0.7816164E-02  0.1186339E+00
        -11   -1    0    0    0    0  0.00000000000E+00  0.00000000000E+00  0.45593999997E+02  0.45594000000E+02  0.51100000000E-03 0. -1.
         11   -1    0    0    0    0 -0.00000000000E+00 -0.00000000000E+00 -0.45593999997E+02  0.45594000000E+02  0.51100000000E-03 0.  1.
    9900012    2    1    2    0    0  0.28300157145E+00 -0.10075845272E+01 -0.54566107787E+00  0.90007719321E+02  0.89999980416E+02 0.  0.
         12    1    1    2    0    0 -0.28300157145E+00  0.10075845272E+01  0.54566107787E+00  0.11802806788E+01  0.00000000000E+00 0. -1.
         11    1    3    3    0    0  0.95557240296E+01  0.31841199835E+01 -0.25907962532E+01  0.10400130157E+02  0.51100000000E-03 0. -1.
        -11    1    3    3    0    0 -0.27031316180E+02  0.28975963236E+02 -0.85139681066E+01  0.40531298438E+02  0.51100000000E-03 0.  1.
         12    1    3    3    0    0  0.17758593722E+02 -0.33167667747E+02  0.10559103282E+02  0.39076290726E+02  0.00000000000E+00 0. -1.
</event>
<event>
 7    1  0.1501154E-015  0.9000771E+02  0.7816164E-02  0.1186339E+00
        -11   -1    0    0    0    0  0.00000000000E+00  0.00000000000E+00  0.45593999997E+02  0.45594000000E+02  0.51100000000E-03 0. -1.
         11   -1    0    0    0    0 -0.00000000000E+00 -0.00000000000E+00 -0.45593999997E+02  0.45594000000E+02  0.51100000000E-03 0.  1.
    9900012    2    1    2    0    0  0.38499707551E+00  0.90771091393E+00 -0.64879408524E+00  0.90007705284E+02  0.89999966194E+02 0.  0.
         12    1    1    2    0    0 -0.38499707551E+00 -0.90771091393E+00  0.64879408524E+00  0.11802947159E+01  0.00000000000E+00 0. -1.
         11    1    3    3    0    0  0.10347580992E+02 -0.26103810740E+02 -0.31515321148E+02  0.42210150852E+02  0.51100000000E-03 0. -1.
        -11    1    3    3    0    0  0.42032705382E+01 -0.72320471508E+00  0.83209222220E+01  0.93503077577E+01  0.51100000000E-03 0.  1.
        -12    1    3    3    0    0 -0.14165854455E+02  0.27734726369E+02  0.22545604841E+02  0.38447246675E+02  0.00000000000E+00 0.  1.
</event>
<event>
 7    1  0.1501154E-015  0.9000780E+02  0.7816164E-02  0.1186339E+00
        -11   -1    0    0    0    0  0.00000000000E+00  0.00000000000E+00  0.45593999997E+02  0.45594000000E+02  0.51100000000E-03 0.  1.
         11   -1    0    0    0    0 -0.00000000000E+00 -0.00000000000E+00 -0.45593999997E+02  0.45594000000E+02  0.51100000000E-03 0. -1.
    9900012    2    1    2    0    0  0.11290710268E+01  0.39427976032E-01 -0.34136020880E+00  0.90007795466E+02  0.90000057567E+02 0.  0.
         12    1    1    2    0    0 -0.11290710268E+01 -0.39427976032E-01  0.34136020880E+00  0.11802045335E+01  0.00000000000E+00 0. -1.
         11    1    3    3    0    0  0.46824301384E+01  0.22801031932E+01 -0.66318576201E+01  0.84324111811E+01  0.51100000000E-03 0. -1.
        -11    1    3    3    0    0 -0.17824319252E+02 -0.31492698618E+02  0.25047465796E+02  0.44009907590E+02  0.51100000000E-03 0.  1.
         12    1    3    3    0    0  0.14270960140E+02  0.29252023401E+02 -0.18756968384E+02  0.37565476695E+02  0.00000000000E+00 0. -1.
</event>
<event>
 7    1  0.1501154E-015  0.9000787E+02  0.7816164E-02  0.1186339E+00
        -11   -1    0    0    0    0  0.00000000000E+00  0.00000000000E+00  0.45593999997E+02  0.45594000000E+02  0.51100000000E-03 0.  1.
         11   -1    0    0    0    0 -0.00000000000E+00 -0.00000000000E+00 -0.45593999997E+02  0.45594000000E+02  0.51100000000E-03 0. -1.
    9900012    2    1    2    0    0 -0.49175167930E-01  0.98097259794E+00  0.65420541953E+00  0.90007868581E+02  0.90000131646E+02 0.  0.
         12    1    1    2    0    0  0.49175167930E-01 -0.98097259794E+00 -0.65420541953E+00  0.11801314189E+01  0.00000000000E+00 0. -1.
         11    1    3    3    0    0 -0.72813767114E+01 -0.72220804597E+00 -0.13168882674E+02  0.15065175154E+02  0.51100000000E-03 0. -1.
        -11    1    3    3    0    0 -0.28797234079E+02 -0.33765529664E+01  0.23466259940E+02  0.37300766164E+02  0.51100000000E-03 0.  1.
         12    1    3    3    0    0  0.36029435623E+02  0.50797336103E+01 -0.96431718468E+01  0.37641927263E+02  0.00000000000E+00 0. -1.
</event>
<event>
 7    1  0.1501154E-015  0.9000773E+02  0.7816164E-02  0.1186339E+00
        -11   -1    0    0    0    0  0.00000000000E+00  0.00000000000E+00  0.45593999997E+02  0.45594000000E+02  0.51100000000E-03 0.  1.
         11   -1    0    0    0    0 -0.00000000000E+00 -0.00000000000E+00 -0.45593999997E+02  0.45594000000E+02  0.51100000000E-03 0. -1.
    9900012    2    1    2    0    0  0.29644132684E+00 -0.10530283643E+01 -0.44305634912E+00  0.90007726674E+02  0.89999987866E+02 0.  0.
         12    1    1    2    0    0 -0.29644132684E+00  0.10530283643E+01  0.44305634912E+00  0.11802733263E+01  0.00000000000E+00 0. -1.
         11    1    3    3    0    0 -0.79030661657E+01  0.42084645607E+01 -0.68014543194E-01  0.89540077629E+01  0.51100000000E-03 0. -1.
        -11    1    3    3    0    0 -0.15788281265E+01 -0.19305139912E+02  0.35985627453E+02  0.40867426010E+02  0.51100000000E-03 0.  1.
         12    1    3    3    0    0  0.97783356191E+01  0.14043646986E+02 -0.36360669259E+02  0.40186292901E+02  0.00000000000E+00 0. -1.
</event>
<event>
 7    1  0.1501154E-015  0.9000758E+02  0.7816164E-02  0.1186339E+00
        -11   -1    0    0    0    0  0.00000000000E+00  0.00000000000E+00  0.45593999997E+02  0.45594000000E+02  0.51100000000E-03 0.  1.
         11   -1    0    0    0    0 -0.00000000000E+00 -0.00000000000E+00 -0.45593999997E+02  0.45594000000E+02  0.51100000000E-03 0. -1.
    9900012    2    1    2    0    0 -0.22596864555E+00  0.11177232687E+01 -0.30499516302E+00  0.90007580929E+02  0.89999840197E+02 0.  0.
         12    1    1    2    0    0  0.22596864555E+00 -0.11177232687E+01  0.30499516302E+00  0.11804190712E+01  0.00000000000E+00 0. -1.
         11    1    3    3    0    0 -0.75478670538E+01 -0.63979949576E+01 -0.29385713632E+01  0.10321813719E+02  0.51100000000E-03 0. -1.
        -11    1    3    3    0    0  0.13241088628E+02  0.12271950165E+02  0.38766229701E+02  0.42763860377E+02  0.51100000000E-03 0.  1.
         12    1    3    3    0    0 -0.59191902200E+01 -0.47562319384E+01 -0.36132653501E+02  0.36921906832E+02  0.00000000000E+00 0. -1.
</event>
<event>
 7    1  0.1501154E-015  0.9000775E+02  0.7816164E-02  0.1186339E+00
        -11   -1    0    0    0    0  0.00000000000E+00  0.00000000000E+00  0.45593999997E+02  0.45594000000E+02  0.51100000000E-03 0. -1.
         11   -1    0    0    0    0 -0.00000000000E+00 -0.00000000000E+00 -0.45593999997E+02  0.45594000000E+02  0.51100000000E-03 0.  1.
    9900012    2    1    2    0    0 -0.64158990307E+00  0.88357664071E+00 -0.44793299200E+00  0.90007750345E+02  0.90000011849E+02 0.  0.
         12    1    1    2    0    0  0.64158990307E+00 -0.88357664071E+00  0.44793299200E+00  0.11802496554E+01  0.00000000000E+00 0. -1.
         11    1    3    3    0    0 -0.19876543548E+01  0.28982688647E+02  0.25066780197E+02  0.38370437589E+02  0.51100000000E-03 0. -1.
        -11    1    3    3    0    0 -0.10249138933E+02  0.23822296364E+01 -0.49637815251E+00  0.10534052327E+02  0.51100000000E-03 0.  1.
        -12    1    3    3    0    0  0.11595203385E+02 -0.30481341642E+02 -0.25018335037E+02  0.41103260429E+02  0.00000000000E+00 0.  1.
</event>
<event>
 7    1  0.1501154E-015  0.9000777E+02  0.7816164E-02  0.1186339E+00
        -11   -1    0    0    0    0  0.00000000000E+00  0.00000000000E+00  0.45593999997E+02  0.45594000000E+02  0.51100000000E-03 0.  1.
         11   -1    0    0    0    0 -0.00000000000E+00 -0.00000000000E+00 -0.45593999997E+02  0.45594000000E+02  0.51100000000E-03 0. -1.
    9900012    2    1    2    0    0 -0.66462745633E+00 -0.38948837578E+00  0.89415593405E+00  0.90007768800E+02  0.90000030548E+02 0.  0.
         12    1    1    2    0    0  0.66462745633E+00  0.38948837578E+00 -0.89415593405E+00  0.11802311998E+01  0.00000000000E+00 0. -1.
         11    1    3    3    0    0 -0.62818699851E+01 -0.73760914854E+01 -0.88674272678E+01  0.13133921072E+02  0.51100000000E-03 0. -1.
        -11    1    3    3    0    0  0.93752209504E+01 -0.21444187696E+02  0.32656934787E+02  0.40177398420E+02  0.51100000000E-03 0.  1.
         12    1    3    3    0    0 -0.37579784217E+01  0.28430790806E+02 -0.22895351585E+02  0.36696449309E+02  0.00000000000E+00 0. -1.
</event>
<event>
 7    1  0.1501154E-015  0.9000756E+02  0.7816164E-02  0.1186339E+00
        -11   -1    0    0    0    0  0.00000000000E+00  0.00000000000E+00  0.45593999997E+02  0.45594000000E+02  0.51100000000E-03 0.  1.
         11   -1    0    0    0    0 -0.00000000000E+00 -0.00000000000E+00 -0.45593999997E+02  0.45594000000E+02  0.51100000000E-03 0. -1.
    9900012    2    1    2    0    0 -0.93218395210E+00 -0.38275992422E+00  0.61479640614E+00  0.90007556566E+02  0.89999815512E+02 0.  0.
         12    1    1    2    0    0  0.93218395210E+00  0.38275992422E+00 -0.61479640614E+00  0.11804434341E+01  0.00000000000E+00 0. -1.
         11    1    3    3    0    0  0.27477646196E+02 -0.83828471707E+01 -0.14784802633E+02  0.32309186872E+02  0.51100000000E-03 0. -1.
        -11    1    3    3    0    0  0.13002408556E+02  0.23482902099E+01  0.16949071741E+00  0.13213849648E+02  0.51100000000E-03 0.  1.
        -12    1    3    3    0    0 -0.41412238704E+02  0.56517970366E+01  0.15230108322E+02  0.44484520046E+02  0.00000000000E+00 0.  1.
</event>
<event>
 7    1  0.1501154E-015  0.9000770E+02  0.7816164E-02  0.1186339E+00
        -11   -1    0    0    0    0  0.00000000000E+00  0.00000000000E+00  0.45593999997E+02  0.45594000000E+02  0.51100000000E-03 0.  1.
         11   -1    0    0    0    0 -0.00000000000E+00 -0.00000000000E+00 -0.45593999997E+02  0.45594000000E+02  0.51100000000E-03 0. -1.
    9900012    2    1    2    0    0 -0.15328980838E+00 -0.94425021779E+00  0.69138218360E+00  0.90007696834E+02  0.89999957633E+02 0.  0.
         12    1    1    2    0    0  0.15328980838E+00  0.94425021779E+00 -0.69138218360E+00  0.11803031657E+01  0.00000000000E+00 0. -1.
         11    1    3    3    0    0 -0.43541649543E+01 -0.15799921188E+01 -0.83483826524E+01  0.95472834208E+01  0.51100000000E-03 0. -1.
        -11    1    3    3    0    0  0.61942233181E+01  0.21177332464E+02  0.38568735198E+02  0.44434166447E+02  0.51100000000E-03 0.  1.
         12    1    3    3    0    0 -0.19933481722E+01 -0.20541590563E+02 -0.29528970362E+02  0.36026246966E+02  0.00000000000E+00 0. -1.
</event>
<event>
 7    1  0.1501154E-015  0.9000773E+02  0.7816164E-02  0.1186339E+00
        -11   -1    0    0    0    0  0.00000000000E+00  0.00000000000E+00  0.45593999997E+02  0.45594000000E+02  0.51100000000E-03 0.  1.
         11   -1    0    0    0    0 -0.00000000000E+00 -0.00000000000E+00 -0.45593999997E+02  0.45594000000E+02  0.51100000000E-03 0. -1.
    9900012    2    1    2    0    0 -0.38355520994E+00 -0.11127927143E+01  0.87217691389E-01  0.90007733441E+02  0.89999994723E+02 0.  0.
         12    1    1    2    0    0  0.38355520994E+00  0.11127927143E+01 -0.87217691389E-01  0.11802665587E+01  0.00000000000E+00 0. -1.
         11    1    3    3    0    0 -0.13257607434E+01 -0.92060253848E+01  0.47343761371E+01  0.10436611644E+02  0.51100000000E-03 0. -1.
        -11    1    3    3    0    0 -0.15860339730E+02 -0.30081706533E+02  0.98661784991E+01  0.35409051423E+02  0.51100000000E-03 0.  1.
         12    1    3    3    0    0  0.16802545263E+02  0.38174939203E+02 -0.14513336945E+02  0.44162070374E+02  0.00000000000E+00 0. -1.
</event>
<event>
 7    1  0.1501154E-015  0.9000792E+02  0.7816164E-02  0.1186339E+00
        -11   -1    0    0    0    0  0.00000000000E+00  0.00000000000E+00  0.45593999997E+02  0.45594000000E+02  0.51100000000E-03 0. -1.
         11   -1    0    0    0    0 -0.00000000000E+00 -0.00000000000E+00 -0.45593999997E+02  0.45594000000E+02  0.51100000000E-03 0.  1.
    9900012    2    1    2    0    0 -0.11142500370E+01  0.14665280215E+00  0.35991006755E+00  0.90007917187E+02  0.90000180893E+02 0.  0.
         12    1    1    2    0    0  0.11142500370E+01 -0.14665280215E+00 -0.35991006755E+00  0.11800828132E+01  0.00000000000E+00 0. -1.
         11    1    3    3    0    0 -0.33287913197E+02  0.15441298265E+02  0.17367777394E+02  0.40597519000E+02  0.51100000000E-03 0. -1.
        -11    1    3    3    0    0 -0.19026262082E+01 -0.80413248249E+01  0.35099794459E+01  0.89779088545E+01  0.51100000000E-03 0.  1.
        -12    1    3    3    0    0  0.34076289368E+02 -0.72533206377E+01 -0.20517846773E+02  0.40432489332E+02  0.00000000000E+00 0.  1.
</event>
<event>
 7    1  0.1501154E-015  0.9000775E+02  0.7816164E-02  0.1186339E+00
        -11   -1    0    0    0    0  0.00000000000E+00  0.00000000000E+00  0.45593999997E+02  0.45594000000E+02  0.51100000000E-03 0.  1.
         11   -1    0    0    0    0 -0.00000000000E+00 -0.00000000000E+00 -0.45593999997E+02  0.45594000000E+02  0.51100000000E-03 0. -1.
    9900012    2    1    2    0    0  0.40327260024E+00 -0.78587565458E-01  0.11064289643E+01  0.90007750091E+02  0.90000011592E+02 0.  0.
         12    1    1    2    0    0 -0.40327260024E+00  0.78587565458E-01 -0.11064289643E+01  0.11802499094E+01  0.00000000000E+00 0. -1.
         11    1    3    3    0    0  0.10286834756E+02 -0.20449715628E+02 -0.13040645002E+02  0.26345175287E+02  0.51100000000E-03 0. -1.
        -11    1    3    3    0    0 -0.13921060905E+02 -0.18176061539E+02  0.88437290915E+01  0.24543363549E+02  0.51100000000E-03 0.  1.
        -12    1    3    3    0    0  0.40374987494E+01  0.38547189602E+02  0.53033448750E+01  0.39119211255E+02  0.00000000000E+00 0.  1.
</event>
<event>
 7    1  0.1501154E-015  0.9000662E+02  0.7816164E-02  0.1186341E+00
        -11   -1    0    0    0    0  0.00000000000E+00  0.00000000000E+00  0.45593999997E+02  0.45594000000E+02  0.51100000000E-03 0. -1.
         11   -1    0    0    0    0 -0.00000000000E+00 -0.00000000000E+00 -0.45593999997E+02  0.45594000000E+02  0.51100000000E-03 0.  1.
    9900012    2    1    2    0    0  0.15908110645E-01  0.97815747864E+00 -0.66228032208E+00  0.90006619305E+02  0.89998865873E+02 0.  0.
         12    1    1    2    0    0 -0.15908110645E-01 -0.97815747864E+00  0.66228032208E+00  0.11813806948E+01  0.00000000000E+00 0. -1.
         11    1    3    3    0    0 -0.33627512396E+02 -0.22651575101E+02 -0.90014953363E+00  0.40555070139E+02  0.51100000000E-03 0. -1.
        -11    1    3    3    0    0  0.49895871077E+01 -0.54931975350E+00 -0.94741556020E+01  0.10721816839E+02  0.51100000000E-03 0.  1.
        -12    1    3    3    0    0  0.28653833399E+02  0.24179052333E+02  0.97120248136E+01  0.38729732328E+02  0.00000000000E+00 0.  1.
</event>
<event>
 7    1  0.1501154E-015  0.9000788E+02  0.7816164E-02  0.1186339E+00
        -11   -1    0    0    0    0  0.00000000000E+00  0.00000000000E+00  0.45593999997E+02  0.45594000000E+02  0.51100000000E-03 0. -1.
         11   -1    0    0    0    0 -0.00000000000E+00 -0.00000000000E+00 -0.45593999997E+02  0.45594000000E+02  0.51100000000E-03 0.  1.
    9900012    2    1    2    0    0  0.52940373914E+00  0.10283419302E+01 -0.23434581187E+00  0.90007884157E+02  0.90000147427E+02 0.  0.
         12    1    1    2    0    0 -0.52940373914E+00 -0.10283419302E+01  0.23434581187E+00  0.11801158434E+01  0.00000000000E+00 0. -1.
         11    1    3    3    0    0  0.28880356284E+02  0.22530498971E+02  0.95332248283E+01  0.37849448330E+02  0.51100000000E-03 0. -1.
        -11    1    3    3    0    0  0.55854626036E+00  0.91111519267E+01 -0.16024696398E+01  0.92678461664E+01  0.51100000000E-03 0.  1.
        -12    1    3    3    0    0 -0.28909498805E+02 -0.30613308967E+02 -0.81651010003E+01  0.42890589661E+02  0.00000000000E+00 0.  1.
</event>
<event>
 7    1  0.1501154E-015  0.9000772E+02  0.7816164E-02  0.1186339E+00
        -11   -1    0    0    0    0  0.00000000000E+00  0.00000000000E+00  0.45593999997E+02  0.45594000000E+02  0.51100000000E-03 0. -1.
         11   -1    0    0    0    0 -0.00000000000E+00 -0.00000000000E+00 -0.45593999997E+02  0.45594000000E+02  0.51100000000E-03 0.  1.
    9900012    2    1    2    0    0 -0.35951107918E+00  0.77019713634E-01 -0.11215525039E+01  0.90007720257E+02  0.89999981365E+02 0.  0.
         12    1    1    2    0    0  0.35951107918E+00 -0.77019713634E-01  0.11215525039E+01  0.11802797429E+01  0.00000000000E+00 0. -1.
         11    1    3    3    0    0 -0.81858506077E+01 -0.16335202510E+01  0.88701487684E+00  0.83942441134E+01  0.51100000000E-03 0. -1.
        -11    1    3    3    0    0 -0.10684937256E+02  0.23041118215E+02 -0.31710185792E+02  0.40627538641E+02  0.51100000000E-03 0.  1.
         12    1    3    3    0    0  0.18511276785E+02 -0.21330578251E+02  0.29701618412E+02  0.40985937503E+02  0.00000000000E+00 0. -1.
</event>
<event>
 7    1  0.1501154E-015  0.9000689E+02  0.7816164E-02  0.1186341E+00
        -11   -1    0    0    0    0  0.00000000000E+00  0.00000000000E+00  0.45593999997E+02  0.45594000000E+02  0.51100000000E-03 0.  1.
         11   -1    0    0    0    0 -0.00000000000E+00 -0.00000000000E+00 -0.45593999997E+02  0.45594000000E+02  0.51100000000E-03 0. -1.
    9900012    2    1    2    0    0  0.68298320916E+00  0.16647419360E+00  0.94912698146E+00  0.90006889612E+02  0.89999139751E+02 0.  0.
         12    1    1    2    0    0 -0.68298320916E+00 -0.16647419360E+00 -0.94912698146E+00  0.11811103878E+01  0.00000000000E+00 0. -1.
         11    1    3    3    0    0 -0.22805504963E+02 -0.25509043860E+02  0.10215750532E+02  0.35709437610E+02  0.51100000000E-03 0. -1.
        -11    1    3    3    0    0 -0.90589079974E+01 -0.32893315684E+01  0.48594542131E+00  0.96498528219E+01  0.51100000000E-03 0.  1.
        -12    1    3    3    0    0  0.32547396169E+02  0.28964849622E+02 -0.97525689717E+01  0.44647599180E+02  0.00000000000E+00 0.  1.
</event>
<event>
 7    1  0.1501154E-015  0.9000775E+02  0.7816164E-02  0.1186339E+00
        -11   -1    0    0    0    0  0.00000000000E+00  0.00000000000E+00  0.45593999997E+02  0.45594000000E+02  0.51100000000E-03 0. -1.
         11   -1    0    0    0    0 -0.00000000000E+00 -0.00000000000E+00 -0.45593999997E+02  0.45594000000E+02  0.51100000000E-03 0.  1.
    9900012    2    1    2    0    0 -0.18672698848E+00 -0.11463597580E+01  0.20970625538E+00  0.90007752409E+02  0.90000013941E+02 0.  0.
         12    1    1    2    0    0  0.18672698848E+00  0.11463597580E+01 -0.20970625538E+00  0.11802475912E+01  0.00000000000E+00 0. -1.
         11    1    3    3    0    0  0.69177636558E+01 -0.47055222575E+01 -0.53123249353E+01  0.99105090784E+01  0.51100000000E-03 0. -1.
        -11    1    3    3    0    0  0.11922528641E+02  0.29880088672E+02 -0.20785305941E+02  0.38301375061E+02  0.51100000000E-03 0.  1.
         12    1    3    3    0    0 -0.19027019285E+02 -0.26320926172E+02  0.26307337132E+02  0.41795868270E+02  0.00000000000E+00 0. -1.
</event>
<event>
 7    1  0.1501154E-015  0.9000773E+02  0.7816164E-02  0.1186339E+00
        -11   -1    0    0    0    0  0.00000000000E+00  0.00000000000E+00  0.45593999997E+02  0.45594000000E+02  0.51100000000E-03 0.  1.
         11   -1    0    0    0    0 -0.00000000000E+00 -0.00000000000E+00 -0.45593999997E+02  0.45594000000E+02  0.51100000000E-03 0. -1.
    9900012    2    1    2    0    0 -0.83833371628E-01  0.87169068806E+00  0.79130976557E+00  0.90007727220E+02  0.89999988419E+02 0.  0.
         12    1    1    2    0    0  0.83833371628E-01 -0.87169068806E+00 -0.79130976557E+00  0.11802727799E+01  0.00000000000E+00 0. -1.
         11    1    3    3    0    0 -0.27553154485E+01  0.87918660282E+01  0.40545539720E+01  0.10066184960E+02  0.51100000000E-03 0. -1.
        -11    1    3    3    0    0  0.12221519242E+02  0.20029187404E+02  0.28268272760E+02  0.36737298836E+02  0.51100000000E-03 0.  1.
         12    1    3    3    0    0 -0.95500371651E+01 -0.27949362744E+02 -0.31531516967E+02  0.43204243424E+02  0.00000000000E+00 0. -1.
</event>
<event>
 7    1  0.1501154E-015  0.9000813E+02  0.7816164E-02  0.1186338E+00
        -11   -1    0    0    0    0  0.00000000000E+00  0.00000000000E+00  0.45593999997E+02  0.45594000000E+02  0.51100000000E-03 0.  1.
         11   -1    0    0    0    0 -0.00000000000E+00 -0.00000000000E+00 -0.45593999997E+02  0.45594000000E+02  0.51100000000E-03 0. -1.
    9900012    2    1    2    0    0  0.85425388203E+00  0.51586443918E+00  0.62947022042E+00  0.90008127730E+02  0.90000394215E+02 0.  0.
         12    1    1    2    0    0 -0.85425388203E+00 -0.51586443918E+00 -0.62947022042E+00  0.11798722698E+01  0.00000000000E+00 0. -1.
         11    1    3    3    0    0  0.14484173330E+02  0.18142342594E+01  0.32396506706E+02  0.35533313524E+02  0.51100000000E-03 0. -1.
        -11    1    3    3    0    0  0.30956424715E+01 -0.10373789386E+01  0.94471353674E+01  0.99953751448E+01  0.51100000000E-03 0.  1.
        -12    1    3    3    0    0 -0.16725561919E+02 -0.26099088166E+00 -0.41214171853E+02  0.44479439062E+02  0.00000000000E+00 0.  1.
</event>
<event>
 7    1  0.1501154E-015  0.9000780E+02  0.7816164E-02  0.1186339E+00
        -11   -1    0    0    0    0  0.00000000000E+00  0.00000000000E+00  0.45593999997E+02  0.45594000000E+02  0.51100000000E-03 0. -1.
         11   -1    0    0    0    0 -0.00000000000E+00 -0.00000000000E+00 -0.45593999997E+02  0.45594000000E+02  0.51100000000E-03 0.  1.
    9900012    2    1    2    0    0 -0.97589020380E+00 -0.57963411504E+00 -0.32331363875E+00  0.90007801243E+02  0.90000063419E+02 0.  0.
         12    1    1    2    0    0  0.97589020380E+00  0.57963411504E+00  0.32331363875E+00  0.11801987571E+01  0.00000000000E+00 0. -1.
         11    1    3    3    0    0  0.14960557623E+02  0.19194997551E+02  0.29063686463E+02  0.37907309143E+02  0.51100000000E-03 0. -1.
        -11    1    3    3    0    0  0.78295103532E+00  0.58862950211E+01  0.37140060443E+01  0.70039504965E+01  0.51100000000E-03 0.  1.
        -12    1    3    3    0    0 -0.16719398862E+02 -0.25660926687E+02 -0.33101006146E+02  0.45096541604E+02  0.00000000000E+00 0.  1.
</event>
<event>
 7    1  0.1501154E-015  0.9000773E+02  0.7816164E-02  0.1186339E+00
        -11   -1    0    0    0    0  0.00000000000E+00  0.00000000000E+00  0.45593999997E+02  0.45594000000E+02  0.51100000000E-03 0.  1.
         11   -1    0    0    0    0 -0.00000000000E+00 -0.00000000000E+00 -0.45593999997E+02  0.45594000000E+02  0.51100000000E-03 0. -1.
    9900012    2    1    2    0    0  0.11093478967E+01  0.26682126232E+00  0.30198233850E+00  0.90007728983E+02  0.89999990205E+02 0.  0.
         12    1    1    2    0    0 -0.11093478967E+01 -0.26682126232E+00 -0.30198233850E+00  0.11802710175E+01  0.00000000000E+00 0. -1.
         11    1    3    3    0    0  0.18837335839E+02 -0.83478787330E+01 -0.32888885003E+02  0.38809935041E+02  0.51100000000E-03 0. -1.
        -11    1    3    3    0    0 -0.55100153969E+00 -0.11911818568E+01 -0.66176002396E+01  0.67464916886E+01  0.51100000000E-03 0.  1.
        -12    1    3    3    0    0 -0.17176986403E+02  0.98058818521E+01  0.39808467582E+02  0.44451302253E+02  0.00000000000E+00 0.  1.
</event>
<event>
 7    1  0.1501154E-015  0.9000776E+02  0.7816164E-02  0.1186339E+00
        -11   -1    0    0    0    0  0.00000000000E+00  0.00000000000E+00  0.45593999997E+02  0.45594000000E+02  0.51100000000E-03 0.  1.
         11   -1    0    0    0    0 -0.00000000000E+00 -0.00000000000E+00 -0.45593999997E+02  0.45594000000E+02  0.51100000000E-03 0. -1.
    9900012    2    1    2    0    0  0.88789276829E-01 -0.97542760420E+00  0.65850797568E+00  0.90007756254E+02  0.90000017836E+02 0.  0.
         12    1    1    2    0    0 -0.88789276829E-01  0.97542760420E+00 -0.65850797568E+00  0.11802437463E+01  0.00000000000E+00 0. -1.
         11    1    3    3    0    0  0.13375078444E+01 -0.10549427229E+02  0.29016598915E+00  0.10637835243E+02  0.51100000000E-03 0. -1.
        -11    1    3    3    0    0 -0.36920145803E+02  0.11079142959E+02  0.14203017674E+02  0.41080047299E+02  0.51100000000E-03 0.  1.
         12    1    3    3    0    0  0.35671427236E+02 -0.15051433346E+01 -0.13834675687E+02  0.38289873712E+02  0.00000000000E+00 0. -1.
</event>
<event>
 7    1  0.1501154E-015  0.9000763E+02  0.7816164E-02  0.1186339E+00
        -11   -1    0    0    0    0  0.00000000000E+00  0.00000000000E+00  0.45593999997E+02  0.45594000000E+02  0.51100000000E-03 0.  1.
         11   -1    0    0    0    0 -0.00000000000E+00 -0.00000000000E+00 -0.45593999997E+02  0.45594000000E+02  0.51100000000E-03 0. -1.
    9900012    2    1    2    0    0  0.94828310732E+00 -0.49398059059E+00  0.50001089958E+00  0.90007632017E+02  0.89999891960E+02 0.  0.
         12    1    1    2    0    0 -0.94828310732E+00  0.49398059059E+00 -0.50001089958E+00  0.11803679830E+01  0.00000000000E+00 0. -1.
         11    1    3    3    0    0 -0.23304644626E+02  0.28787642612E+02  0.64344612550E+00  0.37043877382E+02  0.51100000000E-03 0. -1.
        -11    1    3    3    0    0  0.14733816568E+01  0.67125701357E+01 -0.70102701309E+01  0.98169923553E+01  0.51100000000E-03 0.  1.
        -12    1    3    3    0    0  0.22779546077E+02 -0.35994193339E+02  0.68668349050E+01  0.43146762279E+02  0.00000000000E+00 0.  1.
</event>
<event>
 7    1  0.1501154E-015  0.9000778E+02  0.7816164E-02  0.1186339E+00
        -11   -1    0    0    0    0  0.00000000000E+00  0.00000000000E+00  0.45593999997E+02  0.45594000000E+02  0.51100000000E-03 0. -1.
         11   -1    0    0    0    0 -0.00000000000E+00 -0.00000000000E+00 -0.45593999997E+02  0.45594000000E+02  0.51100000000E-03 0.  1.
    9900012    2    1    2    0    0  0.40013992596E+00  0.41298653652E+00 -0.10306565464E+01  0.90007778514E+02  0.90000040390E+02 0.  0.
         12    1    1    2    0    0 -0.40013992596E+00 -0.41298653652E+00  0.10306565464E+01  0.11802214861E+01  0.00000000000E+00 0. -1.
         11    1    3    3    0    0 -0.69586600924E+01 -0.28829679822E+01 -0.45607382223E+01  0.88053840383E+01  0.51100000000E-03 0. -1.
        -11    1    3    3    0    0  0.26237383194E+02 -0.28696382979E+02 -0.12358863587E+02  0.40799806156E+02  0.51100000000E-03 0.  1.
         12    1    3    3    0    0 -0.18878583175E+02  0.31992337498E+02  0.15888945263E+02  0.40402588319E+02  0.00000000000E+00 0. -1.
</event>
<event>
 7    1  0.1501154E-015  0.9000771E+02  0.7816164E-02  0.1186339E+00
        -11   -1    0    0    0    0  0.00000000000E+00  0.00000000000E+00  0.45593999997E+02  0.45594000000E+02  0.51100000000E-03 0.  1.
         11   -1    0    0    0    0 -0.00000000000E+00 -0.00000000000E+00 -0.45593999997E+02  0.45594000000E+02  0.51100000000E-03 0. -1.
    9900012    2    1    2    0    0 -0.60898884053E+00 -0.37879975932E+00  0.93740507753E+00  0.90007709805E+02  0.89999970774E+02 0.  0.
         12    1    1    2    0    0  0.60898884053E+00  0.37879975932E+00 -0.93740507753E+00  0.11802901952E+01  0.00000000000E+00 0. -1.
         11    1    3    3    0    0 -0.10359205118E+02  0.20603790899E+02 -0.32558902079E+02  0.39898764830E+02  0.51100000000E-03 0. -1.
        -11    1    3    3    0    0  0.87059583951E+01 -0.46682088605E+01 -0.28280839760E+01  0.10275404847E+02  0.51100000000E-03 0.  1.
        -12    1    3    3    0    0  0.10442578822E+01 -0.16314381798E+02  0.36324391132E+02  0.39833540128E+02  0.00000000000E+00 0.  1.
</event>
<event>
 7    1  0.1501154E-015  0.9000773E+02  0.7816164E-02  0.1186339E+00
        -11   -1    0    0    0    0  0.00000000000E+00  0.00000000000E+00  0.45593999997E+02  0.45594000000E+02  0.51100000000E-03 0. -1.
         11   -1    0    0    0    0 -0.00000000000E+00 -0.00000000000E+00 -0.45593999997E+02  0.45594000000E+02  0.51100000000E-03 0.  1.
    9900012    2    1    2    0    0  0.81529643891E+00  0.66329046613E+00  0.53700211958E+00  0.90007731470E+02  0.89999992726E+02 0.  0.
         12    1    1    2    0    0 -0.81529643891E+00 -0.66329046613E+00 -0.53700211958E+00  0.11802685297E+01  0.00000000000E+00 0. -1.
         11    1    3    3    0    0 -0.33837843304E+01  0.77153895880E+01  0.32166258802E+01  0.90179773344E+01  0.51100000000E-03 0. -1.
        -11    1    3    3    0    0  0.36225733954E+01  0.36778656310E+02 -0.37157879828E+01  0.37142962706E+02  0.51100000000E-03 0.  1.
         12    1    3    3    0    0  0.57650737396E+00 -0.43830755432E+02  0.10361642222E+01  0.43846791430E+02  0.00000000000E+00 0. -1.
</event>
<event>
 7    1  0.1501154E-015  0.9000774E+02  0.7816164E-02  0.1186339E+00
        -11   -1    0    0    0    0  0.00000000000E+00  0.00000000000E+00  0.45593999997E+02  0.45594000000E+02  0.51100000000E-03 0. -1.
         11   -1    0    0    0    0 -0.00000000000E+00 -0.00000000000E+00 -0.45593999997E+02  0.45594000000E+02  0.51100000000E-03 0.  1.
    9900012    2    1    2    0    0 -0.20635373725E+00  0.36918366866E+00 -0.11018736392E+01  0.90007744111E+02  0.90000005534E+02 0.  0.
         12    1    1    2    0    0  0.20635373725E+00 -0.36918366866E+00  0.11018736392E+01  0.11802558887E+01  0.00000000000E+00 0. -1.
         11    1    3    3    0    0  0.53262916786E+01  0.62300480311E+01  0.52226348982E+01  0.97189915658E+01  0.51100000000E-03 0. -1.
        -11    1    3    3    0    0 -0.98928332062E+01 -0.41679321427E+02  0.32403602888E+01  0.42959677822E+02  0.51100000000E-03 0.  1.
         12    1    3    3    0    0  0.43601877904E+01  0.35818457065E+02 -0.95648688263E+01  0.37329074724E+02  0.00000000000E+00 0. -1.
</event>
<event>
 7    1  0.1501154E-015  0.9000787E+02  0.7816164E-02  0.1186339E+00
        -11   -1    0    0    0    0  0.00000000000E+00  0.00000000000E+00  0.45593999997E+02  0.45594000000E+02  0.51100000000E-03 0. -1.
         11   -1    0    0    0    0 -0.00000000000E+00 -0.00000000000E+00 -0.45593999997E+02  0.45594000000E+02  0.51100000000E-03 0.  1.
    9900012    2    1    2    0    0 -0.42522978837E+00  0.81888927394E+00 -0.73573333616E+00  0.90007871381E+02  0.90000134483E+02 0.  0.
         12    1    1    2    0    0  0.42522978837E+00 -0.81888927394E+00  0.73573333616E+00  0.11801286192E+01  0.00000000000E+00 0. -1.
         11    1    3    3    0    0  0.49936883224E+01 -0.27111802592E+02  0.26920642415E+02  0.38531905625E+02  0.51100000000E-03 0. -1.
        -11    1    3    3    0    0 -0.35510109894E+01  0.25282678304E+01  0.71326881567E+01  0.83592498390E+01  0.51100000000E-03 0.  1.
        -12    1    3    3    0    0 -0.18679071214E+01  0.25402424035E+02 -0.34789063908E+02  0.43116715917E+02  0.00000000000E+00 0.  1.
</event>
<event>
 7    1  0.2324317E-015  0.9000771E+02  0.7816164E-02  0.1186339E+00
        -11   -1    0    0    0    0  0.00000000000E+00  0.00000000000E+00  0.45593999997E+02  0.45594000000E+02  0.51100000000E-03 0.  1.
         11   -1    0    0    0    0 -0.00000000000E+00 -0.00000000000E+00 -0.45593999997E+02  0.45594000000E+02  0.51100000000E-03 0. -1.
    9900012    2    1    2    0    0 -0.35300866544E+00 -0.10091786802E+01  0.50002776600E+00  0.90007709996E+02  0.89999970968E+02 0.  0.
         12    1    1    2    0    0  0.35300866544E+00  0.10091786802E+01 -0.50002776600E+00  0.11802900038E+01  0.00000000000E+00 0. -1.
         11    1    3    3    0    0 -0.23382123507E+01 -0.80978825850E+01  0.46419748037E+01  0.96224149618E+01  0.51100000000E-03 0. -1.
        -11    1    3    3    0    0  0.20787427568E+02 -0.21406574326E+02  0.22260496343E+02  0.37227520290E+02  0.51100000000E-03 0.  1.
         12    1    3    3    0    0 -0.18802223882E+02  0.28495278231E+02 -0.26402443381E+02  0.43157774744E+02  0.00000000000E+00 0. -1.
</event>
<event>
 7    1  0.1501154E-015  0.9000776E+02  0.7816164E-02  0.1186339E+00
        -11   -1    0    0    0    0  0.00000000000E+00  0.00000000000E+00  0.45593999997E+02  0.45594000000E+02  0.51100000000E-03 0. -1.
         11   -1    0    0    0    0 -0.00000000000E+00 -0.00000000000E+00 -0.45593999997E+02  0.45594000000E+02  0.51100000000E-03 0.  1.
    9900012    2    1    2    0    0 -0.11947904324E+00  0.17595488678E+00 -0.11609202612E+01  0.90007757984E+02  0.90000019589E+02 0.  0.
         12    1    1    2    0    0  0.11947904324E+00 -0.17595488678E+00  0.11609202612E+01  0.11802420162E+01  0.00000000000E+00 0. -1.
         11    1    3    3    0    0 -0.25300489589E+02  0.19743281026E+02 -0.14970215309E+02  0.35412134442E+02  0.51100000000E-03 0. -1.
        -11    1    3    3    0    0 -0.91158446983E+01  0.30633311336E+01 -0.31837249570E+01  0.10130090180E+02  0.51100000000E-03 0.  1.
        -12    1    3    3    0    0  0.34296855244E+02 -0.22630657273E+02  0.16993020005E+02  0.44465533361E+02  0.00000000000E+00 0.  1.
</event>
<event>
 7    1  0.1501154E-015  0.9000771E+02  0.7816164E-02  0.1186339E+00
        -11   -1    0    0    0    0  0.00000000000E+00  0.00000000000E+00  0.45593999997E+02  0.45594000000E+02  0.51100000000E-03 0. -1.
         11   -1    0    0    0    0 -0.00000000000E+00 -0.00000000000E+00 -0.45593999997E+02  0.45594000000E+02  0.51100000000E-03 0.  1.
    9900012    2    1    2    0    0 -0.11099247077E+01 -0.48274857002E-01 -0.39852179451E+00  0.90007710654E+02  0.89999971635E+02 0.  0.
         12    1    1    2    0    0  0.11099247077E+01  0.48274857002E-01  0.39852179451E+00  0.11802893456E+01  0.00000000000E+00 0. -1.
         11    1    3    3    0    0 -0.30870020053E+02 -0.35335528849E+01 -0.19803341769E+02  0.36845847521E+02  0.51100000000E-03 0. -1.
        -11    1    3    3    0    0 -0.80143167130E+01 -0.28534150888E+01 -0.27163782578E+01  0.89302833744E+01  0.51100000000E-03 0.  1.
        -12    1    3    3    0    0  0.37774412058E+02  0.63386931167E+01  0.22121198233E+02  0.44231579759E+02  0.00000000000E+00 0.  1.
</event>
<event>
 7    1  0.1501154E-015  0.9000787E+02  0.7816164E-02  0.1186339E+00
        -11   -1    0    0    0    0  0.00000000000E+00  0.00000000000E+00  0.45593999997E+02  0.45594000000E+02  0.51100000000E-03 0.  1.
         11   -1    0    0    0    0 -0.00000000000E+00 -0.00000000000E+00 -0.45593999997E+02  0.45594000000E+02  0.51100000000E-03 0. -1.
    9900012    2    1    2    0    0 -0.23844422574E+00 -0.18869331096E+00  0.11402879341E+01  0.90007865522E+02  0.90000128546E+02 0.  0.
         12    1    1    2    0    0  0.23844422574E+00  0.18869331096E+00 -0.11402879341E+01  0.11801344784E+01  0.00000000000E+00 0. -1.
         11    1    3    3    0    0  0.30448065452E+02 -0.21258500581E+02  0.41915467817E+01  0.37370812159E+02  0.51100000000E-03 0. -1.
        -11    1    3    3    0    0  0.81205783364E+00 -0.85770886968E+01  0.26334071131E+01  0.90089245597E+01  0.51100000000E-03 0.  1.
        -12    1    3    3    0    0 -0.31498567512E+02  0.29646895967E+02 -0.56846659606E+01  0.43628128803E+02  0.00000000000E+00 0.  1.
</event>
<event>
 7    1  0.1501154E-015  0.9000766E+02  0.7816164E-02  0.1186339E+00
        -11   -1    0    0    0    0  0.00000000000E+00  0.00000000000E+00  0.45593999997E+02  0.45594000000E+02  0.51100000000E-03 0. -1.
         11   -1    0    0    0    0 -0.00000000000E+00 -0.00000000000E+00 -0.45593999997E+02  0.45594000000E+02  0.51100000000E-03 0.  1.
    9900012    2    1    2    0    0  0.26099482045E+00  0.11494576123E+01  0.61896948664E-01  0.90007660078E+02  0.89999920391E+02 0.  0.
         12    1    1    2    0    0 -0.26099482045E+00 -0.11494576123E+01 -0.61896948664E-01  0.11803399218E+01  0.00000000000E+00 0. -1.
         11    1    3    3    0    0 -0.34081776726E+02  0.11735417899E+02  0.14538393104E+02  0.38867112221E+02  0.51100000000E-03 0. -1.
        -11    1    3    3    0    0 -0.27482974850E+01 -0.10455469998E+02 -0.80921417447E+01  0.13503805027E+02  0.51100000000E-03 0.  1.
        -12    1    3    3    0    0  0.37091069031E+02 -0.13049028885E+00 -0.63843544105E+01  0.37636742830E+02  0.00000000000E+00 0.  1.
</event>
<event>
 7    1  0.1501154E-015  0.9000780E+02  0.7816164E-02  0.1186339E+00
        -11   -1    0    0    0    0  0.00000000000E+00  0.00000000000E+00  0.45593999997E+02  0.45594000000E+02  0.51100000000E-03 0. -1.
         11   -1    0    0    0    0 -0.00000000000E+00 -0.00000000000E+00 -0.45593999997E+02  0.45594000000E+02  0.51100000000E-03 0.  1.
    9900012    2    1    2    0    0  0.38627321709E+00 -0.17815603506E+00 -0.11008754671E+01  0.90007799439E+02  0.90000061591E+02 0.  0.
         12    1    1    2    0    0 -0.38627321709E+00  0.17815603506E+00  0.11008754671E+01  0.11802005614E+01  0.00000000000E+00 0. -1.
         11    1    3    3    0    0 -0.15439372587E+01  0.46412931073E+01 -0.84290772045E+01  0.97454957158E+01  0.51100000000E-03 0. -1.
        -11    1    3    3    0    0  0.39558497576E+02  0.74673367007E+01  0.55608163497E+01  0.40639371631E+02  0.51100000000E-03 0.  1.
         12    1    3    3    0    0 -0.37628287100E+02 -0.12286785843E+02  0.17673853877E+01  0.39622932092E+02  0.00000000000E+00 0. -1.
</event>
<event>
 7    1  0.1501154E-015  0.9000783E+02  0.7816164E-02  0.1186339E+00
        -11   -1    0    0    0    0  0.00000000000E+00  0.00000000000E+00  0.45593999997E+02  0.45594000000E+02  0.51100000000E-03 0. -1.
         11   -1    0    0    0    0 -0.00000000000E+00 -0.00000000000E+00 -0.45593999997E+02  0.45594000000E+02  0.51100000000E-03 0.  1.
    9900012    2    1    2    0    0  0.12790277023E+00  0.82939340533E+00  0.82979044578E+00  0.90007828520E+02  0.90000091056E+02 0.  0.
         12    1    1    2    0    0 -0.12790277023E+00 -0.82939340533E+00 -0.82979044578E+00  0.11801714805E+01  0.00000000000E+00 0. -1.
         11    1    3    3    0    0 -0.34963967333E+02 -0.15100897766E+02  0.34963783803E+01  0.38245794371E+02  0.51100000000E-03 0. -1.
        -11    1    3    3    0    0  0.19533609655E+01 -0.90833752859E+01  0.32080371296E+01  0.98292842126E+01  0.51100000000E-03 0.  1.
        -12    1    3    3    0    0  0.33138509138E+02  0.25013666458E+02 -0.58746250641E+01  0.41932749936E+02  0.00000000000E+00 0.  1.
</event>
<event>
 7    1  0.1501154E-015  0.9000779E+02  0.7816164E-02  0.1186339E+00
        -11   -1    0    0    0    0  0.00000000000E+00  0.00000000000E+00  0.45593999997E+02  0.45594000000E+02  0.51100000000E-03 0. -1.
         11   -1    0    0    0    0 -0.00000000000E+00 -0.00000000000E+00 -0.45593999997E+02  0.45594000000E+02  0.51100000000E-03 0.  1.
    9900012    2    1    2    0    0  0.91973877608E+00 -0.72426791748E+00 -0.14967474952E+00  0.90007794101E+02  0.90000056183E+02 0.  0.
         12    1    1    2    0    0 -0.91973877608E+00  0.72426791748E+00  0.14967474952E+00  0.11802058986E+01  0.00000000000E+00 0. -1.
         11    1    3    3    0    0 -0.32021952828E+02  0.23881006726E+02  0.16380147268E+02  0.43174265135E+02  0.51100000000E-03 0. -1.
        -11    1    3    3    0    0  0.10336574106E+02  0.55070192121E-01 -0.31788861445E+01  0.10814486320E+02  0.51100000000E-03 0.  1.
        -12    1    3    3    0    0  0.22605117498E+02 -0.24660344836E+02 -0.13350935873E+02  0.36019042647E+02  0.00000000000E+00 0.  1.
</event>
<event>
 7    1  0.1501154E-015  0.9000772E+02  0.7816164E-02  0.1186339E+00
        -11   -1    0    0    0    0  0.00000000000E+00  0.00000000000E+00  0.45593999997E+02  0.45594000000E+02  0.51100000000E-03 0.  1.
         11   -1    0    0    0    0 -0.00000000000E+00 -0.00000000000E+00 -0.45593999997E+02  0.45594000000E+02  0.51100000000E-03 0. -1.
    9900012    2    1    2    0    0 -0.66739405250E+00 -0.40420721259E+00  0.88558248168E+00  0.90007722650E+02  0.89999983789E+02 0.  0.
         12    1    1    2    0    0  0.66739405250E+00  0.40420721259E+00 -0.88558248168E+00  0.11802773504E+01  0.00000000000E+00 0. -1.
         11    1    3    3    0    0 -0.79947311015E+01 -0.32139270448E+01 -0.53726400541E+01  0.10154324884E+02  0.51100000000E-03 0. -1.
        -11    1    3    3    0    0  0.34240963844E+02  0.24688230383E+01  0.28749099813E+02  0.44777778333E+02  0.51100000000E-03 0.  1.
         12    1    3    3    0    0 -0.26913626795E+02  0.34089679384E+00 -0.22490877278E+02  0.35075619432E+02  0.00000000000E+00 0. -1.
</event>
<event>
 7    1  0.1501154E-015  0.9000778E+02  0.7816164E-02  0.1186339E+00
        -11   -1    0    0    0    0  0.00000000000E+00  0.00000000000E+00  0.45593999997E+02  0.45594000000E+02  0.51100000000E-03 0. -1.
         11   -1    0    0    0    0 -0.00000000000E+00 -0.00000000000E+00 -0.45593999997E+02  0.45594000000E+02  0.51100000000E-03 0.  1.
    9900012    2    1    2    0    0 -0.71504353056E+00 -0.77198940944E+00 -0.53448505393E+00  0.90007775796E+02  0.90000037636E+02 0.  0.
         12    1    1    2    0    0  0.71504353056E+00  0.77198940944E+00  0.53448505393E+00  0.11802242040E+01  0.00000000000E+00 0. -1.
         11    1    3    3    0    0 -0.69870834872E+01  0.70790389724E+01 -0.48514468504E+00  0.99582877070E+01  0.51100000000E-03 0. -1.
        -11    1    3    3    0    0  0.14727058713E+02  0.26135768418E+02 -0.23322870854E+02  0.37998959910E+02  0.51100000000E-03 0.  1.
         12    1    3    3    0    0 -0.84550187562E+01 -0.33986796800E+02  0.23273530485E+02  0.42050528179E+02  0.00000000000E+00 0. -1.
</event>
<event>
 7    1  0.1501154E-015  0.9000782E+02  0.7816164E-02  0.1186339E+00
        -11   -1    0    0    0    0  0.00000000000E+00  0.00000000000E+00  0.45593999997E+02  0.45594000000E+02  0.51100000000E-03 0. -1.
         11   -1    0    0    0    0 -0.00000000000E+00 -0.00000000000E+00 -0.45593999997E+02  0.45594000000E+02  0.51100000000E-03 0.  1.
    9900012    2    1    2    0    0  0.49345167216E+00  0.10551735769E+01  0.18960448342E+00  0.90007815400E+02  0.90000077763E+02 0.  0.
         12    1    1    2    0    0 -0.49345167216E+00 -0.10551735769E+01 -0.18960448342E+00  0.11801846000E+01  0.00000000000E+00 0. -1.
         11    1    3    3    0    0 -0.34440727987E+02  0.12163281960E+02 -0.12555605764E+02  0.38623210751E+02  0.51100000000E-03 0. -1.
        -11    1    3    3    0    0  0.38355410571E+01  0.80735592489E+01 -0.55504912400E+01  0.10521486939E+02  0.51100000000E-03 0.  1.
        -12    1    3    3    0    0  0.31098638602E+02 -0.19181667632E+02  0.18295701487E+02  0.40863117710E+02  0.00000000000E+00 0.  1.
</event>
<event>
 7    1  0.1501154E-015  0.9000772E+02  0.7816164E-02  0.1186339E+00
        -11   -1    0    0    0    0  0.00000000000E+00  0.00000000000E+00  0.45593999997E+02  0.45594000000E+02  0.51100000000E-03 0. -1.
         11   -1    0    0    0    0 -0.00000000000E+00 -0.00000000000E+00 -0.45593999997E+02  0.45594000000E+02  0.51100000000E-03 0.  1.
    9900012    2    1    2    0    0  0.47550035128E+00  0.39928195036E+00 -0.10037632361E+01  0.90007717282E+02  0.89999978350E+02 0.  0.
         12    1    1    2    0    0 -0.47550035128E+00 -0.39928195036E+00  0.10037632361E+01  0.11802827179E+01  0.00000000000E+00 0. -1.
         11    1    3    3    0    0 -0.56713464218E+01  0.83051610415E+01  0.76668583151E+00  0.10086013959E+02  0.51100000000E-03 0. -1.
        -11    1    3    3    0    0 -0.35407496433E+02 -0.13314115951E+02 -0.34367658744E+01  0.37983784003E+02  0.51100000000E-03 0.  1.
         12    1    3    3    0    0  0.41554343206E+02  0.54082368603E+01  0.16663168067E+01  0.41937919320E+02  0.00000000000E+00 0. -1.
</event>
<event>
 7    1  0.1501154E-015  0.9000799E+02  0.7816164E-02  0.1186339E+00
        -11   -1    0    0    0    0  0.00000000000E+00  0.00000000000E+00  0.45593999997E+02  0.45594000000E+02  0.51100000000E-03 0.  1.
         11   -1    0    0    0    0 -0.00000000000E+00 -0.00000000000E+00 -0.45593999997E+02  0.45594000000E+02  0.51100000000E-03 0. -1.
    9900012    2    1    2    0    0 -0.14776793837E+00  0.88295634986E+00 -0.76874786651E+00  0.90007991287E+02  0.90000255972E+02 0.  0.
         12    1    1    2    0    0  0.14776793837E+00 -0.88295634986E+00  0.76874786651E+00  0.11800087125E+01  0.00000000000E+00 0. -1.
         11    1    3    3    0    0  0.79988445429E+01 -0.39707973124E+01  0.51191079506E+01  0.10293396514E+02  0.51100000000E-03 0. -1.
        -11    1    3    3    0    0  0.16038457751E+02 -0.16572091338E+02  0.25698651723E+02  0.34529509683E+02  0.51100000000E-03 0.  1.
         12    1    3    3    0    0 -0.24185070232E+02  0.21425845000E+02 -0.31586507540E+02  0.45185085091E+02  0.00000000000E+00 0. -1.
</event>
<event>
 7    1  0.1501154E-015  0.9000767E+02  0.7816164E-02  0.1186339E+00
        -11   -1    0    0    0    0  0.00000000000E+00  0.00000000000E+00  0.45593999997E+02  0.45594000000E+02  0.51100000000E-03 0. -1.
         11   -1    0    0    0    0 -0.00000000000E+00 -0.00000000000E+00 -0.45593999997E+02  0.45594000000E+02  0.51100000000E-03 0.  1.
    9900012    2    1    2    0    0 -0.11217330899E+01 -0.36592717450E+00 -0.31544754881E-01  0.90007668312E+02  0.89999928734E+02 0.  0.
         12    1    1    2    0    0  0.11217330899E+01  0.36592717450E+00  0.31544754881E-01  0.11803316879E+01  0.00000000000E+00 0. -1.
         11    1    3    3    0    0  0.31619676924E+01 -0.17178541323E+02  0.32827108641E+02  0.37184934902E+02  0.51100000000E-03 0. -1.
        -11    1    3    3    0    0 -0.96181030334E+01 -0.49221865911E+01  0.23937448569E+01  0.11066428579E+02  0.51100000000E-03 0.  1.
        -12    1    3    3    0    0  0.53344022511E+01  0.21734800739E+02 -0.35252398253E+02  0.41756304831E+02  0.00000000000E+00 0.  1.
</event>
<event>
 7    1  0.1501154E-015  0.9000764E+02  0.7816164E-02  0.1186339E+00
        -11   -1    0    0    0    0  0.00000000000E+00  0.00000000000E+00  0.45593999997E+02  0.45594000000E+02  0.51100000000E-03 0.  1.
         11   -1    0    0    0    0 -0.00000000000E+00 -0.00000000000E+00 -0.45593999997E+02  0.45594000000E+02  0.51100000000E-03 0. -1.
    9900012    2    1    2    0    0 -0.53237063672E+00 -0.94609679376E+00  0.46339325603E+00  0.90007639484E+02  0.89999899525E+02 0.  0.
         12    1    1    2    0    0  0.53237063672E+00  0.94609679376E+00 -0.46339325603E+00  0.11803605160E+01  0.00000000000E+00 0. -1.
         11    1    3    3    0    0 -0.21256872948E+02  0.23798164390E+01 -0.32304028336E+02  0.38743624260E+02  0.51100000000E-03 0. -1.
        -11    1    3    3    0    0 -0.12191407123E+01 -0.81713401251E+01 -0.31946889293E+01  0.88579422628E+01  0.51100000000E-03 0.  1.
        -12    1    3    3    0    0  0.21943643023E+02  0.48454268923E+01  0.35962110521E+02  0.42406072962E+02  0.00000000000E+00 0.  1.
</event>
<event>
 7    1  0.1501154E-015  0.9000772E+02  0.7816164E-02  0.1186339E+00
        -11   -1    0    0    0    0  0.00000000000E+00  0.00000000000E+00  0.45593999997E+02  0.45594000000E+02  0.51100000000E-03 0. -1.
         11   -1    0    0    0    0 -0.00000000000E+00 -0.00000000000E+00 -0.45593999997E+02  0.45594000000E+02  0.51100000000E-03 0.  1.
    9900012    2    1    2    0    0 -0.10358389124E+01  0.49614873599E+00  0.27192529423E+00  0.90007716481E+02  0.89999977538E+02 0.  0.
         12    1    1    2    0    0  0.10358389124E+01 -0.49614873599E+00 -0.27192529423E+00  0.11802835195E+01  0.00000000000E+00 0. -1.
         11    1    3    3    0    0  0.11510537048E+01 -0.83428456227E+01  0.40340924104E+02  0.41210655849E+02  0.51100000000E-03 0. -1.
        -11    1    3    3    0    0 -0.32838296373E+01  0.14866452758E+02 -0.10246357465E+02  0.18351642876E+02  0.51100000000E-03 0.  1.
        -12    1    3    3    0    0  0.10969370201E+01 -0.60274583989E+01 -0.29822641344E+02  0.30445417755E+02  0.00000000000E+00 0.  1.
</event>
<event>
 7    1  0.1501154E-015  0.9000788E+02  0.7816164E-02  0.1186339E+00
        -11   -1    0    0    0    0  0.00000000000E+00  0.00000000000E+00  0.45593999997E+02  0.45594000000E+02  0.51100000000E-03 0.  1.
         11   -1    0    0    0    0 -0.00000000000E+00 -0.00000000000E+00 -0.45593999997E+02  0.45594000000E+02  0.51100000000E-03 0. -1.
    9900012    2    1    2    0    0  0.56509864562E+00  0.32106140694E+00  0.98501639468E+00  0.90007883818E+02  0.90000147084E+02 0.  0.
         12    1    1    2    0    0 -0.56509864562E+00 -0.32106140694E+00 -0.98501639468E+00  0.11801161825E+01  0.00000000000E+00 0. -1.
         11    1    3    3    0    0 -0.58005314957E+01  0.46113014254E+00  0.97591942268E+01  0.11362247967E+02  0.51100000000E-03 0. -1.
        -11    1    3    3    0    0  0.18686760143E+02  0.33188450086E+02  0.86693753559E+01  0.39061826545E+02  0.51100000000E-03 0.  1.
         12    1    3    3    0    0 -0.12321130001E+02 -0.33328518821E+02 -0.17443553188E+02  0.39583809306E+02  0.00000000000E+00 0. -1.
</event>
<event>
 7    1  0.1501154E-015  0.9000788E+02  0.7816164E-02  0.1186339E+00
        -11   -1    0    0    0    0  0.00000000000E+00  0.00000000000E+00  0.45593999997E+02  0.45594000000E+02  0.51100000000E-03 0. -1.
         11   -1    0    0    0    0 -0.00000000000E+00 -0.00000000000E+00 -0.45593999997E+02  0.45594000000E+02  0.51100000000E-03 0.  1.
    9900012    2    1    2    0    0  0.47268913610E+00 -0.10435231438E+01  0.28340009238E+00  0.90007876624E+02  0.90000139795E+02 0.  0.
         12    1    1    2    0    0 -0.47268913610E+00  0.10435231438E+01 -0.28340009238E+00  0.11801233763E+01  0.00000000000E+00 0. -1.
         11    1    3    3    0    0 -0.28913034437E+02 -0.25289212906E+02 -0.35847259564E+01  0.38579244552E+02  0.51100000000E-03 0. -1.
        -11    1    3    3    0    0 -0.21220258083E+01 -0.42701461271E+01 -0.61362208484E+01  0.77711227013E+01  0.51100000000E-03 0.  1.
        -12    1    3    3    0    0  0.31507749381E+02  0.28515835890E+02  0.10004346897E+02  0.43657509370E+02  0.00000000000E+00 0.  1.
</event>
<event>
 8    1  0.1501154E-015  0.9000775E+02  0.7816164E-02  0.1186339E+00
        -11   -1    0    0    0    0  0.00000000000E+00  0.00000000000E+00  0.45593999997E+02  0.45594000000E+02  0.51100000000E-03 0.  1.
         11   -1    0    0    0    0 -0.00000000000E+00 -0.00000000000E+00 -0.45593999997E+02  0.45594000000E+02  0.51100000000E-03 0. -1.
    9900012    2    1    2    0    0 -0.54259152456E+00  0.11714502123E+00  0.10415694117E+01  0.90007747757E+02  0.90000009227E+02 0.  0.
         23    2    3    3    0    0 -0.31105043860E+01  0.27465334493E+02 -0.29767228500E-01  0.62518378792E+02  0.56076081927E+02 0.  0.
         12    1    1    2    0    0  0.54259152456E+00 -0.11714502123E+00 -0.10415694117E+01  0.11802522434E+01  0.00000000000E+00 0. -1.
         11    1    4    4    0    0  0.15873978018E+02  0.29211441248E+02 -0.16689863125E+02  0.37200040448E+02  0.51100000000E-03 0. -1.
        -11    1    4    4    0    0 -0.18984482404E+02 -0.17461067551E+01  0.16660095897E+02  0.25318338344E+02  0.51100000000E-03 0.  1.
        -12    1    3    3    0    0  0.25679128614E+01 -0.27348189472E+02  0.10713366402E+01  0.27489368965E+02  0.00000000000E+00 0.  1.
</event>
<event>
 7    1  0.1501154E-015  0.9000768E+02  0.7816164E-02  0.1186339E+00
        -11   -1    0    0    0    0  0.00000000000E+00  0.00000000000E+00  0.45593999997E+02  0.45594000000E+02  0.51100000000E-03 0. -1.
         11   -1    0    0    0    0 -0.00000000000E+00 -0.00000000000E+00 -0.45593999997E+02  0.45594000000E+02  0.51100000000E-03 0.  1.
    9900012    2    1    2    0    0  0.50184112231E+00 -0.95835184211E+00  0.47209355356E+00  0.90007680091E+02  0.89999940668E+02 0.  0.
         12    1    1    2    0    0 -0.50184112231E+00  0.95835184211E+00 -0.47209355356E+00  0.11803199094E+01  0.00000000000E+00 0. -1.
         11    1    3    3    0    0 -0.26746555872E+02 -0.66128370485E+01  0.24364436182E+02  0.36779527125E+02  0.51100000000E-03 0. -1.
        -11    1    3    3    0    0 -0.39372951237E+01 -0.91067284628E+00  0.74840058404E+01  0.85054077858E+01  0.51100000000E-03 0.  1.
        -12    1    3    3    0    0  0.31185692118E+02  0.65651580527E+01 -0.31376348469E+02  0.44722745179E+02  0.00000000000E+00 0.  1.
</event>
<event>
 7    1  0.1501154E-015  0.9000765E+02  0.7816164E-02  0.1186339E+00
        -11   -1    0    0    0    0  0.00000000000E+00  0.00000000000E+00  0.45593999997E+02  0.45594000000E+02  0.51100000000E-03 0. -1.
         11   -1    0    0    0    0 -0.00000000000E+00 -0.00000000000E+00 -0.45593999997E+02  0.45594000000E+02  0.51100000000E-03 0.  1.
    9900012    2    1    2    0    0  0.10784221467E+01  0.30912574489E+00 -0.36698641628E+00  0.90007647475E+02  0.89999907622E+02 0.  0.
         12    1    1    2    0    0 -0.10784221467E+01 -0.30912574489E+00  0.36698641628E+00  0.11803525246E+01  0.00000000000E+00 0. -1.
         11    1    3    3    0    0 -0.37899478864E+01 -0.82528333002E+01 -0.14313984532E+01  0.91935773372E+01  0.51100000000E-03 0. -1.
        -11    1    3    3    0    0  0.14665179461E+02 -0.22567898207E+02 -0.26740849322E+02  0.37940091471E+02  0.51100000000E-03 0.  1.
         12    1    3    3    0    0 -0.97968094277E+01  0.31129857252E+02  0.27805261359E+02  0.42873978667E+02  0.00000000000E+00 0. -1.
</event>
<event>
 7    1  0.1501154E-015  0.9000778E+02  0.7816164E-02  0.1186339E+00
        -11   -1    0    0    0    0  0.00000000000E+00  0.00000000000E+00  0.45593999997E+02  0.45594000000E+02  0.51100000000E-03 0.  1.
         11   -1    0    0    0    0 -0.00000000000E+00 -0.00000000000E+00 -0.45593999997E+02  0.45594000000E+02  0.51100000000E-03 0. -1.
    9900012    2    1    2    0    0  0.24396913689E-01  0.71076515964E+00  0.94188528487E+00  0.90007775356E+02  0.90000037190E+02 0.  0.
         12    1    1    2    0    0 -0.24396913689E-01 -0.71076515964E+00 -0.94188528487E+00  0.11802246445E+01  0.00000000000E+00 0. -1.
         11    1    3    3    0    0 -0.84946893476E+01 -0.28524462462E+01 -0.34755691697E+01  0.96112318677E+01  0.51100000000E-03 0. -1.
        -11    1    3    3    0    0  0.44042226691E+02 -0.26345331071E+01  0.49132997723E+00  0.44123688672E+02  0.51100000000E-03 0.  1.
         12    1    3    3    0    0 -0.35523140430E+02  0.61977445130E+01  0.39261244774E+01  0.36272854816E+02  0.00000000000E+00 0. -1.
</event>
<event>
 7    1  0.1501154E-015  0.9000773E+02  0.7816164E-02  0.1186339E+00
        -11   -1    0    0    0    0  0.00000000000E+00  0.00000000000E+00  0.45593999997E+02  0.45594000000E+02  0.51100000000E-03 0. -1.
         11   -1    0    0    0    0 -0.00000000000E+00 -0.00000000000E+00 -0.45593999997E+02  0.45594000000E+02  0.51100000000E-03 0.  1.
    9900012    2    1    2    0    0 -0.10592478246E+01  0.13400489811E+00 -0.50305923612E+00  0.90007732292E+02  0.89999993559E+02 0.  0.
         12    1    1    2    0    0  0.10592478246E+01 -0.13400489811E+00  0.50305923612E+00  0.11802677076E+01  0.00000000000E+00 0. -1.
         11    1    3    3    0    0 -0.15626063460E+01 -0.10106682720E+02  0.28123812706E+01  0.10606425546E+02  0.51100000000E-03 0. -1.
        -11    1    3    3    0    0 -0.18761510802E+02  0.80185034967E+01 -0.36009721312E+02  0.41388292006E+02  0.51100000000E-03 0.  1.
         12    1    3    3    0    0  0.19264869324E+02  0.22221841210E+01  0.32694280805E+02  0.38013014741E+02  0.00000000000E+00 0. -1.
</event>
<event>
 7    1  0.1501154E-015  0.9000768E+02  0.7816164E-02  0.1186339E+00
        -11   -1    0    0    0    0  0.00000000000E+00  0.00000000000E+00  0.45593999997E+02  0.45594000000E+02  0.51100000000E-03 0.  1.
         11   -1    0    0    0    0 -0.00000000000E+00 -0.00000000000E+00 -0.45593999997E+02  0.45594000000E+02  0.51100000000E-03 0. -1.
    9900012    2    1    2    0    0  0.66389478876E+00 -0.28221003076E+00  0.93420994234E+00  0.90007683513E+02  0.89999944136E+02 0.  0.
         12    1    1    2    0    0 -0.66389478876E+00  0.28221003076E+00 -0.93420994234E+00  0.11803164865E+01  0.00000000000E+00 0. -1.
         11    1    3    3    0    0 -0.10299371142E+02 -0.14094405813E+02  0.79039502038E+01  0.19162508975E+02  0.51100000000E-03 0. -1.
        -11    1    3    3    0    0 -0.79338893231E+01  0.37558876775E+02  0.39543218973E+01  0.38590834227E+02  0.51100000000E-03 0.  1.
         12    1    3    3    0    0  0.18897155254E+02 -0.23746680993E+02 -0.10924062159E+02  0.32254340312E+02  0.00000000000E+00 0. -1.
</event>
<event>
 7    1  0.1501154E-015  0.9000777E+02  0.7816164E-02  0.1186339E+00
        -11   -1    0    0    0    0  0.00000000000E+00  0.00000000000E+00  0.45593999997E+02  0.45594000000E+02  0.51100000000E-03 0. -1.
         11   -1    0    0    0    0 -0.00000000000E+00 -0.00000000000E+00 -0.45593999997E+02  0.45594000000E+02  0.51100000000E-03 0.  1.
    9900012    2    1    2    0    0 -0.10781500374E+01  0.47281808544E+00  0.83576785257E-01  0.90007767174E+02  0.90000028901E+02 0.  0.
         12    1    1    2    0    0  0.10781500374E+01 -0.47281808544E+00 -0.83576785257E-01  0.11802328262E+01  0.00000000000E+00 0. -1.
         11    1    3    3    0    0 -0.21253978208E+01 -0.34972338428E+02  0.11131804463E+02  0.36762737139E+02  0.51100000000E-03 0. -1.
        -11    1    3    3    0    0 -0.60686531937E+01 -0.35758750495E+01  0.67630360017E+01  0.97649418932E+01  0.51100000000E-03 0.  1.
        -12    1    3    3    0    0  0.71159009772E+01  0.39021031563E+02 -0.17811263679E+02  0.43480088142E+02  0.00000000000E+00 0.  1.
</event>
<event>
 7    1  0.1501154E-015  0.9000772E+02  0.7816164E-02  0.1186339E+00
        -11   -1    0    0    0    0  0.00000000000E+00  0.00000000000E+00  0.45593999997E+02  0.45594000000E+02  0.51100000000E-03 0.  1.
         11   -1    0    0    0    0 -0.00000000000E+00 -0.00000000000E+00 -0.45593999997E+02  0.45594000000E+02  0.51100000000E-03 0. -1.
    9900012    2    1    2    0    0 -0.23322360558E+00 -0.62264845458E+00  0.97517589739E+00  0.90007723601E+02  0.89999984752E+02 0.  0.
         12    1    1    2    0    0  0.23322360558E+00  0.62264845458E+00 -0.97517589739E+00  0.11802763994E+01  0.00000000000E+00 0. -1.
         11    1    3    3    0    0  0.18083023873E+02 -0.15730032803E+02 -0.24994331322E+02  0.34628691614E+02  0.51100000000E-03 0. -1.
        -11    1    3    3    0    0  0.68899736079E+01 -0.20527728612E+01 -0.73025025776E+01  0.10247543944E+02  0.51100000000E-03 0.  1.
        -12    1    3    3    0    0 -0.25206221086E+02  0.17160157210E+02  0.33272009797E+02  0.45131488042E+02  0.00000000000E+00 0.  1.
</event>
<event>
 7    1  0.1501154E-015  0.9000853E+02  0.7816164E-02  0.1186337E+00
        -11   -1    0    0    0    0  0.00000000000E+00  0.00000000000E+00  0.45593999997E+02  0.45594000000E+02  0.51100000000E-03 0. -1.
         11   -1    0    0    0    0 -0.00000000000E+00 -0.00000000000E+00 -0.45593999997E+02  0.45594000000E+02  0.51100000000E-03 0.  1.
    9900012    2    1    2    0    0  0.24933299511E+00 -0.11052420861E+01  0.32776290388E+00  0.90008527435E+02  0.90000799193E+02 0.  0.
         12    1    1    2    0    0 -0.24933299511E+00  0.11052420861E+01 -0.32776290388E+00  0.11794725654E+01  0.00000000000E+00 0. -1.
         11    1    3    3    0    0  0.86620159467E+00 -0.26315915457E+02  0.26435034788E+02  0.37310705917E+02  0.51100000000E-03 0. -1.
        -11    1    3    3    0    0 -0.83137339892E+01 -0.64575353047E+01  0.62641469164E+00  0.10545630881E+02  0.51100000000E-03 0.  1.
        -12    1    3    3    0    0  0.76968653896E+01  0.31668208675E+02 -0.26733686576E+02  0.42152190636E+02  0.00000000000E+00 0.  1.
</event>
<event>
 7    1  0.1501154E-015  0.9000766E+02  0.7816164E-02  0.1186339E+00
        -11   -1    0    0    0    0  0.00000000000E+00  0.00000000000E+00  0.45593999997E+02  0.45594000000E+02  0.51100000000E-03 0.  1.
         11   -1    0    0    0    0 -0.00000000000E+00 -0.00000000000E+00 -0.45593999997E+02  0.45594000000E+02  0.51100000000E-03 0. -1.
    9900012    2    1    2    0    0 -0.13130321729E+00 -0.10930415867E+01  0.42569549172E+00  0.90007662295E+02  0.89999922638E+02 0.  0.
         12    1    1    2    0    0  0.13130321729E+00  0.10930415867E+01 -0.42569549172E+00  0.11803377046E+01  0.00000000000E+00 0. -1.
         11    1    3    3    0    0 -0.36780099338E+01 -0.19645089313E+01  0.94162813609E+01  0.10298223504E+02  0.51100000000E-03 0. -1.
        -11    1    3    3    0    0  0.81533443011E+01 -0.37191162032E+02  0.59969588516E+01  0.38543781240E+02  0.51100000000E-03 0.  1.
         12    1    3    3    0    0 -0.46066375846E+01  0.38062629376E+02 -0.14987544721E+02  0.41165657551E+02  0.00000000000E+00 0. -1.
</event>
<event>
 7    1  0.1501154E-015  0.9000774E+02  0.7816164E-02  0.1186339E+00
        -11   -1    0    0    0    0  0.00000000000E+00  0.00000000000E+00  0.45593999997E+02  0.45594000000E+02  0.51100000000E-03 0.  1.
         11   -1    0    0    0    0 -0.00000000000E+00 -0.00000000000E+00 -0.45593999997E+02  0.45594000000E+02  0.51100000000E-03 0. -1.
    9900012    2    1    2    0    0 -0.82839339614E+00 -0.44054550077E+00  0.71603322760E+00  0.90007737512E+02  0.89999998847E+02 0.  0.
         12    1    1    2    0    0  0.82839339614E+00  0.44054550077E+00 -0.71603322760E+00  0.11802624878E+01  0.00000000000E+00 0. -1.
         11    1    3    3    0    0 -0.77001701530E+01  0.19889229811E+01  0.56330547350E+01  0.97457550204E+01  0.51100000000E-03 0. -1.
        -11    1    3    3    0    0 -0.32595710965E+02 -0.66051948254E+01  0.14256966445E+02  0.36185218868E+02  0.51100000000E-03 0.  1.
         12    1    3    3    0    0  0.39467487722E+02  0.41757263435E+01 -0.19173987952E+02  0.44076763624E+02  0.00000000000E+00 0. -1.
</event>
<event>
 7    1  0.1501154E-015  0.9000769E+02  0.7816164E-02  0.1186339E+00
        -11   -1    0    0    0    0  0.00000000000E+00  0.00000000000E+00  0.45593999997E+02  0.45594000000E+02  0.51100000000E-03 0. -1.
         11   -1    0    0    0    0 -0.00000000000E+00 -0.00000000000E+00 -0.45593999997E+02  0.45594000000E+02  0.51100000000E-03 0.  1.
    9900012    2    1    2    0    0  0.56104069758E+00  0.30145575917E+00 -0.99372884695E+00  0.90007686796E+02  0.89999947461E+02 0.  0.
         12    1    1    2    0    0 -0.56104069758E+00 -0.30145575917E+00  0.99372884695E+00  0.11803132043E+01  0.00000000000E+00 0. -1.
         11    1    3    3    0    0 -0.34338175058E+01 -0.79394729974E+01 -0.31869997070E+01  0.92186388113E+01  0.51100000000E-03 0. -1.
        -11    1    3    3    0    0 -0.20737484766E+02 -0.25065053300E+02 -0.15074030379E+02  0.35854240523E+02  0.51100000000E-03 0.  1.
         12    1    3    3    0    0  0.24732342970E+02  0.33305982056E+02  0.17267301240E+02  0.44934807461E+02  0.00000000000E+00 0. -1.
</event>
<event>
 7    1  0.1501154E-015  0.9000766E+02  0.7816164E-02  0.1186339E+00
        -11   -1    0    0    0    0  0.00000000000E+00  0.00000000000E+00  0.45593999997E+02  0.45594000000E+02  0.51100000000E-03 0.  1.
         11   -1    0    0    0    0 -0.00000000000E+00 -0.00000000000E+00 -0.45593999997E+02  0.45594000000E+02  0.51100000000E-03 0. -1.
    9900012    2    1    2    0    0 -0.38288696635E+00 -0.13884027540E+00  0.11078474390E+01  0.90007658948E+02  0.89999919246E+02 0.  0.
         12    1    1    2    0    0  0.38288696635E+00  0.13884027540E+00 -0.11078474390E+01  0.11803410521E+01  0.00000000000E+00 0. -1.
         11    1    3    3    0    0 -0.34812558165E+02 -0.14783752650E+02  0.27725531584E+01  0.37923087950E+02  0.51100000000E-03 0. -1.
        -11    1    3    3    0    0  0.96148095170E+01 -0.31156919585E+01  0.14404292615E+02  0.17596469658E+02  0.51100000000E-03 0.  1.
        -12    1    3    3    0    0  0.24814861682E+02  0.17760604333E+02 -0.16068998334E+02  0.34488101340E+02  0.00000000000E+00 0.  1.
</event>
<event>
 7    1  0.1501154E-015  0.9000773E+02  0.7816164E-02  0.1186339E+00
        -11   -1    0    0    0    0  0.00000000000E+00  0.00000000000E+00  0.45593999997E+02  0.45594000000E+02  0.51100000000E-03 0.  1.
         11   -1    0    0    0    0 -0.00000000000E+00 -0.00000000000E+00 -0.45593999997E+02  0.45594000000E+02  0.51100000000E-03 0. -1.
    9900012    2    1    2    0    0 -0.10828298693E+01  0.66464409089E-01  0.46486363577E+00  0.90007730436E+02  0.89999991678E+02 0.  0.
         12    1    1    2    0    0  0.10828298693E+01 -0.66464409089E-01 -0.46486363577E+00  0.11802695639E+01  0.00000000000E+00 0. -1.
         11    1    3    3    0    0 -0.76849010250E+01  0.54038859513E+01  0.37903642314E+00  0.94023058879E+01  0.51100000000E-03 0. -1.
        -11    1    3    3    0    0 -0.23115478471E+02 -0.26206861856E+02  0.18877811408E+02  0.39717712888E+02  0.51100000000E-03 0.  1.
         12    1    3    3    0    0  0.29717549627E+02  0.20869440314E+02 -0.18791984195E+02  0.40887711660E+02  0.00000000000E+00 0. -1.
</event>
<event>
 7    1  0.1501154E-015  0.9000778E+02  0.7816164E-02  0.1186339E+00
        -11   -1    0    0    0    0  0.00000000000E+00  0.00000000000E+00  0.45593999997E+02  0.45594000000E+02  0.51100000000E-03 0.  1.
         11   -1    0    0    0    0 -0.00000000000E+00 -0.00000000000E+00 -0.45593999997E+02  0.45594000000E+02  0.51100000000E-03 0. -1.
    9900012    2    1    2    0    0  0.33957376416E+00  0.89238676035E+00  0.69372648792E+00  0.90007779295E+02  0.90000041182E+02 0.  0.
         12    1    1    2    0    0 -0.33957376416E+00 -0.89238676035E+00 -0.69372648792E+00  0.11802207045E+01  0.00000000000E+00 0. -1.
         11    1    3    3    0    0 -0.77058188365E+00  0.96016074832E+01 -0.20411366929E+01  0.98463649111E+01  0.51100000000E-03 0. -1.
        -11    1    3    3    0    0 -0.24514098275E+02  0.15444649864E+02  0.25193652641E+02  0.38395290822E+02  0.51100000000E-03 0.  1.
         12    1    3    3    0    0  0.25624253923E+02 -0.24153870587E+02 -0.22458789460E+02  0.41766123562E+02  0.00000000000E+00 0. -1.
</event>
<event>
 7    1  0.1501154E-015  0.9000769E+02  0.7816164E-02  0.1186339E+00
        -11   -1    0    0    0    0  0.00000000000E+00  0.00000000000E+00  0.45593999997E+02  0.45594000000E+02  0.51100000000E-03 0. -1.
         11   -1    0    0    0    0 -0.00000000000E+00 -0.00000000000E+00 -0.45593999997E+02  0.45594000000E+02  0.51100000000E-03 0.  1.
    9900012    2    1    2    0    0  0.29159970163E+00 -0.92735348703E+00  0.66941283827E+00  0.90007691386E+02  0.89999952112E+02 0.  0.
         12    1    1    2    0    0 -0.29159970163E+00  0.92735348703E+00 -0.66941283827E+00  0.11803086139E+01  0.00000000000E+00 0. -1.
         11    1    3    3    0    0  0.53519133140E+01  0.10769321249E+02  0.35101949729E+01  0.12527678368E+02  0.51100000000E-03 0. -1.
        -11    1    3    3    0    0 -0.67737152582E+01  0.14140796500E+02 -0.33716131864E+02  0.37183637425E+02  0.51100000000E-03 0.  1.
         12    1    3    3    0    0  0.17134016459E+01 -0.25837471236E+02  0.30875349729E+02  0.40296375593E+02  0.00000000000E+00 0. -1.
</event>
<event>
 7    1  0.1501154E-015  0.9000772E+02  0.7816164E-02  0.1186339E+00
        -11   -1    0    0    0    0  0.00000000000E+00  0.00000000000E+00  0.45593999997E+02  0.45594000000E+02  0.51100000000E-03 0.  1.
         11   -1    0    0    0    0 -0.00000000000E+00 -0.00000000000E+00 -0.45593999997E+02  0.45594000000E+02  0.51100000000E-03 0. -1.
    9900012    2    1    2    0    0 -0.19051067951E+00  0.43529780492E+00  0.10804122644E+01  0.90007716492E+02  0.89999977550E+02 0.  0.
         12    1    1    2    0    0  0.19051067951E+00 -0.43529780492E+00 -0.10804122644E+01  0.11802835079E+01  0.00000000000E+00 0. -1.
         11    1    3    3    0    0  0.92030542169E+01 -0.47837283977E+01 -0.41107735675E+02  0.42396063460E+02  0.51100000000E-03 0. -1.
        -11    1    3    3    0    0 -0.41511504355E+00 -0.64729354340E+01  0.74676021050E+01  0.98912231343E+01  0.51100000000E-03 0.  1.
        -12    1    3    3    0    0 -0.89784498529E+01  0.11691961637E+02  0.34720545834E+02  0.37720429898E+02  0.00000000000E+00 0.  1.
</event>
<event>
 7    1  0.1501154E-015  0.9000772E+02  0.7816164E-02  0.1186339E+00
        -11   -1    0    0    0    0  0.00000000000E+00  0.00000000000E+00  0.45593999997E+02  0.45594000000E+02  0.51100000000E-03 0. -1.
         11   -1    0    0    0    0 -0.00000000000E+00 -0.00000000000E+00 -0.45593999997E+02  0.45594000000E+02  0.51100000000E-03 0.  1.
    9900012    2    1    2    0    0 -0.78627840148E+00 -0.68129397651E-01 -0.87760666076E+00  0.90007716648E+02  0.89999977708E+02 0.  0.
         12    1    1    2    0    0  0.78627840148E+00  0.68129397651E-01  0.87760666076E+00  0.11802833518E+01  0.00000000000E+00 0. -1.
         11    1    3    3    0    0  0.29620423757E+02  0.23190994154E+02  0.15049517786E+02  0.40517646763E+02  0.51100000000E-03 0. -1.
        -11    1    3    3    0    0 -0.74372913487E+01  0.50010751096E+01 -0.84400778443E+01  0.12310928849E+02  0.51100000000E-03 0.  1.
        -12    1    3    3    0    0 -0.22969410810E+02 -0.28260198661E+02 -0.74870466025E+01  0.37179141035E+02  0.00000000000E+00 0.  1.
</event>
<event>
 7    1  0.1501154E-015  0.9000743E+02  0.7816164E-02  0.1186340E+00
        -11   -1    0    0    0    0  0.00000000000E+00  0.00000000000E+00  0.45593999997E+02  0.45594000000E+02  0.51100000000E-03 0. -1.
         11   -1    0    0    0    0 -0.00000000000E+00 -0.00000000000E+00 -0.45593999997E+02  0.45594000000E+02  0.51100000000E-03 0.  1.
    9900012    2    1    2    0    0  0.83503764405E-01  0.46380498101E+00 -0.10824275712E+01  0.90007433447E+02  0.89999690768E+02 0.  0.
         12    1    1    2    0    0 -0.83503764405E-01 -0.46380498101E+00  0.10824275712E+01  0.11805665529E+01  0.00000000000E+00 0. -1.
         11    1    3    3    0    0 -0.59046484495E+01 -0.43716663455E+01 -0.93650932960E+01  0.11902995953E+02  0.51100000000E-03 0. -1.
        -11    1    3    3    0    0 -0.11069265784E+02  0.24732272819E+02 -0.24226183165E+02  0.36347240814E+02  0.51100000000E-03 0.  1.
         12    1    3    3    0    0  0.17057417997E+02 -0.19896801493E+02  0.32508848890E+02  0.41757196680E+02  0.00000000000E+00 0. -1.
</event>
<event>
 7    1  0.1501154E-015  0.9000829E+02  0.7816164E-02  0.1186338E+00
        -11   -1    0    0    0    0  0.00000000000E+00  0.00000000000E+00  0.45593999997E+02  0.45594000000E+02  0.51100000000E-03 0.  1.
         11   -1    0    0    0    0 -0.00000000000E+00 -0.00000000000E+00 -0.45593999997E+02  0.45594000000E+02  0.51100000000E-03 0. -1.
    9900012    2    1    2    0    0 -0.73592514563E+00  0.82310315387E+00 -0.41549400575E+00  0.90008288217E+02  0.90000556820E+02 0.  0.
         12    1    1    2    0    0  0.73592514563E+00 -0.82310315387E+00  0.41549400575E+00  0.11797117829E+01  0.00000000000E+00 0. -1.
         11    1    3    3    0    0 -0.30905443298E+01 -0.85165355411E+01  0.89550982039E+00  0.91041078627E+01  0.51100000000E-03 0. -1.
        -11    1    3    3    0    0 -0.35847622459E+02  0.62696633916E+01  0.14857488700E+02  0.39307832372E+02  0.51100000000E-03 0.  1.
         12    1    3    3    0    0  0.38202241643E+02  0.30699753033E+01 -0.16168492527E+02  0.41596347983E+02  0.00000000000E+00 0. -1.
</event>
<event>
 7    1  0.1501154E-015  0.9000706E+02  0.7816164E-02  0.1186340E+00
        -11   -1    0    0    0    0  0.00000000000E+00  0.00000000000E+00  0.45593999997E+02  0.45594000000E+02  0.51100000000E-03 0.  1.
         11   -1    0    0    0    0 -0.00000000000E+00 -0.00000000000E+00 -0.45593999997E+02  0.45594000000E+02  0.51100000000E-03 0. -1.
    9900012    2    1    2    0    0  0.10443758057E+01  0.54774173823E+00  0.62253741779E-01  0.90007060813E+02  0.89999313213E+02 0.  0.
         12    1    1    2    0    0 -0.10443758057E+01 -0.54774173823E+00 -0.62253741779E-01  0.11809391871E+01  0.00000000000E+00 0. -1.
         11    1    3    3    0    0  0.15940462090E+00  0.23990175494E+02 -0.15459035180E+02  0.28540071812E+02  0.51100000000E-03 0. -1.
        -11    1    3    3    0    0 -0.26024524680E+01  0.12678289294E+02 -0.10620775822E+02  0.16742540357E+02  0.51100000000E-03 0.  1.
        -12    1    3    3    0    0  0.34874236528E+01 -0.36120723050E+02  0.26142064744E+02  0.44724448644E+02  0.00000000000E+00 0.  1.
</event>
<event>
 7    1  0.1501154E-015  0.9000768E+02  0.7816164E-02  0.1186339E+00
        -11   -1    0    0    0    0  0.00000000000E+00  0.00000000000E+00  0.45593999997E+02  0.45594000000E+02  0.51100000000E-03 0. -1.
         11   -1    0    0    0    0 -0.00000000000E+00 -0.00000000000E+00 -0.45593999997E+02  0.45594000000E+02  0.51100000000E-03 0.  1.
    9900012    2    1    2    0    0  0.10515544285E+01 -0.51499672440E+00 -0.14887232624E+00  0.90007681691E+02  0.89999942289E+02 0.  0.
         12    1    1    2    0    0 -0.10515544285E+01  0.51499672440E+00  0.14887232624E+00  0.11803183095E+01  0.00000000000E+00 0. -1.
         11    1    3    3    0    0 -0.74980643261E+01 -0.28364875273E+01  0.53141919006E+01  0.96180697621E+01  0.51100000000E-03 0. -1.
        -11    1    3    3    0    0 -0.12785775841E+02  0.35790691694E+02 -0.12644296316E+02  0.40054062283E+02  0.51100000000E-03 0.  1.
         12    1    3    3    0    0  0.21335394596E+02 -0.33469200891E+02  0.71812320893E+01  0.40335549645E+02  0.00000000000E+00 0. -1.
</event>
<event>
 7    1  0.1501154E-015  0.9000771E+02  0.7816164E-02  0.1186339E+00
        -11   -1    0    0    0    0  0.00000000000E+00  0.00000000000E+00  0.45593999997E+02  0.45594000000E+02  0.51100000000E-03 0. -1.
         11   -1    0    0    0    0 -0.00000000000E+00 -0.00000000000E+00 -0.45593999997E+02  0.45594000000E+02  0.51100000000E-03 0.  1.
    9900012    2    1    2    0    0 -0.11522733699E+01  0.25540160009E+00 -0.10784752570E-01  0.90007711812E+02  0.89999972808E+02 0.  0.
         12    1    1    2    0    0  0.11522733699E+01 -0.25540160009E+00  0.10784752570E-01  0.11802881882E+01  0.00000000000E+00 0. -1.
         11    1    3    3    0    0  0.26244519781E+02 -0.22443022723E+02  0.51805203877E+01  0.34918503393E+02  0.51100000000E-03 0. -1.
        -11    1    3    3    0    0  0.92266929570E+01 -0.34417305405E+01 -0.10558973014E+01  0.99041552597E+01  0.51100000000E-03 0.  1.
        -12    1    3    3    0    0 -0.36623486107E+02  0.26140154864E+02 -0.41354078389E+01  0.45185053159E+02  0.00000000000E+00 0.  1.
</event>
<event>
 7    1  0.1501154E-015  0.9000778E+02  0.7816164E-02  0.1186339E+00
        -11   -1    0    0    0    0  0.00000000000E+00  0.00000000000E+00  0.45593999997E+02  0.45594000000E+02  0.51100000000E-03 0.  1.
         11   -1    0    0    0    0 -0.00000000000E+00 -0.00000000000E+00 -0.45593999997E+02  0.45594000000E+02  0.51100000000E-03 0. -1.
    9900012    2    1    2    0    0 -0.14383826103E+00  0.50690327855E+00  0.10560705498E+01  0.90007777400E+02  0.90000039262E+02 0.  0.
         12    1    1    2    0    0  0.14383826103E+00 -0.50690327855E+00 -0.10560705498E+01  0.11802225999E+01  0.00000000000E+00 0. -1.
         11    1    3    3    0    0  0.13068083230E+01  0.70400150465E+01  0.33924418905E+01  0.79232709212E+01  0.51100000000E-03 0. -1.
        -11    1    3    3    0    0 -0.40598545590E+02 -0.10591696639E+02  0.42776205209E+01  0.42174921213E+02  0.51100000000E-03 0.  1.
         12    1    3    3    0    0  0.39147899006E+02  0.40585848707E+01 -0.66139918617E+01  0.39909585266E+02  0.00000000000E+00 0. -1.
</event>
<event>
 7    1  0.1501154E-015  0.9000860E+02  0.7816164E-02  0.1186337E+00
        -11   -1    0    0    0    0  0.00000000000E+00  0.00000000000E+00  0.45593999997E+02  0.45594000000E+02  0.51100000000E-03 0.  1.
         11   -1    0    0    0    0 -0.00000000000E+00 -0.00000000000E+00 -0.45593999997E+02  0.45594000000E+02  0.51100000000E-03 0. -1.
    9900012    2    1    2    0    0  0.68805596590E+00  0.95758432972E+00  0.24600995914E-01  0.90008595926E+02  0.90000868588E+02 0.  0.
         12    1    1    2    0    0 -0.68805596590E+00 -0.95758432972E+00 -0.24600995914E-01  0.11794040740E+01  0.00000000000E+00 0. -1.
         11    1    3    3    0    0  0.90929070720E+01  0.11363018729E+01  0.31475781964E+01  0.96891377186E+01  0.51100000000E-03 0. -1.
        -11    1    3    3    0    0 -0.17852802425E+02  0.39469494642E+01  0.35722201807E+02  0.40129498709E+02  0.51100000000E-03 0.  1.
         12    1    3    3    0    0  0.94479513185E+01 -0.41256670073E+01 -0.38845179007E+02  0.40189959498E+02  0.00000000000E+00 0. -1.
</event>
<event>
 7    1  0.1501154E-015  0.9000748E+02  0.7816164E-02  0.1186340E+00
        -11   -1    0    0    0    0  0.00000000000E+00  0.00000000000E+00  0.45593999997E+02  0.45594000000E+02  0.51100000000E-03 0. -1.
         11   -1    0    0    0    0 -0.00000000000E+00 -0.00000000000E+00 -0.45593999997E+02  0.45594000000E+02  0.51100000000E-03 0.  1.
    9900012    2    1    2    0    0  0.78605461601E-01 -0.94483366566E+00 -0.70337968393E+00  0.90007477889E+02  0.89999735797E+02 0.  0.
         12    1    1    2    0    0 -0.78605461601E-01  0.94483366566E+00  0.70337968393E+00  0.11805221108E+01  0.00000000000E+00 0. -1.
         11    1    3    3    0    0  0.51464451370E+01 -0.76975711003E+01 -0.27415053724E+01  0.96568292084E+01  0.51100000000E-03 0. -1.
        -11    1    3    3    0    0  0.24575757833E+02 -0.23251940810E+02  0.13837762425E+02  0.36552760411E+02  0.51100000000E-03 0.  1.
         12    1    3    3    0    0 -0.29643597508E+02  0.30004678244E+02 -0.11799636736E+02  0.43797888270E+02  0.00000000000E+00 0. -1.
</event>
<event>
 7    1  0.1501154E-015  0.9000772E+02  0.7816164E-02  0.1186339E+00
        -11   -1    0    0    0    0  0.00000000000E+00  0.00000000000E+00  0.45593999997E+02  0.45594000000E+02  0.51100000000E-03 0.  1.
         11   -1    0    0    0    0 -0.00000000000E+00 -0.00000000000E+00 -0.45593999997E+02  0.45594000000E+02  0.51100000000E-03 0. -1.
    9900012    2    1    2    0    0 -0.68114952091E+00 -0.43986323584E-01  0.96288813636E+00  0.90007723325E+02  0.89999984473E+02 0.  0.
         12    1    1    2    0    0  0.68114952091E+00  0.43986323584E-01 -0.96288813636E+00  0.11802766750E+01  0.00000000000E+00 0. -1.
         11    1    3    3    0    0  0.26883685812E+00  0.31926291389E+02 -0.18085767927E+02  0.36694077954E+02  0.51100000000E-03 0. -1.
        -11    1    3    3    0    0 -0.70114041520E+01  0.64398838723E+01 -0.98498248247E+00  0.95708977230E+01  0.51100000000E-03 0.  1.
        -12    1    3    3    0    0  0.60614177729E+01 -0.38410161585E+02  0.20033638546E+02  0.43742747648E+02  0.00000000000E+00 0.  1.
</event>
<event>
 7    1  0.1501154E-015  0.9000784E+02  0.7816164E-02  0.1186339E+00
        -11   -1    0    0    0    0  0.00000000000E+00  0.00000000000E+00  0.45593999997E+02  0.45594000000E+02  0.51100000000E-03 0. -1.
         11   -1    0    0    0    0 -0.00000000000E+00 -0.00000000000E+00 -0.45593999997E+02  0.45594000000E+02  0.51100000000E-03 0.  1.
    9900012    2    1    2    0    0  0.11560390343E+01 -0.23428110348E+00 -0.38300159748E-01  0.90007838661E+02  0.90000101331E+02 0.  0.
         12    1    1    2    0    0 -0.11560390343E+01  0.23428110348E+00  0.38300159748E-01  0.11801613392E+01  0.00000000000E+00 0. -1.
         11    1    3    3    0    0 -0.74661908510E+00  0.18288143309E+01  0.84100689242E+01  0.86389386782E+01  0.51100000000E-03 0. -1.
        -11    1    3    3    0    0 -0.25118323570E+02  0.17000226053E+02 -0.29384245085E+02  0.42229986080E+02  0.51100000000E-03 0.  1.
         12    1    3    3    0    0  0.27020981689E+02 -0.19063321488E+02  0.20935876001E+02  0.39138913903E+02  0.00000000000E+00 0. -1.
</event>
<event>
 7    1  0.1501154E-015  0.9000786E+02  0.7816164E-02  0.1186339E+00
        -11   -1    0    0    0    0  0.00000000000E+00  0.00000000000E+00  0.45593999997E+02  0.45594000000E+02  0.51100000000E-03 0. -1.
         11   -1    0    0    0    0 -0.00000000000E+00 -0.00000000000E+00 -0.45593999997E+02  0.45594000000E+02  0.51100000000E-03 0.  1.
    9900012    2    1    2    0    0 -0.25916489596E+00  0.11470486126E+01 -0.99186163358E-01  0.90007862356E+02  0.90000125339E+02 0.  0.
         12    1    1    2    0    0  0.25916489596E+00 -0.11470486126E+01  0.99186163358E-01  0.11801376436E+01  0.00000000000E+00 0. -1.
         11    1    3    3    0    0 -0.31181778687E+01  0.68234552868E+01 -0.27760869100E+01  0.79993271007E+01  0.51100000000E-03 0. -1.
        -11    1    3    3    0    0 -0.73893003273E+01  0.34924741832E+02 -0.11962199308E+02  0.37648818891E+02  0.51100000000E-03 0.  1.
         12    1    3    3    0    0  0.10248313300E+02 -0.40601148506E+02  0.14639100054E+02  0.44359716364E+02  0.00000000000E+00 0. -1.
</event>
<event>
 7    1  0.1501154E-015  0.9000780E+02  0.7816164E-02  0.1186339E+00
        -11   -1    0    0    0    0  0.00000000000E+00  0.00000000000E+00  0.45593999997E+02  0.45594000000E+02  0.51100000000E-03 0.  1.
         11   -1    0    0    0    0 -0.00000000000E+00 -0.00000000000E+00 -0.45593999997E+02  0.45594000000E+02  0.51100000000E-03 0. -1.
    9900012    2    1    2    0    0  0.63440590118E+00  0.46186252097E+00  0.88152757221E+00  0.90007797180E+02  0.90000059303E+02 0.  0.
         12    1    1    2    0    0 -0.63440590118E+00 -0.46186252097E+00 -0.88152757221E+00  0.11802028200E+01  0.00000000000E+00 0. -1.
         11    1    3    3    0    0 -0.10832942231E+02  0.89395173926E+01 -0.29243415238E+02  0.32441407856E+02  0.51100000000E-03 0. -1.
        -11    1    3    3    0    0 -0.87611496433E+01 -0.12321924235E+00 -0.91101903210E+01  0.12639956250E+02  0.51100000000E-03 0.  1.
        -12    1    3    3    0    0  0.20228497775E+02 -0.83544356292E+01  0.39235133132E+02  0.44926433074E+02  0.00000000000E+00 0.  1.
</event>
<event>
 7    1  0.1501154E-015  0.9000774E+02  0.7816164E-02  0.1186339E+00
        -11   -1    0    0    0    0  0.00000000000E+00  0.00000000000E+00  0.45593999997E+02  0.45594000000E+02  0.51100000000E-03 0.  1.
         11   -1    0    0    0    0 -0.00000000000E+00 -0.00000000000E+00 -0.45593999997E+02  0.45594000000E+02  0.51100000000E-03 0. -1.
    9900012    2    1    2    0    0  0.41875616505E+00  0.58131423650E+00  0.93793866722E+00  0.90007740744E+02  0.90000002122E+02 0.  0.
         12    1    1    2    0    0 -0.41875616505E+00 -0.58131423650E+00 -0.93793866722E+00  0.11802592558E+01  0.00000000000E+00 0. -1.
         11    1    3    3    0    0  0.85186067594E+01 -0.58166068980E+00 -0.15607727182E+01  0.86799194707E+01  0.51100000000E-03 0. -1.
        -11    1    3    3    0    0 -0.13226441870E+02  0.14031903137E+02  0.38332686053E+02  0.42909531464E+02  0.51100000000E-03 0.  1.
         12    1    3    3    0    0  0.51265912758E+01 -0.12868928211E+02 -0.35833974667E+02  0.38418289809E+02  0.00000000000E+00 0. -1.
</event>
<event>
 7    1  0.1501154E-015  0.9000782E+02  0.7816164E-02  0.1186339E+00
        -11   -1    0    0    0    0  0.00000000000E+00  0.00000000000E+00  0.45593999997E+02  0.45594000000E+02  0.51100000000E-03 0. -1.
         11   -1    0    0    0    0 -0.00000000000E+00 -0.00000000000E+00 -0.45593999997E+02  0.45594000000E+02  0.51100000000E-03 0.  1.
    9900012    2    1    2    0    0 -0.30735961238E+00  0.61597650541E+00 -0.95860977098E+00  0.90007817946E+02  0.90000080343E+02 0.  0.
         12    1    1    2    0    0  0.30735961238E+00 -0.61597650541E+00  0.95860977098E+00  0.11801820536E+01  0.00000000000E+00 0. -1.
         11    1    3    3    0    0  0.32251052504E+01 -0.66435179572E+01 -0.59074762021E+01  0.94570560992E+01  0.51100000000E-03 0. -1.
        -11    1    3    3    0    0  0.19385251180E+02 -0.21798637719E+02 -0.20485015112E+02  0.35645538489E+02  0.51100000000E-03 0.  1.
         12    1    3    3    0    0 -0.22917716043E+02  0.29058132182E+02  0.25433881543E+02  0.44905223359E+02  0.00000000000E+00 0. -1.
</event>
<event>
 7    1  0.1700115E-015  0.9000772E+02  0.7816164E-02  0.1186339E+00
        -11   -1    0    0    0    0  0.00000000000E+00  0.00000000000E+00  0.45593999997E+02  0.45594000000E+02  0.51100000000E-03 0. -1.
         11   -1    0    0    0    0 -0.00000000000E+00 -0.00000000000E+00 -0.45593999997E+02  0.45594000000E+02  0.51100000000E-03 0.  1.
    9900012    2    1    2    0    0 -0.12390832202E+00 -0.28475889414E+00 -0.11386959673E+01  0.90007716388E+02  0.89999977444E+02 0.  0.
         12    1    1    2    0    0  0.12390832202E+00  0.28475889414E+00  0.11386959673E+01  0.11802836125E+01  0.00000000000E+00 0. -1.
         11    1    3    3    0    0 -0.83831141104E+01  0.16326602374E+01 -0.45210907139E+01  0.96634591707E+01  0.51100000000E-03 0. -1.
        -11    1    3    3    0    0 -0.11980912147E+02  0.59132867587E+01 -0.34327213630E+02  0.36835673090E+02  0.51100000000E-03 0.  1.
         12    1    3    3    0    0  0.20240117935E+02 -0.78307058903E+01  0.37709608377E+02  0.43508584126E+02  0.00000000000E+00 0. -1.
</event>
<event>
 7    1  0.1501154E-015  0.9000767E+02  0.7816164E-02  0.1186339E+00
        -11   -1    0    0    0    0  0.00000000000E+00  0.00000000000E+00  0.45593999997E+02  0.45594000000E+02  0.51100000000E-03 0.  1.
         11   -1    0    0    0    0 -0.00000000000E+00 -0.00000000000E+00 -0.45593999997E+02  0.45594000000E+02  0.51100000000E-03 0. -1.
    9900012    2    1    2    0    0  0.72028170737E+00 -0.41184060046E-01  0.93417670021E+00  0.90007666161E+02  0.89999926554E+02 0.  0.
         12    1    1    2    0    0 -0.72028170737E+00  0.41184060046E-01 -0.93417670021E+00  0.11803338392E+01  0.00000000000E+00 0. -1.
         11    1    3    3    0    0 -0.35908547139E+02  0.17809324433E+02 -0.70148415644E+01  0.40691569112E+02  0.51100000000E-03 0. -1.
        -11    1    3    3    0    0 -0.89433764574E+00 -0.38160642798E+01  0.83806592356E+01  0.92518990427E+01  0.51100000000E-03 0.  1.
        -12    1    3    3    0    0  0.37523166492E+02 -0.14034444213E+02 -0.43164097099E+00  0.40064198006E+02  0.00000000000E+00 0.  1.
</event>
<event>
 7    1  0.1501154E-015  0.9000767E+02  0.7816164E-02  0.1186339E+00
        -11   -1    0    0    0    0  0.00000000000E+00  0.00000000000E+00  0.45593999997E+02  0.45594000000E+02  0.51100000000E-03 0.  1.
         11   -1    0    0    0    0 -0.00000000000E+00 -0.00000000000E+00 -0.45593999997E+02  0.45594000000E+02  0.51100000000E-03 0. -1.
    9900012    2    1    2    0    0  0.34898726596E+00  0.73362652279E+00 -0.85625531746E+00  0.90007672437E+02  0.89999932913E+02 0.  0.
         12    1    1    2    0    0 -0.34898726596E+00 -0.73362652279E+00  0.85625531746E+00  0.11803275628E+01  0.00000000000E+00 0. -1.
         11    1    3    3    0    0  0.27197542161E+01  0.99191049859E+01 -0.16094042053E+01  0.10410374099E+02  0.51100000000E-03 0. -1.
        -11    1    3    3    0    0  0.21117869785E+02 -0.98231938591E+01  0.32572211137E+02  0.40042583588E+02  0.51100000000E-03 0.  1.
         12    1    3    3    0    0 -0.23488636735E+02  0.63771539601E+00 -0.31819062249E+02  0.39554714750E+02  0.00000000000E+00 0. -1.
</event>
<event>
 7    1  0.1501154E-015  0.9000773E+02  0.7816164E-02  0.1186339E+00
        -11   -1    0    0    0    0  0.00000000000E+00  0.00000000000E+00  0.45593999997E+02  0.45594000000E+02  0.51100000000E-03 0. -1.
         11   -1    0    0    0    0 -0.00000000000E+00 -0.00000000000E+00 -0.45593999997E+02  0.45594000000E+02  0.51100000000E-03 0.  1.
    9900012    2    1    2    0    0 -0.64336612393E+00  0.98490295653E+00  0.95312796647E-01  0.90007729551E+02  0.89999990781E+02 0.  0.
         12    1    1    2    0    0  0.64336612393E+00 -0.98490295653E+00 -0.95312796647E-01  0.11802704488E+01  0.00000000000E+00 0. -1.
         11    1    3    3    0    0 -0.25226413877E+02  0.32759685792E+02 -0.32137950696E+01  0.41471646330E+02  0.51100000000E-03 0. -1.
        -11    1    3    3    0    0  0.66942390899E+01 -0.95318403487E+01 -0.11509399629E+02  0.16374831221E+02  0.51100000000E-03 0.  1.
        -12    1    3    3    0    0  0.17888808663E+02 -0.22242942487E+02  0.14818507495E+02  0.32161252001E+02  0.00000000000E+00 0.  1.
</event>
<event>
 7    1  0.1501154E-015  0.9000761E+02  0.7816164E-02  0.1186339E+00
        -11   -1    0    0    0    0  0.00000000000E+00  0.00000000000E+00  0.45593999997E+02  0.45594000000E+02  0.51100000000E-03 0.  1.
         11   -1    0    0    0    0 -0.00000000000E+00 -0.00000000000E+00 -0.45593999997E+02  0.45594000000E+02  0.51100000000E-03 0. -1.
    9900012    2    1    2    0    0  0.27393016260E+00  0.10528763838E+00  0.11433281749E+01  0.90007609160E+02  0.89999868800E+02 0.  0.
         12    1    1    2    0    0 -0.27393016260E+00 -0.10528763838E+00 -0.11433281749E+01  0.11803908404E+01  0.00000000000E+00 0. -1.
         11    1    3    3    0    0 -0.77310478279E+01 -0.33281432025E+01  0.71361513450E+01  0.11034957815E+02  0.51100000000E-03 0. -1.
        -11    1    3    3    0    0 -0.18115794237E+02 -0.45096949593E+01  0.29061264775E+02  0.34540938899E+02  0.51100000000E-03 0.  1.
         12    1    3    3    0    0  0.26120772227E+02  0.79431258002E+01 -0.35054087945E+02  0.44431712446E+02  0.00000000000E+00 0. -1.
</event>
<event>
 7    1  0.1501154E-015  0.9000776E+02  0.7816164E-02  0.1186339E+00
        -11   -1    0    0    0    0  0.00000000000E+00  0.00000000000E+00  0.45593999997E+02  0.45594000000E+02  0.51100000000E-03 0.  1.
         11   -1    0    0    0    0 -0.00000000000E+00 -0.00000000000E+00 -0.45593999997E+02  0.45594000000E+02  0.51100000000E-03 0. -1.
    9900012    2    1    2    0    0  0.19446403764E+00  0.10449245316E+01 -0.51310936039E+00  0.90007760722E+02  0.90000022363E+02 0.  0.
         12    1    1    2    0    0 -0.19446403764E+00 -0.10449245316E+01  0.51310936039E+00  0.11802392785E+01  0.00000000000E+00 0. -1.
         11    1    3    3    0    0  0.76642912754E+00 -0.68384157384E+01  0.58526505580E+01  0.90335409577E+01  0.51100000000E-03 0. -1.
        -11    1    3    3    0    0  0.22409677352E+01 -0.31482449882E+02  0.16237112306E+02  0.35493807957E+02  0.51100000000E-03 0.  1.
         12    1    3    3    0    0 -0.28129328251E+01  0.39365790152E+02 -0.22602872224E+02  0.45480411807E+02  0.00000000000E+00 0. -1.
</event>
<event>
 7    1  0.1501154E-015  0.9000771E+02  0.7816164E-02  0.1186339E+00
        -11   -1    0    0    0    0  0.00000000000E+00  0.00000000000E+00  0.45593999997E+02  0.45594000000E+02  0.51100000000E-03 0. -1.
         11   -1    0    0    0    0 -0.00000000000E+00 -0.00000000000E+00 -0.45593999997E+02  0.45594000000E+02  0.51100000000E-03 0.  1.
    9900012    2    1    2    0    0 -0.33728375165E+00 -0.10096022391E+01 -0.50992045838E+00  0.90007713643E+02  0.89999974663E+02 0.  0.
         12    1    1    2    0    0  0.33728375165E+00  0.10096022391E+01  0.50992045838E+00  0.11802863568E+01  0.00000000000E+00 0. -1.
         11    1    3    3    0    0 -0.75413723128E+01 -0.22237059323E+02 -0.27558643985E+02  0.36205496298E+02  0.51100000000E-03 0. -1.
        -11    1    3    3    0    0 -0.92311973261E+01  0.12636191691E+02 -0.52937021352E+01  0.16520037139E+02  0.51100000000E-03 0.  1.
        -12    1    3    3    0    0  0.16435285887E+02  0.85912653929E+01  0.32342425661E+02  0.37282180206E+02  0.00000000000E+00 0.  1.
</event>
<event>
 7    1  0.1510183E-015  0.9000784E+02  0.7816164E-02  0.1186339E+00
        -11   -1    0    0    0    0  0.00000000000E+00  0.00000000000E+00  0.45593999997E+02  0.45594000000E+02  0.51100000000E-03 0. -1.
         11   -1    0    0    0    0 -0.00000000000E+00 -0.00000000000E+00 -0.45593999997E+02  0.45594000000E+02  0.51100000000E-03 0.  1.
    9900012    2    1    2    0    0  0.79855024483E-01  0.55494897023E+00 -0.10384784951E+01  0.90007837821E+02  0.90000100480E+02 0.  0.
         12    1    1    2    0    0 -0.79855024483E-01 -0.55494897023E+00  0.10384784951E+01  0.11801621793E+01  0.00000000000E+00 0. -1.
         11    1    3    3    0    0 -0.71353188438E+01 -0.19875403943E+01 -0.54980850994E+01  0.92245342344E+01  0.51100000000E-03 0. -1.
        -11    1    3    3    0    0  0.18061428172E+02  0.26125469124E+02 -0.25797208748E+02  0.40917616059E+02  0.51100000000E-03 0.  1.
         12    1    3    3    0    0 -0.10846254303E+02 -0.23582979759E+02  0.30256815352E+02  0.39865687527E+02  0.00000000000E+00 0. -1.
</event>
<event>
 7    1  0.1823703E-015  0.9000770E+02  0.7816164E-02  0.1186339E+00
        -11   -1    0    0    0    0  0.00000000000E+00  0.00000000000E+00  0.45593999997E+02  0.45594000000E+02  0.51100000000E-03 0. -1.
         11   -1    0    0    0    0 -0.00000000000E+00 -0.00000000000E+00 -0.45593999997E+02  0.45594000000E+02  0.51100000000E-03 0.  1.
    9900012    2    1    2    0    0  0.20979476762E+00 -0.18123294552E+00 -0.11472800139E+01  0.90007698913E+02  0.89999959739E+02 0.  0.
         12    1    1    2    0    0 -0.20979476762E+00  0.18123294552E+00  0.11472800139E+01  0.11803010867E+01  0.00000000000E+00 0. -1.
         11    1    3    3    0    0 -0.21950715136E+01 -0.13361985824E+01 -0.91671438929E+01  0.95205195770E+01  0.51100000000E-03 0. -1.
        -11    1    3    3    0    0 -0.17073350739E+02  0.79399722952E+01 -0.31046442139E+02  0.36310109271E+02  0.51100000000E-03 0.  1.
         12    1    3    3    0    0  0.19478217020E+02 -0.67850066583E+01  0.39066306018E+02  0.44177070065E+02  0.00000000000E+00 0. -1.
</event>
<event>
 7    1  0.1501154E-015  0.9000778E+02  0.7816164E-02  0.1186339E+00
        -11   -1    0    0    0    0  0.00000000000E+00  0.00000000000E+00  0.45593999997E+02  0.45594000000E+02  0.51100000000E-03 0.  1.
         11   -1    0    0    0    0 -0.00000000000E+00 -0.00000000000E+00 -0.45593999997E+02  0.45594000000E+02  0.51100000000E-03 0. -1.
    9900012    2    1    2    0    0  0.42580028561E+00  0.90189633871E+00  0.63103667483E+00  0.90007775371E+02  0.90000037206E+02 0.  0.
         12    1    1    2    0    0 -0.42580028561E+00 -0.90189633871E+00 -0.63103667483E+00  0.11802246286E+01  0.00000000000E+00 0. -1.
         11    1    3    3    0    0 -0.11867898943E+02 -0.28711407029E+02  0.20078860599E+02  0.36991249805E+02  0.51100000000E-03 0. -1.
        -11    1    3    3    0    0 -0.77938351450E+01 -0.46062179185E+01 -0.69557377928E+01  0.11416803330E+02  0.51100000000E-03 0.  1.
        -12    1    3    3    0    0  0.20087534373E+02  0.34219521286E+02 -0.12492086131E+02  0.41599722237E+02  0.00000000000E+00 0.  1.
</event>
<event>
 7    1  0.1501154E-015  0.9000777E+02  0.7816164E-02  0.1186339E+00
        -11   -1    0    0    0    0  0.00000000000E+00  0.00000000000E+00  0.45593999997E+02  0.45594000000E+02  0.51100000000E-03 0.  1.
         11   -1    0    0    0    0 -0.00000000000E+00 -0.00000000000E+00 -0.45593999997E+02  0.45594000000E+02  0.51100000000E-03 0. -1.
    9900012    2    1    2    0    0  0.95987775447E+00 -0.68570721861E+00  0.37153123262E-01  0.90007771188E+02  0.90000032968E+02 0.  0.
         12    1    1    2    0    0 -0.95987775447E+00  0.68570721861E+00 -0.37153123262E-01  0.11802288116E+01  0.00000000000E+00 0. -1.
         11    1    3    3    0    0 -0.14866756983E+01 -0.10151648791E+02  0.74292200285E+00  0.10286793046E+02  0.51100000000E-03 0. -1.
        -11    1    3    3    0    0  0.34730440761E+02  0.12738878285E+02  0.19173350160E+02  0.41666532038E+02  0.51100000000E-03 0.  1.
         12    1    3    3    0    0 -0.32283887309E+02 -0.32729367127E+01 -0.19879119040E+02  0.38054446104E+02  0.00000000000E+00 0. -1.
</event>
<event>
 7    1  0.1501154E-015  0.9000773E+02  0.7816164E-02  0.1186339E+00
        -11   -1    0    0    0    0  0.00000000000E+00  0.00000000000E+00  0.45593999997E+02  0.45594000000E+02  0.51100000000E-03 0. -1.
         11   -1    0    0    0    0 -0.00000000000E+00 -0.00000000000E+00 -0.45593999997E+02  0.45594000000E+02  0.51100000000E-03 0.  1.
    9900012    2    1    2    0    0  0.67222468662E+00 -0.61159847435E+00 -0.75305998421E+00  0.90007729665E+02  0.89999990897E+02 0.  0.
         12    1    1    2    0    0 -0.67222468662E+00  0.61159847435E+00  0.75305998421E+00  0.11802703347E+01  0.00000000000E+00 0. -1.
         11    1    3    3    0    0  0.59402057601E+01  0.10024797368E+02  0.39673650531E+01  0.12309451347E+02  0.51100000000E-03 0. -1.
        -11    1    3    3    0    0  0.30852536592E+02 -0.22244430478E+02  0.54373118537E+01  0.38422103819E+02  0.51100000000E-03 0.  1.
         12    1    3    3    0    0 -0.36120517665E+02  0.11608034636E+02 -0.10157736891E+02  0.39276174499E+02  0.00000000000E+00 0. -1.
</event>
<event>
 7    1  0.1501154E-015  0.9000778E+02  0.7816164E-02  0.1186339E+00
        -11   -1    0    0    0    0  0.00000000000E+00  0.00000000000E+00  0.45593999997E+02  0.45594000000E+02  0.51100000000E-03 0.  1.
         11   -1    0    0    0    0 -0.00000000000E+00 -0.00000000000E+00 -0.45593999997E+02  0.45594000000E+02  0.51100000000E-03 0. -1.
    9900012    2    1    2    0    0 -0.38447444632E+00  0.11148220341E+01 -0.47708439927E-01  0.90007777621E+02  0.90000039486E+02 0.  0.
         12    1    1    2    0    0  0.38447444632E+00 -0.11148220341E+01  0.47708439927E-01  0.11802223785E+01  0.00000000000E+00 0. -1.
         11    1    3    3    0    0  0.13819887979E+02 -0.32207827520E+02 -0.10194256312E+02  0.36500086566E+02  0.51100000000E-03 0. -1.
        -11    1    3    3    0    0  0.88800900615E+01 -0.26729214498E+01 -0.97085376587E+00  0.93243265641E+01  0.51100000000E-03 0.  1.
        -12    1    3    3    0    0 -0.23084452487E+02  0.35995571004E+02  0.11117401638E+02  0.44183364491E+02  0.00000000000E+00 0.  1.
</event>
<event>
 7    1  0.1501154E-015  0.9000771E+02  0.7816164E-02  0.1186339E+00
        -11   -1    0    0    0    0  0.00000000000E+00  0.00000000000E+00  0.45593999997E+02  0.45594000000E+02  0.51100000000E-03 0.  1.
         11   -1    0    0    0    0 -0.00000000000E+00 -0.00000000000E+00 -0.45593999997E+02  0.45594000000E+02  0.51100000000E-03 0. -1.
    9900012    2    1    2    0    0  0.75434019762E+00 -0.71656278557E+00  0.55731338402E+00  0.90007707847E+02  0.89999968790E+02 0.  0.
         12    1    1    2    0    0 -0.75434019762E+00  0.71656278557E+00 -0.55731338402E+00  0.11802921534E+01  0.00000000000E+00 0. -1.
         11    1    3    3    0    0  0.82238650060E+01 -0.30131110332E+02 -0.26716750898E+02  0.41101101497E+02  0.51100000000E-03 0. -1.
        -11    1    3    3    0    0  0.74223390564E+01  0.76718861926E+01 -0.41273499345E+00  0.10682663772E+02  0.51100000000E-03 0.  1.
        -12    1    3    3    0    0 -0.14891863865E+02  0.21742661354E+02  0.27686799275E+02  0.38223942578E+02  0.00000000000E+00 0.  1.
</event>
<event>
 7    1  0.1501154E-015  0.9000767E+02  0.7816164E-02  0.1186339E+00
        -11   -1    0    0    0    0  0.00000000000E+00  0.00000000000E+00  0.45593999997E+02  0.45594000000E+02  0.51100000000E-03 0. -1.
         11   -1    0    0    0    0 -0.00000000000E+00 -0.00000000000E+00 -0.45593999997E+02  0.45594000000E+02  0.51100000000E-03 0.  1.
    9900012    2    1    2    0    0 -0.26421669498E-02  0.31810362309E+00 -0.11366581935E+01  0.90007665833E+02  0.89999926222E+02 0.  0.
         12    1    1    2    0    0  0.26421669498E-02 -0.31810362309E+00  0.11366581935E+01  0.11803341667E+01  0.00000000000E+00 0. -1.
         11    1    3    3    0    0 -0.26476160617E+01 -0.72154507328E+01 -0.70419340708E+01  0.10424079614E+02  0.51100000000E-03 0. -1.
        -11    1    3    3    0    0  0.37173354546E+02 -0.12620535485E+01 -0.12806909839E+02  0.39337869887E+02  0.51100000000E-03 0.  1.
         12    1    3    3    0    0 -0.34528380651E+02  0.87956079043E+01  0.18712185716E+02  0.40245716332E+02  0.00000000000E+00 0. -1.
</event>
<event>
 7    1  0.1501154E-015  0.9000750E+02  0.7816164E-02  0.1186340E+00
        -11   -1    0    0    0    0  0.00000000000E+00  0.00000000000E+00  0.45593999997E+02  0.45594000000E+02  0.51100000000E-03 0.  1.
         11   -1    0    0    0    0 -0.00000000000E+00 -0.00000000000E+00 -0.45593999997E+02  0.45594000000E+02  0.51100000000E-03 0. -1.
    9900012    2    1    2    0    0 -0.27886129446E+00  0.11450697957E+01  0.67979379167E-01  0.90007504488E+02  0.89999762747E+02 0.  0.
         12    1    1    2    0    0  0.27886129446E+00 -0.11450697957E+01 -0.67979379167E-01  0.11804955123E+01  0.00000000000E+00 0. -1.
         11    1    3    3    0    0 -0.72723933504E+01 -0.22556850485E+01 -0.68377233718E+01  0.10233781376E+02  0.51100000000E-03 0. -1.
        -11    1    3    3    0    0 -0.23207619154E+02 -0.17665208064E+02 -0.18948954393E+02  0.34780972321E+02  0.51100000000E-03 0.  1.
         12    1    3    3    0    0  0.30201151210E+02  0.21065962908E+02  0.25854657144E+02  0.44992750791E+02  0.00000000000E+00 0. -1.
</event>
<event>
 7    1  0.1501154E-015  0.9000773E+02  0.7816164E-02  0.1186339E+00
        -11   -1    0    0    0    0  0.00000000000E+00  0.00000000000E+00  0.45593999997E+02  0.45594000000E+02  0.51100000000E-03 0. -1.
         11   -1    0    0    0    0 -0.00000000000E+00 -0.00000000000E+00 -0.45593999997E+02  0.45594000000E+02  0.51100000000E-03 0.  1.
    9900012    2    1    2    0    0 -0.72901553464E+00 -0.69501378363E+00 -0.61524300454E+00  0.90007732334E+02  0.89999993601E+02 0.  0.
         12    1    1    2    0    0  0.72901553464E+00  0.69501378363E+00  0.61524300454E+00  0.11802676662E+01  0.00000000000E+00 0. -1.
         11    1    3    3    0    0 -0.17125580501E+01  0.36861022257E+02 -0.91854414988E+01  0.38026834640E+02  0.51100000000E-03 0. -1.
        -11    1    3    3    0    0  0.24189535939E+01  0.61247598539E+01  0.47306099604E+01  0.81081866417E+01  0.51100000000E-03 0.  1.
        -12    1    3    3    0    0 -0.14354110784E+01 -0.43680795895E+02  0.38395885339E+01  0.43872711052E+02  0.00000000000E+00 0.  1.
</event>
<event>
 7    1  0.1501154E-015  0.9000774E+02  0.7816164E-02  0.1186339E+00
        -11   -1    0    0    0    0  0.00000000000E+00  0.00000000000E+00  0.45593999997E+02  0.45594000000E+02  0.51100000000E-03 0.  1.
         11   -1    0    0    0    0 -0.00000000000E+00 -0.00000000000E+00 -0.45593999997E+02  0.45594000000E+02  0.51100000000E-03 0. -1.
    9900012    2    1    2    0    0  0.84659262074E+00  0.58939572636E+00  0.57350961524E+00  0.90007737459E+02  0.89999998793E+02 0.  0.
         12    1    1    2    0    0 -0.84659262074E+00 -0.58939572636E+00 -0.57350961524E+00  0.11802625414E+01  0.00000000000E+00 0. -1.
         11    1    3    3    0    0 -0.12588490913E+02 -0.34255426700E+02  0.11115331429E+02  0.38150425357E+02  0.51100000000E-03 0. -1.
        -11    1    3    3    0    0 -0.55361589408E+01 -0.32896283780E+01 -0.63744629044E+01  0.90611527006E+01  0.51100000000E-03 0.  1.
        -12    1    3    3    0    0  0.18971242475E+02  0.38134450805E+02 -0.41673589090E+01  0.42796159401E+02  0.00000000000E+00 0.  1.
</event>
<event>
 7    1  0.1501154E-015  0.9000772E+02  0.7816164E-02  0.1186339E+00
        -11   -1    0    0    0    0  0.00000000000E+00  0.00000000000E+00  0.45593999997E+02  0.45594000000E+02  0.51100000000E-03 0. -1.
         11   -1    0    0    0    0 -0.00000000000E+00 -0.00000000000E+00 -0.45593999997E+02  0.45594000000E+02  0.51100000000E-03 0.  1.
    9900012    2    1    2    0    0  0.97122356751E+00 -0.64835303996E+00 -0.17153297706E+00  0.90007720184E+02  0.89999981290E+02 0.  0.
         12    1    1    2    0    0 -0.97122356751E+00  0.64835303996E+00  0.17153297706E+00  0.11802798163E+01  0.00000000000E+00 0. -1.
         11    1    3    3    0    0 -0.39705839483E+02  0.50405813250E+01  0.13888283166E+02  0.42365617648E+02  0.51100000000E-03 0. -1.
        -11    1    3    3    0    0 -0.10705195895E+01 -0.27443521793E+01  0.10786001126E+01  0.31370144309E+01  0.51100000000E-03 0.  1.
        -12    1    3    3    0    0  0.41747582640E+02 -0.29445821856E+01 -0.15138416256E+02  0.44505088105E+02  0.00000000000E+00 0.  1.
</event>
<event>
 7    1  0.1501154E-015  0.9000776E+02  0.7816164E-02  0.1186339E+00
        -11   -1    0    0    0    0  0.00000000000E+00  0.00000000000E+00  0.45593999997E+02  0.45594000000E+02  0.51100000000E-03 0.  1.
         11   -1    0    0    0    0 -0.00000000000E+00 -0.00000000000E+00 -0.45593999997E+02  0.45594000000E+02  0.51100000000E-03 0. -1.
    9900012    2    1    2    0    0  0.24195273073E+00 -0.76403547200E+00  0.86642077057E+00  0.90007755840E+02  0.90000017417E+02 0.  0.
         12    1    1    2    0    0 -0.24195273073E+00  0.76403547200E+00 -0.86642077057E+00  0.11802441604E+01  0.00000000000E+00 0. -1.
         11    1    3    3    0    0  0.37419094682E+02 -0.15260041304E+02  0.14325007783E+02  0.42874973536E+02  0.51100000000E-03 0. -1.
        -11    1    3    3    0    0 -0.54423904468E+01  0.64943119792E+01  0.47157672373E+01  0.96971213644E+01  0.51100000000E-03 0.  1.
        -12    1    3    3    0    0 -0.31734751505E+02  0.80016938531E+01 -0.18174354249E+02  0.37435660939E+02  0.00000000000E+00 0.  1.
</event>
<event>
 7    1  0.1501154E-015  0.9000768E+02  0.7816164E-02  0.1186339E+00
        -11   -1    0    0    0    0  0.00000000000E+00  0.00000000000E+00  0.45593999997E+02  0.45594000000E+02  0.51100000000E-03 0. -1.
         11   -1    0    0    0    0 -0.00000000000E+00 -0.00000000000E+00 -0.45593999997E+02  0.45594000000E+02  0.51100000000E-03 0.  1.
    9900012    2    1    2    0    0 -0.17429135709E+00  0.10445498622E+01  0.52124697489E+00  0.90007677883E+02  0.89999938431E+02 0.  0.
         12    1    1    2    0    0  0.17429135709E+00 -0.10445498622E+01 -0.52124697489E+00  0.11803221173E+01  0.00000000000E+00 0. -1.
         11    1    3    3    0    0 -0.20613772342E+02 -0.50484921875E+01  0.18535412383E+02  0.28177586767E+02  0.51100000000E-03 0. -1.
        -11    1    3    3    0    0 -0.33811272835E+01 -0.12900541959E+02  0.12809079206E+02  0.18491309172E+02  0.51100000000E-03 0.  1.
        -12    1    3    3    0    0  0.23820608268E+02  0.18993584009E+02 -0.30823244614E+02  0.43338781943E+02  0.00000000000E+00 0.  1.
</event>
<event>
 7    1  0.1501154E-015  0.9000781E+02  0.7816164E-02  0.1186339E+00
        -11   -1    0    0    0    0  0.00000000000E+00  0.00000000000E+00  0.45593999997E+02  0.45594000000E+02  0.51100000000E-03 0.  1.
         11   -1    0    0    0    0 -0.00000000000E+00 -0.00000000000E+00 -0.45593999997E+02  0.45594000000E+02  0.51100000000E-03 0. -1.
    9900012    2    1    2    0    0  0.16460478769E+00  0.11282661097E+01 -0.30457790229E+00  0.90007810672E+02  0.90000072973E+02 0.  0.
         12    1    1    2    0    0 -0.16460478769E+00 -0.11282661097E+01  0.30457790229E+00  0.11801893276E+01  0.00000000000E+00 0. -1.
         11    1    3    3    0    0 -0.55718720722E+01  0.83327960036E+01  0.14482428250E+01  0.10128112123E+02  0.51100000000E-03 0. -1.
        -11    1    3    3    0    0 -0.81525755045E+01  0.31329827895E+02  0.14932002585E+02  0.35650908891E+02  0.51100000000E-03 0.  1.
         12    1    3    3    0    0  0.13889052364E+02 -0.38534357789E+02 -0.16684823312E+02  0.44228789659E+02  0.00000000000E+00 0. -1.
</event>
<event>
 7    1  0.1501154E-015  0.9000776E+02  0.7816164E-02  0.1186339E+00
        -11   -1    0    0    0    0  0.00000000000E+00  0.00000000000E+00  0.45593999997E+02  0.45594000000E+02  0.51100000000E-03 0. -1.
         11   -1    0    0    0    0 -0.00000000000E+00 -0.00000000000E+00 -0.45593999997E+02  0.45594000000E+02  0.51100000000E-03 0.  1.
    9900012    2    1    2    0    0  0.88364549377E+00  0.78106321905E+00  0.45547727211E-01  0.90007761166E+02  0.90000022813E+02 0.  0.
         12    1    1    2    0    0 -0.88364549377E+00 -0.78106321905E+00 -0.45547727211E-01  0.11802388344E+01  0.00000000000E+00 0. -1.
         11    1    3    3    0    0 -0.54204872953E+01  0.55026966709E+01 -0.36725832684E+01  0.85527318030E+01  0.51100000000E-03 0. -1.
        -11    1    3    3    0    0  0.21101777377E+01  0.30502526397E+02  0.25512841662E+02  0.39821628000E+02  0.51100000000E-03 0.  1.
         12    1    3    3    0    0  0.41939550513E+01 -0.35224159848E+02 -0.21794710666E+02  0.41633401363E+02  0.00000000000E+00 0. -1.
</event>
<event>
 7    1  0.1501154E-015  0.9000771E+02  0.7816164E-02  0.1186339E+00
        -11   -1    0    0    0    0  0.00000000000E+00  0.00000000000E+00  0.45593999997E+02  0.45594000000E+02  0.51100000000E-03 0.  1.
         11   -1    0    0    0    0 -0.00000000000E+00 -0.00000000000E+00 -0.45593999997E+02  0.45594000000E+02  0.51100000000E-03 0. -1.
    9900012    2    1    2    0    0 -0.69975084236E+00  0.73441493132E+00  0.60338572232E+00  0.90007707298E+02  0.89999968234E+02 0.  0.
         12    1    1    2    0    0  0.69975084236E+00 -0.73441493132E+00 -0.60338572232E+00  0.11802927021E+01  0.00000000000E+00 0. -1.
         11    1    3    3    0    0 -0.26850608038E+02  0.32107198598E+02 -0.13920483454E+02  0.44109037778E+02  0.51100000000E-03 0. -1.
        -11    1    3    3    0    0  0.93839849335E+00 -0.65251162452E+01  0.71777552384E+01  0.97456607918E+01  0.51100000000E-03 0.  1.
        -12    1    3    3    0    0  0.25212458702E+02 -0.24847667422E+02  0.73461139382E+01  0.36153008728E+02  0.00000000000E+00 0.  1.
</event>
<event>
 7    1  0.1501154E-015  0.9000754E+02  0.7816164E-02  0.1186339E+00
        -11   -1    0    0    0    0  0.00000000000E+00  0.00000000000E+00  0.45593999997E+02  0.45594000000E+02  0.51100000000E-03 0.  1.
         11   -1    0    0    0    0 -0.00000000000E+00 -0.00000000000E+00 -0.45593999997E+02  0.45594000000E+02  0.51100000000E-03 0. -1.
    9900012    2    1    2    0    0  0.11293256530E+01  0.35685836929E-01 -0.34181028152E+00  0.90007540692E+02  0.89999799429E+02 0.  0.
         12    1    1    2    0    0 -0.11293256530E+01 -0.35685836929E-01  0.34181028152E+00  0.11804593081E+01  0.00000000000E+00 0. -1.
         11    1    3    3    0    0  0.51184482225E+01 -0.38336114828E+01 -0.78646210610E+01  0.10136436943E+02  0.51100000000E-03 0. -1.
        -11    1    3    3    0    0  0.29357325975E+02 -0.15517394826E+02  0.20676889595E+02  0.39117462778E+02  0.51100000000E-03 0.  1.
         12    1    3    3    0    0 -0.33346448544E+02  0.19386692146E+02 -0.13154078816E+02  0.40753640971E+02  0.00000000000E+00 0. -1.
</event>
<event>
 7    1  0.1501154E-015  0.9000888E+02  0.7816164E-02  0.1186337E+00
        -11   -1    0    0    0    0  0.00000000000E+00  0.00000000000E+00  0.45593999997E+02  0.45594000000E+02  0.51100000000E-03 0. -1.
         11   -1    0    0    0    0 -0.00000000000E+00 -0.00000000000E+00 -0.45593999997E+02  0.45594000000E+02  0.51100000000E-03 0.  1.
    9900012    2    1    2    0    0  0.63504787208E+00 -0.86151285643E+00 -0.49481370750E+00  0.90008877103E+02  0.90001153473E+02 0.  0.
         12    1    1    2    0    0 -0.63504787208E+00  0.86151285643E+00  0.49481370750E+00  0.11791228972E+01  0.00000000000E+00 0. -1.
         11    1    3    3    0    0 -0.39191688279E+01  0.86273318939E+01 -0.26882062681E+01  0.98497306111E+01  0.51100000000E-03 0. -1.
        -11    1    3    3    0    0 -0.52790476481E+01  0.28521699321E+02 -0.19835273396E+02  0.35139632143E+02  0.51100000000E-03 0.  1.
         12    1    3    3    0    0  0.98332643481E+01 -0.38010544071E+02  0.22028665957E+02  0.45019514348E+02  0.00000000000E+00 0. -1.
</event>
<event>
 7    1  0.1501154E-015  0.9000789E+02  0.7816164E-02  0.1186339E+00
        -11   -1    0    0    0    0  0.00000000000E+00  0.00000000000E+00  0.45593999997E+02  0.45594000000E+02  0.51100000000E-03 0. -1.
         11   -1    0    0    0    0 -0.00000000000E+00 -0.00000000000E+00 -0.45593999997E+02  0.45594000000E+02  0.51100000000E-03 0.  1.
    9900012    2    1    2    0    0  0.14661547495E+00  0.37673086523E+00 -0.11087086102E+01  0.90007891096E+02  0.90000154459E+02 0.  0.
         12    1    1    2    0    0 -0.14661547495E+00 -0.37673086523E+00  0.11087086102E+01  0.11801089037E+01  0.00000000000E+00 0. -1.
         11    1    3    3    0    0  0.55150779395E+01  0.23615583713E+01 -0.64659854478E+01  0.88205448069E+01  0.51100000000E-03 0. -1.
        -11    1    3    3    0    0  0.32932178079E+02 -0.19402101177E+01 -0.16714612961E+02  0.36982036924E+02  0.51100000000E-03 0.  1.
         12    1    3    3    0    0 -0.38300640544E+02 -0.44617388294E-01  0.22071889799E+02  0.44205309365E+02  0.00000000000E+00 0. -1.
</event>
<event>
 7    1  0.1501154E-015  0.9000767E+02  0.7816164E-02  0.1186339E+00
        -11   -1    0    0    0    0  0.00000000000E+00  0.00000000000E+00  0.45593999997E+02  0.45594000000E+02  0.51100000000E-03 0.  1.
         11   -1    0    0    0    0 -0.00000000000E+00 -0.00000000000E+00 -0.45593999997E+02  0.45594000000E+02  0.51100000000E-03 0. -1.
    9900012    2    1    2    0    0 -0.10500077839E+01  0.22077931899E+00  0.49185586893E+00  0.90007668669E+02  0.89999929096E+02 0.  0.
         12    1    1    2    0    0  0.10500077839E+01 -0.22077931899E+00 -0.49185586893E+00  0.11803313305E+01  0.00000000000E+00 0. -1.
         11    1    3    3    0    0  0.10424821969E+02 -0.15617255206E+01  0.69739217702E+01  0.12639283398E+02  0.51100000000E-03 0. -1.
        -11    1    3    3    0    0  0.21548383997E+02  0.20551926127E+02  0.15407859135E+02  0.33527848780E+02  0.51100000000E-03 0.  1.
         12    1    3    3    0    0 -0.33023213750E+02 -0.18769421287E+02 -0.21889925036E+02  0.43840536492E+02  0.00000000000E+00 0. -1.
</event>
<event>
 7    1  0.1501154E-015  0.9000778E+02  0.7816164E-02  0.1186339E+00
        -11   -1    0    0    0    0  0.00000000000E+00  0.00000000000E+00  0.45593999997E+02  0.45594000000E+02  0.51100000000E-03 0.  1.
         11   -1    0    0    0    0 -0.00000000000E+00 -0.00000000000E+00 -0.45593999997E+02  0.45594000000E+02  0.51100000000E-03 0. -1.
    9900012    2    1    2    0    0 -0.23722487891E+00  0.11411947086E+01  0.18526326998E+00  0.90007778205E+02  0.90000040077E+02 0.  0.
         12    1    1    2    0    0  0.23722487891E+00 -0.11411947086E+01 -0.18526326998E+00  0.11802217949E+01  0.00000000000E+00 0. -1.
         11    1    3    3    0    0 -0.40661060574E+01 -0.66554750670E+01 -0.23819301278E+01  0.81548855438E+01  0.51100000000E-03 0. -1.
        -11    1    3    3    0    0 -0.21918916482E+02 -0.23569771290E+02 -0.17440401248E+02  0.36607931031E+02  0.51100000000E-03 0.  1.
         12    1    3    3    0    0  0.25747797660E+02  0.31366441065E+02  0.20007594646E+02  0.45244961631E+02  0.00000000000E+00 0. -1.
</event>
<event>
 7    1  0.1501154E-015  0.9000774E+02  0.7816164E-02  0.1186339E+00
        -11   -1    0    0    0    0  0.00000000000E+00  0.00000000000E+00  0.45593999997E+02  0.45594000000E+02  0.51100000000E-03 0.  1.
         11   -1    0    0    0    0 -0.00000000000E+00 -0.00000000000E+00 -0.45593999997E+02  0.45594000000E+02  0.51100000000E-03 0. -1.
    9900012    2    1    2    0    0  0.22747049897E+00 -0.10663740766E+01  0.45179993054E+00  0.90007737454E+02  0.89999998789E+02 0.  0.
         12    1    1    2    0    0 -0.22747049897E+00  0.10663740766E+01 -0.45179993054E+00  0.11802625456E+01  0.00000000000E+00 0. -1.
         11    1    3    3    0    0  0.25014401824E+01 -0.14534761801E+02 -0.49316008229E+01  0.15551115411E+02  0.51100000000E-03 0. -1.
        -11    1    3    3    0    0  0.10513188441E+02 -0.28410385037E+02 -0.35124994129E+00  0.30295222163E+02  0.51100000000E-03 0.  1.
         12    1    3    3    0    0 -0.12787158124E+02  0.41878772761E+02  0.57346506948E+01  0.44161399881E+02  0.00000000000E+00 0. -1.
</event>
<event>
 7    1  0.1501154E-015  0.9000768E+02  0.7816164E-02  0.1186339E+00
        -11   -1    0    0    0    0  0.00000000000E+00  0.00000000000E+00  0.45593999997E+02  0.45594000000E+02  0.51100000000E-03 0. -1.
         11   -1    0    0    0    0 -0.00000000000E+00 -0.00000000000E+00 -0.45593999997E+02  0.45594000000E+02  0.51100000000E-03 0.  1.
    9900012    2    1    2    0    0  0.20112339512E+00  0.50509623276E+00 -0.10476612146E+01  0.90007675110E+02  0.89999935622E+02 0.  0.
         12    1    1    2    0    0 -0.20112339512E+00 -0.50509623276E+00  0.10476612146E+01  0.11803248896E+01  0.00000000000E+00 0. -1.
         11    1    3    3    0    0 -0.12278983839E+01 -0.23090112006E+02 -0.28815695813E+02  0.36945978568E+02  0.51100000000E-03 0. -1.
        -11    1    3    3    0    0  0.44368453575E+01  0.40384403633E+01 -0.92860256103E+01  0.11055535681E+02  0.51100000000E-03 0.  1.
        -12    1    3    3    0    0 -0.30078235785E+01  0.19556767876E+02  0.37054060208E+02  0.42006160862E+02  0.00000000000E+00 0.  1.
</event>
<event>
 7    1  0.1501154E-015  0.9000777E+02  0.7816164E-02  0.1186339E+00
        -11   -1    0    0    0    0  0.00000000000E+00  0.00000000000E+00  0.45593999997E+02  0.45594000000E+02  0.51100000000E-03 0.  1.
         11   -1    0    0    0    0 -0.00000000000E+00 -0.00000000000E+00 -0.45593999997E+02  0.45594000000E+02  0.51100000000E-03 0. -1.
    9900012    2    1    2    0    0  0.83787267442E+00  0.82572759438E+00  0.95329383150E-01  0.90007769357E+02  0.90000031113E+02 0.  0.
         12    1    1    2    0    0 -0.83787267442E+00 -0.82572759438E+00 -0.95329383150E-01  0.11802306427E+01  0.00000000000E+00 0. -1.
         11    1    3    3    0    0 -0.19776107319E+02 -0.26070777842E+02  0.17709783707E+02  0.37207745393E+02  0.51100000000E-03 0. -1.
        -11    1    3    3    0    0  0.69840017021E+01 -0.54377804384E+01  0.58301952169E+01  0.10598910906E+02  0.51100000000E-03 0.  1.
        -12    1    3    3    0    0  0.13629978291E+02  0.32334285875E+02 -0.23444649541E+02  0.42201113058E+02  0.00000000000E+00 0.  1.
</event>
<event>
 7    1  0.1501154E-015  0.9000773E+02  0.7816164E-02  0.1186339E+00
        -11   -1    0    0    0    0  0.00000000000E+00  0.00000000000E+00  0.45593999997E+02  0.45594000000E+02  0.51100000000E-03 0.  1.
         11   -1    0    0    0    0 -0.00000000000E+00 -0.00000000000E+00 -0.45593999997E+02  0.45594000000E+02  0.51100000000E-03 0. -1.
    9900012    2    1    2    0    0 -0.85063129891E+00 -0.69314178259E+00  0.43476909828E+00  0.90007727444E+02  0.89999988646E+02 0.  0.
         12    1    1    2    0    0  0.85063129891E+00  0.69314178259E+00 -0.43476909828E+00  0.11802725559E+01  0.00000000000E+00 0. -1.
         11    1    3    3    0    0 -0.16937587390E+02  0.23522945984E+02 -0.19961916089E+02  0.35195013121E+02  0.51100000000E-03 0. -1.
        -11    1    3    3    0    0 -0.58786899074E+01  0.69520449657E+01 -0.35658383627E+01  0.97777874656E+01  0.51100000000E-03 0.  1.
        -12    1    3    3    0    0  0.21965645999E+02 -0.31168132733E+02  0.23962523550E+02  0.45034926857E+02  0.00000000000E+00 0.  1.
</event>
<event>
 7    1  0.1501154E-015  0.9000746E+02  0.7816164E-02  0.1186340E+00
        -11   -1    0    0    0    0  0.00000000000E+00  0.00000000000E+00  0.45593999997E+02  0.45594000000E+02  0.51100000000E-03 0. -1.
         11   -1    0    0    0    0 -0.00000000000E+00 -0.00000000000E+00 -0.45593999997E+02  0.45594000000E+02  0.51100000000E-03 0.  1.
    9900012    2    1    2    0    0 -0.34188295723E+00 -0.37501254651E+00 -0.10659024392E+01  0.90007463522E+02  0.89999721240E+02 0.  0.
         12    1    1    2    0    0  0.34188295723E+00  0.37501254651E+00  0.10659024392E+01  0.11805364782E+01  0.00000000000E+00 0. -1.
         11    1    3    3    0    0 -0.85969821838E+01  0.20229839618E+02  0.13204353121E+02  0.25641947181E+02  0.51100000000E-03 0. -1.
        -11    1    3    3    0    0 -0.13734791142E+01 -0.29003902614E+01  0.22342907936E+02  0.22572200687E+02  0.51100000000E-03 0.  1.
        -12    1    3    3    0    0  0.96285783408E+01 -0.17704461903E+02 -0.36613163496E+02  0.41793315654E+02  0.00000000000E+00 0.  1.
</event>
<event>
 7    1  0.1501154E-015  0.9000777E+02  0.7816164E-02  0.1186339E+00
        -11   -1    0    0    0    0  0.00000000000E+00  0.00000000000E+00  0.45593999997E+02  0.45594000000E+02  0.51100000000E-03 0. -1.
         11   -1    0    0    0    0 -0.00000000000E+00 -0.00000000000E+00 -0.45593999997E+02  0.45594000000E+02  0.51100000000E-03 0.  1.
    9900012    2    1    2    0    0 -0.32567320202E+00  0.82342605476E+00 -0.78029150352E+00  0.90007767679E+02  0.90000029412E+02 0.  0.
         12    1    1    2    0    0  0.32567320202E+00 -0.82342605476E+00  0.78029150352E+00  0.11802323215E+01  0.00000000000E+00 0. -1.
         11    1    3    3    0    0 -0.98439854105E+01  0.65992564120E+01  0.38014110807E+02  0.39818674698E+02  0.51100000000E-03 0. -1.
        -11    1    3    3    0    0 -0.10121009047E+02  0.12808533990E+01 -0.78817814600E+01  0.12891776015E+02  0.51100000000E-03 0.  1.
        -12    1    3    3    0    0  0.19639321256E+02 -0.70566837562E+01 -0.30912620851E+02  0.37297316966E+02  0.00000000000E+00 0.  1.
</event>
<event>
 7    1  0.1501154E-015  0.9000766E+02  0.7816164E-02  0.1186339E+00
        -11   -1    0    0    0    0  0.00000000000E+00  0.00000000000E+00  0.45593999997E+02  0.45594000000E+02  0.51100000000E-03 0. -1.
         11   -1    0    0    0    0 -0.00000000000E+00 -0.00000000000E+00 -0.45593999997E+02  0.45594000000E+02  0.51100000000E-03 0.  1.
    9900012    2    1    2    0    0 -0.32215339733E-01  0.83261090005E+00 -0.83601808550E+00  0.90007658957E+02  0.89999919255E+02 0.  0.
         12    1    1    2    0    0  0.32215339733E-01 -0.83261090005E+00  0.83601808550E+00  0.11803410432E+01  0.00000000000E+00 0. -1.
         11    1    3    3    0    0 -0.97671406631E+01 -0.67845970854E+01  0.42314112759E+02  0.43953520145E+02  0.51100000000E-03 0. -1.
        -11    1    3    3    0    0  0.41416584348E+01 -0.19025585515E+01 -0.79600385478E+01  0.91725284179E+01  0.51100000000E-03 0.  1.
        -12    1    3    3    0    0  0.55932668886E+01  0.95197665370E+01 -0.35190092296E+02  0.36881610394E+02  0.00000000000E+00 0.  1.
</event>
<event>
 7    1  0.1501154E-015  0.9000783E+02  0.7816164E-02  0.1186339E+00
        -11   -1    0    0    0    0  0.00000000000E+00  0.00000000000E+00  0.45593999997E+02  0.45594000000E+02  0.51100000000E-03 0. -1.
         11   -1    0    0    0    0 -0.00000000000E+00 -0.00000000000E+00 -0.45593999997E+02  0.45594000000E+02  0.51100000000E-03 0.  1.
    9900012    2    1    2    0    0 -0.11369771675E+00  0.39772403020E+00 -0.11053030941E+01  0.90007827765E+02  0.90000090291E+02 0.  0.
         12    1    1    2    0    0  0.11369771675E+00 -0.39772403020E+00  0.11053030941E+01  0.11801722352E+01  0.00000000000E+00 0. -1.
         11    1    3    3    0    0  0.34854945497E+01 -0.83836593862E+01  0.22691594238E+01  0.93586057568E+01  0.51100000000E-03 0. -1.
        -11    1    3    3    0    0  0.27498528424E+02 -0.20223411432E+02 -0.13876168438E+02  0.36847028187E+02  0.51100000000E-03 0.  1.
         12    1    3    3    0    0 -0.31097720690E+02  0.29004794848E+02  0.10501705920E+02  0.43802193821E+02  0.00000000000E+00 0. -1.
</event>
<event>
 7    1  0.1501154E-015  0.9000773E+02  0.7816164E-02  0.1186339E+00
        -11   -1    0    0    0    0  0.00000000000E+00  0.00000000000E+00  0.45593999997E+02  0.45594000000E+02  0.51100000000E-03 0. -1.
         11   -1    0    0    0    0 -0.00000000000E+00 -0.00000000000E+00 -0.45593999997E+02  0.45594000000E+02  0.51100000000E-03 0.  1.
    9900012    2    1    2    0    0  0.24969537681E+00  0.99940383697E+00 -0.57608496668E+00  0.90007733208E+02  0.89999994487E+02 0.  0.
         12    1    1    2    0    0 -0.24969537681E+00 -0.99940383697E+00  0.57608496668E+00  0.11802667916E+01  0.00000000000E+00 0. -1.
         11    1    3    3    0    0 -0.55354536006E+01  0.70939916982E+01 -0.40854745760E+01  0.98821590531E+01  0.51100000000E-03 0. -1.
        -11    1    3    3    0    0 -0.78547034826E+01  0.21046930782E+02  0.31586802002E+02  0.38760749775E+02  0.51100000000E-03 0.  1.
         12    1    3    3    0    0  0.13639852460E+02 -0.27141518643E+02 -0.28077412393E+02  0.41364824381E+02  0.00000000000E+00 0. -1.
</event>
<event>
 7    1  0.1501154E-015  0.9000793E+02  0.7816164E-02  0.1186339E+00
        -11   -1    0    0    0    0  0.00000000000E+00  0.00000000000E+00  0.45593999997E+02  0.45594000000E+02  0.51100000000E-03 0.  1.
         11   -1    0    0    0    0 -0.00000000000E+00 -0.00000000000E+00 -0.45593999997E+02  0.45594000000E+02  0.51100000000E-03 0. -1.
    9900012    2    1    2    0    0  0.58709370486E-01  0.78162728025E+00  0.88214732440E+00  0.90007927164E+02  0.90000191003E+02 0.  0.
         12    1    1    2    0    0 -0.58709370486E-01 -0.78162728025E+00 -0.88214732440E+00  0.11800728356E+01  0.00000000000E+00 0. -1.
         11    1    3    3    0    0 -0.19662472708E+01  0.69077066068E+01 -0.60068442168E+01  0.93629438000E+01  0.51100000000E-03 0. -1.
        -11    1    3    3    0    0 -0.44443214565E+01  0.36701007033E+02  0.15176831660E+01  0.37000260444E+02  0.51100000000E-03 0.  1.
         12    1    3    3    0    0  0.64692780978E+01 -0.42827086360E+02  0.53713083752E+01  0.43644722921E+02  0.00000000000E+00 0. -1.
</event>
<event>
 7    1  0.1501154E-015  0.9000776E+02  0.7816164E-02  0.1186339E+00
        -11   -1    0    0    0    0  0.00000000000E+00  0.00000000000E+00  0.45593999997E+02  0.45594000000E+02  0.51100000000E-03 0.  1.
         11   -1    0    0    0    0 -0.00000000000E+00 -0.00000000000E+00 -0.45593999997E+02  0.45594000000E+02  0.51100000000E-03 0. -1.
    9900012    2    1    2    0    0 -0.72121799397E+00  0.57945470549E+00  0.73282803011E+00  0.90007762705E+02  0.90000024373E+02 0.  0.
         12    1    1    2    0    0  0.72121799397E+00 -0.57945470549E+00 -0.73282803011E+00  0.11802372949E+01  0.00000000000E+00 0. -1.
         11    1    3    3    0    0 -0.30001195684E+01 -0.76976567150E+01 -0.67305691300E+01  0.10656228104E+02  0.51100000000E-03 0. -1.
        -11    1    3    3    0    0  0.11086358241E+02 -0.33910621602E+02  0.63654711380E+01  0.36240265169E+02  0.51100000000E-03 0.  1.
         12    1    3    3    0    0 -0.88074566669E+01  0.42187733022E+02  0.10979260221E+01  0.43111269432E+02  0.00000000000E+00 0. -1.
</event>
<event>
 7    1  0.1501154E-015  0.9000778E+02  0.7816164E-02  0.1186339E+00
        -11   -1    0    0    0    0  0.00000000000E+00  0.00000000000E+00  0.45593999997E+02  0.45594000000E+02  0.51100000000E-03 0.  1.
         11   -1    0    0    0    0 -0.00000000000E+00 -0.00000000000E+00 -0.45593999997E+02  0.45594000000E+02  0.51100000000E-03 0. -1.
    9900012    2    1    2    0    0 -0.96416110907E+00  0.67945705294E+00  0.40758600081E-01  0.90007775532E+02  0.90000037369E+02 0.  0.
         12    1    1    2    0    0  0.96416110907E+00 -0.67945705294E+00 -0.40758600081E-01  0.11802244679E+01  0.00000000000E+00 0. -1.
         11    1    3    3    0    0  0.13932522833E+02  0.11995320552E+02 -0.33799787725E+02  0.38476337639E+02  0.51100000000E-03 0. -1.
        -11    1    3    3    0    0 -0.64294793220E+00  0.77803861985E+01 -0.23920299558E+01  0.81651453761E+01  0.51100000000E-03 0.  1.
        -12    1    3    3    0    0 -0.14253736009E+02 -0.19096249698E+02  0.36232576280E+02  0.43366292517E+02  0.00000000000E+00 0.  1.
</event>
<event>
 7    1  0.1501154E-015  0.9000774E+02  0.7816164E-02  0.1186339E+00
        -11   -1    0    0    0    0  0.00000000000E+00  0.00000000000E+00  0.45593999997E+02  0.45594000000E+02  0.51100000000E-03 0. -1.
         11   -1    0    0    0    0 -0.00000000000E+00 -0.00000000000E+00 -0.45593999997E+02  0.45594000000E+02  0.51100000000E-03 0.  1.
    9900012    2    1    2    0    0 -0.69290870098E+00  0.72658451239E+00 -0.62046237876E+00  0.90007736858E+02  0.89999998184E+02 0.  0.
         12    1    1    2    0    0  0.69290870098E+00 -0.72658451239E+00  0.62046237876E+00  0.11802631423E+01  0.00000000000E+00 0. -1.
         11    1    3    3    0    0  0.99752743537E+01 -0.58731723072E+01  0.29868143922E+01  0.11954970174E+02  0.51100000000E-03 0. -1.
        -11    1    3    3    0    0  0.61149072872E+01  0.63525286386E+01 -0.38412570092E+02  0.39411575109E+02  0.51100000000E-03 0.  1.
         12    1    3    3    0    0 -0.16783090342E+02  0.24722818100E+00  0.34805293321E+02  0.38641191575E+02  0.00000000000E+00 0. -1.
</event>
<event>
 7    1  0.1501154E-015  0.9000767E+02  0.7816164E-02  0.1186339E+00
        -11   -1    0    0    0    0  0.00000000000E+00  0.00000000000E+00  0.45593999997E+02  0.45594000000E+02  0.51100000000E-03 0. -1.
         11   -1    0    0    0    0 -0.00000000000E+00 -0.00000000000E+00 -0.45593999997E+02  0.45594000000E+02  0.51100000000E-03 0.  1.
    9900012    2    1    2    0    0  0.10528157437E+01  0.47625152945E+00  0.24072782390E+00  0.90007666829E+02  0.89999927231E+02 0.  0.
         12    1    1    2    0    0 -0.10528157437E+01 -0.47625152945E+00 -0.24072782390E+00  0.11803331711E+01  0.00000000000E+00 0. -1.
         11    1    3    3    0    0 -0.26154016328E+01 -0.15345107519E+01 -0.81894443248E+01  0.87328144123E+01  0.51100000000E-03 0. -1.
        -11    1    3    3    0    0 -0.34416225364E+02 -0.11093832596E+02  0.17219894236E+02  0.40050898214E+02  0.51100000000E-03 0.  1.
         12    1    3    3    0    0  0.38084442740E+02  0.13104594878E+02 -0.87897220874E+01  0.41223954203E+02  0.00000000000E+00 0. -1.
</event>
<event>
 7    1  0.1501154E-015  0.9000770E+02  0.7816164E-02  0.1186339E+00
        -11   -1    0    0    0    0  0.00000000000E+00  0.00000000000E+00  0.45593999997E+02  0.45594000000E+02  0.51100000000E-03 0. -1.
         11   -1    0    0    0    0 -0.00000000000E+00 -0.00000000000E+00 -0.45593999997E+02  0.45594000000E+02  0.51100000000E-03 0.  1.
    9900012    2    1    2    0    0  0.92307712335E+00  0.73271512703E+00  0.64568416429E-01  0.90007698380E+02  0.89999959199E+02 0.  0.
         12    1    1    2    0    0 -0.92307712335E+00 -0.73271512703E+00 -0.64568416429E-01  0.11803016197E+01  0.00000000000E+00 0. -1.
         11    1    3    3    0    0  0.91282196186E+01 -0.96483003527E+00  0.92184518177E+00  0.92252419590E+01  0.51100000000E-03 0. -1.
        -11    1    3    3    0    0  0.34273674993E+01 -0.36991498503E+02 -0.11707133467E+02  0.38950927894E+02  0.51100000000E-03 0.  1.
         12    1    3    3    0    0 -0.11632509995E+02  0.38689043666E+02  0.10849856702E+02  0.41831528528E+02  0.00000000000E+00 0. -1.
</event>
<event>
 7    1  0.1501154E-015  0.9000776E+02  0.7816164E-02  0.1186339E+00
        -11   -1    0    0    0    0  0.00000000000E+00  0.00000000000E+00  0.45593999997E+02  0.45594000000E+02  0.51100000000E-03 0. -1.
         11   -1    0    0    0    0 -0.00000000000E+00 -0.00000000000E+00 -0.45593999997E+02  0.45594000000E+02  0.51100000000E-03 0.  1.
    9900012    2    1    2    0    0  0.11235141390E+01  0.29349830467E+00 -0.21106139992E+00  0.90007757572E+02  0.90000019171E+02 0.  0.
         12    1    1    2    0    0 -0.11235141390E+01 -0.29349830467E+00  0.21106139992E+00  0.11802424284E+01  0.00000000000E+00 0. -1.
         11    1    3    3    0    0  0.22233056143E+02  0.11339927533E+02 -0.28269278994E+02  0.37710142893E+02  0.51100000000E-03 0. -1.
        -11    1    3    3    0    0 -0.23831227147E+01  0.14516849087E+01 -0.87310071169E+01  0.91660868686E+01  0.51100000000E-03 0.  1.
        -12    1    3    3    0    0 -0.18726419289E+02 -0.12498114137E+02  0.36789224711E+02  0.43131527810E+02  0.00000000000E+00 0.  1.
</event>
<event>
 7    1  0.1501154E-015  0.9000763E+02  0.7816164E-02  0.1186339E+00
        -11   -1    0    0    0    0  0.00000000000E+00  0.00000000000E+00  0.45593999997E+02  0.45594000000E+02  0.51100000000E-03 0.  1.
         11   -1    0    0    0    0 -0.00000000000E+00 -0.00000000000E+00 -0.45593999997E+02  0.45594000000E+02  0.51100000000E-03 0. -1.
    9900012    2    1    2    0    0 -0.23763053757E+00  0.10767955444E+01 -0.42108549914E+00  0.90007631450E+02  0.89999891385E+02 0.  0.
         12    1    1    2    0    0  0.23763053757E+00 -0.10767955444E+01  0.42108549914E+00  0.11803685502E+01  0.00000000000E+00 0. -1.
         11    1    3    3    0    0  0.25980200679E+02 -0.25182228293E+02 -0.53511590127E+01  0.36575269680E+02  0.51100000000E-03 0. -1.
        -11    1    3    3    0    0 -0.63339401496E+01 -0.63658773603E+01 -0.90489783802E+01  0.12748615704E+02  0.51100000000E-03 0.  1.
        -12    1    3    3    0    0 -0.19883891067E+02  0.32624901198E+02  0.13979051894E+02  0.40683746066E+02  0.00000000000E+00 0.  1.
</event>
<event>
 7    1  0.1501154E-015  0.9000778E+02  0.7816164E-02  0.1186339E+00
        -11   -1    0    0    0    0  0.00000000000E+00  0.00000000000E+00  0.45593999997E+02  0.45594000000E+02  0.51100000000E-03 0. -1.
         11   -1    0    0    0    0 -0.00000000000E+00 -0.00000000000E+00 -0.45593999997E+02  0.45594000000E+02  0.51100000000E-03 0.  1.
    9900012    2    1    2    0    0 -0.36627453116E+00  0.49841700431E-01 -0.11208425269E+01  0.90007775785E+02  0.90000037625E+02 0.  0.
         12    1    1    2    0    0  0.36627453116E+00 -0.49841700431E-01  0.11208425269E+01  0.11802242149E+01  0.00000000000E+00 0. -1.
         11    1    3    3    0    0  0.15110166995E+01  0.42742063629E+01 -0.97140661645E+01  0.10719845764E+02  0.51100000000E-03 0. -1.
        -11    1    3    3    0    0  0.28207526592E+02 -0.17550919427E+02 -0.17263662171E+02  0.37439729713E+02  0.51100000000E-03 0.  1.
         12    1    3    3    0    0 -0.30084817822E+02  0.13326554765E+02  0.25856885809E+02  0.41848200308E+02  0.00000000000E+00 0. -1.
</event>
<event>
 7    1  0.1501154E-015  0.9000776E+02  0.7816164E-02  0.1186339E+00
        -11   -1    0    0    0    0  0.00000000000E+00  0.00000000000E+00  0.45593999997E+02  0.45594000000E+02  0.51100000000E-03 0.  1.
         11   -1    0    0    0    0 -0.00000000000E+00 -0.00000000000E+00 -0.45593999997E+02  0.45594000000E+02  0.51100000000E-03 0. -1.
    9900012    2    1    2    0    0 -0.60991522336E+00 -0.10094806447E+01 -0.43738417013E-01  0.90007762396E+02  0.90000024060E+02 0.  0.
         12    1    1    2    0    0  0.60991522336E+00  0.10094806447E+01  0.43738417013E-01  0.11802376036E+01  0.00000000000E+00 0. -1.
         11    1    3    3    0    0  0.47030398241E+01  0.73529198161E+01 -0.41214499111E+01  0.96524796317E+01  0.51100000000E-03 0. -1.
        -11    1    3    3    0    0  0.36393613303E+02 -0.19189272122E+01  0.98730495224E+01  0.37757839955E+02  0.51100000000E-03 0.  1.
         12    1    3    3    0    0 -0.41706568351E+02 -0.64434732487E+01 -0.57953380284E+01  0.42597442810E+02  0.00000000000E+00 0. -1.
</event>
<event>
 7    1  0.1501154E-015  0.9000773E+02  0.7816164E-02  0.1186339E+00
        -11   -1    0    0    0    0  0.00000000000E+00  0.00000000000E+00  0.45593999997E+02  0.45594000000E+02  0.51100000000E-03 0. -1.
         11   -1    0    0    0    0 -0.00000000000E+00 -0.00000000000E+00 -0.45593999997E+02  0.45594000000E+02  0.51100000000E-03 0.  1.
    9900012    2    1    2    0    0  0.12375130490E+00  0.11130964856E+01 -0.37247061644E+00  0.90007732009E+02  0.89999993271E+02 0.  0.
         12    1    1    2    0    0 -0.12375130490E+00 -0.11130964856E+01  0.37247061644E+00  0.11802679915E+01  0.00000000000E+00 0. -1.
         11    1    3    3    0    0 -0.40418615552E-01  0.52537893025E+01 -0.77377537751E+01  0.93529016590E+01  0.51100000000E-03 0. -1.
        -11    1    3    3    0    0  0.27354279654E+02  0.21210855097E+02 -0.14496953284E+02  0.37527571786E+02  0.51100000000E-03 0.  1.
         12    1    3    3    0    0 -0.27190109734E+02 -0.25351547914E+02  0.21862236443E+02  0.43127258564E+02  0.00000000000E+00 0. -1.
</event>
<event>
 7    1  0.1501154E-015  0.9000773E+02  0.7816164E-02  0.1186339E+00
        -11   -1    0    0    0    0  0.00000000000E+00  0.00000000000E+00  0.45593999997E+02  0.45594000000E+02  0.51100000000E-03 0. -1.
         11   -1    0    0    0    0 -0.00000000000E+00 -0.00000000000E+00 -0.45593999997E+02  0.45594000000E+02  0.51100000000E-03 0.  1.
    9900012    2    1    2    0    0 -0.77121411617E+00  0.76158497421E+00 -0.46717652225E+00  0.90007730205E+02  0.89999991444E+02 0.  0.
         12    1    1    2    0    0  0.77121411617E+00 -0.76158497421E+00  0.46717652225E+00  0.11802697949E+01  0.00000000000E+00 0. -1.
         11    1    3    3    0    0  0.76281059590E+01  0.19159221986E+01  0.37913170773E+01  0.87311421839E+01  0.51100000000E-03 0. -1.
        -11    1    3    3    0    0 -0.17614247659E+01  0.16910540645E+02 -0.38449619642E+02  0.42040959230E+02  0.51100000000E-03 0.  1.
         12    1    3    3    0    0 -0.66378953093E+01 -0.18064877870E+02  0.34191126042E+02  0.39235628791E+02  0.00000000000E+00 0. -1.
</event>
<event>
 7    1  0.1501154E-015  0.9000782E+02  0.7816164E-02  0.1186339E+00
        -11   -1    0    0    0    0  0.00000000000E+00  0.00000000000E+00  0.45593999997E+02  0.45594000000E+02  0.51100000000E-03 0.  1.
         11   -1    0    0    0    0 -0.00000000000E+00 -0.00000000000E+00 -0.45593999997E+02  0.45594000000E+02  0.51100000000E-03 0. -1.
    9900012    2    1    2    0    0  0.17819627917E+00  0.11298613730E+01  0.29067376298E+00  0.90007817017E+02  0.90000079402E+02 0.  0.
         12    1    1    2    0    0 -0.17819627917E+00 -0.11298613730E+01 -0.29067376298E+00  0.11801829827E+01  0.00000000000E+00 0. -1.
         11    1    3    3    0    0  0.48030966853E+01  0.41880195008E+01 -0.98013418206E+01  0.11690831743E+02  0.51100000000E-03 0. -1.
        -11    1    3    3    0    0 -0.20523527721E+02 -0.23905173999E+02 -0.20835018593E+02  0.37772616193E+02  0.51100000000E-03 0.  1.
         12    1    3    3    0    0  0.15898627315E+02  0.20847015871E+02  0.30927034176E+02  0.40544369081E+02  0.00000000000E+00 0. -1.
</event>
<event>
 7    1  0.1501154E-015  0.9000768E+02  0.7816164E-02  0.1186339E+00
        -11   -1    0    0    0    0  0.00000000000E+00  0.00000000000E+00  0.45593999997E+02  0.45594000000E+02  0.51100000000E-03 0.  1.
         11   -1    0    0    0    0 -0.00000000000E+00 -0.00000000000E+00 -0.45593999997E+02  0.45594000000E+02  0.51100000000E-03 0. -1.
    9900012    2    1    2    0    0 -0.12178540800E+00  0.11572326428E+01  0.19784349853E+00  0.90007677533E+02  0.89999938077E+02 0.  0.
         12    1    1    2    0    0  0.12178540800E+00 -0.11572326428E+01 -0.19784349853E+00  0.11803224666E+01  0.00000000000E+00 0. -1.
         11    1    3    3    0    0  0.38518958052E+01 -0.14162889824E+02 -0.15453287324E+01  0.14758475213E+02  0.51100000000E-03 0. -1.
        -11    1    3    3    0    0  0.27996687489E+02  0.16311588570E+02  0.20333381623E+02  0.38253481417E+02  0.51100000000E-03 0.  1.
         12    1    3    3    0    0 -0.31970368702E+02 -0.99146610314E+00 -0.18590209392E+02  0.36995720904E+02  0.00000000000E+00 0. -1.
</event>
<event>
 7    1  0.1501154E-015  0.9000756E+02  0.7816164E-02  0.1186339E+00
        -11   -1    0    0    0    0  0.00000000000E+00  0.00000000000E+00  0.45593999997E+02  0.45594000000E+02  0.51100000000E-03 0.  1.
         11   -1    0    0    0    0 -0.00000000000E+00 -0.00000000000E+00 -0.45593999997E+02  0.45594000000E+02  0.51100000000E-03 0. -1.
    9900012    2    1    2    0    0  0.69741730221E+00 -0.92288132621E+00  0.23522870240E+00  0.90007562209E+02  0.89999821230E+02 0.  0.
         12    1    1    2    0    0 -0.69741730221E+00  0.92288132621E+00 -0.23522870240E+00  0.11804377909E+01  0.00000000000E+00 0. -1.
         11    1    3    3    0    0 -0.38945041625E+01 -0.85304405189E+01  0.12643016343E+01  0.94622427047E+01  0.51100000000E-03 0. -1.
        -11    1    3    3    0    0  0.27838586999E+02 -0.26793767246E+02  0.34159557731E+01  0.38788679321E+02  0.51100000000E-03 0.  1.
         12    1    3    3    0    0 -0.23246665534E+02  0.34401326439E+02 -0.44450287050E+01  0.41756640184E+02  0.00000000000E+00 0. -1.
</event>
<event>
 7    1  0.1545609E-015  0.9000746E+02  0.7816164E-02  0.1186340E+00
        -11   -1    0    0    0    0  0.00000000000E+00  0.00000000000E+00  0.45593999997E+02  0.45594000000E+02  0.51100000000E-03 0. -1.
         11   -1    0    0    0    0 -0.00000000000E+00 -0.00000000000E+00 -0.45593999997E+02  0.45594000000E+02  0.51100000000E-03 0.  1.
    9900012    2    1    2    0    0 -0.11796094708E+01  0.46696433099E-01  0.47689024251E-02  0.90007456988E+02  0.89999714620E+02 0.  0.
         12    1    1    2    0    0  0.11796094708E+01 -0.46696433099E-01 -0.47689024251E-02  0.11805430119E+01  0.00000000000E+00 0. -1.
         11    1    3    3    0    0  0.19294490957E+02 -0.16522003389E+02  0.26526064285E+02  0.36727184264E+02  0.51100000000E-03 0. -1.
        -11    1    3    3    0    0  0.81619267349E+01 -0.47420090008E+01 -0.11993999928E+01  0.95153695668E+01  0.51100000000E-03 0.  1.
        -12    1    3    3    0    0 -0.28636027163E+02  0.21310708823E+02 -0.25321895390E+02  0.43764903157E+02  0.00000000000E+00 0.  1.
</event>
<event>
 7    1  0.1501154E-015  0.9000776E+02  0.7816164E-02  0.1186339E+00
        -11   -1    0    0    0    0  0.00000000000E+00  0.00000000000E+00  0.45593999997E+02  0.45594000000E+02  0.51100000000E-03 0.  1.
         11   -1    0    0    0    0 -0.00000000000E+00 -0.00000000000E+00 -0.45593999997E+02  0.45594000000E+02  0.51100000000E-03 0. -1.
    9900012    2    1    2    0    0  0.89829649765E+00  0.71967149566E+00 -0.26096597934E+00  0.90007759812E+02  0.90000021441E+02 0.  0.
         12    1    1    2    0    0 -0.89829649765E+00 -0.71967149566E+00  0.26096597934E+00  0.11802401881E+01  0.00000000000E+00 0. -1.
         11    1    3    3    0    0  0.25687136474E+01  0.11075196358E+02  0.30358043180E+01  0.11767513428E+02  0.51100000000E-03 0. -1.
        -11    1    3    3    0    0  0.33816992339E+02  0.85328538183E+01  0.93291660958E+01  0.36103073351E+02  0.51100000000E-03 0.  1.
         12    1    3    3    0    0 -0.35487409488E+02 -0.18888378680E+02 -0.12625936393E+02  0.42137173032E+02  0.00000000000E+00 0. -1.
</event>
<event>
 7    1  0.1501154E-015  0.9000773E+02  0.7816164E-02  0.1186339E+00
        -11   -1    0    0    0    0  0.00000000000E+00  0.00000000000E+00  0.45593999997E+02  0.45594000000E+02  0.51100000000E-03 0.  1.
         11   -1    0    0    0    0 -0.00000000000E+00 -0.00000000000E+00 -0.45593999997E+02  0.45594000000E+02  0.51100000000E-03 0. -1.
    9900012    2    1    2    0    0 -0.11790434488E+01 -0.30809160989E-01 -0.44032571012E-01  0.90007732435E+02  0.89999993703E+02 0.  0.
         12    1    1    2    0    0  0.11790434488E+01  0.30809160989E-01  0.44032571012E-01  0.11802675654E+01  0.00000000000E+00 0. -1.
         11    1    3    3    0    0 -0.15514243988E+02  0.30635208097E+02 -0.15343136296E+02  0.37611428759E+02  0.51100000000E-03 0. -1.
        -11    1    3    3    0    0  0.55827082589E+01  0.82274367270E+01  0.79774586384E+00  0.99746551482E+01  0.51100000000E-03 0.  1.
        -12    1    3    3    0    0  0.87524922799E+01 -0.38893453985E+02  0.14501357861E+02  0.42421648527E+02  0.00000000000E+00 0.  1.
</event>
<event>
 7    1  0.1501154E-015  0.9000773E+02  0.7816164E-02  0.1186339E+00
        -11   -1    0    0    0    0  0.00000000000E+00  0.00000000000E+00  0.45593999997E+02  0.45594000000E+02  0.51100000000E-03 0. -1.
         11   -1    0    0    0    0 -0.00000000000E+00 -0.00000000000E+00 -0.45593999997E+02  0.45594000000E+02  0.51100000000E-03 0.  1.
    9900012    2    1    2    0    0 -0.70928532896E+00 -0.70128669310E+00 -0.63098259122E+00  0.90007734041E+02  0.89999995330E+02 0.  0.
         12    1    1    2    0    0  0.70928532896E+00  0.70128669310E+00  0.63098259122E+00  0.11802659591E+01  0.00000000000E+00 0. -1.
         11    1    3    3    0    0  0.92375860162E+00 -0.60935832502E+01 -0.13781794305E+01  0.63154149179E+01  0.51100000000E-03 0. -1.
        -11    1    3    3    0    0 -0.80520899717E+01 -0.37692838423E+02 -0.77393884588E+01  0.39312648795E+02  0.51100000000E-03 0.  1.
         12    1    3    3    0    0  0.64190460412E+01  0.43085134981E+02  0.84865852981E+01  0.44379670328E+02  0.00000000000E+00 0. -1.
</event>
<event>
 7    1  0.1501154E-015  0.9000777E+02  0.7816164E-02  0.1186339E+00
        -11   -1    0    0    0    0  0.00000000000E+00  0.00000000000E+00  0.45593999997E+02  0.45594000000E+02  0.51100000000E-03 0. -1.
         11   -1    0    0    0    0 -0.00000000000E+00 -0.00000000000E+00 -0.45593999997E+02  0.45594000000E+02  0.51100000000E-03 0.  1.
    9900012    2    1    2    0    0  0.11822492338E+00  0.10831394322E+01 -0.45363623160E+00  0.90007765281E+02  0.90000026982E+02 0.  0.
         12    1    1    2    0    0 -0.11822492338E+00 -0.10831394322E+01  0.45363623160E+00  0.11802347194E+01  0.00000000000E+00 0. -1.
         11    1    3    3    0    0  0.29955106356E+02  0.23533603506E+02  0.11005605486E+02  0.39651762170E+02  0.51100000000E-03 0. -1.
        -11    1    3    3    0    0  0.60782491692E+01 -0.68662282927E+01 -0.56655705929E+01  0.10779095247E+02  0.51100000000E-03 0.  1.
        -12    1    3    3    0    0 -0.35915130602E+02 -0.15584235781E+02 -0.57936711248E+01  0.39576907865E+02  0.00000000000E+00 0.  1.
</event>
<event>
 7    1  0.1501154E-015  0.9000771E+02  0.7816164E-02  0.1186339E+00
        -11   -1    0    0    0    0  0.00000000000E+00  0.00000000000E+00  0.45593999997E+02  0.45594000000E+02  0.51100000000E-03 0.  1.
         11   -1    0    0    0    0 -0.00000000000E+00 -0.00000000000E+00 -0.45593999997E+02  0.45594000000E+02  0.51100000000E-03 0. -1.
    9900012    2    1    2    0    0 -0.55743346123E+00 -0.36969747906E+00  0.97245969517E+00  0.90007709295E+02  0.89999970258E+02 0.  0.
         12    1    1    2    0    0  0.55743346123E+00  0.36969747906E+00 -0.97245969517E+00  0.11802907051E+01  0.00000000000E+00 0. -1.
         11    1    3    3    0    0 -0.76072880515E+01  0.39411700818E+02  0.29048874476E+00  0.40140221435E+02  0.51100000000E-03 0. -1.
        -11    1    3    3    0    0 -0.50649042146E+01 -0.84107810695E+00 -0.66819050725E+01  0.84266554898E+01  0.51100000000E-03 0.  1.
        -12    1    3    3    0    0  0.12114758805E+02 -0.38940320190E+02  0.73638760229E+01  0.41440832370E+02  0.00000000000E+00 0.  1.
</event>
<event>
 7    1  0.1501154E-015  0.9000774E+02  0.7816164E-02  0.1186339E+00
        -11   -1    0    0    0    0  0.00000000000E+00  0.00000000000E+00  0.45593999997E+02  0.45594000000E+02  0.51100000000E-03 0.  1.
         11   -1    0    0    0    0 -0.00000000000E+00 -0.00000000000E+00 -0.45593999997E+02  0.45594000000E+02  0.51100000000E-03 0. -1.
    9900012    2    1    2    0    0 -0.11998121879E+00 -0.32913852901E+00  0.11270679286E+01  0.90007741647E+02  0.90000003037E+02 0.  0.
         12    1    1    2    0    0  0.11998121879E+00  0.32913852901E+00 -0.11270679286E+01  0.11802583530E+01  0.00000000000E+00 0. -1.
         11    1    3    3    0    0  0.30196980164E+02  0.22444357879E+02  0.17652570519E+02  0.41559837077E+02  0.51100000000E-03 0. -1.
        -11    1    3    3    0    0  0.97281156719E+00 -0.94925030976E+01  0.19797985818E+01  0.97454389377E+01  0.51100000000E-03 0.  1.
        -12    1    3    3    0    0 -0.31289772950E+02 -0.13280993311E+02 -0.18505301172E+02  0.38702465633E+02  0.00000000000E+00 0.  1.
</event>
<event>
 7    1  0.1501154E-015  0.9000769E+02  0.7816164E-02  0.1186339E+00
        -11   -1    0    0    0    0  0.00000000000E+00  0.00000000000E+00  0.45593999997E+02  0.45594000000E+02  0.51100000000E-03 0.  1.
         11   -1    0    0    0    0 -0.00000000000E+00 -0.00000000000E+00 -0.45593999997E+02  0.45594000000E+02  0.51100000000E-03 0. -1.
    9900012    2    1    2    0    0  0.10916784742E+01 -0.45212718230E-01  0.44646450018E+00  0.90007687910E+02  0.89999948590E+02 0.  0.
         12    1    1    2    0    0 -0.10916784742E+01  0.45212718230E-01 -0.44646450018E+00  0.11803120904E+01  0.00000000000E+00 0. -1.
         11    1    3    3    0    0  0.31633472576E+02  0.18705581768E+02  0.15076626557E+01  0.36781087850E+02  0.51100000000E-03 0. -1.
        -11    1    3    3    0    0  0.84286882231E+01  0.12755963060E+01  0.34156029428E+01  0.91834783618E+01  0.51100000000E-03 0.  1.
        -12    1    3    3    0    0 -0.38970482325E+02 -0.20026390792E+02 -0.44768010983E+01  0.44043121698E+02  0.00000000000E+00 0.  1.
</event>
<event>
 7    1  0.1501154E-015  0.9000766E+02  0.7816164E-02  0.1186339E+00
        -11   -1    0    0    0    0  0.00000000000E+00  0.00000000000E+00  0.45593999997E+02  0.45594000000E+02  0.51100000000E-03 0. -1.
         11   -1    0    0    0    0 -0.00000000000E+00 -0.00000000000E+00 -0.45593999997E+02  0.45594000000E+02  0.51100000000E-03 0.  1.
    9900012    2    1    2    0    0  0.46967833168E+00 -0.93036327877E+00 -0.55410571246E+00  0.90007658225E+02  0.89999918513E+02 0.  0.
         12    1    1    2    0    0 -0.46967833168E+00  0.93036327877E+00  0.55410571246E+00  0.11803417752E+01  0.00000000000E+00 0. -1.
         11    1    3    3    0    0 -0.29750535132E+02 -0.13496829475E+02 -0.16585199375E+02  0.36637789031E+02  0.51100000000E-03 0. -1.
        -11    1    3    3    0    0 -0.39463572534E+01 -0.94606259950E+01  0.34621686944E+01  0.10819602216E+02  0.51100000000E-03 0.  1.
        -12    1    3    3    0    0  0.34166570717E+02  0.22027092191E+02  0.12568924968E+02  0.42550266977E+02  0.00000000000E+00 0.  1.
</event>
<event>
 7    1  0.1501154E-015  0.9000796E+02  0.7816164E-02  0.1186339E+00
        -11   -1    0    0    0    0  0.00000000000E+00  0.00000000000E+00  0.45593999997E+02  0.45594000000E+02  0.51100000000E-03 0. -1.
         11   -1    0    0    0    0 -0.00000000000E+00 -0.00000000000E+00 -0.45593999997E+02  0.45594000000E+02  0.51100000000E-03 0.  1.
    9900012    2    1    2    0    0 -0.34465220720E+00 -0.57535832612E+00 -0.97090848857E+00  0.90007963712E+02  0.90000228033E+02 0.  0.
         12    1    1    2    0    0  0.34465220720E+00  0.57535832612E+00  0.97090848857E+00  0.11800362878E+01  0.00000000000E+00 0. -1.
         11    1    3    3    0    0 -0.81788700730E+01 -0.48807442481E+01  0.49109205599E+00  0.95371249208E+01  0.51100000000E-03 0. -1.
        -11    1    3    3    0    0  0.10971622083E+02  0.13134396647E+02 -0.38570946608E+02  0.42197236745E+02  0.51100000000E-03 0.  1.
         12    1    3    3    0    0 -0.31374042168E+01 -0.88290107250E+01  0.37108946064E+02  0.38273602046E+02  0.00000000000E+00 0. -1.
</event>
<event>
 7    1  0.1769098E-015  0.9000776E+02  0.7816164E-02  0.1186339E+00
        -11   -1    0    0    0    0  0.00000000000E+00  0.00000000000E+00  0.45593999997E+02  0.45594000000E+02  0.51100000000E-03 0.  1.
         11   -1    0    0    0    0 -0.00000000000E+00 -0.00000000000E+00 -0.45593999997E+02  0.45594000000E+02  0.51100000000E-03 0. -1.
    9900012    2    1    2    0    0  0.67744288813E-01 -0.10675777803E+01  0.49865920467E+00  0.90007757394E+02  0.90000018992E+02 0.  0.
         12    1    1    2    0    0 -0.67744288813E-01  0.10675777803E+01 -0.49865920467E+00  0.11802426056E+01  0.00000000000E+00 0. -1.
         11    1    3    3    0    0  0.18173486936E+01  0.59779728068E+01  0.72992393795E+01  0.96082158039E+01  0.51100000000E-03 0. -1.
        -11    1    3    3    0    0 -0.12200118178E+02 -0.21183254003E+02  0.30545098794E+02  0.39122579086E+02  0.51100000000E-03 0.  1.
         12    1    3    3    0    0  0.10450513773E+02  0.14137703416E+02 -0.37345678969E+02  0.41276962505E+02  0.00000000000E+00 0. -1.
</event>
<event>
 7    1  0.1501154E-015  0.9000782E+02  0.7816164E-02  0.1186339E+00
        -11   -1    0    0    0    0  0.00000000000E+00  0.00000000000E+00  0.45593999997E+02  0.45594000000E+02  0.51100000000E-03 0. -1.
         11   -1    0    0    0    0 -0.00000000000E+00 -0.00000000000E+00 -0.45593999997E+02  0.45594000000E+02  0.51100000000E-03 0.  1.
    9900012    2    1    2    0    0  0.10194509765E+01 -0.33649265808E+00 -0.49022911450E+00  0.90007816884E+02  0.90000079267E+02 0.  0.
         12    1    1    2    0    0 -0.10194509765E+01  0.33649265808E+00  0.49022911450E+00  0.11801831159E+01  0.00000000000E+00 0. -1.
         11    1    3    3    0    0  0.30577039317E+01  0.92253767570E+01  0.25946667687E+01  0.10059295479E+02  0.51100000000E-03 0. -1.
        -11    1    3    3    0    0 -0.44559228117E+01  0.33171545265E+02  0.10441319288E+02  0.35060345293E+02  0.51100000000E-03 0.  1.
         12    1    3    3    0    0  0.24176698565E+01 -0.42733414680E+02 -0.13526215171E+02  0.44888176111E+02  0.00000000000E+00 0. -1.
</event>
<event>
 7    1  0.1501154E-015  0.9000774E+02  0.7816164E-02  0.1186339E+00
        -11   -1    0    0    0    0  0.00000000000E+00  0.00000000000E+00  0.45593999997E+02  0.45594000000E+02  0.51100000000E-03 0. -1.
         11   -1    0    0    0    0 -0.00000000000E+00 -0.00000000000E+00 -0.45593999997E+02  0.45594000000E+02  0.51100000000E-03 0.  1.
    9900012    2    1    2    0    0 -0.38540364509E+00 -0.46860455123E-01 -0.11145744465E+01  0.90007742372E+02  0.90000003771E+02 0.  0.
         12    1    1    2    0    0  0.38540364509E+00  0.46860455123E-01  0.11145744465E+01  0.11802576281E+01  0.00000000000E+00 0. -1.
         11    1    3    3    0    0 -0.93136166295E+00 -0.15591373441E+01  0.10989397761E+02  0.11138456231E+02  0.51100000000E-03 0. -1.
        -11    1    3    3    0    0  0.27590014883E+01 -0.29221402824E+02  0.19097509781E+02  0.35017386429E+02  0.51100000000E-03 0.  1.
         12    1    3    3    0    0 -0.22130434704E+01  0.30733679713E+02 -0.31201481988E+02  0.43851899712E+02  0.00000000000E+00 0. -1.
</event>
<event>
 7    1  0.1501154E-015  0.9000747E+02  0.7816164E-02  0.1186340E+00
        -11   -1    0    0    0    0  0.00000000000E+00  0.00000000000E+00  0.45593999997E+02  0.45594000000E+02  0.51100000000E-03 0.  1.
         11   -1    0    0    0    0 -0.00000000000E+00 -0.00000000000E+00 -0.45593999997E+02  0.45594000000E+02  0.51100000000E-03 0. -1.
    9900012    2    1    2    0    0  0.33292550048E+00 -0.28021059675E+00  0.10974073499E+01  0.90007466113E+02  0.89999723865E+02 0.  0.
         12    1    1    2    0    0 -0.33292550048E+00  0.28021059675E+00 -0.10974073499E+01  0.11805338873E+01  0.00000000000E+00 0. -1.
         11    1    3    3    0    0 -0.30219156390E+02 -0.24064799441E+02 -0.67121286940E+01  0.39209241983E+02  0.51100000000E-03 0. -1.
        -11    1    3    3    0    0 -0.15610008997E+01 -0.23576291375E+01  0.89377314938E+01  0.93743364285E+01  0.51100000000E-03 0.  1.
        -12    1    3    3    0    0  0.32113082790E+02  0.26142217982E+02 -0.11281954500E+01  0.41423887701E+02  0.00000000000E+00 0.  1.
</event>
<event>
 7    1  0.1501154E-015  0.9000781E+02  0.7816164E-02  0.1186339E+00
        -11   -1    0    0    0    0  0.00000000000E+00  0.00000000000E+00  0.45593999997E+02  0.45594000000E+02  0.51100000000E-03 0.  1.
         11   -1    0    0    0    0 -0.00000000000E+00 -0.00000000000E+00 -0.45593999997E+02  0.45594000000E+02  0.51100000000E-03 0. -1.
    9900012    2    1    2    0    0 -0.40348376294E+00  0.11085569829E+01  0.33878502848E-01  0.90007811251E+02  0.90000073559E+02 0.  0.
         12    1    1    2    0    0  0.40348376294E+00 -0.11085569829E+01 -0.33878502848E-01  0.11801887494E+01  0.00000000000E+00 0. -1.
         11    1    3    3    0    0  0.77894818761E+01  0.13861185984E+01 -0.40628791455E+01  0.88940620573E+01  0.51100000000E-03 0. -1.
        -11    1    3    3    0    0  0.92687560900E+01  0.15418907065E+02  0.36737198180E+02  0.40905675217E+02  0.51100000000E-03 0.  1.
         12    1    3    3    0    0 -0.17461721729E+02 -0.15696468681E+02 -0.32640440532E+02  0.40208073977E+02  0.00000000000E+00 0. -1.
</event>
<event>
 7    1  0.1501154E-015  0.9000777E+02  0.7816164E-02  0.1186339E+00
        -11   -1    0    0    0    0  0.00000000000E+00  0.00000000000E+00  0.45593999997E+02  0.45594000000E+02  0.51100000000E-03 0.  1.
         11   -1    0    0    0    0 -0.00000000000E+00 -0.00000000000E+00 -0.45593999997E+02  0.45594000000E+02  0.51100000000E-03 0. -1.
    9900012    2    1    2    0    0  0.21713586161E+00  0.87146542145E+00 -0.76573634368E+00  0.90007766078E+02  0.90000027790E+02 0.  0.
         12    1    1    2    0    0 -0.21713586161E+00 -0.87146542145E+00  0.76573634368E+00  0.11802339222E+01  0.00000000000E+00 0. -1.
         11    1    3    3    0    0  0.21745960746E+02  0.17233847545E+02 -0.30233801004E+02  0.41036264857E+02  0.51100000000E-03 0. -1.
        -11    1    3    3    0    0  0.21512612618E+01  0.36931686434E+01  0.13321443814E+02  0.13990292534E+02  0.51100000000E-03 0.  1.
        -12    1    3    3    0    0 -0.23680086146E+02 -0.20055550766E+02  0.16146620847E+02  0.34981208687E+02  0.00000000000E+00 0.  1.
</event>
<event>
 7    1  0.2157780E-015  0.9000784E+02  0.7816164E-02  0.1186339E+00
        -11   -1    0    0    0    0  0.00000000000E+00  0.00000000000E+00  0.45593999997E+02  0.45594000000E+02  0.51100000000E-03 0. -1.
         11   -1    0    0    0    0 -0.00000000000E+00 -0.00000000000E+00 -0.45593999997E+02  0.45594000000E+02  0.51100000000E-03 0.  1.
    9900012    2    1    2    0    0 -0.30150921963E+00 -0.50395264824E+00 -0.10236744553E+01  0.90007836676E+02  0.90000099320E+02 0.  0.
         12    1    1    2    0    0  0.30150921963E+00  0.50395264824E+00  0.10236744553E+01  0.11801633241E+01  0.00000000000E+00 0. -1.
         11    1    3    3    0    0  0.48559721032E+01  0.31770990743E+02  0.14703693467E+02  0.35343668736E+02  0.51100000000E-03 0. -1.
        -11    1    3    3    0    0  0.92481579476E+00  0.63197157784E+01  0.69901732015E+01  0.94687176229E+01  0.51100000000E-03 0.  1.
        -12    1    3    3    0    0 -0.60822971176E+01 -0.38594659170E+02 -0.22717541124E+02  0.45195450317E+02  0.00000000000E+00 0.  1.
</event>
<event>
 7    1  0.1501154E-015  0.9000776E+02  0.7816164E-02  0.1186339E+00
        -11   -1    0    0    0    0  0.00000000000E+00  0.00000000000E+00  0.45593999997E+02  0.45594000000E+02  0.51100000000E-03 0.  1.
         11   -1    0    0    0    0 -0.00000000000E+00 -0.00000000000E+00 -0.45593999997E+02  0.45594000000E+02  0.51100000000E-03 0. -1.
    9900012    2    1    2    0    0  0.12636133696E+00  0.93751377943E+00 -0.70573702105E+00  0.90007761034E+02  0.90000022680E+02 0.  0.
         12    1    1    2    0    0 -0.12636133696E+00 -0.93751377943E+00  0.70573702105E+00  0.11802389661E+01  0.00000000000E+00 0. -1.
         11    1    3    3    0    0  0.11621369341E+01 -0.19767977686E+01  0.95946254897E+01  0.98648431422E+01  0.51100000000E-03 0. -1.
        -11    1    3    3    0    0 -0.23303558759E+02  0.24541784034E+02  0.17828709036E+02  0.38252031065E+02  0.51100000000E-03 0.  1.
         12    1    3    3    0    0  0.22267783162E+02 -0.21627472486E+02 -0.28129071546E+02  0.41890886827E+02  0.00000000000E+00 0. -1.
</event>
<event>
 7    1  0.1501154E-015  0.9000770E+02  0.7816164E-02  0.1186339E+00
        -11   -1    0    0    0    0  0.00000000000E+00  0.00000000000E+00  0.45593999997E+02  0.45594000000E+02  0.51100000000E-03 0. -1.
         11   -1    0    0    0    0 -0.00000000000E+00 -0.00000000000E+00 -0.45593999997E+02  0.45594000000E+02  0.51100000000E-03 0.  1.
    9900012    2    1    2    0    0 -0.49730807150E+00 -0.72762062277E+00  0.78508834571E+00  0.90007698852E+02  0.89999959677E+02 0.  0.
         12    1    1    2    0    0  0.49730807150E+00  0.72762062277E+00 -0.78508834571E+00  0.11803011477E+01  0.00000000000E+00 0. -1.
         11    1    3    3    0    0  0.28398995145E+02  0.15824226653E+02 -0.17577889265E+02  0.36957966200E+02  0.51100000000E-03 0. -1.
        -11    1    3    3    0    0  0.85867063298E+01 -0.83248186032E+00  0.61979980646E+01  0.10622604761E+02  0.51100000000E-03 0.  1.
        -12    1    3    3    0    0 -0.37483009546E+02 -0.15719365415E+02  0.12164979546E+02  0.42427127891E+02  0.00000000000E+00 0.  1.
</event>
<event>
 7    1  0.1501154E-015  0.9000778E+02  0.7816164E-02  0.1186339E+00
        -11   -1    0    0    0    0  0.00000000000E+00  0.00000000000E+00  0.45593999997E+02  0.45594000000E+02  0.51100000000E-03 0.  1.
         11   -1    0    0    0    0 -0.00000000000E+00 -0.00000000000E+00 -0.45593999997E+02  0.45594000000E+02  0.51100000000E-03 0. -1.
    9900012    2    1    2    0    0  0.99734839705E+00 -0.59575797300E+00  0.20808030126E+00  0.90007775954E+02  0.90000037796E+02 0.  0.
         12    1    1    2    0    0 -0.99734839705E+00  0.59575797300E+00 -0.20808030126E+00  0.11802240462E+01  0.00000000000E+00 0. -1.
         11    1    3    3    0    0 -0.18994963142E+02 -0.56770154467E+01 -0.32621073836E+02  0.38172916939E+02  0.51100000000E-03 0. -1.
        -11    1    3    3    0    0 -0.39174562167E+01  0.77399192406E+01 -0.25585354260E+01  0.90442753634E+01  0.51100000000E-03 0.  1.
        -12    1    3    3    0    0  0.23909767756E+02 -0.26586617669E+01  0.35387689564E+02  0.42790583651E+02  0.00000000000E+00 0.  1.
</event>
<event>
 7    1  0.1501154E-015  0.9000765E+02  0.7816164E-02  0.1186339E+00
        -11   -1    0    0    0    0  0.00000000000E+00  0.00000000000E+00  0.45593999997E+02  0.45594000000E+02  0.51100000000E-03 0.  1.
         11   -1    0    0    0    0 -0.00000000000E+00 -0.00000000000E+00 -0.45593999997E+02  0.45594000000E+02  0.51100000000E-03 0. -1.
    9900012    2    1    2    0    0  0.10032141730E-02 -0.33300243381E+00  0.11324002283E+01  0.90007651787E+02  0.89999911990E+02 0.  0.
         12    1    1    2    0    0 -0.10032141730E-02  0.33300243381E+00 -0.11324002283E+01  0.11803482132E+01  0.00000000000E+00 0. -1.
         11    1    3    3    0    0  0.94931415855E+01  0.31956000683E+01 -0.13892992664E+01  0.10112455175E+02  0.51100000000E-03 0. -1.
        -11    1    3    3    0    0 -0.13790546078E+01 -0.26095532755E+02  0.32373251047E+02  0.41604158506E+02  0.51100000000E-03 0.  1.
         12    1    3    3    0    0 -0.81130837635E+01  0.22566930253E+02 -0.29851551552E+02  0.38291038106E+02  0.00000000000E+00 0. -1.
</event>
<event>
 7    1  0.1501154E-015  0.9000771E+02  0.7816164E-02  0.1186339E+00
        -11   -1    0    0    0    0  0.00000000000E+00  0.00000000000E+00  0.45593999997E+02  0.45594000000E+02  0.51100000000E-03 0.  1.
         11   -1    0    0    0    0 -0.00000000000E+00 -0.00000000000E+00 -0.45593999997E+02  0.45594000000E+02  0.51100000000E-03 0. -1.
    9900012    2    1    2    0    0 -0.81302338035E-01  0.11509136444E+01 -0.24873473314E+00  0.90007711368E+02  0.89999972358E+02 0.  0.
         12    1    1    2    0    0  0.81302338035E-01 -0.11509136444E+01  0.24873473314E+00  0.11802886318E+01  0.00000000000E+00 0. -1.
         11    1    3    3    0    0  0.11156517327E+02  0.30718937759E+02  0.68844590783E+01  0.33399353182E+02  0.51100000000E-03 0. -1.
        -11    1    3    3    0    0  0.69721988507E+01  0.10096963020E+02  0.59217832611E+00  0.12284579540E+02  0.51100000000E-03 0.  1.
        -12    1    3    3    0    0 -0.18210018515E+02 -0.39664987135E+02 -0.77253721376E+01  0.44323778646E+02  0.00000000000E+00 0.  1.
</event>
<event>
 7    1  0.1501154E-015  0.9000777E+02  0.7816164E-02  0.1186339E+00
        -11   -1    0    0    0    0  0.00000000000E+00  0.00000000000E+00  0.45593999997E+02  0.45594000000E+02  0.51100000000E-03 0.  1.
         11   -1    0    0    0    0 -0.00000000000E+00 -0.00000000000E+00 -0.45593999997E+02  0.45594000000E+02  0.51100000000E-03 0. -1.
    9900012    2    1    2    0    0  0.25495928778E+00 -0.92810014808E+00  0.68305114956E+00  0.90007774176E+02  0.90000035995E+02 0.  0.
         12    1    1    2    0    0 -0.25495928778E+00  0.92810014808E+00 -0.68305114956E+00  0.11802258242E+01  0.00000000000E+00 0. -1.
         11    1    3    3    0    0 -0.62292120433E+01  0.26424149049E+01  0.25684409797E+01  0.72375637155E+01  0.51100000000E-03 0. -1.
        -11    1    3    3    0    0  0.49781028459E+01  0.75779406658E+01  0.39167813278E+02  0.40203535789E+02  0.51100000000E-03 0.  1.
         12    1    3    3    0    0  0.15060684852E+01 -0.11148455719E+02 -0.41053203108E+02  0.42566674672E+02  0.00000000000E+00 0. -1.
</event>
<event>
 7    1  0.1501154E-015  0.9000757E+02  0.7816164E-02  0.1186339E+00
        -11   -1    0    0    0    0  0.00000000000E+00  0.00000000000E+00  0.45593999997E+02  0.45594000000E+02  0.51100000000E-03 0. -1.
         11   -1    0    0    0    0 -0.00000000000E+00 -0.00000000000E+00 -0.45593999997E+02  0.45594000000E+02  0.51100000000E-03 0.  1.
    9900012    2    1    2    0    0  0.30399728538E+00  0.10633568322E+00 -0.11356501196E+01  0.90007566681E+02  0.89999825761E+02 0.  0.
         12    1    1    2    0    0 -0.30399728538E+00 -0.10633568322E+00  0.11356501196E+01  0.11804333193E+01  0.00000000000E+00 0. -1.
         11    1    3    3    0    0 -0.99666058689E+01  0.58816486403E+00  0.36308132553E+01  0.10623651708E+02  0.51100000000E-03 0. -1.
        -11    1    3    3    0    0 -0.31431310250E+02 -0.15039929245E+02 -0.50808564751E+01  0.35212807876E+02  0.51100000000E-03 0.  1.
         12    1    3    3    0    0  0.41701913405E+02  0.14558100064E+02  0.31439310013E+00  0.44171107096E+02  0.00000000000E+00 0. -1.
</event>
<event>
 7    1  0.1501154E-015  0.9000775E+02  0.7816164E-02  0.1186339E+00
        -11   -1    0    0    0    0  0.00000000000E+00  0.00000000000E+00  0.45593999997E+02  0.45594000000E+02  0.51100000000E-03 0.  1.
         11   -1    0    0    0    0 -0.00000000000E+00 -0.00000000000E+00 -0.45593999997E+02  0.45594000000E+02  0.51100000000E-03 0. -1.
    9900012    2    1    2    0    0  0.50208407153E+00  0.74509339753E+00  0.76533967040E+00  0.90007746893E+02  0.90000008352E+02 0.  0.
         12    1    1    2    0    0 -0.50208407153E+00 -0.74509339753E+00 -0.76533967040E+00  0.11802531072E+01  0.00000000000E+00 0. -1.
         11    1    3    3    0    0  0.17908827667E+02 -0.24056123528E+01 -0.33929985937E+02  0.38441605392E+02  0.51100000000E-03 0. -1.
        -11    1    3    3    0    0  0.21615281654E+01  0.89649054997E+01 -0.21269011378E+01  0.94639021202E+01  0.51100000000E-03 0.  1.
        -12    1    3    3    0    0 -0.19568271761E+02 -0.58141997494E+01  0.36822226745E+02  0.42102239381E+02  0.00000000000E+00 0.  1.
</event>
<event>
 7    1  0.1501154E-015  0.9000772E+02  0.7816164E-02  0.1186339E+00
        -11   -1    0    0    0    0  0.00000000000E+00  0.00000000000E+00  0.45593999997E+02  0.45594000000E+02  0.51100000000E-03 0. -1.
         11   -1    0    0    0    0 -0.00000000000E+00 -0.00000000000E+00 -0.45593999997E+02  0.45594000000E+02  0.51100000000E-03 0.  1.
    9900012    2    1    2    0    0  0.10754494488E+01  0.17432671682E-01  0.48597811000E+00  0.90007716077E+02  0.89999977129E+02 0.  0.
         12    1    1    2    0    0 -0.10754494488E+01 -0.17432671682E-01 -0.48597811000E+00  0.11802839228E+01  0.00000000000E+00 0. -1.
         11    1    3    3    0    0 -0.10045869316E+02  0.10934967732E+02 -0.71583957455E+01  0.16484405950E+02  0.51100000000E-03 0. -1.
        -11    1    3    3    0    0 -0.13306858885E+02  0.24280389311E+02 -0.64337265555E+01  0.28425387176E+02  0.51100000000E-03 0.  1.
         12    1    3    3    0    0  0.24428177650E+02 -0.35197924371E+02  0.14078100411E+02  0.45097922951E+02  0.00000000000E+00 0. -1.
</event>
<event>
 7    1  0.1501154E-015  0.9000777E+02  0.7816164E-02  0.1186339E+00
        -11   -1    0    0    0    0  0.00000000000E+00  0.00000000000E+00  0.45593999997E+02  0.45594000000E+02  0.51100000000E-03 0. -1.
         11   -1    0    0    0    0 -0.00000000000E+00 -0.00000000000E+00 -0.45593999997E+02  0.45594000000E+02  0.51100000000E-03 0.  1.
    9900012    2    1    2    0    0 -0.81127473030E+00  0.34400373254E+00 -0.78514209596E+00  0.90007765546E+02  0.90000027251E+02 0.  0.
         12    1    1    2    0    0  0.81127473030E+00 -0.34400373254E+00  0.78514209596E+00  0.11802344542E+01  0.00000000000E+00 0. -1.
         11    1    3    3    0    0 -0.13788129695E+02  0.11671790961E+02  0.10244553638E+02  0.20767621535E+02  0.51100000000E-03 0. -1.
        -11    1    3    3    0    0 -0.23683451113E+01 -0.36090035937E+02 -0.16239943712E+02  0.39646380977E+02  0.51100000000E-03 0.  1.
         12    1    3    3    0    0  0.15345200076E+02  0.24762248709E+02  0.52102479778E+01  0.29593763034E+02  0.00000000000E+00 0. -1.
</event>
<event>
 7    1  0.1501154E-015  0.9000795E+02  0.7816164E-02  0.1186339E+00
        -11   -1    0    0    0    0  0.00000000000E+00  0.00000000000E+00  0.45593999997E+02  0.45594000000E+02  0.51100000000E-03 0. -1.
         11   -1    0    0    0    0 -0.00000000000E+00 -0.00000000000E+00 -0.45593999997E+02  0.45594000000E+02  0.51100000000E-03 0.  1.
    9900012    2    1    2    0    0 -0.63257653562E+00  0.92594201057E+00  0.36740252034E+00  0.90007954962E+02  0.90000219167E+02 0.  0.
         12    1    1    2    0    0  0.63257653562E+00 -0.92594201057E+00 -0.36740252034E+00  0.11800450383E+01  0.00000000000E+00 0. -1.
         11    1    3    3    0    0 -0.53284712833E+00  0.36776422531E+02  0.36285174530E+01  0.36958832766E+02  0.51100000000E-03 0. -1.
        -11    1    3    3    0    0 -0.42498599024E+01  0.60449314920E+01  0.64893111482E+01  0.98343106201E+01  0.51100000000E-03 0.  1.
        -12    1    3    3    0    0  0.41501304951E+01 -0.41895412012E+02 -0.97504260809E+01  0.43214811576E+02  0.00000000000E+00 0.  1.
</event>
<event>
 7    1  0.1501154E-015  0.9000774E+02  0.7816164E-02  0.1186339E+00
        -11   -1    0    0    0    0  0.00000000000E+00  0.00000000000E+00  0.45593999997E+02  0.45594000000E+02  0.51100000000E-03 0. -1.
         11   -1    0    0    0    0 -0.00000000000E+00 -0.00000000000E+00 -0.45593999997E+02  0.45594000000E+02  0.51100000000E-03 0.  1.
    9900012    2    1    2    0    0 -0.22953729058E+00 -0.11166911835E+01  0.30548692492E+00  0.90007742050E+02  0.90000003445E+02 0.  0.
         12    1    1    2    0    0  0.22953729058E+00  0.11166911835E+01 -0.30548692492E+00  0.11802579499E+01  0.00000000000E+00 0. -1.
         11    1    3    3    0    0 -0.65246722783E+01  0.25150291561E+02  0.27859629635E+02  0.38095504690E+02  0.51100000000E-03 0. -1.
        -11    1    3    3    0    0 -0.53066846386E+01 -0.10977558216E+02  0.57444233254E+01  0.13478356199E+02  0.51100000000E-03 0.  1.
        -12    1    3    3    0    0  0.11601819626E+02 -0.15289424528E+02 -0.33298566036E+02  0.38433881161E+02  0.00000000000E+00 0.  1.
</event>
<event>
 7    1  0.1501154E-015  0.9000756E+02  0.7816164E-02  0.1186339E+00
        -11   -1    0    0    0    0  0.00000000000E+00  0.00000000000E+00  0.45593999997E+02  0.45594000000E+02  0.51100000000E-03 0. -1.
         11   -1    0    0    0    0 -0.00000000000E+00 -0.00000000000E+00 -0.45593999997E+02  0.45594000000E+02  0.51100000000E-03 0.  1.
    9900012    2    1    2    0    0  0.20114423602E+00  0.91771493068E+00 -0.71469231142E+00  0.90007557372E+02  0.89999816329E+02 0.  0.
         12    1    1    2    0    0 -0.20114423602E+00 -0.91771493068E+00  0.71469231142E+00  0.11804426279E+01  0.00000000000E+00 0. -1.
         11    1    3    3    0    0 -0.85328232824E+01 -0.27126271384E+01 -0.41023074394E+01  0.98486722836E+01  0.51100000000E-03 0. -1.
        -11    1    3    3    0    0  0.15443954329E+02  0.39662245350E+02 -0.40677935577E+01  0.42756945356E+02  0.51100000000E-03 0.  1.
         12    1    3    3    0    0 -0.67099868101E+01 -0.36031903281E+02  0.74554086856E+01  0.37401939732E+02  0.00000000000E+00 0. -1.
</event>
<event>
 7    1  0.1501154E-015  0.9000778E+02  0.7816164E-02  0.1186339E+00
        -11   -1    0    0    0    0  0.00000000000E+00  0.00000000000E+00  0.45593999997E+02  0.45594000000E+02  0.51100000000E-03 0.  1.
         11   -1    0    0    0    0 -0.00000000000E+00 -0.00000000000E+00 -0.45593999997E+02  0.45594000000E+02  0.51100000000E-03 0. -1.
    9900012    2    1    2    0    0  0.77498026189E+00  0.70392646850E+00  0.54480231851E+00  0.90007781187E+02  0.90000043099E+02 0.  0.
         12    1    1    2    0    0 -0.77498026189E+00 -0.70392646850E+00 -0.54480231851E+00  0.11802188126E+01  0.00000000000E+00 0. -1.
         11    1    3    3    0    0  0.11486101528E+02 -0.19978553986E+02 -0.47124522165E+01  0.23521912206E+02  0.51100000000E-03 0. -1.
        -11    1    3    3    0    0 -0.15113870102E+02 -0.13355883720E+02 -0.16319756727E+02  0.25945002588E+02  0.51100000000E-03 0.  1.
        -12    1    3    3    0    0  0.44027488363E+01  0.34038364174E+02  0.21577011262E+02  0.40540866394E+02  0.00000000000E+00 0.  1.
</event>
<event>
 7    1  0.1501154E-015  0.9000772E+02  0.7816164E-02  0.1186339E+00
        -11   -1    0    0    0    0  0.00000000000E+00  0.00000000000E+00  0.45593999997E+02  0.45594000000E+02  0.51100000000E-03 0. -1.
         11   -1    0    0    0    0 -0.00000000000E+00 -0.00000000000E+00 -0.45593999997E+02  0.45594000000E+02  0.51100000000E-03 0.  1.
    9900012    2    1    2    0    0  0.52395570098E+00  0.26411298698E+00 -0.10240972017E+01  0.90007720234E+02  0.89999981342E+02 0.  0.
         12    1    1    2    0    0 -0.52395570098E+00 -0.26411298698E+00  0.10240972017E+01  0.11802797656E+01  0.00000000000E+00 0. -1.
         11    1    3    3    0    0  0.29951993097E+02 -0.46918412729E+01  0.14603155937E+02  0.33650964749E+02  0.51100000000E-03 0. -1.
        -11    1    3    3    0    0  0.97682517768E+01  0.20917735336E+01  0.58436593034E+01  0.11573357923E+02  0.51100000000E-03 0.  1.
        -12    1    3    3    0    0 -0.39196289173E+02  0.28641807262E+01 -0.21470912442E+02  0.44783397562E+02  0.00000000000E+00 0.  1.
</event>
<event>
 7    1  0.1501154E-015  0.9000767E+02  0.7816164E-02  0.1186339E+00
        -11   -1    0    0    0    0  0.00000000000E+00  0.00000000000E+00  0.45593999997E+02  0.45594000000E+02  0.51100000000E-03 0.  1.
         11   -1    0    0    0    0 -0.00000000000E+00 -0.00000000000E+00 -0.45593999997E+02  0.45594000000E+02  0.51100000000E-03 0. -1.
    9900012    2    1    2    0    0  0.34194946237E+00 -0.60497876943E+00  0.95407476320E+00  0.90007666403E+02  0.89999926800E+02 0.  0.
         12    1    1    2    0    0 -0.34194946237E+00  0.60497876943E+00 -0.95407476320E+00  0.11803335969E+01  0.00000000000E+00 0. -1.
         11    1    3    3    0    0  0.84024637765E+01 -0.87415519157E+00 -0.31375025315E+00  0.84536373412E+01  0.51100000000E-03 0. -1.
        -11    1    3    3    0    0  0.34530054872E+02  0.10809622020E+02  0.82903436091E+01  0.37120107961E+02  0.51100000000E-03 0.  1.
         12    1    3    3    0    0 -0.42590569186E+02 -0.10540445598E+02 -0.70225185928E+01  0.44433921100E+02  0.00000000000E+00 0. -1.
</event>
<event>
 7    1  0.1501154E-015  0.9000771E+02  0.7816164E-02  0.1186339E+00
        -11   -1    0    0    0    0  0.00000000000E+00  0.00000000000E+00  0.45593999997E+02  0.45594000000E+02  0.51100000000E-03 0. -1.
         11   -1    0    0    0    0 -0.00000000000E+00 -0.00000000000E+00 -0.45593999997E+02  0.45594000000E+02  0.51100000000E-03 0.  1.
    9900012    2    1    2    0    0 -0.31909796272E+00 -0.77870371816E+00 -0.82757267644E+00  0.90007712101E+02  0.89999973100E+02 0.  0.
         12    1    1    2    0    0  0.31909796272E+00  0.77870371816E+00  0.82757267644E+00  0.11802878993E+01  0.00000000000E+00 0. -1.
         11    1    3    3    0    0 -0.71464673564E+01  0.12724911599E+01 -0.46312937075E+01  0.86104652078E+01  0.51100000000E-03 0. -1.
        -11    1    3    3    0    0  0.16695641943E+02  0.35305999916E+02  0.13911757214E+02  0.41458353549E+02  0.51100000000E-03 0.  1.
         12    1    3    3    0    0 -0.98682725497E+01 -0.37357194794E+02 -0.10108036183E+02  0.39938893343E+02  0.00000000000E+00 0. -1.
</event>
<event>
 7    1  0.1501154E-015  0.9000775E+02  0.7816164E-02  0.1186339E+00
        -11   -1    0    0    0    0  0.00000000000E+00  0.00000000000E+00  0.45593999997E+02  0.45594000000E+02  0.51100000000E-03 0.  1.
         11   -1    0    0    0    0 -0.00000000000E+00 -0.00000000000E+00 -0.45593999997E+02  0.45594000000E+02  0.51100000000E-03 0. -1.
    9900012    2    1    2    0    0 -0.79037391091E+00  0.53844893907E+00  0.69164025839E+00  0.90007752388E+02  0.90000013919E+02 0.  0.
         12    1    1    2    0    0  0.79037391091E+00 -0.53844893907E+00 -0.69164025839E+00  0.11802476122E+01  0.00000000000E+00 0. -1.
         11    1    3    3    0    0  0.53053381371E+01  0.10685732541E+01  0.23201629703E+01  0.58882610352E+01  0.51100000000E-03 0. -1.
        -11    1    3    3    0    0  0.13863239226E+02 -0.37039555158E+02  0.10236051273E+02  0.40852108808E+02  0.51100000000E-03 0.  1.
         12    1    3    3    0    0 -0.19958951274E+02  0.36509430843E+02 -0.11864573985E+02  0.43267382545E+02  0.00000000000E+00 0. -1.
</event>
<event>
 7    1  0.1501154E-015  0.9000811E+02  0.7816164E-02  0.1186338E+00
        -11   -1    0    0    0    0  0.00000000000E+00  0.00000000000E+00  0.45593999997E+02  0.45594000000E+02  0.51100000000E-03 0.  1.
         11   -1    0    0    0    0 -0.00000000000E+00 -0.00000000000E+00 -0.45593999997E+02  0.45594000000E+02  0.51100000000E-03 0. -1.
    9900012    2    1    2    0    0  0.42864501035E+00 -0.79132800174E+00  0.76302236558E+00  0.90008110310E+02  0.90000376565E+02 0.  0.
         12    1    1    2    0    0 -0.42864501035E+00  0.79132800174E+00 -0.76302236558E+00  0.11798896904E+01  0.00000000000E+00 0. -1.
         11    1    3    3    0    0  0.26741071815E+02  0.30775544192E+02 -0.93141154205E+01  0.41820710042E+02  0.51100000000E-03 0. -1.
        -11    1    3    3    0    0  0.31344141993E+01 -0.94040205345E+01 -0.23929757467E+00  0.99155140147E+01  0.51100000000E-03 0.  1.
        -12    1    3    3    0    0 -0.29446841004E+02 -0.22162851659E+02  0.10316435361E+02  0.38271886253E+02  0.00000000000E+00 0.  1.
</event>
<event>
 7    1  0.1501154E-015  0.9000802E+02  0.7816164E-02  0.1186338E+00
        -11   -1    0    0    0    0  0.00000000000E+00  0.00000000000E+00  0.45593999997E+02  0.45594000000E+02  0.51100000000E-03 0.  1.
         11   -1    0    0    0    0 -0.00000000000E+00 -0.00000000000E+00 -0.45593999997E+02  0.45594000000E+02  0.51100000000E-03 0. -1.
    9900012    2    1    2    0    0 -0.30751198968E+00 -0.67602121691E+00  0.91694207798E+00  0.90008020727E+02  0.90000285801E+02 0.  0.
         12    1    1    2    0    0  0.30751198968E+00  0.67602121691E+00 -0.91694207798E+00  0.11799792726E+01  0.00000000000E+00 0. -1.
         11    1    3    3    0    0 -0.17510922663E+02  0.30323378372E+02 -0.11420186134E+02  0.36831512866E+02  0.51100000000E-03 0. -1.
        -11    1    3    3    0    0 -0.65081562233E+01 -0.11737518868E+02 -0.87810318267E+01  0.16038452756E+02  0.51100000000E-03 0.  1.
        -12    1    3    3    0    0  0.23711566897E+02 -0.19261880721E+02  0.21118160038E+02  0.37138055105E+02  0.00000000000E+00 0.  1.
</event>
<event>
 7    1  0.1501154E-015  0.9000775E+02  0.7816164E-02  0.1186339E+00
        -11   -1    0    0    0    0  0.00000000000E+00  0.00000000000E+00  0.45593999997E+02  0.45594000000E+02  0.51100000000E-03 0.  1.
         11   -1    0    0    0    0 -0.00000000000E+00 -0.00000000000E+00 -0.45593999997E+02  0.45594000000E+02  0.51100000000E-03 0. -1.
    9900012    2    1    2    0    0 -0.25230798007E-01  0.11772816609E+01  0.79756990670E-01  0.90007750077E+02  0.90000011578E+02 0.  0.
         12    1    1    2    0    0  0.25230798007E-01 -0.11772816609E+01 -0.79756990670E-01  0.11802499226E+01  0.00000000000E+00 0. -1.
         11    1    3    3    0    0  0.11051238215E+01 -0.10986419346E+02 -0.40407677949E+02  0.41889176957E+02  0.51100000000E-03 0. -1.
        -11    1    3    3    0    0  0.56717213977E+01 -0.18866020858E+01  0.15594596004E+01  0.61773461575E+01  0.51100000000E-03 0.  1.
        -12    1    3    3    0    0 -0.68020760172E+01  0.14050303092E+02  0.38927975339E+02  0.41941226963E+02  0.00000000000E+00 0.  1.
</event>
<event>
 7    1  0.1501154E-015  0.9000779E+02  0.7816164E-02  0.1186339E+00
        -11   -1    0    0    0    0  0.00000000000E+00  0.00000000000E+00  0.45593999997E+02  0.45594000000E+02  0.51100000000E-03 0. -1.
         11   -1    0    0    0    0 -0.00000000000E+00 -0.00000000000E+00 -0.45593999997E+02  0.45594000000E+02  0.51100000000E-03 0.  1.
    9900012    2    1    2    0    0  0.43891759529E+00  0.68292620152E+00 -0.85665298359E+00  0.90007791888E+02  0.90000053941E+02 0.  0.
         12    1    1    2    0    0 -0.43891759529E+00 -0.68292620152E+00  0.85665298359E+00  0.11802081115E+01  0.00000000000E+00 0. -1.
         11    1    3    3    0    0 -0.27214409510E+01 -0.67806573639E+01 -0.56497039281E+01  0.92359466149E+01  0.51100000000E-03 0. -1.
        -11    1    3    3    0    0  0.23011717082E+02  0.60006108006E+01 -0.31446043915E+02  0.39425881489E+02  0.51100000000E-03 0.  1.
         12    1    3    3    0    0 -0.19851358535E+02  0.14629727648E+01  0.36239094860E+02  0.41345963784E+02  0.00000000000E+00 0. -1.
</event>
<event>
 7    1  0.1501154E-015  0.9000762E+02  0.7816164E-02  0.1186339E+00
        -11   -1    0    0    0    0  0.00000000000E+00  0.00000000000E+00  0.45593999997E+02  0.45594000000E+02  0.51100000000E-03 0. -1.
         11   -1    0    0    0    0 -0.00000000000E+00 -0.00000000000E+00 -0.45593999997E+02  0.45594000000E+02  0.51100000000E-03 0.  1.
    9900012    2    1    2    0    0 -0.67205621043E-01  0.10868770453E+01  0.45551082291E+00  0.90007615140E+02  0.89999874860E+02 0.  0.
         12    1    1    2    0    0  0.67205621044E-01 -0.10868770453E+01 -0.45551082291E+00  0.11803848597E+01  0.00000000000E+00 0. -1.
         11    1    3    3    0    0  0.34857913017E+02  0.14331189703E+02  0.29502104784E+01  0.37804243682E+02  0.51100000000E-03 0. -1.
        -11    1    3    3    0    0  0.38510460547E+01  0.28234659778E+01 -0.85523106420E+01  0.97951280452E+01  0.51100000000E-03 0.  1.
        -12    1    3    3    0    0 -0.38776164693E+02 -0.16067778636E+02  0.60576109865E+01  0.42408243414E+02  0.00000000000E+00 0.  1.
</event>
<event>
 7    1  0.1501154E-015  0.9000770E+02  0.7816164E-02  0.1186339E+00
        -11   -1    0    0    0    0  0.00000000000E+00  0.00000000000E+00  0.45593999997E+02  0.45594000000E+02  0.51100000000E-03 0. -1.
         11   -1    0    0    0    0 -0.00000000000E+00 -0.00000000000E+00 -0.45593999997E+02  0.45594000000E+02  0.51100000000E-03 0.  1.
    9900012    2    1    2    0    0  0.69596449539E+00 -0.95311325212E+00 -0.17749746117E-01  0.90007700672E+02  0.89999961521E+02 0.  0.
         12    1    1    2    0    0 -0.69596449539E+00  0.95311325212E+00  0.17749746117E-01  0.11802993280E+01  0.00000000000E+00 0. -1.
         11    1    3    3    0    0 -0.16305855042E+01 -0.37258822167E+01  0.64451144896E+01  0.76210569099E+01  0.51100000000E-03 0. -1.
        -11    1    3    3    0    0  0.28030964749E+02 -0.24243899486E+02  0.14277731623E+02  0.39715932163E+02  0.51100000000E-03 0.  1.
         12    1    3    3    0    0 -0.25704414750E+02  0.27016668450E+02 -0.20740595858E+02  0.42670711599E+02  0.00000000000E+00 0. -1.
</event>
<event>
 7    1  0.1501154E-015  0.9000743E+02  0.7816164E-02  0.1186340E+00
        -11   -1    0    0    0    0  0.00000000000E+00  0.00000000000E+00  0.45593999997E+02  0.45594000000E+02  0.51100000000E-03 0. -1.
         11   -1    0    0    0    0 -0.00000000000E+00 -0.00000000000E+00 -0.45593999997E+02  0.45594000000E+02  0.51100000000E-03 0.  1.
    9900012    2    1    2    0    0  0.10252823329E+01  0.11414874735E-02 -0.58527677818E+00  0.90007426380E+02  0.89999683608E+02 0.  0.
         12    1    1    2    0    0 -0.10252823329E+01 -0.11414874735E-02  0.58527677818E+00  0.11805736200E+01  0.00000000000E+00 0. -1.
         11    1    3    3    0    0  0.10279419119E+02 -0.20099994140E+02  0.22041566206E+02  0.31551653886E+02  0.51100000000E-03 0. -1.
        -11    1    3    3    0    0  0.65836132582E+01 -0.13745307717E+02 -0.98462670943E+00  0.15272424097E+02  0.51100000000E-03 0.  1.
        -12    1    3    3    0    0 -0.15837750045E+02  0.33846443344E+02 -0.21642216275E+02  0.43183348398E+02  0.00000000000E+00 0.  1.
</event>
<event>
 7    1  0.1501154E-015  0.9000770E+02  0.7816164E-02  0.1186339E+00
        -11   -1    0    0    0    0  0.00000000000E+00  0.00000000000E+00  0.45593999997E+02  0.45594000000E+02  0.51100000000E-03 0. -1.
         11   -1    0    0    0    0 -0.00000000000E+00 -0.00000000000E+00 -0.45593999997E+02  0.45594000000E+02  0.51100000000E-03 0.  1.
    9900012    2    1    2    0    0 -0.30912870178E+00  0.11214239056E+01  0.19987540168E+00  0.90007702450E+02  0.89999963322E+02 0.  0.
         12    1    1    2    0    0  0.30912870178E+00 -0.11214239056E+01 -0.19987540168E+00  0.11802975500E+01  0.00000000000E+00 0. -1.
         11    1    3    3    0    0 -0.51455436865E+01  0.80379372009E+01  0.33407756777E+01  0.10111668342E+02  0.51100000000E-03 0. -1.
        -11    1    3    3    0    0 -0.25330583068E+01 -0.11167561348E+02 -0.40238082544E+02  0.41835799238E+02  0.51100000000E-03 0.  1.
         12    1    3    3    0    0  0.73694732915E+01  0.42510480526E+01  0.37097182267E+02  0.38060234870E+02  0.00000000000E+00 0. -1.
</event>
<event>
 7    1  0.1501154E-015  0.9000741E+02  0.7816164E-02  0.1186340E+00
        -11   -1    0    0    0    0  0.00000000000E+00  0.00000000000E+00  0.45593999997E+02  0.45594000000E+02  0.51100000000E-03 0.  1.
         11   -1    0    0    0    0 -0.00000000000E+00 -0.00000000000E+00 -0.45593999997E+02  0.45594000000E+02  0.51100000000E-03 0. -1.
    9900012    2    1    2    0    0 -0.11341720226E+01 -0.17682551171E+00  0.27599589323E+00  0.90007412362E+02  0.89999669404E+02 0.  0.
         12    1    1    2    0    0  0.11341720226E+01  0.17682551171E+00 -0.27599589323E+00  0.11805876382E+01  0.00000000000E+00 0. -1.
         11    1    3    3    0    0  0.75826278309E+01  0.26602558240E+01 -0.33169496047E+01  0.86934090443E+01  0.51100000000E-03 0. -1.
        -11    1    3    3    0    0 -0.48520685356E+01 -0.41799134727E+02  0.16128204418E+01  0.42110704376E+02  0.51100000000E-03 0.  1.
         12    1    3    3    0    0 -0.38647313179E+01  0.38962053392E+02  0.19801250562E+01  0.39203298941E+02  0.00000000000E+00 0. -1.
</event>
<event>
 7    1  0.1501154E-015  0.9000826E+02  0.7816164E-02  0.1186338E+00
        -11   -1    0    0    0    0  0.00000000000E+00  0.00000000000E+00  0.45593999997E+02  0.45594000000E+02  0.51100000000E-03 0.  1.
         11   -1    0    0    0    0 -0.00000000000E+00 -0.00000000000E+00 -0.45593999997E+02  0.45594000000E+02  0.51100000000E-03 0. -1.
    9900012    2    1    2    0    0 -0.11038544778E+01 -0.30112309603E+00 -0.28742289544E+00  0.90008262000E+02  0.90000530257E+02 0.  0.
         12    1    1    2    0    0  0.11038544778E+01  0.30112309603E+00  0.28742289544E+00  0.11797379997E+01  0.00000000000E+00 0. -1.
         11    1    3    3    0    0 -0.19975152928E+02 -0.42148969693E+01 -0.30589266884E+02  0.36776015822E+02  0.51100000000E-03 0. -1.
        -11    1    3    3    0    0 -0.75669779250E+01  0.45469393742E+01 -0.41874732425E+01  0.97708108675E+01  0.51100000000E-03 0.  1.
        -12    1    3    3    0    0  0.26438276376E+02 -0.63316550092E+00  0.34489317231E+02  0.43461435311E+02  0.00000000000E+00 0.  1.
</event>
<event>
 7    1  0.1501154E-015  0.9000773E+02  0.7816164E-02  0.1186339E+00
        -11   -1    0    0    0    0  0.00000000000E+00  0.00000000000E+00  0.45593999997E+02  0.45594000000E+02  0.51100000000E-03 0.  1.
         11   -1    0    0    0    0 -0.00000000000E+00 -0.00000000000E+00 -0.45593999997E+02  0.45594000000E+02  0.51100000000E-03 0. -1.
    9900012    2    1    2    0    0  0.14935047839E-01  0.95212266501E-01  0.11763277797E+01  0.90007730761E+02  0.89999992007E+02 0.  0.
         12    1    1    2    0    0 -0.14935047839E-01 -0.95212266501E-01 -0.11763277797E+01  0.11802692391E+01  0.00000000000E+00 0. -1.
         11    1    3    3    0    0  0.81989369089E+01  0.38917086065E+01  0.35899231138E+01  0.97598929574E+01  0.51100000000E-03 0. -1.
        -11    1    3    3    0    0  0.30138298605E+02 -0.17189267869E+02  0.12676314779E+02  0.36938826854E+02  0.51100000000E-03 0.  1.
         12    1    3    3    0    0 -0.38322300466E+02  0.13392771529E+02 -0.15089910113E+02  0.43309010950E+02  0.00000000000E+00 0. -1.
</event>
<event>
 7    1  0.1501154E-015  0.9000723E+02  0.7816164E-02  0.1186340E+00
        -11   -1    0    0    0    0  0.00000000000E+00  0.00000000000E+00  0.45593999997E+02  0.45594000000E+02  0.51100000000E-03 0.  1.
         11   -1    0    0    0    0 -0.00000000000E+00 -0.00000000000E+00 -0.45593999997E+02  0.45594000000E+02  0.51100000000E-03 0. -1.
    9900012    2    1    2    0    0 -0.75298752150E+00 -0.27409811307E+00  0.86723520435E+00  0.90007230385E+02  0.89999485025E+02 0.  0.
         12    1    1    2    0    0  0.75298752150E+00  0.27409811307E+00 -0.86723520435E+00  0.11807696146E+01  0.00000000000E+00 0. -1.
         11    1    3    3    0    0 -0.24092149887E+02  0.26098633441E+02 -0.22120865618E+02  0.41843793442E+02  0.51100000000E-03 0. -1.
        -11    1    3    3    0    0 -0.13102968256E+01 -0.10292067995E+01  0.10557211326E+02  0.10687883590E+02  0.51100000000E-03 0.  1.
        -12    1    3    3    0    0  0.24649459191E+02 -0.25343524755E+02  0.12430889497E+02  0.37475553353E+02  0.00000000000E+00 0.  1.
</event>
<event>
 7    1  0.1501154E-015  0.9000775E+02  0.7816164E-02  0.1186339E+00
        -11   -1    0    0    0    0  0.00000000000E+00  0.00000000000E+00  0.45593999997E+02  0.45594000000E+02  0.51100000000E-03 0.  1.
         11   -1    0    0    0    0 -0.00000000000E+00 -0.00000000000E+00 -0.45593999997E+02  0.45594000000E+02  0.51100000000E-03 0. -1.
    9900012    2    1    2    0    0 -0.23079012201E+00  0.99933571357E+00  0.58400655366E+00  0.90007745958E+02  0.90000007405E+02 0.  0.
         12    1    1    2    0    0  0.23079012201E+00 -0.99933571357E+00 -0.58400655366E+00  0.11802540420E+01  0.00000000000E+00 0. -1.
         11    1    3    3    0    0  0.92340669611E-01  0.28308141923E+02  0.85323172142E+01  0.29566194601E+02  0.51100000000E-03 0. -1.
        -11    1    3    3    0    0  0.11515079045E+02 -0.21061311778E+00  0.17820373313E+02  0.21218084470E+02  0.51100000000E-03 0.  1.
         12    1    3    3    0    0 -0.11838209836E+02 -0.27098193091E+02 -0.25768683973E+02  0.39223466887E+02  0.00000000000E+00 0. -1.
</event>
<event>
 7    1  0.1501154E-015  0.9000779E+02  0.7816164E-02  0.1186339E+00
        -11   -1    0    0    0    0  0.00000000000E+00  0.00000000000E+00  0.45593999997E+02  0.45594000000E+02  0.51100000000E-03 0. -1.
         11   -1    0    0    0    0 -0.00000000000E+00 -0.00000000000E+00 -0.45593999997E+02  0.45594000000E+02  0.51100000000E-03 0.  1.
    9900012    2    1    2    0    0  0.15393283260E-03  0.78499619411E+00 -0.88129664510E+00  0.90007786958E+02  0.90000048946E+02 0.  0.
         12    1    1    2    0    0 -0.15393283260E-03 -0.78499619411E+00  0.88129664510E+00  0.11802130423E+01  0.00000000000E+00 0. -1.
         11    1    3    3    0    0  0.34782786663E+01 -0.45857153345E+01 -0.71556272794E+01  0.91831481330E+01  0.51100000000E-03 0. -1.
        -11    1    3    3    0    0  0.24174320108E+02 -0.18004010142E+02 -0.19924598247E+02  0.36132142884E+02  0.51100000000E-03 0.  1.
         12    1    3    3    0    0 -0.27652444841E+02  0.23374721670E+02  0.26198928881E+02  0.44692495940E+02  0.00000000000E+00 0. -1.
</event>
<event>
 7    1  0.1501154E-015  0.9000772E+02  0.7816164E-02  0.1186339E+00
        -11   -1    0    0    0    0  0.00000000000E+00  0.00000000000E+00  0.45593999997E+02  0.45594000000E+02  0.51100000000E-03 0. -1.
         11   -1    0    0    0    0 -0.00000000000E+00 -0.00000000000E+00 -0.45593999997E+02  0.45594000000E+02  0.51100000000E-03 0.  1.
    9900012    2    1    2    0    0 -0.10076224003E+01 -0.42057399354E+00 -0.44818890048E+00  0.90007720933E+02  0.89999982049E+02 0.  0.
         12    1    1    2    0    0  0.10076224003E+01  0.42057399354E+00  0.44818890048E+00  0.11802790671E+01  0.00000000000E+00 0. -1.
         11    1    3    3    0    0 -0.37726612083E+02  0.39477847014E+01  0.17108636709E+02  0.41612350494E+02  0.51100000000E-03 0. -1.
        -11    1    3    3    0    0 -0.30212789494E+01  0.65583750852E+00 -0.59266239438E+01  0.66845434369E+01  0.51100000000E-03 0.  1.
        -12    1    3    3    0    0  0.39740268632E+02 -0.50241962034E+01 -0.11630201666E+02  0.41710827002E+02  0.00000000000E+00 0.  1.
</event>
<event>
 7    1  0.1501154E-015  0.9000776E+02  0.7816164E-02  0.1186339E+00
        -11   -1    0    0    0    0  0.00000000000E+00  0.00000000000E+00  0.45593999997E+02  0.45594000000E+02  0.51100000000E-03 0.  1.
         11   -1    0    0    0    0 -0.00000000000E+00 -0.00000000000E+00 -0.45593999997E+02  0.45594000000E+02  0.51100000000E-03 0. -1.
    9900012    2    1    2    0    0  0.12135035126E+00 -0.53355056984E+00  0.10457406492E+01  0.90007756117E+02  0.90000017698E+02 0.  0.
         12    1    1    2    0    0 -0.12135035126E+00  0.53355056984E+00 -0.10457406492E+01  0.11802438831E+01  0.00000000000E+00 0. -1.
         11    1    3    3    0    0  0.56065001495E+01  0.17884148527E+01  0.68633959086E+01  0.90408780144E+01  0.51100000000E-03 0. -1.
        -11    1    3    3    0    0 -0.29589708195E+02  0.16986419029E+02  0.21000527587E+02  0.40063841824E+02  0.51100000000E-03 0.  1.
         12    1    3    3    0    0  0.24104558397E+02 -0.19308384451E+02 -0.26818182846E+02  0.40903036279E+02  0.00000000000E+00 0. -1.
</event>
<event>
 7    1  0.1501154E-015  0.9000773E+02  0.7816164E-02  0.1186339E+00
        -11   -1    0    0    0    0  0.00000000000E+00  0.00000000000E+00  0.45593999997E+02  0.45594000000E+02  0.51100000000E-03 0.  1.
         11   -1    0    0    0    0 -0.00000000000E+00 -0.00000000000E+00 -0.45593999997E+02  0.45594000000E+02  0.51100000000E-03 0. -1.
    9900012    2    1    2    0    0 -0.68285961075E+00  0.83053422980E+00  0.48676934174E+00  0.90007733612E+02  0.89999994896E+02 0.  0.
         12    1    1    2    0    0  0.68285961075E+00 -0.83053422980E+00 -0.48676934174E+00  0.11802663881E+01  0.00000000000E+00 0. -1.
         11    1    3    3    0    0  0.13419609935E+02  0.36957752357E+02 -0.52289500976E+01  0.39664887615E+02  0.51100000000E-03 0. -1.
        -11    1    3    3    0    0  0.72431391300E+01  0.37775129284E+00 -0.15991212217E+01  0.74271764109E+01  0.51100000000E-03 0.  1.
        -12    1    3    3    0    0 -0.21345608676E+02 -0.36504969420E+02  0.73148406610E+01  0.42915669586E+02  0.00000000000E+00 0.  1.
</event>
<event>
 7    1  0.1501154E-015  0.9000774E+02  0.7816164E-02  0.1186339E+00
        -11   -1    0    0    0    0  0.00000000000E+00  0.00000000000E+00  0.45593999997E+02  0.45594000000E+02  0.51100000000E-03 0.  1.
         11   -1    0    0    0    0 -0.00000000000E+00 -0.00000000000E+00 -0.45593999997E+02  0.45594000000E+02  0.51100000000E-03 0. -1.
    9900012    2    1    2    0    0  0.83494671334E+00  0.81390706766E+00  0.18284130392E+00  0.90007740846E+02  0.90000002225E+02 0.  0.
         12    1    1    2    0    0 -0.83494671334E+00 -0.81390706766E+00 -0.18284130392E+00  0.11802591543E+01  0.00000000000E+00 0. -1.
         11    1    3    3    0    0  0.12887149378E+00  0.61511075031E+01 -0.89839746174E+01  0.10888734158E+02  0.51100000000E-03 0. -1.
        -11    1    3    3    0    0  0.38228631754E+01  0.92506733129E+01  0.41936150242E+02  0.43114150078E+02  0.51100000000E-03 0.  1.
         12    1    3    3    0    0 -0.31167879559E+01 -0.14587873748E+02 -0.32769334320E+02  0.36004856609E+02  0.00000000000E+00 0. -1.
</event>
<event>
 7    1  0.1501154E-015  0.9000759E+02  0.7816164E-02  0.1186339E+00
        -11   -1    0    0    0    0  0.00000000000E+00  0.00000000000E+00  0.45593999997E+02  0.45594000000E+02  0.51100000000E-03 0.  1.
         11   -1    0    0    0    0 -0.00000000000E+00 -0.00000000000E+00 -0.45593999997E+02  0.45594000000E+02  0.51100000000E-03 0. -1.
    9900012    2    1    2    0    0 -0.45343059186E+00  0.16205829504E+00  0.10777315340E+01  0.90007590134E+02  0.89999849523E+02 0.  0.
         12    1    1    2    0    0  0.45343059186E+00 -0.16205829504E+00 -0.10777315340E+01  0.11804098661E+01  0.00000000000E+00 0. -1.
         11    1    3    3    0    0 -0.11482970750E+01  0.12376108910E+00  0.99406453963E+01  0.10007513884E+02  0.51100000000E-03 0. -1.
        -11    1    3    3    0    0  0.21088841535E+02 -0.54691872229E+00  0.29666359115E+02  0.36402351857E+02  0.51100000000E-03 0.  1.
         12    1    3    3    0    0 -0.20393975052E+02  0.58521592823E+00 -0.38529272977E+02  0.43597724393E+02  0.00000000000E+00 0. -1.
</event>
<event>
 7    1  0.1501154E-015  0.9000774E+02  0.7816164E-02  0.1186339E+00
        -11   -1    0    0    0    0  0.00000000000E+00  0.00000000000E+00  0.45593999997E+02  0.45594000000E+02  0.51100000000E-03 0. -1.
         11   -1    0    0    0    0 -0.00000000000E+00 -0.00000000000E+00 -0.45593999997E+02  0.45594000000E+02  0.51100000000E-03 0.  1.
    9900012    2    1    2    0    0  0.11023629387E+01 -0.25157402958E+00 -0.33839659385E+00  0.90007743335E+02  0.90000004747E+02 0.  0.
         12    1    1    2    0    0 -0.11023629387E+01  0.25157402958E+00  0.33839659385E+00  0.11802566652E+01  0.00000000000E+00 0. -1.
         11    1    3    3    0    0 -0.20501382928E+01  0.85868544330E+01  0.12851410028E+01  0.89212512425E+01  0.51100000000E-03 0. -1.
        -11    1    3    3    0    0 -0.15684072796E+02 -0.13583569374E+01 -0.37059141126E+02  0.40264316886E+02  0.51100000000E-03 0.  1.
         12    1    3    3    0    0  0.18836574027E+02 -0.74800715252E+01  0.35435603529E+02  0.40822175206E+02  0.00000000000E+00 0. -1.
</event>
<event>
 7    1  0.1501154E-015  0.9000772E+02  0.7816164E-02  0.1186339E+00
        -11   -1    0    0    0    0  0.00000000000E+00  0.00000000000E+00  0.45593999997E+02  0.45594000000E+02  0.51100000000E-03 0.  1.
         11   -1    0    0    0    0 -0.00000000000E+00 -0.00000000000E+00 -0.45593999997E+02  0.45594000000E+02  0.51100000000E-03 0. -1.
    9900012    2    1    2    0    0 -0.11246169896E+01 -0.35807561239E+00  0.89985076679E-02  0.90007719317E+02  0.89999980412E+02 0.  0.
         12    1    1    2    0    0  0.11246169896E+01  0.35807561239E+00 -0.89985076679E-02  0.11802806830E+01  0.00000000000E+00 0. -1.
         11    1    3    3    0    0  0.43903239194E+01  0.53794206504E+01  0.33451907520E+00  0.69516195181E+01  0.51100000000E-03 0. -1.
        -11    1    3    3    0    0 -0.17865745033E+02  0.35518989147E+02 -0.32480446992E+01  0.39891518274E+02  0.51100000000E-03 0.  1.
         12    1    3    3    0    0  0.12350804124E+02 -0.41256485410E+02  0.29225241316E+01  0.43164581524E+02  0.00000000000E+00 0. -1.
</event>
<event>
 7    1  0.1501154E-015  0.9000775E+02  0.7816164E-02  0.1186339E+00
        -11   -1    0    0    0    0  0.00000000000E+00  0.00000000000E+00  0.45593999997E+02  0.45594000000E+02  0.51100000000E-03 0. -1.
         11   -1    0    0    0    0 -0.00000000000E+00 -0.00000000000E+00 -0.45593999997E+02  0.45594000000E+02  0.51100000000E-03 0.  1.
    9900012    2    1    2    0    0 -0.30348498021E+00  0.47256009841E+00 -0.10380662223E+01  0.90007746781E+02  0.90000008238E+02 0.  0.
         12    1    1    2    0    0  0.30348498021E+00 -0.47256009841E+00  0.10380662223E+01  0.11802532193E+01  0.00000000000E+00 0. -1.
         11    1    3    3    0    0  0.83076171662E+01 -0.23539434211E+00  0.31219420585E+01  0.88779747665E+01  0.51100000000E-03 0. -1.
        -11    1    3    3    0    0  0.24494855149E+02 -0.17257612569E+02 -0.24152842296E+02  0.38486139214E+02  0.51100000000E-03 0.  1.
         12    1    3    3    0    0 -0.33105957296E+02  0.17965567009E+02  0.19992834015E+02  0.42643632800E+02  0.00000000000E+00 0. -1.
</event>
<event>
 7    1  0.1501154E-015  0.9000762E+02  0.7816164E-02  0.1186339E+00
        -11   -1    0    0    0    0  0.00000000000E+00  0.00000000000E+00  0.45593999997E+02  0.45594000000E+02  0.51100000000E-03 0.  1.
         11   -1    0    0    0    0 -0.00000000000E+00 -0.00000000000E+00 -0.45593999997E+02  0.45594000000E+02  0.51100000000E-03 0. -1.
    9900012    2    1    2    0    0  0.22152456022E+00 -0.59016543763E+00  0.99796638021E+00  0.90007616473E+02  0.89999876210E+02 0.  0.
         12    1    1    2    0    0 -0.22152456022E+00  0.59016543763E+00 -0.99796638020E+00  0.11803835269E+01  0.00000000000E+00 0. -1.
         11    1    3    3    0    0 -0.30502777009E+01 -0.10418174611E+01 -0.72618925150E+01  0.79451029468E+01  0.51100000000E-03 0. -1.
        -11    1    3    3    0    0 -0.43088399210E+01 -0.40115749208E+02  0.51892259339E+01  0.40678833587E+02  0.51100000000E-03 0.  1.
         12    1    3    3    0    0  0.75806421821E+01  0.40567401231E+02  0.30706329613E+01  0.41383679939E+02  0.00000000000E+00 0. -1.
</event>
<event>
 7    1  0.1501154E-015  0.9000753E+02  0.7816164E-02  0.1186339E+00
        -11   -1    0    0    0    0  0.00000000000E+00  0.00000000000E+00  0.45593999997E+02  0.45594000000E+02  0.51100000000E-03 0. -1.
         11   -1    0    0    0    0 -0.00000000000E+00 -0.00000000000E+00 -0.45593999997E+02  0.45594000000E+02  0.51100000000E-03 0.  1.
    9900012    2    1    2    0    0  0.34467699472E+00 -0.25703281735E+00 -0.10993819024E+01  0.90007530319E+02  0.89999788919E+02 0.  0.
         12    1    1    2    0    0 -0.34467699472E+00  0.25703281735E+00  0.10993819024E+01  0.11804696808E+01  0.00000000000E+00 0. -1.
         11    1    3    3    0    0 -0.26131892646E+01 -0.92923195184E+01 -0.27173385024E+01  0.10027955373E+02  0.51100000000E-03 0. -1.
        -11    1    3    3    0    0 -0.12748124529E+02  0.52299581885E+01 -0.36264534804E+02  0.38794118452E+02  0.51100000000E-03 0.  1.
         12    1    3    3    0    0  0.15705990788E+02  0.38053285125E+01  0.37882491404E+02  0.41185456495E+02  0.00000000000E+00 0. -1.
</event>
<event>
 7    1  0.1501154E-015  0.9000772E+02  0.7816164E-02  0.1186339E+00
        -11   -1    0    0    0    0  0.00000000000E+00  0.00000000000E+00  0.45593999997E+02  0.45594000000E+02  0.51100000000E-03 0.  1.
         11   -1    0    0    0    0 -0.00000000000E+00 -0.00000000000E+00 -0.45593999997E+02  0.45594000000E+02  0.51100000000E-03 0. -1.
    9900012    2    1    2    0    0  0.16726433859E+00  0.11676667363E+01  0.40410181283E-01  0.90007722088E+02  0.89999983220E+02 0.  0.
         12    1    1    2    0    0 -0.16726433859E+00 -0.11676667363E+01 -0.40410181283E-01  0.11802779116E+01  0.00000000000E+00 0. -1.
         11    1    3    3    0    0  0.17636968813E+02 -0.38340445122E+02  0.18688603047E+01  0.42243875771E+02  0.51100000000E-03 0. -1.
        -11    1    3    3    0    0 -0.48336711743E+01  0.25572290998E+01 -0.64312039713E+01  0.84418115634E+01  0.51100000000E-03 0.  1.
        -12    1    3    3    0    0 -0.12636033300E+02  0.36950882759E+02  0.46027538479E+01  0.39322034754E+02  0.00000000000E+00 0.  1.
</event>
<event>
 7    1  0.1501154E-015  0.9000776E+02  0.7816164E-02  0.1186339E+00
        -11   -1    0    0    0    0  0.00000000000E+00  0.00000000000E+00  0.45593999997E+02  0.45594000000E+02  0.51100000000E-03 0. -1.
         11   -1    0    0    0    0 -0.00000000000E+00 -0.00000000000E+00 -0.45593999997E+02  0.45594000000E+02  0.51100000000E-03 0.  1.
    9900012    2    1    2    0    0  0.86812656179E+00 -0.78532771885E+00  0.15029513836E+00  0.90007757660E+02  0.90000019261E+02 0.  0.
         12    1    1    2    0    0 -0.86812656179E+00  0.78532771885E+00 -0.15029513836E+00  0.11802423403E+01  0.00000000000E+00 0. -1.
         11    1    3    3    0    0 -0.71355004053E+01  0.30129386309E+02  0.20384739336E+02  0.37070647195E+02  0.51100000000E-03 0. -1.
        -11    1    3    3    0    0 -0.84923708770E+01 -0.60622580851E-01  0.49487651257E+01  0.98292580972E+01  0.51100000000E-03 0.  1.
        -12    1    3    3    0    0  0.16495997844E+02 -0.30854091447E+02 -0.25183209323E+02  0.43107852367E+02  0.00000000000E+00 0.  1.
</event>
<event>
 7    1  0.1501154E-015  0.9000774E+02  0.7816164E-02  0.1186339E+00
        -11   -1    0    0    0    0  0.00000000000E+00  0.00000000000E+00  0.45593999997E+02  0.45594000000E+02  0.51100000000E-03 0.  1.
         11   -1    0    0    0    0 -0.00000000000E+00 -0.00000000000E+00 -0.45593999997E+02  0.45594000000E+02  0.51100000000E-03 0. -1.
    9900012    2    1    2    0    0  0.96836128310E+00 -0.60880095318E-01 -0.67199575619E+00  0.90007742292E+02  0.90000003690E+02 0.  0.
         12    1    1    2    0    0 -0.96836128310E+00  0.60880095318E-01  0.67199575619E+00  0.11802577078E+01  0.00000000000E+00 0. -1.
         11    1    3    3    0    0 -0.32300917347E+02 -0.23115434981E+02 -0.93642505276E+00  0.39730963844E+02  0.51100000000E-03 0. -1.
        -11    1    3    3    0    0 -0.12680736968E+01  0.17756216301E+01  0.85918785412E+01  0.88646049095E+01  0.51100000000E-03 0.  1.
        -12    1    3    3    0    0  0.34537352327E+02  0.21278933256E+02 -0.83274492446E+01  0.41412173539E+02  0.00000000000E+00 0.  1.
</event>
<event>
 7    1  0.1501154E-015  0.9000771E+02  0.7816164E-02  0.1186339E+00
        -11   -1    0    0    0    0  0.00000000000E+00  0.00000000000E+00  0.45593999997E+02  0.45594000000E+02  0.51100000000E-03 0.  1.
         11   -1    0    0    0    0 -0.00000000000E+00 -0.00000000000E+00 -0.45593999997E+02  0.45594000000E+02  0.51100000000E-03 0. -1.
    9900012    2    1    2    0    0  0.28998824825E+00 -0.15971018255E+00  0.11329063556E+01  0.90007713028E+02  0.89999974040E+02 0.  0.
         12    1    1    2    0    0 -0.28998824825E+00  0.15971018255E+00 -0.11329063556E+01  0.11802869724E+01  0.00000000000E+00 0. -1.
         11    1    3    3    0    0 -0.97775908901E-01  0.30490665417E+01  0.87648513531E+01  0.92805703708E+01  0.51100000000E-03 0. -1.
        -11    1    3    3    0    0  0.21662875745E+01 -0.42119180523E+01  0.36370372400E+02  0.36677473255E+02  0.51100000000E-03 0.  1.
         12    1    3    3    0    0 -0.17785234174E+01  0.10031413280E+01 -0.44002317398E+02  0.44049669402E+02  0.00000000000E+00 0. -1.
</event>
<event>
 7    1  0.1501154E-015  0.9000779E+02  0.7816164E-02  0.1186339E+00
        -11   -1    0    0    0    0  0.00000000000E+00  0.00000000000E+00  0.45593999997E+02  0.45594000000E+02  0.51100000000E-03 0.  1.
         11   -1    0    0    0    0 -0.00000000000E+00 -0.00000000000E+00 -0.45593999997E+02  0.45594000000E+02  0.51100000000E-03 0. -1.
    9900012    2    1    2    0    0  0.44486117548E+00  0.57568162237E+00 -0.92929421500E+00  0.90007788776E+02  0.90000050788E+02 0.  0.
         12    1    1    2    0    0 -0.44486117548E+00 -0.57568162237E+00  0.92929421500E+00  0.11802112242E+01  0.00000000000E+00 0. -1.
         11    1    3    3    0    0 -0.15016693111E+02 -0.31263994370E+02 -0.21995979156E+02  0.41070202279E+02  0.51100000000E-03 0. -1.
        -11    1    3    3    0    0  0.38042811952E+01 -0.42938541390E+01  0.53550412978E+01  0.78476879615E+01  0.51100000000E-03 0.  1.
        -12    1    3    3    0    0  0.11657273091E+02  0.36133530131E+02  0.15711643644E+02  0.41089898535E+02  0.00000000000E+00 0.  1.
</event>
<event>
 7    1  0.1501154E-015  0.9000773E+02  0.7816164E-02  0.1186339E+00
        -11   -1    0    0    0    0  0.00000000000E+00  0.00000000000E+00  0.45593999997E+02  0.45594000000E+02  0.51100000000E-03 0.  1.
         11   -1    0    0    0    0 -0.00000000000E+00 -0.00000000000E+00 -0.45593999997E+02  0.45594000000E+02  0.51100000000E-03 0. -1.
    9900012    2    1    2    0    0  0.26376270103E+00  0.10477796676E+01  0.47499933973E+00  0.90007729960E+02  0.89999991196E+02 0.  0.
         12    1    1    2    0    0 -0.26376270103E+00 -0.10477796676E+01 -0.47499933973E+00  0.11802700399E+01  0.00000000000E+00 0. -1.
         11    1    3    3    0    0 -0.81101951276E+01 -0.18572759589E+02  0.19979184730E+02  0.28458574920E+02  0.51100000000E-03 0. -1.
        -11    1    3    3    0    0 -0.49968209927E+01 -0.17287835258E+02 -0.11871041489E+02  0.21558272061E+02  0.51100000000E-03 0.  1.
        -12    1    3    3    0    0  0.13370778821E+02  0.36908374515E+02 -0.76331439013E+01  0.39990882979E+02  0.00000000000E+00 0.  1.
</event>
<event>
 7    1  0.1501154E-015  0.9000776E+02  0.7816164E-02  0.1186339E+00
        -11   -1    0    0    0    0  0.00000000000E+00  0.00000000000E+00  0.45593999997E+02  0.45594000000E+02  0.51100000000E-03 0.  1.
         11   -1    0    0    0    0 -0.00000000000E+00 -0.00000000000E+00 -0.45593999997E+02  0.45594000000E+02  0.51100000000E-03 0. -1.
    9900012    2    1    2    0    0  0.97667848572E+00  0.50604578145E+00  0.42775198731E+00  0.90007764871E+02  0.90000026567E+02 0.  0.
         12    1    1    2    0    0 -0.97667848572E+00 -0.50604578145E+00 -0.42775198731E+00  0.11802351291E+01  0.00000000000E+00 0. -1.
         11    1    3    3    0    0  0.75949900646E+01  0.56464636597E+01 -0.11196202472E+02  0.14660196997E+02  0.51100000000E-03 0. -1.
        -11    1    3    3    0    0  0.23475195979E+02  0.12810192267E+02  0.26161158562E+02  0.37411122273E+02  0.51100000000E-03 0.  1.
         12    1    3    3    0    0 -0.30093507558E+02 -0.17950610145E+02 -0.14537204102E+02  0.37936445601E+02  0.00000000000E+00 0. -1.
</event>
<event>
 7    1  0.1501154E-015  0.9000772E+02  0.7816164E-02  0.1186339E+00
        -11   -1    0    0    0    0  0.00000000000E+00  0.00000000000E+00  0.45593999997E+02  0.45594000000E+02  0.51100000000E-03 0. -1.
         11   -1    0    0    0    0 -0.00000000000E+00 -0.00000000000E+00 -0.45593999997E+02  0.45594000000E+02  0.51100000000E-03 0.  1.
    9900012    2    1    2    0    0  0.42057856003E+00  0.10283608687E+00 -0.10979958653E+01  0.90007721852E+02  0.89999982981E+02 0.  0.
         12    1    1    2    0    0 -0.42057856003E+00 -0.10283608687E+00  0.10979958653E+01  0.11802781478E+01  0.00000000000E+00 0. -1.
         11    1    3    3    0    0  0.30390642498E+02 -0.13058292005E+02  0.12060017369E+02  0.35207302662E+02  0.51100000000E-03 0. -1.
        -11    1    3    3    0    0  0.77510535071E+01 -0.52398829766E+01 -0.83783655337E+01  0.12559148592E+02  0.51100000000E-03 0.  1.
        -12    1    3    3    0    0 -0.37721117445E+02  0.18401011068E+02 -0.47796477003E+01  0.42241270598E+02  0.00000000000E+00 0.  1.
</event>
<event>
 7    1  0.1501154E-015  0.9000764E+02  0.7816164E-02  0.1186339E+00
        -11   -1    0    0    0    0  0.00000000000E+00  0.00000000000E+00  0.45593999997E+02  0.45594000000E+02  0.51100000000E-03 0.  1.
         11   -1    0    0    0    0 -0.00000000000E+00 -0.00000000000E+00 -0.45593999997E+02  0.45594000000E+02  0.51100000000E-03 0. -1.
    9900012    2    1    2    0    0  0.10055476427E+01  0.54398986050E+00 -0.29361558741E+00  0.90007635165E+02  0.89999895149E+02 0.  0.
         12    1    1    2    0    0 -0.10055476427E+01 -0.54398986050E+00  0.29361558741E+00  0.11803648348E+01  0.00000000000E+00 0. -1.
         11    1    3    3    0    0  0.26542228713E+02  0.61160356412E+01 -0.80851501678E+01  0.28412417189E+02  0.51100000000E-03 0. -1.
        -11    1    3    3    0    0  0.12531713820E+02  0.94760426470E+01  0.12919085813E+02  0.20340649302E+02  0.51100000000E-03 0.  1.
        -12    1    3    3    0    0 -0.38068394890E+02 -0.15048088428E+02 -0.51275512331E+01  0.41254568674E+02  0.00000000000E+00 0.  1.
</event>
<event>
 7    1  0.1501154E-015  0.9000778E+02  0.7816164E-02  0.1186339E+00
        -11   -1    0    0    0    0  0.00000000000E+00  0.00000000000E+00  0.45593999997E+02  0.45594000000E+02  0.51100000000E-03 0.  1.
         11   -1    0    0    0    0 -0.00000000000E+00 -0.00000000000E+00 -0.45593999997E+02  0.45594000000E+02  0.51100000000E-03 0. -1.
    9900012    2    1    2    0    0  0.10147591220E+01  0.47851543681E+00  0.36634563173E+00  0.90007778741E+02  0.90000040620E+02 0.  0.
         12    1    1    2    0    0 -0.10147591220E+01 -0.47851543681E+00 -0.36634563173E+00  0.11802212593E+01  0.00000000000E+00 0. -1.
         11    1    3    3    0    0 -0.88251371197E+01  0.41784808880E+01  0.21533620112E+01  0.99989857449E+01  0.51100000000E-03 0. -1.
        -11    1    3    3    0    0 -0.32444231008E+02  0.86720084897E-01 -0.14722503271E+02  0.35628468237E+02  0.51100000000E-03 0.  1.
         12    1    3    3    0    0  0.42284127250E+02 -0.37866855361E+01  0.12935486891E+02  0.44380324759E+02  0.00000000000E+00 0. -1.
</event>
<event>
 7    1  0.1501154E-015  0.9000772E+02  0.7816164E-02  0.1186339E+00
        -11   -1    0    0    0    0  0.00000000000E+00  0.00000000000E+00  0.45593999997E+02  0.45594000000E+02  0.51100000000E-03 0.  1.
         11   -1    0    0    0    0 -0.00000000000E+00 -0.00000000000E+00 -0.45593999997E+02  0.45594000000E+02  0.51100000000E-03 0. -1.
    9900012    2    1    2    0    0 -0.59571110416E+00  0.11165956997E-01  0.10188547838E+01  0.90007719750E+02  0.89999980851E+02 0.  0.
         12    1    1    2    0    0  0.59571110416E+00 -0.11165956997E-01 -0.10188547838E+01  0.11802802500E+01  0.00000000000E+00 0. -1.
         11    1    3    3    0    0  0.33113698433E+02  0.15451633525E+02 -0.76154612699E+01  0.37326468533E+02  0.51100000000E-03 0. -1.
        -11    1    3    3    0    0 -0.39005743602E-01  0.32573169875E+01 -0.95501420134E+01  0.10090433496E+02  0.51100000000E-03 0.  1.
        -12    1    3    3    0    0 -0.33670403794E+02 -0.18697784556E+02  0.18184458067E+02  0.42590817721E+02  0.00000000000E+00 0.  1.
</event>
<event>
 7    1  0.1501154E-015  0.9000763E+02  0.7816164E-02  0.1186339E+00
        -11   -1    0    0    0    0  0.00000000000E+00  0.00000000000E+00  0.45593999997E+02  0.45594000000E+02  0.51100000000E-03 0.  1.
         11   -1    0    0    0    0 -0.00000000000E+00 -0.00000000000E+00 -0.45593999997E+02  0.45594000000E+02  0.51100000000E-03 0. -1.
    9900012    2    1    2    0    0  0.64632562312E+00  0.97192380577E+00  0.17576558418E+00  0.90007633008E+02  0.89999892964E+02 0.  0.
         12    1    1    2    0    0 -0.64632562312E+00 -0.97192380577E+00 -0.17576558418E+00  0.11803669920E+01  0.00000000000E+00 0. -1.
         11    1    3    3    0    0 -0.73645922011E+01 -0.21095107034E+02 -0.36315695417E+02  0.42638837847E+02  0.51100000000E-03 0. -1.
        -11    1    3    3    0    0  0.25615970490E+01  0.52879512743E+01 -0.97550913017E+00  0.59561586988E+01  0.51100000000E-03 0.  1.
        -12    1    3    3    0    0  0.54493207752E+01  0.16779079565E+02  0.37466970131E+02  0.41412636462E+02  0.00000000000E+00 0.  1.
</event>
<event>
 7    1  0.1501154E-015  0.9000762E+02  0.7816164E-02  0.1186339E+00
        -11   -1    0    0    0    0  0.00000000000E+00  0.00000000000E+00  0.45593999997E+02  0.45594000000E+02  0.51100000000E-03 0.  1.
         11   -1    0    0    0    0 -0.00000000000E+00 -0.00000000000E+00 -0.45593999997E+02  0.45594000000E+02  0.51100000000E-03 0. -1.
    9900012    2    1    2    0    0 -0.74295393695E+00  0.82374189432E+00  0.40345184152E+00  0.90007616736E+02  0.89999876477E+02 0.  0.
         12    1    1    2    0    0  0.74295393695E+00 -0.82374189432E+00 -0.40345184152E+00  0.11803832637E+01  0.00000000000E+00 0. -1.
         11    1    3    3    0    0  0.26044727151E+02 -0.13617241285E+02 -0.29392704136E+02  0.41565467990E+02  0.51100000000E-03 0. -1.
        -11    1    3    3    0    0 -0.97623597965E+00  0.11801831916E+02  0.61800998231E+01  0.13357765807E+02  0.51100000000E-03 0.  1.
        -12    1    3    3    0    0 -0.25811445108E+02  0.26391512630E+01  0.23616056154E+02  0.35084382939E+02  0.00000000000E+00 0.  1.
</event>
<event>
 7    1  0.1501154E-015  0.9000781E+02  0.7816164E-02  0.1186339E+00
        -11   -1    0    0    0    0  0.00000000000E+00  0.00000000000E+00  0.45593999997E+02  0.45594000000E+02  0.51100000000E-03 0.  1.
         11   -1    0    0    0    0 -0.00000000000E+00 -0.00000000000E+00 -0.45593999997E+02  0.45594000000E+02  0.51100000000E-03 0. -1.
    9900012    2    1    2    0    0  0.78440052366E+00  0.12823365819E+00  0.87241689818E+00  0.90007813872E+02  0.90000076215E+02 0.  0.
         12    1    1    2    0    0 -0.78440052366E+00 -0.12823365819E+00 -0.87241689818E+00  0.11801861280E+01  0.00000000000E+00 0. -1.
         11    1    3    3    0    0  0.16708027604E+02 -0.88366351618E+00  0.29573642644E+02  0.33978513610E+02  0.51100000000E-03 0. -1.
        -11    1    3    3    0    0  0.89063815727E-01  0.10749932336E+02  0.89391418156E+01  0.13981317329E+02  0.51100000000E-03 0.  1.
        -12    1    3    3    0    0 -0.16012690896E+02 -0.97380351613E+01 -0.37640367562E+02  0.42047982933E+02  0.00000000000E+00 0.  1.
</event>
<event>
 7    1  0.1501154E-015  0.9000785E+02  0.7816164E-02  0.1186339E+00
        -11   -1    0    0    0    0  0.00000000000E+00  0.00000000000E+00  0.45593999997E+02  0.45594000000E+02  0.51100000000E-03 0.  1.
         11   -1    0    0    0    0 -0.00000000000E+00 -0.00000000000E+00 -0.45593999997E+02  0.45594000000E+02  0.51100000000E-03 0. -1.
    9900012    2    1    2    0    0  0.41898345566E+00  0.56612547894E-01  0.11018175692E+01  0.90007849979E+02  0.90000112798E+02 0.  0.
         12    1    1    2    0    0 -0.41898345566E+00 -0.56612547894E-01 -0.11018175692E+01  0.11801500212E+01  0.00000000000E+00 0. -1.
         11    1    3    3    0    0 -0.11442269936E+02 -0.45557662040E+01 -0.68809898897E+01  0.14107748549E+02  0.51100000000E-03 0. -1.
        -11    1    3    3    0    0 -0.21792569387E+02 -0.11974492867E+01  0.28623774504E+02  0.35995422381E+02  0.51100000000E-03 0.  1.
         12    1    3    3    0    0  0.33653822779E+02  0.58098280386E+01 -0.20640967045E+02  0.39904679049E+02  0.00000000000E+00 0. -1.
</event>
<event>
 7    1  0.1561633E-015  0.9000772E+02  0.7816164E-02  0.1186339E+00
        -11   -1    0    0    0    0  0.00000000000E+00  0.00000000000E+00  0.45593999997E+02  0.45594000000E+02  0.51100000000E-03 0.  1.
         11   -1    0    0    0    0 -0.00000000000E+00 -0.00000000000E+00 -0.45593999997E+02  0.45594000000E+02  0.51100000000E-03 0. -1.
    9900012    2    1    2    0    0 -0.58885139592E+00  0.10205864815E+01 -0.68736050751E-01  0.90007717247E+02  0.89999978315E+02 0.  0.
         12    1    1    2    0    0  0.58885139592E+00 -0.10205864815E+01  0.68736050751E-01  0.11802827531E+01  0.00000000000E+00 0. -1.
         11    1    3    3    0    0  0.35081088813E+02  0.44923633328E+01 -0.65277219000E+01  0.35964917268E+02  0.51100000000E-03 0. -1.
        -11    1    3    3    0    0  0.84771065693E+01 -0.31852391533E+01 -0.15116282651E+01  0.91810731685E+01  0.51100000000E-03 0.  1.
        -12    1    3    3    0    0 -0.44147046778E+02 -0.28653769801E+00  0.79706141143E+01  0.44861726811E+02  0.00000000000E+00 0.  1.
</event>
<event>
 7    1  0.1501154E-015  0.9000772E+02  0.7816164E-02  0.1186339E+00
        -11   -1    0    0    0    0  0.00000000000E+00  0.00000000000E+00  0.45593999997E+02  0.45594000000E+02  0.51100000000E-03 0. -1.
         11   -1    0    0    0    0 -0.00000000000E+00 -0.00000000000E+00 -0.45593999997E+02  0.45594000000E+02  0.51100000000E-03 0.  1.
    9900012    2    1    2    0    0 -0.40466944170E+00  0.10821354306E+01  0.24144298353E+00  0.90007716491E+02  0.89999977549E+02 0.  0.
         12    1    1    2    0    0  0.40466944170E+00 -0.10821354306E+01 -0.24144298353E+00  0.11802835090E+01  0.00000000000E+00 0. -1.
         11    1    3    3    0    0 -0.62235463496E+01 -0.51173534683E+01 -0.54621125412E+01  0.97341927945E+01  0.51100000000E-03 0. -1.
        -11    1    3    3    0    0 -0.26532457668E+02 -0.93711359037E+00 -0.23991898670E+02  0.35783525453E+02  0.51100000000E-03 0.  1.
         12    1    3    3    0    0  0.32351334576E+02  0.71366024893E+01  0.29695454194E+02  0.44489998244E+02  0.00000000000E+00 0. -1.
</event>
<event>
 7    1  0.1501154E-015  0.9000760E+02  0.7816164E-02  0.1186339E+00
        -11   -1    0    0    0    0  0.00000000000E+00  0.00000000000E+00  0.45593999997E+02  0.45594000000E+02  0.51100000000E-03 0.  1.
         11   -1    0    0    0    0 -0.00000000000E+00 -0.00000000000E+00 -0.45593999997E+02  0.45594000000E+02  0.51100000000E-03 0. -1.
    9900012    2    1    2    0    0 -0.11628324342E+01 -0.18044949847E+00  0.92688196176E-01  0.90007604984E+02  0.89999864570E+02 0.  0.
         12    1    1    2    0    0  0.11628324342E+01  0.18044949847E+00 -0.92688196176E-01  0.11803950158E+01  0.00000000000E+00 0. -1.
         11    1    3    3    0    0  0.15423456193E+02  0.11502390567E+02 -0.36911439919E+02  0.41625021164E+02  0.51100000000E-03 0. -1.
        -11    1    3    3    0    0 -0.48165386980E+01  0.73497112683E+01  0.10821582299E+02  0.13940012355E+02  0.51100000000E-03 0.  1.
        -12    1    3    3    0    0 -0.11769749929E+02 -0.19032551334E+02  0.26182545817E+02  0.34442571465E+02  0.00000000000E+00 0.  1.
</event>
<event>
 7    1  0.1501154E-015  0.9000777E+02  0.7816164E-02  0.1186339E+00
        -11   -1    0    0    0    0  0.00000000000E+00  0.00000000000E+00  0.45593999997E+02  0.45594000000E+02  0.51100000000E-03 0. -1.
         11   -1    0    0    0    0 -0.00000000000E+00 -0.00000000000E+00 -0.45593999997E+02  0.45594000000E+02  0.51100000000E-03 0.  1.
    9900012    2    1    2    0    0 -0.13400188984E+00 -0.72368885031E+00  0.92263751538E+00  0.90007770343E+02  0.90000032111E+02 0.  0.
         12    1    1    2    0    0  0.13400188984E+00  0.72368885031E+00 -0.92263751538E+00  0.11802296570E+01  0.00000000000E+00 0. -1.
         11    1    3    3    0    0 -0.40464965590E+01  0.67619039909E+01  0.63622555644E+01  0.10127969990E+02  0.51100000000E-03 0. -1.
        -11    1    3    3    0    0 -0.73695473250E+01  0.32747668067E+02 -0.15389453124E+02  0.36926349120E+02  0.51100000000E-03 0.  1.
         12    1    3    3    0    0  0.11282041994E+02 -0.40233260908E+02  0.99498350750E+01  0.42953451234E+02  0.00000000000E+00 0. -1.
</event>
<event>
 7    1  0.1501154E-015  0.9000712E+02  0.7816164E-02  0.1186340E+00
        -11   -1    0    0    0    0  0.00000000000E+00  0.00000000000E+00  0.45593999997E+02  0.45594000000E+02  0.51100000000E-03 0.  1.
         11   -1    0    0    0    0 -0.00000000000E+00 -0.00000000000E+00 -0.45593999997E+02  0.45594000000E+02  0.51100000000E-03 0. -1.
    9900012    2    1    2    0    0  0.55039009658E+00  0.85497786378E+00  0.60046138717E+00  0.90007123087E+02  0.89999376310E+02 0.  0.
         12    1    1    2    0    0 -0.55039009658E+00 -0.85497786378E+00 -0.60046138717E+00  0.11808769129E+01  0.00000000000E+00 0. -1.
         11    1    3    3    0    0 -0.36028236220E+02  0.16088373020E+01 -0.13640467123E+02  0.38557547980E+02  0.51100000000E-03 0. -1.
        -11    1    3    3    0    0 -0.54163075550E+01 -0.29925187367E+01  0.59520311787E+01  0.85859321761E+01  0.51100000000E-03 0.  1.
        -12    1    3    3    0    0  0.41994933872E+02  0.22386592986E+01  0.82888973315E+01  0.42863642931E+02  0.00000000000E+00 0.  1.
</event>
<event>
 7    1  0.1501154E-015  0.9000770E+02  0.7816164E-02  0.1186339E+00
        -11   -1    0    0    0    0  0.00000000000E+00  0.00000000000E+00  0.45593999997E+02  0.45594000000E+02  0.51100000000E-03 0.  1.
         11   -1    0    0    0    0 -0.00000000000E+00 -0.00000000000E+00 -0.45593999997E+02  0.45594000000E+02  0.51100000000E-03 0. -1.
    9900012    2    1    2    0    0 -0.81023020572E-01 -0.58829318818E+00  0.10200313242E+01  0.90007696011E+02  0.89999956798E+02 0.  0.
         12    1    1    2    0    0  0.81023020572E-01  0.58829318818E+00 -0.10200313242E+01  0.11803039895E+01  0.00000000000E+00 0. -1.
         11    1    3    3    0    0 -0.24901440618E+01 -0.70968758469E+01 -0.72887767047E+01  0.10473429732E+02  0.51100000000E-03 0. -1.
        -11    1    3    3    0    0  0.14958149038E+02 -0.21742958570E+02  0.31349434370E+02  0.40979135003E+02  0.51100000000E-03 0.  1.
         12    1    3    3    0    0 -0.12549027997E+02  0.28251541229E+02 -0.23040626341E+02  0.38555131275E+02  0.00000000000E+00 0. -1.
</event>
<event>
 7    1  0.1501154E-015  0.9000768E+02  0.7816164E-02  0.1186339E+00
        -11   -1    0    0    0    0  0.00000000000E+00  0.00000000000E+00  0.45593999997E+02  0.45594000000E+02  0.51100000000E-03 0. -1.
         11   -1    0    0    0    0 -0.00000000000E+00 -0.00000000000E+00 -0.45593999997E+02  0.45594000000E+02  0.51100000000E-03 0.  1.
    9900012    2    1    2    0    0  0.34407383411E-01  0.11704320828E+01  0.14853329131E+00  0.90007679168E+02  0.89999939733E+02 0.  0.
         12    1    1    2    0    0 -0.34407383411E-01 -0.11704320828E+01 -0.14853329131E+00  0.11803208323E+01  0.00000000000E+00 0. -1.
         11    1    3    3    0    0  0.42791075057E+01  0.66208079284E+01 -0.26054931160E+01  0.83026774783E+01  0.51100000000E-03 0. -1.
        -11    1    3    3    0    0  0.12779349285E+02  0.19189597787E+02 -0.29664170048E+02  0.37570139956E+02  0.51100000000E-03 0.  1.
         12    1    3    3    0    0 -0.17024049408E+02 -0.24639973633E+02  0.32418196455E+02  0.44134861734E+02  0.00000000000E+00 0. -1.
</event>
<event>
 7    1  0.1501154E-015  0.9000773E+02  0.7816164E-02  0.1186339E+00
        -11   -1    0    0    0    0  0.00000000000E+00  0.00000000000E+00  0.45593999997E+02  0.45594000000E+02  0.51100000000E-03 0. -1.
         11   -1    0    0    0    0 -0.00000000000E+00 -0.00000000000E+00 -0.45593999997E+02  0.45594000000E+02  0.51100000000E-03 0.  1.
    9900012    2    1    2    0    0 -0.49886855178E+00  0.10408139473E+01  0.24674931279E+00  0.90007725147E+02  0.89999986319E+02 0.  0.
         12    1    1    2    0    0  0.49886855178E+00 -0.10408139473E+01 -0.24674931279E+00  0.11802748528E+01  0.00000000000E+00 0. -1.
         11    1    3    3    0    0  0.16528297787E+01  0.48769939048E+01  0.35993418467E+02  0.36359910465E+02  0.51100000000E-03 0. -1.
        -11    1    3    3    0    0  0.13307317306E+00  0.24717065053E+01  0.85217214547E+01  0.88739381523E+01  0.51100000000E-03 0.  1.
        -12    1    3    3    0    0 -0.22847715035E+01 -0.63078864627E+01 -0.44268390609E+02  0.44773876530E+02  0.00000000000E+00 0.  1.
</event>
<event>
 7    1  0.1501154E-015  0.9000778E+02  0.7816164E-02  0.1186339E+00
        -11   -1    0    0    0    0  0.00000000000E+00  0.00000000000E+00  0.45593999997E+02  0.45594000000E+02  0.51100000000E-03 0.  1.
         11   -1    0    0    0    0 -0.00000000000E+00 -0.00000000000E+00 -0.45593999997E+02  0.45594000000E+02  0.51100000000E-03 0. -1.
    9900012    2    1    2    0    0  0.34502389891E+00  0.11065583193E+01  0.22227605894E+00  0.90007779914E+02  0.90000041809E+02 0.  0.
         12    1    1    2    0    0 -0.34502389891E+00 -0.11065583193E+01 -0.22227605894E+00  0.11802200859E+01  0.00000000000E+00 0. -1.
         11    1    3    3    0    0  0.80271592992E+01 -0.23518169719E+02 -0.26658512144E+02  0.36444695956E+02  0.51100000000E-03 0. -1.
        -11    1    3    3    0    0 -0.68471697805E+01 -0.54687559619E+01 -0.46901547418E+01  0.99392443142E+01  0.51100000000E-03 0.  1.
        -12    1    3    3    0    0 -0.83496561979E+00  0.30093484001E+02  0.31570942944E+02  0.43623839644E+02  0.00000000000E+00 0.  1.
</event>
<event>
 7    1  0.1501154E-015  0.9000764E+02  0.7816164E-02  0.1186339E+00
        -11   -1    0    0    0    0  0.00000000000E+00  0.00000000000E+00  0.45593999997E+02  0.45594000000E+02  0.51100000000E-03 0.  1.
         11   -1    0    0    0    0 -0.00000000000E+00 -0.00000000000E+00 -0.45593999997E+02  0.45594000000E+02  0.51100000000E-03 0. -1.
    9900012    2    1    2    0    0  0.50785507129E+00 -0.10563889273E+01  0.13918975633E+00  0.90007640679E+02  0.89999900736E+02 0.  0.
         12    1    1    2    0    0 -0.50785507129E+00  0.10563889273E+01 -0.13918975633E+00  0.11803593214E+01  0.00000000000E+00 0. -1.
         11    1    3    3    0    0 -0.89828998340E+01 -0.16891188194E+02 -0.51888157738E+01  0.19822425114E+02  0.51100000000E-03 0. -1.
        -11    1    3    3    0    0  0.43449788878E+01  0.18710188462E+02  0.35004881377E+02  0.39928582674E+02  0.51100000000E-03 0.  1.
         12    1    3    3    0    0  0.51457760175E+01 -0.28753891961E+01 -0.29676875847E+02  0.30256632891E+02  0.00000000000E+00 0. -1.
</event>
<event>
 7    1  0.1501154E-015  0.9000775E+02  0.7816164E-02  0.1186339E+00
        -11   -1    0    0    0    0  0.00000000000E+00  0.00000000000E+00  0.45593999997E+02  0.45594000000E+02  0.51100000000E-03 0. -1.
         11   -1    0    0    0    0 -0.00000000000E+00 -0.00000000000E+00 -0.45593999997E+02  0.45594000000E+02  0.51100000000E-03 0.  1.
    9900012    2    1    2    0    0 -0.66101773895E+00  0.97776877508E+00  0.17739514199E-02  0.90007754527E+02  0.90000016087E+02 0.  0.
         12    1    1    2    0    0  0.66101773895E+00 -0.97776877508E+00 -0.17739514199E-02  0.11802454726E+01  0.00000000000E+00 0. -1.
         11    1    3    3    0    0 -0.55335756622E-01  0.26190409310E+02  0.23229937428E+02  0.35008150408E+02  0.51100000000E-03 0. -1.
        -11    1    3    3    0    0 -0.30407513838E+00  0.97324215680E+01  0.41709112407E+01  0.10592874591E+02  0.51100000000E-03 0.  1.
        -12    1    3    3    0    0 -0.30160684395E+00 -0.34945062102E+02 -0.27399074717E+02  0.44406729528E+02  0.00000000000E+00 0.  1.
</event>
<event>
 7    1  0.1501154E-015  0.9000763E+02  0.7816164E-02  0.1186339E+00
        -11   -1    0    0    0    0  0.00000000000E+00  0.00000000000E+00  0.45593999997E+02  0.45594000000E+02  0.51100000000E-03 0. -1.
         11   -1    0    0    0    0 -0.00000000000E+00 -0.00000000000E+00 -0.45593999997E+02  0.45594000000E+02  0.51100000000E-03 0.  1.
    9900012    2    1    2    0    0 -0.11492043321E+01 -0.11772920225E+00  0.24235692473E+00  0.90007632413E+02  0.89999892361E+02 0.  0.
         12    1    1    2    0    0  0.11492043321E+01  0.11772920225E+00 -0.24235692473E+00  0.11803675872E+01  0.00000000000E+00 0. -1.
         11    1    3    3    0    0  0.26798590864E+02 -0.26682281154E+02 -0.12132860369E+02  0.39715423967E+02  0.51100000000E-03 0. -1.
        -11    1    3    3    0    0  0.14247411737E+01  0.31590796830E+01 -0.71625016790E+01  0.79568274091E+01  0.51100000000E-03 0.  1.
        -12    1    3    3    0    0 -0.29372536369E+02  0.23405472269E+02  0.19537718973E+02  0.42335381037E+02  0.00000000000E+00 0.  1.
</event>
<event>
 7    1  0.1688894E-015  0.9000780E+02  0.7816164E-02  0.1186339E+00
        -11   -1    0    0    0    0  0.00000000000E+00  0.00000000000E+00  0.45593999997E+02  0.45594000000E+02  0.51100000000E-03 0. -1.
         11   -1    0    0    0    0 -0.00000000000E+00 -0.00000000000E+00 -0.45593999997E+02  0.45594000000E+02  0.51100000000E-03 0.  1.
    9900012    2    1    2    0    0  0.79349616220E+00  0.60018423490E+00 -0.63483359462E+00  0.90007800454E+02  0.90000062620E+02 0.  0.
         12    1    1    2    0    0 -0.79349616220E+00 -0.60018423490E+00  0.63483359462E+00  0.11801995459E+01  0.00000000000E+00 0. -1.
         11    1    3    3    0    0  0.21299187788E+02  0.31985169468E+02  0.10897795820E+02  0.39943315089E+02  0.51100000000E-03 0. -1.
        -11    1    3    3    0    0 -0.15890370190E+01  0.43652123518E+01 -0.82715582321E+01  0.94867693854E+01  0.51100000000E-03 0.  1.
        -12    1    3    3    0    0 -0.18916654607E+02 -0.35750197585E+02 -0.32610711824E+01  0.40577715980E+02  0.00000000000E+00 0.  1.
</event>
<event>
 7    1  0.1501154E-015  0.9000792E+02  0.7816164E-02  0.1186339E+00
        -11   -1    0    0    0    0  0.00000000000E+00  0.00000000000E+00  0.45593999997E+02  0.45594000000E+02  0.51100000000E-03 0. -1.
         11   -1    0    0    0    0 -0.00000000000E+00 -0.00000000000E+00 -0.45593999997E+02  0.45594000000E+02  0.51100000000E-03 0.  1.
    9900012    2    1    2    0    0  0.82812179780E+00  0.84072038946E+00  0.73778957969E-03  0.90007916516E+02  0.90000180214E+02 0.  0.
         12    1    1    2    0    0 -0.82812179780E+00 -0.84072038946E+00 -0.73778957969E-03  0.11800834842E+01  0.00000000000E+00 0. -1.
         11    1    3    3    0    0 -0.35454439509E+01 -0.92287724439E+01 -0.33918971476E+00  0.98921920499E+01  0.51100000000E-03 0. -1.
        -11    1    3    3    0    0  0.37893552492E+02 -0.73026184239E+01 -0.11971257570E+02  0.40404957176E+02  0.51100000000E-03 0.  1.
         12    1    3    3    0    0 -0.33519986744E+02  0.17372111257E+02  0.12311185074E+02  0.39710767290E+02  0.00000000000E+00 0. -1.
</event>
<event>
 7    1  0.1501154E-015  0.9000772E+02  0.7816164E-02  0.1186339E+00
        -11   -1    0    0    0    0  0.00000000000E+00  0.00000000000E+00  0.45593999997E+02  0.45594000000E+02  0.51100000000E-03 0.  1.
         11   -1    0    0    0    0 -0.00000000000E+00 -0.00000000000E+00 -0.45593999997E+02  0.45594000000E+02  0.51100000000E-03 0. -1.
    9900012    2    1    2    0    0  0.96684142409E+00 -0.59122946711E+00  0.32972623514E+00  0.90007722909E+02  0.89999984051E+02 0.  0.
         12    1    1    2    0    0 -0.96684142409E+00  0.59122946711E+00 -0.32972623514E+00  0.11802770913E+01  0.00000000000E+00 0. -1.
         11    1    3    3    0    0 -0.36684357184E+01 -0.10765308108E+02 -0.30342241520E+01  0.11770972591E+02  0.51100000000E-03 0. -1.
        -11    1    3    3    0    0 -0.12118844266E+02 -0.31028016105E+02 -0.23473813582E+01  0.33393328215E+02  0.51100000000E-03 0.  1.
         12    1    3    3    0    0  0.16754121408E+02  0.41202094746E+02  0.57113317454E+01  0.44843422103E+02  0.00000000000E+00 0. -1.
</event>
<event>
 7    1  0.1501154E-015  0.9000772E+02  0.7816164E-02  0.1186339E+00
        -11   -1    0    0    0    0  0.00000000000E+00  0.00000000000E+00  0.45593999997E+02  0.45594000000E+02  0.51100000000E-03 0. -1.
         11   -1    0    0    0    0 -0.00000000000E+00 -0.00000000000E+00 -0.45593999997E+02  0.45594000000E+02  0.51100000000E-03 0.  1.
    9900012    2    1    2    0    0  0.62452902859E+00  0.66716704508E-01 -0.99929198948E+00  0.90007715243E+02  0.89999976285E+02 0.  0.
         12    1    1    2    0    0 -0.62452902859E+00 -0.66716704508E-01  0.99929198948E+00  0.11802847565E+01  0.00000000000E+00 0. -1.
         11    1    3    3    0    0 -0.12701887609E+02 -0.13686976808E+02 -0.38046038461E+01  0.19056397709E+02  0.51100000000E-03 0. -1.
        -11    1    3    3    0    0 -0.22852326218E+02 -0.47480463981E+01 -0.13731626492E+02  0.27080072462E+02  0.51100000000E-03 0.  1.
         12    1    3    3    0    0  0.36178742855E+02  0.18501739910E+02  0.16536938348E+02  0.43871245073E+02  0.00000000000E+00 0. -1.
</event>
<event>
 7    1  0.1501154E-015  0.9000836E+02  0.7816164E-02  0.1186338E+00
        -11   -1    0    0    0    0  0.00000000000E+00  0.00000000000E+00  0.45593999997E+02  0.45594000000E+02  0.51100000000E-03 0.  1.
         11   -1    0    0    0    0 -0.00000000000E+00 -0.00000000000E+00 -0.45593999997E+02  0.45594000000E+02  0.51100000000E-03 0. -1.
    9900012    2    1    2    0    0 -0.50493736073E+00  0.63129643723E+00  0.85910084463E+00  0.90008359720E+02  0.90000629266E+02 0.  0.
         12    1    1    2    0    0  0.50493736073E+00 -0.63129643723E+00 -0.85910084463E+00  0.11796402804E+01  0.00000000000E+00 0. -1.
         11    1    3    3    0    0  0.25257011881E+01  0.70216011850E+01  0.40931656009E+01  0.85109373508E+01  0.51100000000E-03 0. -1.
        -11    1    3    3    0    0  0.23846144860E+02 -0.21130556868E+02 -0.27745659041E+02  0.42248794706E+02  0.51100000000E-03 0.  1.
         12    1    3    3    0    0 -0.26876783409E+02  0.14740252120E+02  0.24511594285E+02  0.39248627662E+02  0.00000000000E+00 0. -1.
</event>
<event>
 7    1  0.1501154E-015  0.9000781E+02  0.7816164E-02  0.1186339E+00
        -11   -1    0    0    0    0  0.00000000000E+00  0.00000000000E+00  0.45593999997E+02  0.45594000000E+02  0.51100000000E-03 0.  1.
         11   -1    0    0    0    0 -0.00000000000E+00 -0.00000000000E+00 -0.45593999997E+02  0.45594000000E+02  0.51100000000E-03 0. -1.
    9900012    2    1    2    0    0 -0.70866319866E+00 -0.52517991768E+00  0.78410526107E+00  0.90007814195E+02  0.90000076542E+02 0.  0.
         12    1    1    2    0    0  0.70866319866E+00  0.52517991768E+00 -0.78410526107E+00  0.11801858055E+01  0.00000000000E+00 0. -1.
         11    1    3    3    0    0 -0.34711397941E+00 -0.76755703668E+01 -0.64886868674E+01  0.10056735360E+02  0.51100000000E-03 0. -1.
        -11    1    3    3    0    0  0.11145757911E+02 -0.29116977859E+02  0.23037471872E+02  0.38765337991E+02  0.51100000000E-03 0.  1.
         12    1    3    3    0    0 -0.11507307130E+02  0.36267368308E+02 -0.15764679744E+02  0.41185740843E+02  0.00000000000E+00 0. -1.
</event>
<event>
 7    1  0.1501154E-015  0.9000775E+02  0.7816164E-02  0.1186339E+00
        -11   -1    0    0    0    0  0.00000000000E+00  0.00000000000E+00  0.45593999997E+02  0.45594000000E+02  0.51100000000E-03 0.  1.
         11   -1    0    0    0    0 -0.00000000000E+00 -0.00000000000E+00 -0.45593999997E+02  0.45594000000E+02  0.51100000000E-03 0. -1.
    9900012    2    1    2    0    0  0.73672688262E+00 -0.13543655537E+00  0.91207713004E+00  0.90007748225E+02  0.90000009702E+02 0.  0.
         12    1    1    2    0    0 -0.73672688262E+00  0.13543655537E+00 -0.91207713004E+00  0.11802517745E+01  0.00000000000E+00 0. -1.
         11    1    3    3    0    0  0.92935226129E+01 -0.22447280131E+02 -0.33798229065E+02  0.41624154479E+02  0.51100000000E-03 0. -1.
        -11    1    3    3    0    0 -0.63633025576E+01  0.58739911511E+01 -0.12821820692E+01  0.87543921893E+01  0.51100000000E-03 0.  1.
        -12    1    3    3    0    0 -0.21934931727E+01  0.16437852425E+02  0.35992488264E+02  0.39629201558E+02  0.00000000000E+00 0.  1.
</event>
<event>
 7    1  0.1501154E-015  0.9000773E+02  0.7816164E-02  0.1186339E+00
        -11   -1    0    0    0    0  0.00000000000E+00  0.00000000000E+00  0.45593999997E+02  0.45594000000E+02  0.51100000000E-03 0.  1.
         11   -1    0    0    0    0 -0.00000000000E+00 -0.00000000000E+00 -0.45593999997E+02  0.45594000000E+02  0.51100000000E-03 0. -1.
    9900012    2    1    2    0    0 -0.35057164855E+00 -0.31768126345E+00  0.10813008994E+01  0.90007731598E+02  0.89999992855E+02 0.  0.
         12    1    1    2    0    0  0.35057164855E+00  0.31768126345E+00 -0.10813008994E+01  0.11802684021E+01  0.00000000000E+00 0. -1.
         11    1    3    3    0    0  0.38288862603E+02 -0.12171943353E+02  0.28682223382E+01  0.40279273878E+02  0.51100000000E-03 0. -1.
        -11    1    3    3    0    0  0.77398115937E+00  0.88382058039E+01  0.40828019845E+01  0.97663811605E+01  0.51100000000E-03 0.  1.
        -12    1    3    3    0    0 -0.39413415411E+02  0.30160562860E+01 -0.58697234233E+01  0.39962076560E+02  0.00000000000E+00 0.  1.
</event>
<event>
 7    1  0.1501154E-015  0.9000777E+02  0.7816164E-02  0.1186339E+00
        -11   -1    0    0    0    0  0.00000000000E+00  0.00000000000E+00  0.45593999997E+02  0.45594000000E+02  0.51100000000E-03 0.  1.
         11   -1    0    0    0    0 -0.00000000000E+00 -0.00000000000E+00 -0.45593999997E+02  0.45594000000E+02  0.51100000000E-03 0. -1.
    9900012    2    1    2    0    0 -0.54354758188E-01 -0.69307855544E+00  0.95374600091E+00  0.90007769617E+02  0.90000031375E+02 0.  0.
         12    1    1    2    0    0  0.54354758188E-01  0.69307855544E+00 -0.95374600091E+00  0.11802303834E+01  0.00000000000E+00 0. -1.
         11    1    3    3    0    0  0.93912289775E+01  0.28279466370E+01 -0.83752932939E+00  0.98434709086E+01  0.51100000000E-03 0. -1.
        -11    1    3    3    0    0 -0.35319195711E+01  0.16791200692E+02  0.36035600721E+02  0.39912196083E+02  0.51100000000E-03 0.  1.
         12    1    3    3    0    0 -0.59136641645E+01 -0.20312225885E+02 -0.34244325391E+02  0.40252102625E+02  0.00000000000E+00 0. -1.
</event>
<event>
 7    1  0.1501154E-015  0.9000776E+02  0.7816164E-02  0.1186339E+00
        -11   -1    0    0    0    0  0.00000000000E+00  0.00000000000E+00  0.45593999997E+02  0.45594000000E+02  0.51100000000E-03 0. -1.
         11   -1    0    0    0    0 -0.00000000000E+00 -0.00000000000E+00 -0.45593999997E+02  0.45594000000E+02  0.51100000000E-03 0.  1.
    9900012    2    1    2    0    0 -0.51097499685E+00 -0.75455534586E+00 -0.75001440453E+00  0.90007758150E+02  0.90000019758E+02 0.  0.
         12    1    1    2    0    0  0.51097499685E+00  0.75455534586E+00  0.75001440453E+00  0.11802418500E+01  0.00000000000E+00 0. -1.
         11    1    3    3    0    0 -0.79808625182E+01  0.65014556990E+00  0.19105001816E+01  0.82320633502E+01  0.51100000000E-03 0. -1.
        -11    1    3    3    0    0 -0.35602570938E+02  0.10312661276E+02 -0.22826136838E+01  0.37136294450E+02  0.51100000000E-03 0.  1.
         12    1    3    3    0    0  0.43072458460E+02 -0.11717362192E+02 -0.37790090238E+00  0.44639400350E+02  0.00000000000E+00 0. -1.
</event>
<event>
 7    1  0.1501154E-015  0.9000749E+02  0.7816164E-02  0.1186340E+00
        -11   -1    0    0    0    0  0.00000000000E+00  0.00000000000E+00  0.45593999997E+02  0.45594000000E+02  0.51100000000E-03 0. -1.
         11   -1    0    0    0    0 -0.00000000000E+00 -0.00000000000E+00 -0.45593999997E+02  0.45594000000E+02  0.51100000000E-03 0.  1.
    9900012    2    1    2    0    0  0.11316085055E+01  0.20097868476E-01  0.33566031325E+00  0.90007487577E+02  0.89999745613E+02 0.  0.
         12    1    1    2    0    0 -0.11316085055E+01 -0.20097868476E-01 -0.33566031325E+00  0.11805124226E+01  0.00000000000E+00 0. -1.
         11    1    3    3    0    0 -0.31098485354E+02 -0.88205576782E+00  0.19154629476E+02  0.36534827827E+02  0.51100000000E-03 0. -1.
        -11    1    3    3    0    0 -0.49430486069E+01  0.71132218928E+01  0.38638951361E+01  0.94847952593E+01  0.51100000000E-03 0.  1.
        -12    1    3    3    0    0  0.37173142467E+02 -0.62110682566E+01 -0.22682864299E+02  0.43987864491E+02  0.00000000000E+00 0.  1.
</event>
<event>
 7    1  0.1501154E-015  0.9000769E+02  0.7816164E-02  0.1186339E+00
        -11   -1    0    0    0    0  0.00000000000E+00  0.00000000000E+00  0.45593999997E+02  0.45594000000E+02  0.51100000000E-03 0.  1.
         11   -1    0    0    0    0 -0.00000000000E+00 -0.00000000000E+00 -0.45593999997E+02  0.45594000000E+02  0.51100000000E-03 0. -1.
    9900012    2    1    2    0    0 -0.78976731555E+00 -0.85585962387E+00  0.19209576523E+00  0.90007691188E+02  0.89999951912E+02 0.  0.
         12    1    1    2    0    0  0.78976731555E+00  0.85585962387E+00 -0.19209576523E+00  0.11803088119E+01  0.00000000000E+00 0. -1.
         11    1    3    3    0    0 -0.33516488878E+01 -0.75474989279E+01  0.44716855203E+01  0.93911800104E+01  0.51100000000E-03 0. -1.
        -11    1    3    3    0    0  0.34271610206E+02 -0.11631823693E+02  0.15060637435E+02  0.39200323835E+02  0.51100000000E-03 0.  1.
         12    1    3    3    0    0 -0.31709728634E+02  0.18323462997E+02 -0.19340227190E+02  0.41416187343E+02  0.00000000000E+00 0. -1.
</event>
<event>
 7    1  0.1501154E-015  0.9000785E+02  0.7816164E-02  0.1186339E+00
        -11   -1    0    0    0    0  0.00000000000E+00  0.00000000000E+00  0.45593999997E+02  0.45594000000E+02  0.51100000000E-03 0.  1.
         11   -1    0    0    0    0 -0.00000000000E+00 -0.00000000000E+00 -0.45593999997E+02  0.45594000000E+02  0.51100000000E-03 0. -1.
    9900012    2    1    2    0    0 -0.65328621405E+00  0.92260211568E+00  0.33878669094E+00  0.90007850025E+02  0.90000112845E+02 0.  0.
         12    1    1    2    0    0  0.65328621405E+00 -0.92260211568E+00 -0.33878669094E+00  0.11801499749E+01  0.00000000000E+00 0. -1.
         11    1    3    3    0    0  0.63305502487E+01  0.19962216411E+02  0.39393187281E+02  0.44613777635E+02  0.51100000000E-03 0. -1.
        -11    1    3    3    0    0 -0.55737074529E+01 -0.19805878549E+01 -0.82193075212E+01  0.10126497885E+02  0.51100000000E-03 0.  1.
        -12    1    3    3    0    0 -0.14101290099E+01 -0.17059026440E+02 -0.30835093069E+02  0.35267574505E+02  0.00000000000E+00 0.  1.
</event>
<event>
 7    1  0.1501154E-015  0.9000770E+02  0.7816164E-02  0.1186339E+00
        -11   -1    0    0    0    0  0.00000000000E+00  0.00000000000E+00  0.45593999997E+02  0.45594000000E+02  0.51100000000E-03 0.  1.
         11   -1    0    0    0    0 -0.00000000000E+00 -0.00000000000E+00 -0.45593999997E+02  0.45594000000E+02  0.51100000000E-03 0. -1.
    9900012    2    1    2    0    0 -0.86214336230E+00  0.72410725795E+00 -0.35422940559E+00  0.90007703016E+02  0.89999963896E+02 0.  0.
         12    1    1    2    0    0  0.86214336230E+00 -0.72410725795E+00  0.35422940559E+00  0.11802969838E+01  0.00000000000E+00 0. -1.
         11    1    3    3    0    0 -0.77249743222E+01  0.36103474998E+01  0.36928059281E+01  0.92922899886E+01  0.51100000000E-03 0. -1.
        -11    1    3    3    0    0 -0.20164248286E+02  0.25469706876E+02  0.16549191191E+02  0.36457901840E+02  0.51100000000E-03 0.  1.
         12    1    3    3    0    0  0.27027079246E+02 -0.28355947118E+02 -0.20596226524E+02  0.44257511188E+02  0.00000000000E+00 0. -1.
</event>
<event>
 7    1  0.1501154E-015  0.9000773E+02  0.7816164E-02  0.1186339E+00
        -11   -1    0    0    0    0  0.00000000000E+00  0.00000000000E+00  0.45593999997E+02  0.45594000000E+02  0.51100000000E-03 0. -1.
         11   -1    0    0    0    0 -0.00000000000E+00 -0.00000000000E+00 -0.45593999997E+02  0.45594000000E+02  0.51100000000E-03 0.  1.
    9900012    2    1    2    0    0  0.22473408377E+00 -0.72435707768E+00 -0.90433823396E+00  0.90007734680E+02  0.89999995978E+02 0.  0.
         12    1    1    2    0    0 -0.22473408377E+00  0.72435707768E+00  0.90433823396E+00  0.11802653201E+01  0.00000000000E+00 0. -1.
         11    1    3    3    0    0  0.87323287526E+01  0.32978007582E+01 -0.22502863117E+01  0.96017104742E+01  0.51100000000E-03 0. -1.
        -11    1    3    3    0    0  0.23262682043E+02 -0.25953122555E+02 -0.15675175178E+02  0.38215547404E+02  0.51100000000E-03 0.  1.
         12    1    3    3    0    0 -0.31770276712E+02  0.21930964719E+02  0.17021123256E+02  0.42190476802E+02  0.00000000000E+00 0. -1.
</event>
<event>
 7    1  0.1501154E-015  0.9000789E+02  0.7816164E-02  0.1186339E+00
        -11   -1    0    0    0    0  0.00000000000E+00  0.00000000000E+00  0.45593999997E+02  0.45594000000E+02  0.51100000000E-03 0.  1.
         11   -1    0    0    0    0 -0.00000000000E+00 -0.00000000000E+00 -0.45593999997E+02  0.45594000000E+02  0.51100000000E-03 0. -1.
    9900012    2    1    2    0    0 -0.11330777299E+00  0.89981270695E+00  0.75509263835E+00  0.90007887102E+02  0.90000150412E+02 0.  0.
         12    1    1    2    0    0  0.11330777299E+00 -0.89981270695E+00 -0.75509263835E+00  0.11801128978E+01  0.00000000000E+00 0. -1.
         11    1    3    3    0    0 -0.18867136662E+02 -0.34378103089E+02 -0.78459235590E+01  0.39992265935E+02  0.51100000000E-03 0. -1.
        -11    1    3    3    0    0 -0.60383767735E+01  0.15788910313E+01  0.50506095366E+01  0.80289194728E+01  0.51100000000E-03 0.  1.
        -12    1    3    3    0    0  0.24792205663E+02  0.33699024765E+02  0.35504066607E+01  0.41986701695E+02  0.00000000000E+00 0.  1.
</event>
<event>
 7    1  0.1501154E-015  0.9000777E+02  0.7816164E-02  0.1186339E+00
        -11   -1    0    0    0    0  0.00000000000E+00  0.00000000000E+00  0.45593999997E+02  0.45594000000E+02  0.51100000000E-03 0.  1.
         11   -1    0    0    0    0 -0.00000000000E+00 -0.00000000000E+00 -0.45593999997E+02  0.45594000000E+02  0.51100000000E-03 0. -1.
    9900012    2    1    2    0    0 -0.70503035952E+00 -0.14719746459E-01  0.94639598164E+00  0.90007767043E+02  0.90000028768E+02 0.  0.
         12    1    1    2    0    0  0.70503035952E+00  0.14719746459E-01 -0.94639598164E+00  0.11802329570E+01  0.00000000000E+00 0. -1.
         11    1    3    3    0    0  0.57459688875E+01 -0.80127574318E+01 -0.27643586724E+01  0.10240220664E+02  0.51100000000E-03 0. -1.
        -11    1    3    3    0    0  0.33453166884E+02  0.88119483755E+01  0.15846355060E+02  0.38050910340E+02  0.51100000000E-03 0.  1.
         12    1    3    3    0    0 -0.39904166131E+02 -0.81391069021E+00 -0.12135600406E+02  0.41716636039E+02  0.00000000000E+00 0. -1.
</event>
<event>
 7    1  0.1501154E-015  0.9000776E+02  0.7816164E-02  0.1186339E+00
        -11   -1    0    0    0    0  0.00000000000E+00  0.00000000000E+00  0.45593999997E+02  0.45594000000E+02  0.51100000000E-03 0. -1.
         11   -1    0    0    0    0 -0.00000000000E+00 -0.00000000000E+00 -0.45593999997E+02  0.45594000000E+02  0.51100000000E-03 0.  1.
    9900012    2    1    2    0    0  0.27955773071E+00 -0.10882150353E+01 -0.36137651110E+00  0.90007763807E+02  0.90000025490E+02 0.  0.
         12    1    1    2    0    0 -0.27955773071E+00  0.10882150353E+01  0.36137651110E+00  0.11802361927E+01  0.00000000000E+00 0. -1.
         11    1    3    3    0    0  0.31653077507E+02 -0.18714814315E+01  0.70480753296E+01  0.32482227826E+02  0.51100000000E-03 0. -1.
        -11    1    3    3    0    0  0.11645925418E+02 -0.61455824045E+01  0.77057961620E+00  0.13190510041E+02  0.51100000000E-03 0.  1.
        -12    1    3    3    0    0 -0.43019445194E+02  0.69288488006E+01 -0.81800314569E+01  0.44335025941E+02  0.00000000000E+00 0.  1.
</event>
<event>
 7    1  0.1501154E-015  0.9000771E+02  0.7816164E-02  0.1186339E+00
        -11   -1    0    0    0    0  0.00000000000E+00  0.00000000000E+00  0.45593999997E+02  0.45594000000E+02  0.51100000000E-03 0.  1.
         11   -1    0    0    0    0 -0.00000000000E+00 -0.00000000000E+00 -0.45593999997E+02  0.45594000000E+02  0.51100000000E-03 0. -1.
    9900012    2    1    2    0    0 -0.48020175521E+00  0.19812547326E+00  0.10598335874E+01  0.90007705688E+02  0.89999966604E+02 0.  0.
         12    1    1    2    0    0  0.48020175521E+00 -0.19812547326E+00 -0.10598335874E+01  0.11802943116E+01  0.00000000000E+00 0. -1.
         11    1    3    3    0    0 -0.19072579931E+02  0.31870298581E+02  0.38775318567E+01  0.37343198717E+02  0.51100000000E-03 0. -1.
        -11    1    3    3    0    0  0.29003800132E+01  0.80279781962E+01 -0.50490690577E+01  0.99173452471E+01  0.51100000000E-03 0.  1.
        -12    1    3    3    0    0  0.15691998163E+02 -0.39700151304E+02  0.22313707885E+01  0.42747161724E+02  0.00000000000E+00 0.  1.
</event>
<event>
 7    1  0.1501154E-015  0.9000779E+02  0.7816164E-02  0.1186339E+00
        -11   -1    0    0    0    0  0.00000000000E+00  0.00000000000E+00  0.45593999997E+02  0.45594000000E+02  0.51100000000E-03 0.  1.
         11   -1    0    0    0    0 -0.00000000000E+00 -0.00000000000E+00 -0.45593999997E+02  0.45594000000E+02  0.51100000000E-03 0. -1.
    9900012    2    1    2    0    0 -0.77899598805E+00 -0.88386522527E+00  0.69648063793E-01  0.90007786740E+02  0.90000048725E+02 0.  0.
         12    1    1    2    0    0  0.77899598805E+00  0.88386522527E+00 -0.69648063793E-01  0.11802132598E+01  0.00000000000E+00 0. -1.
         11    1    3    3    0    0 -0.18299109032E+01 -0.37512474021E+01 -0.84726734367E+01  0.94449259612E+01  0.51100000000E-03 0. -1.
        -11    1    3    3    0    0  0.28940067821E+02 -0.20337772065E+02 -0.13784560345E+02  0.37962700144E+02  0.51100000000E-03 0.  1.
         12    1    3    3    0    0 -0.27889152906E+02  0.23205154242E+02  0.22326881846E+02  0.42600160635E+02  0.00000000000E+00 0. -1.
</event>
<event>
 7    1  0.1501154E-015  0.9000779E+02  0.7816164E-02  0.1186339E+00
        -11   -1    0    0    0    0  0.00000000000E+00  0.00000000000E+00  0.45593999997E+02  0.45594000000E+02  0.51100000000E-03 0. -1.
         11   -1    0    0    0    0 -0.00000000000E+00 -0.00000000000E+00 -0.45593999997E+02  0.45594000000E+02  0.51100000000E-03 0.  1.
    9900012    2    1    2    0    0  0.21947293583E+00  0.96029080793E+00 -0.65004817647E+00  0.90007792630E+02  0.90000054692E+02 0.  0.
         12    1    1    2    0    0 -0.21947293583E+00 -0.96029080793E+00  0.65004817647E+00  0.11802073704E+01  0.00000000000E+00 0. -1.
         11    1    3    3    0    0 -0.39579454769E+01 -0.57678571225E+00 -0.95525760573E+01  0.10356144251E+02  0.51100000000E-03 0. -1.
        -11    1    3    3    0    0 -0.15098154558E+02 -0.19026578676E+02 -0.25473861992E+02  0.35197764307E+02  0.51100000000E-03 0.  1.
         12    1    3    3    0    0  0.19275572970E+02  0.20563655196E+02  0.34376389873E+02  0.44453884072E+02  0.00000000000E+00 0. -1.
</event>
<event>
 7    1  0.1751848E-015  0.9000770E+02  0.7816164E-02  0.1186339E+00
        -11   -1    0    0    0    0  0.00000000000E+00  0.00000000000E+00  0.45593999997E+02  0.45594000000E+02  0.51100000000E-03 0. -1.
         11   -1    0    0    0    0 -0.00000000000E+00 -0.00000000000E+00 -0.45593999997E+02  0.45594000000E+02  0.51100000000E-03 0.  1.
    9900012    2    1    2    0    0 -0.60250587380E+00  0.10143371471E+01 -0.34803756048E-01  0.90007701530E+02  0.89999962391E+02 0.  0.
         12    1    1    2    0    0  0.60250587380E+00 -0.10143371471E+01  0.34803756048E-01  0.11802984696E+01  0.00000000000E+00 0. -1.
         11    1    3    3    0    0  0.14248805650E+02 -0.19619800103E+02  0.28484036303E+02  0.37407289970E+02  0.51100000000E-03 0. -1.
        -11    1    3    3    0    0  0.42365022715E+01 -0.79822934652E+01 -0.22334665519E+01  0.93087772323E+01  0.51100000000E-03 0.  1.
        -12    1    3    3    0    0 -0.19087813795E+02  0.28616430716E+02 -0.26285373507E+02  0.43291634328E+02  0.00000000000E+00 0.  1.
</event>
<event>
 7    1  0.1501154E-015  0.9000784E+02  0.7816164E-02  0.1186339E+00
        -11   -1    0    0    0    0  0.00000000000E+00  0.00000000000E+00  0.45593999997E+02  0.45594000000E+02  0.51100000000E-03 0.  1.
         11   -1    0    0    0    0 -0.00000000000E+00 -0.00000000000E+00 -0.45593999997E+02  0.45594000000E+02  0.51100000000E-03 0. -1.
    9900012    2    1    2    0    0 -0.26782282851E+00 -0.82080725748E+00  0.80456735196E+00  0.90007838043E+02  0.90000100705E+02 0.  0.
         12    1    1    2    0    0  0.26782282851E+00  0.82080725748E+00 -0.80456735196E+00  0.11801619572E+01  0.00000000000E+00 0. -1.
         11    1    3    3    0    0  0.75343705236E+00  0.80634337112E+01 -0.57426976373E+01  0.99280011594E+01  0.51100000000E-03 0. -1.
        -11    1    3    3    0    0 -0.28561913160E+02 -0.59207991648E+01  0.31405230732E+02  0.42861722594E+02  0.51100000000E-03 0.  1.
         12    1    3    3    0    0  0.27540653279E+02 -0.29634418038E+01 -0.24857965743E+02  0.37218114289E+02  0.00000000000E+00 0. -1.
</event>
<event>
 7    1  0.1501154E-015  0.9000775E+02  0.7816164E-02  0.1186339E+00
        -11   -1    0    0    0    0  0.00000000000E+00  0.00000000000E+00  0.45593999997E+02  0.45594000000E+02  0.51100000000E-03 0. -1.
         11   -1    0    0    0    0 -0.00000000000E+00 -0.00000000000E+00 -0.45593999997E+02  0.45594000000E+02  0.51100000000E-03 0.  1.
    9900012    2    1    2    0    0 -0.30703191470E+00 -0.95145536290E+00  0.62726761065E+00  0.90007745553E+02  0.90000006994E+02 0.  0.
         12    1    1    2    0    0  0.30703191470E+00  0.95145536290E+00 -0.62726761065E+00  0.11802544470E+01  0.00000000000E+00 0. -1.
         11    1    3    3    0    0 -0.14257617509E+02 -0.22631705176E+02  0.35114758516E+02  0.44142043475E+02  0.51100000000E-03 0. -1.
        -11    1    3    3    0    0 -0.26622210340E+01  0.22825721375E+01 -0.95383089795E+01  0.10162524039E+02  0.51100000000E-03 0.  1.
        -12    1    3    3    0    0  0.16612806629E+02  0.19397677676E+02 -0.24949181926E+02  0.35703178039E+02  0.00000000000E+00 0.  1.
</event>
<event>
 7    1  0.1501154E-015  0.9000779E+02  0.7816164E-02  0.1186339E+00
        -11   -1    0    0    0    0  0.00000000000E+00  0.00000000000E+00  0.45593999997E+02  0.45594000000E+02  0.51100000000E-03 0. -1.
         11   -1    0    0    0    0 -0.00000000000E+00 -0.00000000000E+00 -0.45593999997E+02  0.45594000000E+02  0.51100000000E-03 0.  1.
    9900012    2    1    2    0    0  0.65341299673E+00 -0.86292859496E+00 -0.47041508912E+00  0.90007794653E+02  0.90000056743E+02 0.  0.
         12    1    1    2    0    0 -0.65341299673E+00  0.86292859496E+00  0.47041508912E+00  0.11802053467E+01  0.00000000000E+00 0. -1.
         11    1    3    3    0    0 -0.37037923146E+01  0.36913641044E+02 -0.42841976370E+01  0.37345539523E+02  0.51100000000E-03 0. -1.
        -11    1    3    3    0    0 -0.60777621628E+01  0.19864733694E+01 -0.76634824286E+01  0.99806929894E+01  0.51100000000E-03 0.  1.
        -12    1    3    3    0    0  0.10434967474E+02 -0.39763043008E+02  0.11477264976E+02  0.42681562141E+02  0.00000000000E+00 0.  1.
</event>
<event>
 7    1  0.1501154E-015  0.9000769E+02  0.7816164E-02  0.1186339E+00
        -11   -1    0    0    0    0  0.00000000000E+00  0.00000000000E+00  0.45593999997E+02  0.45594000000E+02  0.51100000000E-03 0. -1.
         11   -1    0    0    0    0 -0.00000000000E+00 -0.00000000000E+00 -0.45593999997E+02  0.45594000000E+02  0.51100000000E-03 0.  1.
    9900012    2    1    2    0    0 -0.86527857395E-01 -0.25484751238E+00 -0.11492135319E+01  0.90007692385E+02  0.89999953124E+02 0.  0.
         12    1    1    2    0    0  0.86527857395E-01  0.25484751238E+00  0.11492135319E+01  0.11803076152E+01  0.00000000000E+00 0. -1.
         11    1    3    3    0    0 -0.23645205858E+02  0.32102743266E+01 -0.78192916981E+01  0.25110614175E+02  0.51100000000E-03 0. -1.
        -11    1    3    3    0    0  0.12326897485E+02  0.17128783122E+02 -0.20210716362E+02  0.29220209940E+02  0.51100000000E-03 0.  1.
         12    1    3    3    0    0  0.11231780516E+02 -0.20593904961E+02  0.26880794528E+02  0.35676868270E+02  0.00000000000E+00 0. -1.
</event>
<event>
 7    1  0.1501154E-015  0.9000800E+02  0.7816164E-02  0.1186339E+00
        -11   -1    0    0    0    0  0.00000000000E+00  0.00000000000E+00  0.45593999997E+02  0.45594000000E+02  0.51100000000E-03 0.  1.
         11   -1    0    0    0    0 -0.00000000000E+00 -0.00000000000E+00 -0.45593999997E+02  0.45594000000E+02  0.51100000000E-03 0. -1.
    9900012    2    1    2    0    0 -0.60824633391E+00 -0.24949855511E+00  0.97988606078E+00  0.90008004312E+02  0.90000269168E+02 0.  0.
         12    1    1    2    0    0  0.60824633391E+00  0.24949855511E+00 -0.97988606078E+00  0.11799956881E+01  0.00000000000E+00 0. -1.
         11    1    3    3    0    0  0.24974311351E+01  0.95673164224E+01 -0.41702743637E+02  0.42858949275E+02  0.51100000000E-03 0. -1.
        -11    1    3    3    0    0  0.61260024827E+00  0.48552555895E+01  0.10227392268E+02  0.11337915980E+02  0.51100000000E-03 0.  1.
        -12    1    3    3    0    0 -0.37182777172E+01 -0.14672070567E+02  0.32455237430E+02  0.35811139057E+02  0.00000000000E+00 0.  1.
</event>
<event>
 7    1  0.1501154E-015  0.9000775E+02  0.7816164E-02  0.1186339E+00
        -11   -1    0    0    0    0  0.00000000000E+00  0.00000000000E+00  0.45593999997E+02  0.45594000000E+02  0.51100000000E-03 0.  1.
         11   -1    0    0    0    0 -0.00000000000E+00 -0.00000000000E+00 -0.45593999997E+02  0.45594000000E+02  0.51100000000E-03 0. -1.
    9900012    2    1    2    0    0  0.11594972617E+01  0.12066940727E+00  0.18440323074E+00  0.90007745978E+02  0.90000007425E+02 0.  0.
         12    1    1    2    0    0 -0.11594972617E+01 -0.12066940727E+00 -0.18440323074E+00  0.11802540223E+01  0.00000000000E+00 0. -1.
         11    1    3    3    0    0  0.48538406480E+01 -0.79079695691E+01 -0.18859311535E+01  0.94684997924E+01  0.51100000000E-03 0. -1.
        -11    1    3    3    0    0  0.16453072500E+02 -0.31396882593E+02 -0.46734131043E+01  0.35753442094E+02  0.51100000000E-03 0.  1.
         12    1    3    3    0    0 -0.20147415887E+02  0.39425521569E+02  0.67437474886E+01  0.44785804091E+02  0.00000000000E+00 0. -1.
</event>
<event>
 7    1  0.1501154E-015  0.9000774E+02  0.7816164E-02  0.1186339E+00
        -11   -1    0    0    0    0  0.00000000000E+00  0.00000000000E+00  0.45593999997E+02  0.45594000000E+02  0.51100000000E-03 0. -1.
         11   -1    0    0    0    0 -0.00000000000E+00 -0.00000000000E+00 -0.45593999997E+02  0.45594000000E+02  0.51100000000E-03 0.  1.
    9900012    2    1    2    0    0  0.29662160028E+00 -0.53416915851E+00 -0.10097969631E+01  0.90007741143E+02  0.90000002526E+02 0.  0.
         12    1    1    2    0    0 -0.29662160028E+00  0.53416915851E+00  0.10097969631E+01  0.11802588573E+01  0.00000000000E+00 0. -1.
         11    1    3    3    0    0  0.32386232828E+02 -0.33381013954E+01  0.13955718022E+02  0.35422776056E+02  0.51100000000E-03 0. -1.
        -11    1    3    3    0    0  0.78926672214E+01 -0.31161424750E+01  0.46306495907E+01  0.96668224192E+01  0.51100000000E-03 0.  1.
        -12    1    3    3    0    0 -0.39982278449E+02  0.59200747119E+01 -0.19596164576E+02  0.44918142667E+02  0.00000000000E+00 0.  1.
</event>
<event>
 7    1  0.1501154E-015  0.9000760E+02  0.7816164E-02  0.1186339E+00
        -11   -1    0    0    0    0  0.00000000000E+00  0.00000000000E+00  0.45593999997E+02  0.45594000000E+02  0.51100000000E-03 0.  1.
         11   -1    0    0    0    0 -0.00000000000E+00 -0.00000000000E+00 -0.45593999997E+02  0.45594000000E+02  0.51100000000E-03 0. -1.
    9900012    2    1    2    0    0 -0.67940273996E+00 -0.53986175161E+00  0.80019039661E+00  0.90007600294E+02  0.89999859818E+02 0.  0.
         12    1    1    2    0    0  0.67940273996E+00  0.53986175161E+00 -0.80019039661E+00  0.11803997055E+01  0.00000000000E+00 0. -1.
         11    1    3    3    0    0 -0.60235426564E+01  0.91454864773E+01  0.16049204337E+00  0.10952111531E+02  0.51100000000E-03 0. -1.
        -11    1    3    3    0    0  0.21979431743E+02  0.18469119505E+02  0.25166514487E+02  0.38177968080E+02  0.51100000000E-03 0.  1.
         12    1    3    3    0    0 -0.16635291826E+02 -0.28154467734E+02 -0.24526816134E+02  0.40877520683E+02  0.00000000000E+00 0. -1.
</event>
<event>
 7    1  0.1685181E-015  0.9000759E+02  0.7816164E-02  0.1186339E+00
        -11   -1    0    0    0    0  0.00000000000E+00  0.00000000000E+00  0.45593999997E+02  0.45594000000E+02  0.51100000000E-03 0. -1.
         11   -1    0    0    0    0 -0.00000000000E+00 -0.00000000000E+00 -0.45593999997E+02  0.45594000000E+02  0.51100000000E-03 0.  1.
    9900012    2    1    2    0    0  0.39871781789E+00  0.91517918127E+00  0.62995344689E+00  0.90007588979E+02  0.89999848354E+02 0.  0.
         12    1    1    2    0    0 -0.39871781789E+00 -0.91517918127E+00 -0.62995344689E+00  0.11804110205E+01  0.00000000000E+00 0. -1.
         11    1    3    3    0    0 -0.74674146212E+00 -0.33176766959E+02 -0.15663894563E+02  0.36696227078E+02  0.51100000000E-03 0. -1.
        -11    1    3    3    0    0 -0.28832606637E+01 -0.20522615033E+01 -0.85594811395E+01  0.92622722359E+01  0.51100000000E-03 0.  1.
        -12    1    3    3    0    0  0.40287199437E+01  0.36144207643E+02  0.24853329149E+02  0.44049089665E+02  0.00000000000E+00 0.  1.
</event>
<event>
 7    1  0.1501154E-015  0.9000767E+02  0.7816164E-02  0.1186339E+00
        -11   -1    0    0    0    0  0.00000000000E+00  0.00000000000E+00  0.45593999997E+02  0.45594000000E+02  0.51100000000E-03 0.  1.
         11   -1    0    0    0    0 -0.00000000000E+00 -0.00000000000E+00 -0.45593999997E+02  0.45594000000E+02  0.51100000000E-03 0. -1.
    9900012    2    1    2    0    0  0.29357429976E+00  0.84214324281E+00  0.77316748839E+00  0.90007669929E+02  0.89999930372E+02 0.  0.
         12    1    1    2    0    0 -0.29357429976E+00 -0.84214324281E+00 -0.77316748839E+00  0.11803300708E+01  0.00000000000E+00 0. -1.
         11    1    3    3    0    0  0.73169367400E+01  0.33562529970E+02 -0.16385612253E+02  0.38058760757E+02  0.51100000000E-03 0. -1.
        -11    1    3    3    0    0  0.54346079777E+01  0.50992354108E+01  0.83038439530E+01  0.11157553061E+02  0.51100000000E-03 0.  1.
        -12    1    3    3    0    0 -0.12457970418E+02 -0.37819622138E+02  0.88549357888E+01  0.40791356111E+02  0.00000000000E+00 0.  1.
</event>
<event>
 7    1  0.1501154E-015  0.9000775E+02  0.7816164E-02  0.1186339E+00
        -11   -1    0    0    0    0  0.00000000000E+00  0.00000000000E+00  0.45593999997E+02  0.45594000000E+02  0.51100000000E-03 0. -1.
         11   -1    0    0    0    0 -0.00000000000E+00 -0.00000000000E+00 -0.45593999997E+02  0.45594000000E+02  0.51100000000E-03 0.  1.
    9900012    2    1    2    0    0 -0.34492375128E+00  0.11285409885E+01 -0.20058877865E-01  0.90007754468E+02  0.90000016027E+02 0.  0.
         12    1    1    2    0    0  0.34492375128E+00 -0.11285409885E+01  0.20058877865E-01  0.11802455319E+01  0.00000000000E+00 0. -1.
         11    1    3    3    0    0 -0.20443902209E+01 -0.43011038148E+01  0.71115962636E+01  0.85588449618E+01  0.51100000000E-03 0. -1.
        -11    1    3    3    0    0 -0.90707764024E+01 -0.23912453882E+02 -0.32384892000E+02  0.41265792920E+02  0.51100000000E-03 0.  1.
         12    1    3    3    0    0  0.10770242872E+02  0.29342098685E+02  0.25253236858E+02  0.40183116587E+02  0.00000000000E+00 0. -1.
</event>
<event>
 7    1  0.1501154E-015  0.9000769E+02  0.7816164E-02  0.1186339E+00
        -11   -1    0    0    0    0  0.00000000000E+00  0.00000000000E+00  0.45593999997E+02  0.45594000000E+02  0.51100000000E-03 0.  1.
         11   -1    0    0    0    0 -0.00000000000E+00 -0.00000000000E+00 -0.45593999997E+02  0.45594000000E+02  0.51100000000E-03 0. -1.
    9900012    2    1    2    0    0 -0.10884127033E+01  0.34931088867E+00  0.29405312775E+00  0.90007691756E+02  0.89999952487E+02 0.  0.
         12    1    1    2    0    0  0.10884127033E+01 -0.34931088867E+00 -0.29405312775E+00  0.11803082443E+01  0.00000000000E+00 0. -1.
         11    1    3    3    0    0  0.27040600261E+02 -0.24964551150E+02 -0.12334759991E+02  0.38814548573E+02  0.51100000000E-03 0. -1.
        -11    1    3    3    0    0  0.21429812958E+01  0.75356880744E+01 -0.73986609258E+01  0.10775859471E+02  0.51100000000E-03 0.  1.
        -12    1    3    3    0    0 -0.30271994260E+02  0.17778173965E+02  0.20027474045E+02  0.40417283712E+02  0.00000000000E+00 0.  1.
</event>
<event>
 7    1  0.1501154E-015  0.9000777E+02  0.7816164E-02  0.1186339E+00
        -11   -1    0    0    0    0  0.00000000000E+00  0.00000000000E+00  0.45593999997E+02  0.45594000000E+02  0.51100000000E-03 0. -1.
         11   -1    0    0    0    0 -0.00000000000E+00 -0.00000000000E+00 -0.45593999997E+02  0.45594000000E+02  0.51100000000E-03 0.  1.
    9900012    2    1    2    0    0 -0.10339665579E+01 -0.55746166906E+00  0.11442932336E+00  0.90007769334E+02  0.90000031089E+02 0.  0.
         12    1    1    2    0    0  0.10339665579E+01  0.55746166906E+00 -0.11442932336E+00  0.11802306661E+01  0.00000000000E+00 0. -1.
         11    1    3    3    0    0  0.11316454918E+02 -0.22419838580E+02 -0.15553474296E+01  0.25162082977E+02  0.51100000000E-03 0. -1.
        -11    1    3    3    0    0 -0.23616732917E+02 -0.93443183798E+01 -0.13043272095E+02  0.28551590268E+02  0.51100000000E-03 0.  1.
         12    1    3    3    0    0  0.11266311441E+02  0.31206695291E+02  0.14713048848E+02  0.36294096088E+02  0.00000000000E+00 0. -1.
</event>
<event>
 7    1  0.1501154E-015  0.9000769E+02  0.7816164E-02  0.1186339E+00
        -11   -1    0    0    0    0  0.00000000000E+00  0.00000000000E+00  0.45593999997E+02  0.45594000000E+02  0.51100000000E-03 0.  1.
         11   -1    0    0    0    0 -0.00000000000E+00 -0.00000000000E+00 -0.45593999997E+02  0.45594000000E+02  0.51100000000E-03 0. -1.
    9900012    2    1    2    0    0  0.71540784782E+00 -0.49293203643E+00  0.79896879595E+00  0.90007685839E+02  0.89999946492E+02 0.  0.
         12    1    1    2    0    0 -0.71540784782E+00  0.49293203643E+00 -0.79896879595E+00  0.11803141608E+01  0.00000000000E+00 0. -1.
         11    1    3    3    0    0  0.13386676962E+02 -0.33957848237E+02 -0.81465341153E+01  0.37399259289E+02  0.51100000000E-03 0. -1.
        -11    1    3    3    0    0 -0.50770846208E+00 -0.66148676079E+01 -0.51679791547E+01  0.84096522019E+01  0.51100000000E-03 0.  1.
        -12    1    3    3    0    0 -0.12163560652E+02  0.40079783809E+02  0.14113482066E+02  0.44198774349E+02  0.00000000000E+00 0.  1.
</event>
<event>
 7    1  0.1501154E-015  0.9000773E+02  0.7816164E-02  0.1186339E+00
        -11   -1    0    0    0    0  0.00000000000E+00  0.00000000000E+00  0.45593999997E+02  0.45594000000E+02  0.51100000000E-03 0. -1.
         11   -1    0    0    0    0 -0.00000000000E+00 -0.00000000000E+00 -0.45593999997E+02  0.45594000000E+02  0.51100000000E-03 0.  1.
    9900012    2    1    2    0    0  0.80839374853E+00  0.74488423254E-01 -0.85672633391E+00  0.90007733509E+02  0.89999994792E+02 0.  0.
         12    1    1    2    0    0 -0.80839374853E+00 -0.74488423254E-01  0.85672633391E+00  0.11802664907E+01  0.00000000000E+00 0. -1.
         11    1    3    3    0    0  0.47202859014E+01 -0.15191360802E+01 -0.60962742497E+00  0.49960503680E+01  0.51100000000E-03 0. -1.
        -11    1    3    3    0    0 -0.28089418913E+02  0.94601973445E+00 -0.33604692726E+02  0.43808512663E+02  0.51100000000E-03 0.  1.
         12    1    3    3    0    0  0.24177526761E+02  0.64760476903E+00  0.33357593817E+02  0.41203170479E+02  0.00000000000E+00 0. -1.
</event>
<event>
 7    1  0.2145490E-015  0.9000772E+02  0.7816164E-02  0.1186339E+00
        -11   -1    0    0    0    0  0.00000000000E+00  0.00000000000E+00  0.45593999997E+02  0.45594000000E+02  0.51100000000E-03 0.  1.
         11   -1    0    0    0    0 -0.00000000000E+00 -0.00000000000E+00 -0.45593999997E+02  0.45594000000E+02  0.51100000000E-03 0. -1.
    9900012    2    1    2    0    0 -0.19324353186E+00  0.52884829988E+00  0.10373197094E+01  0.90007722166E+02  0.89999983298E+02 0.  0.
         12    1    1    2    0    0  0.19324353186E+00 -0.52884829988E+00 -0.10373197094E+01  0.11802778344E+01  0.00000000000E+00 0. -1.
         11    1    3    3    0    0 -0.21808916692E+02  0.84989346337E+01 -0.33980382754E+02  0.41261691065E+02  0.51100000000E-03 0. -1.
        -11    1    3    3    0    0 -0.11946185512E+01  0.66882770924E+01  0.67842413296E+01  0.96013589989E+01  0.51100000000E-03 0.  1.
        -12    1    3    3    0    0  0.22810291712E+02 -0.14658363426E+02  0.28233461134E+02  0.39144672101E+02  0.00000000000E+00 0.  1.
</event>
<event>
 7    1  0.1501154E-015  0.9000752E+02  0.7816164E-02  0.1186339E+00
        -11   -1    0    0    0    0  0.00000000000E+00  0.00000000000E+00  0.45593999997E+02  0.45594000000E+02  0.51100000000E-03 0.  1.
         11   -1    0    0    0    0 -0.00000000000E+00 -0.00000000000E+00 -0.45593999997E+02  0.45594000000E+02  0.51100000000E-03 0. -1.
    9900012    2    1    2    0    0 -0.74939534760E+00 -0.82514753724E+00  0.38867606284E+00  0.90007520891E+02  0.89999779366E+02 0.  0.
         12    1    1    2    0    0  0.74939534760E+00  0.82514753724E+00 -0.38867606284E+00  0.11804791091E+01  0.00000000000E+00 0. -1.
         11    1    3    3    0    0  0.25996365131E+01 -0.89051189442E+01  0.56226483326E+01  0.10847738379E+02  0.51100000000E-03 0. -1.
        -11    1    3    3    0    0  0.22966322157E+02  0.23115210482E+02  0.21257956975E+02  0.38905856166E+02  0.51100000000E-03 0.  1.
         12    1    3    3    0    0 -0.26315354018E+02 -0.15035239075E+02 -0.26491929244E+02  0.40253926345E+02  0.00000000000E+00 0. -1.
</event>
<event>
 7    1  0.1501154E-015  0.9000773E+02  0.7816164E-02  0.1186339E+00
        -11   -1    0    0    0    0  0.00000000000E+00  0.00000000000E+00  0.45593999997E+02  0.45594000000E+02  0.51100000000E-03 0. -1.
         11   -1    0    0    0    0 -0.00000000000E+00 -0.00000000000E+00 -0.45593999997E+02  0.45594000000E+02  0.51100000000E-03 0.  1.
    9900012    2    1    2    0    0 -0.86378727664E+00 -0.62800436209E+00 -0.50250160922E+00  0.90007734858E+02  0.89999996158E+02 0.  0.
         12    1    1    2    0    0  0.86378727664E+00  0.62800436209E+00  0.50250160922E+00  0.11802651420E+01  0.00000000000E+00 0. -1.
         11    1    3    3    0    0  0.13979283230E+00  0.22086144684E+01 -0.10055132982E+02  0.10295786490E+02  0.51100000000E-03 0. -1.
        -11    1    3    3    0    0 -0.11917148645E+02  0.45388122174E+00 -0.33298994021E+02  0.35370149039E+02  0.51100000000E-03 0.  1.
         12    1    3    3    0    0  0.10913568536E+02 -0.32905000522E+01  0.42851625394E+02  0.44341799328E+02  0.00000000000E+00 0. -1.
</event>
<event>
 7    1  0.1501154E-015  0.9000782E+02  0.7816164E-02  0.1186339E+00
        -11   -1    0    0    0    0  0.00000000000E+00  0.00000000000E+00  0.45593999997E+02  0.45594000000E+02  0.51100000000E-03 0. -1.
         11   -1    0    0    0    0 -0.00000000000E+00 -0.00000000000E+00 -0.45593999997E+02  0.45594000000E+02  0.51100000000E-03 0.  1.
    9900012    2    1    2    0    0 -0.38130902818E+00  0.33765891735E+00 -0.10646248024E+01  0.90007815231E+02  0.90000077592E+02 0.  0.
         12    1    1    2    0    0  0.38130902818E+00 -0.33765891735E+00  0.10646248024E+01  0.11801847691E+01  0.00000000000E+00 0. -1.
         11    1    3    3    0    0  0.12971754504E+02  0.84824962675E+01  0.12045928236E+01  0.15545745462E+02  0.51100000000E-03 0. -1.
        -11    1    3    3    0    0  0.18177125617E+02  0.23525648508E+02 -0.14378799445E+01  0.29764602003E+02  0.51100000000E-03 0.  1.
         12    1    3    3    0    0 -0.31530189150E+02 -0.31670485858E+02 -0.83133768151E+00  0.44697467765E+02  0.00000000000E+00 0. -1.
</event>
<event>
 7    1  0.1501154E-015  0.9000772E+02  0.7816164E-02  0.1186339E+00
        -11   -1    0    0    0    0  0.00000000000E+00  0.00000000000E+00  0.45593999997E+02  0.45594000000E+02  0.51100000000E-03 0. -1.
         11   -1    0    0    0    0 -0.00000000000E+00 -0.00000000000E+00 -0.45593999997E+02  0.45594000000E+02  0.51100000000E-03 0.  1.
    9900012    2    1    2    0    0 -0.76107443508E+00  0.66832191778E+00 -0.60595459936E+00  0.90007716365E+02  0.89999977421E+02 0.  0.
         12    1    1    2    0    0  0.76107443508E+00 -0.66832191778E+00  0.60595459936E+00  0.11802836346E+01  0.00000000000E+00 0. -1.
         11    1    3    3    0    0  0.19432301754E+02  0.31787485926E+02  0.16550811422E+02  0.40767486702E+02  0.51100000000E-03 0. -1.
        -11    1    3    3    0    0  0.66617366817E+01 -0.63695012437E+01 -0.88617824347E+00  0.92592976975E+01  0.51100000000E-03 0.  1.
        -12    1    3    3    0    0 -0.26855112871E+02 -0.24749662765E+02 -0.16270587778E+02  0.39980931966E+02  0.00000000000E+00 0.  1.
</event>
<event>
 7    1  0.1501154E-015  0.9000772E+02  0.7816164E-02  0.1186339E+00
        -11   -1    0    0    0    0  0.00000000000E+00  0.00000000000E+00  0.45593999997E+02  0.45594000000E+02  0.51100000000E-03 0. -1.
         11   -1    0    0    0    0 -0.00000000000E+00 -0.00000000000E+00 -0.45593999997E+02  0.45594000000E+02  0.51100000000E-03 0.  1.
    9900012    2    1    2    0    0  0.45910561994E+00  0.10870508079E+01 -0.24590559786E-01  0.90007719472E+02  0.89999980569E+02 0.  0.
         12    1    1    2    0    0 -0.45910561994E+00 -0.10870508079E+01  0.24590559786E-01  0.11802805280E+01  0.00000000000E+00 0. -1.
         11    1    3    3    0    0 -0.71383289532E+01 -0.96138595659E+01 -0.23973352620E+01  0.12211848862E+02  0.51100000000E-03 0. -1.
        -11    1    3    3    0    0 -0.20596361119E+02 -0.24678508994E+02  0.47553552978E+01  0.32493880990E+02  0.51100000000E-03 0.  1.
         12    1    3    3    0    0  0.28193795692E+02  0.35379419368E+02 -0.23826105956E+01  0.45301989621E+02  0.00000000000E+00 0. -1.
</event>
<event>
 7    1  0.1501154E-015  0.9000771E+02  0.7816164E-02  0.1186339E+00
        -11   -1    0    0    0    0  0.00000000000E+00  0.00000000000E+00  0.45593999997E+02  0.45594000000E+02  0.51100000000E-03 0. -1.
         11   -1    0    0    0    0 -0.00000000000E+00 -0.00000000000E+00 -0.45593999997E+02  0.45594000000E+02  0.51100000000E-03 0.  1.
    9900012    2    1    2    0    0 -0.11731948404E+01  0.31583717009E-01 -0.12532188385E+00  0.90007707986E+02  0.89999968931E+02 0.  0.
         12    1    1    2    0    0  0.11731948404E+01 -0.31583717009E-01  0.12532188385E+00  0.11802920144E+01  0.00000000000E+00 0. -1.
         11    1    3    3    0    0 -0.34831249357E+02 -0.14025992987E+02 -0.82833069183E+01  0.38452016654E+02  0.51100000000E-03 0. -1.
        -11    1    3    3    0    0 -0.29958214177E+01 -0.46288789103E+01  0.88274291819E+01  0.10407928332E+02  0.51100000000E-03 0.  1.
        -12    1    3    3    0    0  0.36653875934E+02  0.18686455614E+02 -0.66944414739E+00  0.41147763000E+02  0.00000000000E+00 0.  1.
</event>
<event>
 7    1  0.1501154E-015  0.9000767E+02  0.7816164E-02  0.1186339E+00
        -11   -1    0    0    0    0  0.00000000000E+00  0.00000000000E+00  0.45593999997E+02  0.45594000000E+02  0.51100000000E-03 0. -1.
         11   -1    0    0    0    0 -0.00000000000E+00 -0.00000000000E+00 -0.45593999997E+02  0.45594000000E+02  0.51100000000E-03 0.  1.
    9900012    2    1    2    0    0  0.11360277989E+01  0.35246050117E-01  0.31838760783E+00  0.90007672879E+02  0.89999933361E+02 0.  0.
         12    1    1    2    0    0 -0.11360277989E+01 -0.35246050117E-01 -0.31838760783E+00  0.11803271210E+01  0.00000000000E+00 0. -1.
         11    1    3    3    0    0  0.30613509667E+01 -0.72158675878E+01 -0.47833468530E+01  0.91826478841E+01  0.51100000000E-03 0. -1.
        -11    1    3    3    0    0  0.29595758694E+02 -0.70843955624E+01 -0.21414148907E+02  0.37211065113E+02  0.51100000000E-03 0.  1.
         12    1    3    3    0    0 -0.31521081862E+02  0.14335509200E+02  0.26515883368E+02  0.43613959882E+02  0.00000000000E+00 0. -1.
</event>
<event>
 7    1  0.1501154E-015  0.9000774E+02  0.7816164E-02  0.1186339E+00
        -11   -1    0    0    0    0  0.00000000000E+00  0.00000000000E+00  0.45593999997E+02  0.45594000000E+02  0.51100000000E-03 0.  1.
         11   -1    0    0    0    0 -0.00000000000E+00 -0.00000000000E+00 -0.45593999997E+02  0.45594000000E+02  0.51100000000E-03 0. -1.
    9900012    2    1    2    0    0  0.89551804450E+00 -0.66078841750E+00  0.39296045956E+00  0.90007740781E+02  0.90000002160E+02 0.  0.
         12    1    1    2    0    0 -0.89551804450E+00  0.66078841750E+00 -0.39296045956E+00  0.11802592188E+01  0.00000000000E+00 0. -1.
         11    1    3    3    0    0 -0.84802557302E+00 -0.83740993782E+01 -0.69382989458E+01  0.10908009914E+02  0.51100000000E-03 0. -1.
        -11    1    3    3    0    0  0.38519335923E+02  0.13236638778E+02  0.95865458829E+01  0.41843156051E+02  0.51100000000E-03 0.  1.
         12    1    3    3    0    0 -0.36775792306E+02 -0.55233278170E+01 -0.22552864775E+01  0.37256574816E+02  0.00000000000E+00 0. -1.
</event>
<event>
 7    1  0.1501154E-015  0.9000787E+02  0.7816164E-02  0.1186339E+00
        -11   -1    0    0    0    0  0.00000000000E+00  0.00000000000E+00  0.45593999997E+02  0.45594000000E+02  0.51100000000E-03 0. -1.
         11   -1    0    0    0    0 -0.00000000000E+00 -0.00000000000E+00 -0.45593999997E+02  0.45594000000E+02  0.51100000000E-03 0.  1.
    9900012    2    1    2    0    0  0.82069291431E+00 -0.77013185185E+00 -0.35506779989E+00  0.90007867350E+02  0.90000130399E+02 0.  0.
         12    1    1    2    0    0 -0.82069291431E+00  0.77013185185E+00  0.35506779989E+00  0.11801326499E+01  0.00000000000E+00 0. -1.
         11    1    3    3    0    0  0.14118891536E+02  0.21432206761E+02  0.34891328643E+02  0.43313824578E+02  0.51100000000E-03 0. -1.
        -11    1    3    3    0    0 -0.39452958435E+00 -0.95257528828E+01 -0.35002674068E+01  0.10156155461E+02  0.51100000000E-03 0.  1.
        -12    1    3    3    0    0 -0.12903669038E+02 -0.12676585730E+02 -0.31746129036E+02  0.36537887311E+02  0.00000000000E+00 0.  1.
</event>
<event>
 7    1  0.1501154E-015  0.9000784E+02  0.7816164E-02  0.1186339E+00
        -11   -1    0    0    0    0  0.00000000000E+00  0.00000000000E+00  0.45593999997E+02  0.45594000000E+02  0.51100000000E-03 0. -1.
         11   -1    0    0    0    0 -0.00000000000E+00 -0.00000000000E+00 -0.45593999997E+02  0.45594000000E+02  0.51100000000E-03 0.  1.
    9900012    2    1    2    0    0 -0.47050058697E+00 -0.29332222688E+00 -0.10418128130E+01  0.90007837863E+02  0.90000100523E+02 0.  0.
         12    1    1    2    0    0  0.47050058697E+00  0.29332222688E+00  0.10418128130E+01  0.11801621365E+01  0.00000000000E+00 0. -1.
         11    1    3    3    0    0 -0.34467285800E+02 -0.22583568528E+02 -0.61457745974E-01  0.41206979205E+02  0.51100000000E-03 0. -1.
        -11    1    3    3    0    0  0.75328427421E+01 -0.63008834481E+01 -0.62267471567E+00  0.98403544685E+01  0.51100000000E-03 0.  1.
        -12    1    3    3    0    0  0.26463942471E+02  0.28591129749E+02 -0.35768035138E+00  0.38960504190E+02  0.00000000000E+00 0.  1.
</event>
<event>
 7    1  0.1501154E-015  0.9000775E+02  0.7816164E-02  0.1186339E+00
        -11   -1    0    0    0    0  0.00000000000E+00  0.00000000000E+00  0.45593999997E+02  0.45594000000E+02  0.51100000000E-03 0.  1.
         11   -1    0    0    0    0 -0.00000000000E+00 -0.00000000000E+00 -0.45593999997E+02  0.45594000000E+02  0.51100000000E-03 0. -1.
    9900012    2    1    2    0    0 -0.74944159894E+00  0.49769995207E+00 -0.76395828270E+00  0.90007745701E+02  0.90000007144E+02 0.  0.
         12    1    1    2    0    0  0.74944159894E+00 -0.49769995207E+00  0.76395828270E+00  0.11802542990E+01  0.00000000000E+00 0. -1.
         11    1    3    3    0    0  0.74395263391E+01 -0.38164562744E+02 -0.65696771423E+01  0.39434008922E+02  0.51100000000E-03 0. -1.
        -11    1    3    3    0    0 -0.91611395543E+01 -0.20487366822E+01 -0.32052598093E+00  0.93928982265E+01  0.51100000000E-03 0.  1.
        -12    1    3    3    0    0  0.97217161632E+00  0.40710999379E+02  0.61262448405E+01  0.41180838553E+02  0.00000000000E+00 0.  1.
</event>
<event>
 7    1  0.1501154E-015  0.9000770E+02  0.7816164E-02  0.1186339E+00
        -11   -1    0    0    0    0  0.00000000000E+00  0.00000000000E+00  0.45593999997E+02  0.45594000000E+02  0.51100000000E-03 0.  1.
         11   -1    0    0    0    0 -0.00000000000E+00 -0.00000000000E+00 -0.45593999997E+02  0.45594000000E+02  0.51100000000E-03 0. -1.
    9900012    2    1    2    0    0 -0.34098363777E+00  0.82906939391E+00  0.76777895747E+00  0.90007699009E+02  0.89999959836E+02 0.  0.
         12    1    1    2    0    0  0.34098363777E+00 -0.82906939391E+00 -0.76777895747E+00  0.11803009907E+01  0.00000000000E+00 0. -1.
         11    1    3    3    0    0  0.84767859535E+01  0.29827849024E+01  0.10599761055E+02  0.13896324714E+02  0.51100000000E-03 0. -1.
        -11    1    3    3    0    0 -0.23860781238E+02 -0.31297005840E+02  0.57989955994E+01  0.39780243917E+02  0.51100000000E-03 0.  1.
         12    1    3    3    0    0  0.15043011647E+02  0.29143290332E+02 -0.15630977697E+02  0.36331130378E+02  0.00000000000E+00 0. -1.
</event>
<event>
 7    1  0.1501154E-015  0.9000767E+02  0.7816164E-02  0.1186339E+00
        -11   -1    0    0    0    0  0.00000000000E+00  0.00000000000E+00  0.45593999997E+02  0.45594000000E+02  0.51100000000E-03 0. -1.
         11   -1    0    0    0    0 -0.00000000000E+00 -0.00000000000E+00 -0.45593999997E+02  0.45594000000E+02  0.51100000000E-03 0.  1.
    9900012    2    1    2    0    0 -0.24516186234E-01 -0.11559240520E+01 -0.23753870542E+00  0.90007666956E+02  0.89999927360E+02 0.  0.
         12    1    1    2    0    0  0.24516186234E-01  0.11559240520E+01  0.23753870542E+00  0.11803330437E+01  0.00000000000E+00 0. -1.
         11    1    3    3    0    0 -0.14473553372E+01  0.17767715480E+02  0.33292108648E+02  0.37764415120E+02  0.51100000000E-03 0. -1.
        -11    1    3    3    0    0  0.83556049845E+01  0.78700912092E+01 -0.15202266548E+02  0.19048973168E+02  0.51100000000E-03 0.  1.
        -12    1    3    3    0    0 -0.69327658336E+01 -0.26793730741E+02 -0.18327380805E+02  0.33194278668E+02  0.00000000000E+00 0.  1.
</event>
<event>
 7    1  0.1501154E-015  0.9000771E+02  0.7816164E-02  0.1186339E+00
        -11   -1    0    0    0    0  0.00000000000E+00  0.00000000000E+00  0.45593999997E+02  0.45594000000E+02  0.51100000000E-03 0. -1.
         11   -1    0    0    0    0 -0.00000000000E+00 -0.00000000000E+00 -0.45593999997E+02  0.45594000000E+02  0.51100000000E-03 0.  1.
    9900012    2    1    2    0    0  0.13793336107E+00  0.11509308342E+01 -0.22231174709E+00  0.90007707701E+02  0.89999968643E+02 0.  0.
         12    1    1    2    0    0 -0.13793336107E+00 -0.11509308342E+01  0.22231174709E+00  0.11802922986E+01  0.00000000000E+00 0. -1.
         11    1    3    3    0    0  0.36232029182E+01 -0.11342208650E+01  0.95351281779E+01  0.10263173290E+02  0.51100000000E-03 0. -1.
        -11    1    3    3    0    0  0.28538490285E+02  0.11517177174E+02 -0.28124805891E+02  0.41690472587E+02  0.51100000000E-03 0.  1.
         12    1    3    3    0    0 -0.32023759842E+02 -0.92320254749E+01  0.18367365966E+02  0.38054061824E+02  0.00000000000E+00 0. -1.
</event>
<event>
 7    1  0.1501154E-015  0.9000774E+02  0.7816164E-02  0.1186339E+00
        -11   -1    0    0    0    0  0.00000000000E+00  0.00000000000E+00  0.45593999997E+02  0.45594000000E+02  0.51100000000E-03 0.  1.
         11   -1    0    0    0    0 -0.00000000000E+00 -0.00000000000E+00 -0.45593999997E+02  0.45594000000E+02  0.51100000000E-03 0. -1.
    9900012    2    1    2    0    0  0.10949100310E+01 -0.38883796094E+00 -0.20735386753E+00  0.90007737926E+02  0.89999999267E+02 0.  0.
         12    1    1    2    0    0 -0.10949100310E+01  0.38883796094E+00  0.20735386753E+00  0.11802620736E+01  0.00000000000E+00 0. -1.
         11    1    3    3    0    0  0.26962768675E+02  0.15972978438E+02 -0.18982912500E+02  0.36639840365E+02  0.51100000000E-03 0. -1.
        -11    1    3    3    0    0 -0.39184139959E+01  0.98745542283E+01 -0.49681695744E+01  0.11727894041E+02  0.51100000000E-03 0.  1.
        -12    1    3    3    0    0 -0.21949444648E+02 -0.26236370627E+02  0.23743728207E+02  0.41640003520E+02  0.00000000000E+00 0.  1.
</event>
<event>
 7    1  0.1501154E-015  0.9000772E+02  0.7816164E-02  0.1186339E+00
        -11   -1    0    0    0    0  0.00000000000E+00  0.00000000000E+00  0.45593999997E+02  0.45594000000E+02  0.51100000000E-03 0.  1.
         11   -1    0    0    0    0 -0.00000000000E+00 -0.00000000000E+00 -0.45593999997E+02  0.45594000000E+02  0.51100000000E-03 0. -1.
    9900012    2    1    2    0    0  0.89228616834E+00 -0.71667839217E+00 -0.28855010573E+00  0.90007718810E+02  0.89999979898E+02 0.  0.
         12    1    1    2    0    0 -0.89228616834E+00  0.71667839217E+00  0.28855010573E+00  0.11802811900E+01  0.00000000000E+00 0. -1.
         11    1    3    3    0    0  0.19266083346E+02  0.25787497431E+02 -0.24618712228E+02  0.40524782335E+02  0.51100000000E-03 0. -1.
        -11    1    3    3    0    0  0.57698554702E+01  0.10999300831E+01  0.63137890275E+01  0.86235149724E+01  0.51100000000E-03 0.  1.
        -12    1    3    3    0    0 -0.24143652647E+02 -0.27604105906E+02  0.18016373095E+02  0.40859421503E+02  0.00000000000E+00 0.  1.
</event>
<event>
 7    1  0.1501154E-015  0.9000776E+02  0.7816164E-02  0.1186339E+00
        -11   -1    0    0    0    0  0.00000000000E+00  0.00000000000E+00  0.45593999997E+02  0.45594000000E+02  0.51100000000E-03 0.  1.
         11   -1    0    0    0    0 -0.00000000000E+00 -0.00000000000E+00 -0.45593999997E+02  0.45594000000E+02  0.51100000000E-03 0. -1.
    9900012    2    1    2    0    0 -0.10443615345E+01  0.31245164260E+00  0.45236989871E+00  0.90007764613E+02  0.90000026306E+02 0.  0.
         12    1    1    2    0    0  0.10443615345E+01 -0.31245164260E+00 -0.45236989871E+00  0.11802353871E+01  0.00000000000E+00 0. -1.
         11    1    3    3    0    0 -0.73293686455E+01 -0.77702823569E+00 -0.62165996732E+01  0.96420708035E+01  0.51100000000E-03 0. -1.
        -11    1    3    3    0    0 -0.24479668239E+02  0.11895119130E+02  0.29822059021E+02  0.40374536786E+02  0.51100000000E-03 0.  1.
         12    1    3    3    0    0  0.30764675350E+02 -0.10805639251E+02 -0.23153089449E+02  0.39991157023E+02  0.00000000000E+00 0. -1.
</event>
<event>
 7    1  0.1501154E-015  0.9000759E+02  0.7816164E-02  0.1186339E+00
        -11   -1    0    0    0    0  0.00000000000E+00  0.00000000000E+00  0.45593999997E+02  0.45594000000E+02  0.51100000000E-03 0.  1.
         11   -1    0    0    0    0 -0.00000000000E+00 -0.00000000000E+00 -0.45593999997E+02  0.45594000000E+02  0.51100000000E-03 0. -1.
    9900012    2    1    2    0    0  0.29122878492E-03  0.64224262957E-01  0.11786608845E+01  0.90007590613E+02  0.89999850009E+02 0.  0.
         12    1    1    2    0    0 -0.29122878492E-03 -0.64224262957E-01 -0.11786608845E+01  0.11804093872E+01  0.00000000000E+00 0. -1.
         11    1    3    3    0    0  0.32598184479E+01 -0.18211392647E+01 -0.90446028640E+01  0.97850807745E+01  0.51100000000E-03 0. -1.
        -11    1    3    3    0    0 -0.59990036547E+00  0.39546328963E+02  0.14719132880E+02  0.42201005768E+02  0.51100000000E-03 0.  1.
         12    1    3    3    0    0 -0.26596268536E+01 -0.37660965435E+02 -0.44958691318E+01  0.38021504070E+02  0.00000000000E+00 0. -1.
</event>
<event>
 7    1  0.1501154E-015  0.9000775E+02  0.7816164E-02  0.1186339E+00
        -11   -1    0    0    0    0  0.00000000000E+00  0.00000000000E+00  0.45593999997E+02  0.45594000000E+02  0.51100000000E-03 0.  1.
         11   -1    0    0    0    0 -0.00000000000E+00 -0.00000000000E+00 -0.45593999997E+02  0.45594000000E+02  0.51100000000E-03 0. -1.
    9900012    2    1    2    0    0 -0.10601168264E+01  0.39371225284E+00  0.33784475217E+00  0.90007747442E+02  0.90000008908E+02 0.  0.
         12    1    1    2    0    0  0.10601168264E+01 -0.39371225284E+00 -0.33784475217E+00  0.11802525578E+01  0.00000000000E+00 0. -1.
         11    1    3    3    0    0 -0.11593584325E+00  0.10263931331E+02  0.37170697930E+01  0.10916883053E+02  0.51100000000E-03 0. -1.
        -11    1    3    3    0    0 -0.54720696507E+01  0.33120112812E+02  0.77520848538E+01  0.34452579567E+02  0.51100000000E-03 0.  1.
         12    1    3    3    0    0  0.45278886675E+01 -0.42990331891E+02 -0.11131309895E+02  0.44638284822E+02  0.00000000000E+00 0. -1.
</event>
<event>
 7    1  0.1501154E-015  0.9000768E+02  0.7816164E-02  0.1186339E+00
        -11   -1    0    0    0    0  0.00000000000E+00  0.00000000000E+00  0.45593999997E+02  0.45594000000E+02  0.51100000000E-03 0. -1.
         11   -1    0    0    0    0 -0.00000000000E+00 -0.00000000000E+00 -0.45593999997E+02  0.45594000000E+02  0.51100000000E-03 0.  1.
    9900012    2    1    2    0    0 -0.59933037799E+00 -0.35401360783E+00 -0.95321669789E+00  0.90007684530E+02  0.89999945165E+02 0.  0.
         12    1    1    2    0    0  0.59933037799E+00  0.35401360783E+00  0.95321669789E+00  0.11803154704E+01  0.00000000000E+00 0. -1.
         11    1    3    3    0    0 -0.15653565314E+02  0.29862378920E+02  0.26062773469E+02  0.42615301747E+02  0.51100000000E-03 0. -1.
        -11    1    3    3    0    0 -0.65023662432E+00  0.10244831366E+01 -0.69964345965E+01  0.71008781632E+01  0.51100000000E-03 0.  1.
        -12    1    3    3    0    0  0.15704471560E+02 -0.31240875665E+02 -0.20019555570E+02  0.40291504620E+02  0.00000000000E+00 0.  1.
</event>
<event>
 7    1  0.1501154E-015  0.9000776E+02  0.7816164E-02  0.1186339E+00
        -11   -1    0    0    0    0  0.00000000000E+00  0.00000000000E+00  0.45593999997E+02  0.45594000000E+02  0.51100000000E-03 0.  1.
         11   -1    0    0    0    0 -0.00000000000E+00 -0.00000000000E+00 -0.45593999997E+02  0.45594000000E+02  0.51100000000E-03 0. -1.
    9900012    2    1    2    0    0 -0.78318137190E+00 -0.88285541247E+00  0.12527024985E-01  0.90007761182E+02  0.90000022830E+02 0.  0.
         12    1    1    2    0    0  0.78318137190E+00  0.88285541247E+00 -0.12527024985E-01  0.11802388178E+01  0.00000000000E+00 0. -1.
         11    1    3    3    0    0  0.66723166501E+01 -0.27184850798E+01 -0.26255973714E+02  0.27226570231E+02  0.51100000000E-03 0. -1.
        -11    1    3    3    0    0  0.23793310688E+01  0.39614819014E+01 -0.17382109414E+02  0.17985891224E+02  0.51100000000E-03 0.  1.
        -12    1    3    3    0    0 -0.98348290908E+01 -0.21258522341E+01  0.43650610153E+02  0.44795299727E+02  0.00000000000E+00 0.  1.
</event>
<event>
 7    1  0.1501154E-015  0.9000775E+02  0.7816164E-02  0.1186339E+00
        -11   -1    0    0    0    0  0.00000000000E+00  0.00000000000E+00  0.45593999997E+02  0.45594000000E+02  0.51100000000E-03 0.  1.
         11   -1    0    0    0    0 -0.00000000000E+00 -0.00000000000E+00 -0.45593999997E+02  0.45594000000E+02  0.51100000000E-03 0. -1.
    9900012    2    1    2    0    0 -0.11753121085E+01 -0.10762732117E+00  0.75695538560E-02  0.90007746006E+02  0.90000007453E+02 0.  0.
         12    1    1    2    0    0  0.11753121085E+01  0.10762732117E+00 -0.75695538560E-02  0.11802539942E+01  0.00000000000E+00 0. -1.
         11    1    3    3    0    0  0.19368258327E+01 -0.52826690067E+01  0.50623234191E+01  0.75686858041E+01  0.51100000000E-03 0. -1.
        -11    1    3    3    0    0  0.16096056805E+02 -0.20090922672E+02  0.27016789884E+02  0.37318027204E+02  0.51100000000E-03 0.  1.
         12    1    3    3    0    0 -0.19208194746E+02  0.25265964357E+02 -0.32071543749E+02  0.45121032998E+02  0.00000000000E+00 0. -1.
</event>
<event>
 7    1  0.2525266E-015  0.9000771E+02  0.7816164E-02  0.1186339E+00
        -11   -1    0    0    0    0  0.00000000000E+00  0.00000000000E+00  0.45593999997E+02  0.45594000000E+02  0.51100000000E-03 0.  1.
         11   -1    0    0    0    0 -0.00000000000E+00 -0.00000000000E+00 -0.45593999997E+02  0.45594000000E+02  0.51100000000E-03 0. -1.
    9900012    2    1    2    0    0 -0.10077331680E+00  0.11573536079E+01  0.20849576538E+00  0.90007706342E+02  0.89999967266E+02 0.  0.
         12    1    1    2    0    0  0.10077331680E+00 -0.11573536079E+01 -0.20849576538E+00  0.11802936581E+01  0.00000000000E+00 0. -1.
         11    1    3    3    0    0  0.14561884607E+02 -0.24830078841E+02 -0.28619543355E+02  0.40591372984E+02  0.51100000000E-03 0. -1.
        -11    1    3    3    0    0 -0.91485592038E+01 -0.22482110413E+01  0.11428526788E+01  0.94898209097E+01  0.51100000000E-03 0.  1.
        -12    1    3    3    0    0 -0.55140987205E+01  0.28235643490E+02  0.27685186441E+02  0.39926512449E+02  0.00000000000E+00 0.  1.
</event>
<event>
 7    1  0.1501154E-015  0.9000768E+02  0.7816164E-02  0.1186339E+00
        -11   -1    0    0    0    0  0.00000000000E+00  0.00000000000E+00  0.45593999997E+02  0.45594000000E+02  0.51100000000E-03 0.  1.
         11   -1    0    0    0    0 -0.00000000000E+00 -0.00000000000E+00 -0.45593999997E+02  0.45594000000E+02  0.51100000000E-03 0. -1.
    9900012    2    1    2    0    0  0.25598908140E+00  0.49532441697E+00  0.10403253540E+01  0.90007680751E+02  0.89999941337E+02 0.  0.
         12    1    1    2    0    0 -0.25598908140E+00 -0.49532441697E+00 -0.10403253540E+01  0.11803192492E+01  0.00000000000E+00 0. -1.
         11    1    3    3    0    0 -0.78895479468E+01  0.72630060202E+01  0.42815524597E+02  0.44138026349E+02  0.51100000000E-03 0. -1.
        -11    1    3    3    0    0  0.22190814659E+01  0.51568438648E+01 -0.11611363741E+02  0.12897330320E+02  0.51100000000E-03 0.  1.
        -12    1    3    3    0    0  0.59264555624E+01 -0.11924525468E+02 -0.30163835502E+02  0.32972324082E+02  0.00000000000E+00 0.  1.
</event>
<event>
 7    1  0.1501154E-015  0.9000781E+02  0.7816164E-02  0.1186339E+00
        -11   -1    0    0    0    0  0.00000000000E+00  0.00000000000E+00  0.45593999997E+02  0.45594000000E+02  0.51100000000E-03 0.  1.
         11   -1    0    0    0    0 -0.00000000000E+00 -0.00000000000E+00 -0.45593999997E+02  0.45594000000E+02  0.51100000000E-03 0. -1.
    9900012    2    1    2    0    0  0.26801803012E+00 -0.90899496890E+00  0.70337312744E+00  0.90007813881E+02  0.90000076225E+02 0.  0.
         12    1    1    2    0    0 -0.26801803012E+00  0.90899496890E+00 -0.70337312744E+00  0.11801861185E+01  0.00000000000E+00 0. -1.
         11    1    3    3    0    0  0.29805671196E+01  0.72866124008E+01 -0.70836111366E+01  0.10590375236E+02  0.51100000000E-03 0. -1.
        -11    1    3    3    0    0  0.31475692907E+02  0.17684496950E+02  0.21222659167E+01  0.36165794465E+02  0.51100000000E-03 0.  1.
         12    1    3    3    0    0 -0.34188241996E+02 -0.25880104320E+02  0.56647183474E+01  0.43251644181E+02  0.00000000000E+00 0. -1.
</event>
<event>
 7    1  0.1501154E-015  0.9000775E+02  0.7816164E-02  0.1186339E+00
        -11   -1    0    0    0    0  0.00000000000E+00  0.00000000000E+00  0.45593999997E+02  0.45594000000E+02  0.51100000000E-03 0. -1.
         11   -1    0    0    0    0 -0.00000000000E+00 -0.00000000000E+00 -0.45593999997E+02  0.45594000000E+02  0.51100000000E-03 0.  1.
    9900012    2    1    2    0    0  0.68627915169E+00  0.54482206832E+00 -0.79069019832E+00  0.90007745303E+02  0.90000006741E+02 0.  0.
         12    1    1    2    0    0 -0.68627915169E+00 -0.54482206832E+00  0.79069019832E+00  0.11802546970E+01  0.00000000000E+00 0. -1.
         11    1    3    3    0    0  0.60450936078E+01 -0.56667003667E+01 -0.58797026043E+01  0.10159997675E+02  0.51100000000E-03 0. -1.
        -11    1    3    3    0    0  0.90980479108E+01  0.13674133256E+02 -0.33862294201E+02  0.37635240997E+02  0.51100000000E-03 0.  1.
         12    1    3    3    0    0 -0.14456862367E+02 -0.74626108205E+01  0.38951306607E+02  0.42212506632E+02  0.00000000000E+00 0. -1.
</event>
<event>
 7    1  0.1501154E-015  0.9000805E+02  0.7816164E-02  0.1186338E+00
        -11   -1    0    0    0    0  0.00000000000E+00  0.00000000000E+00  0.45593999997E+02  0.45594000000E+02  0.51100000000E-03 0.  1.
         11   -1    0    0    0    0 -0.00000000000E+00 -0.00000000000E+00 -0.45593999997E+02  0.45594000000E+02  0.51100000000E-03 0. -1.
    9900012    2    1    2    0    0 -0.68121463163E+00  0.79626782311E+00 -0.54237846005E+00  0.90008054995E+02  0.90000320521E+02 0.  0.
         12    1    1    2    0    0  0.68121463163E+00 -0.79626782311E+00  0.54237846005E+00  0.11799450048E+01  0.00000000000E+00 0. -1.
         11    1    3    3    0    0 -0.32830692868E+01 -0.38092794039E+02 -0.13025777988E+02  0.40391959522E+02  0.51100000000E-03 0. -1.
        -11    1    3    3    0    0 -0.90026697254E+01  0.31393117948E+01  0.65431021737E+01  0.11563543014E+02  0.51100000000E-03 0.  1.
        -12    1    3    3    0    0  0.11604524381E+02  0.35749750067E+02  0.59402973540E+01  0.38052552458E+02  0.00000000000E+00 0.  1.
</event>
<event>
 7    1  0.1501154E-015  0.9000766E+02  0.7816164E-02  0.1186339E+00
        -11   -1    0    0    0    0  0.00000000000E+00  0.00000000000E+00  0.45593999997E+02  0.45594000000E+02  0.51100000000E-03 0.  1.
         11   -1    0    0    0    0 -0.00000000000E+00 -0.00000000000E+00 -0.45593999997E+02  0.45594000000E+02  0.51100000000E-03 0. -1.
    9900012    2    1    2    0    0  0.10418056244E+01  0.24314343773E+00  0.49872402825E+00  0.90007659648E+02  0.89999919955E+02 0.  0.
         12    1    1    2    0    0 -0.10418056244E+01 -0.24314343773E+00 -0.49872402825E+00  0.11803403520E+01  0.00000000000E+00 0. -1.
         11    1    3    3    0    0 -0.83452122815E+01 -0.17244279660E+02  0.88660216815E+01  0.21109573415E+02  0.51100000000E-03 0. -1.
        -11    1    3    3    0    0  0.81205062613E+01 -0.17299934330E+02  0.17196772693E+02  0.25709129528E+02  0.51100000000E-03 0.  1.
         12    1    3    3    0    0  0.12665116446E+01  0.34787357428E+02 -0.25564070347E+02  0.43188956705E+02  0.00000000000E+00 0. -1.
</event>
<event>
 7    1  0.1501154E-015  0.9000775E+02  0.7816164E-02  0.1186339E+00
        -11   -1    0    0    0    0  0.00000000000E+00  0.00000000000E+00  0.45593999997E+02  0.45594000000E+02  0.51100000000E-03 0. -1.
         11   -1    0    0    0    0 -0.00000000000E+00 -0.00000000000E+00 -0.45593999997E+02  0.45594000000E+02  0.51100000000E-03 0.  1.
    9900012    2    1    2    0    0 -0.63690106385E+00 -0.80866308504E+00 -0.57741518049E+00  0.90007751195E+02  0.90000012711E+02 0.  0.
         12    1    1    2    0    0  0.63690106385E+00  0.80866308504E+00  0.57741518049E+00  0.11802488047E+01  0.00000000000E+00 0. -1.
         11    1    3    3    0    0 -0.11019367004E+01 -0.61326674606E+01  0.13322867001E+02  0.14707911478E+02  0.51100000000E-03 0. -1.
        -11    1    3    3    0    0  0.24204340657E+02 -0.25041032636E+02 -0.11521778098E+02  0.36683167706E+02  0.51100000000E-03 0.  1.
         12    1    3    3    0    0 -0.23739305020E+02  0.30365037012E+02 -0.23785040835E+01  0.38616672011E+02  0.00000000000E+00 0. -1.
</event>
<event>
 7    1  0.1501154E-015  0.9000778E+02  0.7816164E-02  0.1186339E+00
        -11   -1    0    0    0    0  0.00000000000E+00  0.00000000000E+00  0.45593999997E+02  0.45594000000E+02  0.51100000000E-03 0.  1.
         11   -1    0    0    0    0 -0.00000000000E+00 -0.00000000000E+00 -0.45593999997E+02  0.45594000000E+02  0.51100000000E-03 0. -1.
    9900012    2    1    2    0    0 -0.42974481199E+00 -0.97000464436E+00  0.51702854471E+00  0.90007784711E+02  0.90000046669E+02 0.  0.
         12    1    1    2    0    0  0.42974481199E+00  0.97000464436E+00 -0.51702854471E+00  0.11802152895E+01  0.00000000000E+00 0. -1.
         11    1    3    3    0    0  0.27813506421E+02  0.66402002789E+01 -0.25780298343E+02  0.38500742617E+02  0.51100000000E-03 0. -1.
        -11    1    3    3    0    0  0.46988700233E+01  0.68526181943E+01  0.51220830835E+01  0.97608140535E+01  0.51100000000E-03 0.  1.
        -12    1    3    3    0    0 -0.32942121256E+02 -0.14462823118E+02  0.21175243805E+02  0.41746228040E+02  0.00000000000E+00 0.  1.
</event>
<event>
 7    1  0.1501154E-015  0.9000780E+02  0.7816164E-02  0.1186339E+00
        -11   -1    0    0    0    0  0.00000000000E+00  0.00000000000E+00  0.45593999997E+02  0.45594000000E+02  0.51100000000E-03 0.  1.
         11   -1    0    0    0    0 -0.00000000000E+00 -0.00000000000E+00 -0.45593999997E+02  0.45594000000E+02  0.51100000000E-03 0. -1.
    9900012    2    1    2    0    0  0.37305866105E+00 -0.34801332280E+00  0.10642302882E+01  0.90007799956E+02  0.90000062115E+02 0.  0.
         12    1    1    2    0    0 -0.37305866105E+00  0.34801332280E+00 -0.10642302882E+01  0.11802000439E+01  0.00000000000E+00 0. -1.
         11    1    3    3    0    0 -0.77066325164E+01 -0.12431847180E+01  0.12071835949E+02  0.14375914455E+02  0.51100000000E-03 0. -1.
        -11    1    3    3    0    0 -0.11844167556E+02 -0.33244071678E+02 -0.57366243461E+01  0.35754181098E+02  0.51100000000E-03 0.  1.
         12    1    3    3    0    0  0.19923858734E+02  0.34139243073E+02 -0.52709813149E+01  0.39877704403E+02  0.00000000000E+00 0. -1.
</event>
<event>
 7    1  0.1501154E-015  0.9000773E+02  0.7816164E-02  0.1186339E+00
        -11   -1    0    0    0    0  0.00000000000E+00  0.00000000000E+00  0.45593999997E+02  0.45594000000E+02  0.51100000000E-03 0. -1.
         11   -1    0    0    0    0 -0.00000000000E+00 -0.00000000000E+00 -0.45593999997E+02  0.45594000000E+02  0.51100000000E-03 0.  1.
    9900012    2    1    2    0    0  0.97673426633E+00  0.22471456425E+00  0.62332727555E+00  0.90007727423E+02  0.89999988625E+02 0.  0.
         12    1    1    2    0    0 -0.97673426633E+00 -0.22471456425E+00 -0.62332727555E+00  0.11802725765E+01  0.00000000000E+00 0. -1.
         11    1    3    3    0    0  0.67400593887E+01  0.17747719622E+01  0.62573386535E+01  0.93665630498E+01  0.51100000000E-03 0. -1.
        -11    1    3    3    0    0  0.25923478949E+01 -0.18068961749E+02 -0.38675749548E+02  0.42767057997E+02  0.51100000000E-03 0.  1.
         12    1    3    3    0    0 -0.83556730172E+01  0.16518904351E+02  0.33041738170E+02  0.37874106377E+02  0.00000000000E+00 0. -1.
</event>
<event>
 7    1  0.1501154E-015  0.9000765E+02  0.7816164E-02  0.1186339E+00
        -11   -1    0    0    0    0  0.00000000000E+00  0.00000000000E+00  0.45593999997E+02  0.45594000000E+02  0.51100000000E-03 0. -1.
         11   -1    0    0    0    0 -0.00000000000E+00 -0.00000000000E+00 -0.45593999997E+02  0.45594000000E+02  0.51100000000E-03 0.  1.
    9900012    2    1    2    0    0 -0.18240055618E-02  0.45657473208E+00 -0.10884666816E+01  0.90007651098E+02  0.89999911293E+02 0.  0.
         12    1    1    2    0    0  0.18240055618E-02 -0.45657473208E+00  0.10884666816E+01  0.11803489018E+01  0.00000000000E+00 0. -1.
         11    1    3    3    0    0 -0.87536708734E+01  0.36708321410E+01  0.72826907058E+01  0.11964085696E+02  0.51100000000E-03 0. -1.
        -11    1    3    3    0    0 -0.21546198177E+02 -0.28258807396E+02  0.62921974882E+01  0.36088649196E+02  0.51100000000E-03 0.  1.
         12    1    3    3    0    0  0.30298045045E+02  0.25044549987E+02 -0.14663354876E+02  0.41954916206E+02  0.00000000000E+00 0. -1.
</event>
<event>
 7    1  0.1501154E-015  0.9000783E+02  0.7816164E-02  0.1186339E+00
        -11   -1    0    0    0    0  0.00000000000E+00  0.00000000000E+00  0.45593999997E+02  0.45594000000E+02  0.51100000000E-03 0.  1.
         11   -1    0    0    0    0 -0.00000000000E+00 -0.00000000000E+00 -0.45593999997E+02  0.45594000000E+02  0.51100000000E-03 0. -1.
    9900012    2    1    2    0    0 -0.90578490994E+00  0.32525442428E+00  0.68304996549E+00  0.90007833063E+02  0.90000095659E+02 0.  0.
         12    1    1    2    0    0  0.90578490994E+00 -0.32525442428E+00 -0.68304996549E+00  0.11801669369E+01  0.00000000000E+00 0. -1.
         11    1    3    3    0    0  0.22162035783E+02  0.39991536348E+01 -0.21082589900E+02  0.30848414173E+02  0.51100000000E-03 0. -1.
        -11    1    3    3    0    0  0.12935673776E+02 -0.92034209453E+01 -0.14863776317E+01  0.15945028437E+02  0.51100000000E-03 0.  1.
        -12    1    3    3    0    0 -0.36003494469E+02  0.55295217348E+01  0.23252017497E+02  0.43214390453E+02  0.00000000000E+00 0.  1.
</event>
<event>
 7    1  0.1501154E-015  0.9000759E+02  0.7816164E-02  0.1186339E+00
        -11   -1    0    0    0    0  0.00000000000E+00  0.00000000000E+00  0.45593999997E+02  0.45594000000E+02  0.51100000000E-03 0. -1.
         11   -1    0    0    0    0 -0.00000000000E+00 -0.00000000000E+00 -0.45593999997E+02  0.45594000000E+02  0.51100000000E-03 0.  1.
    9900012    2    1    2    0    0  0.70527786583E+00 -0.41753722132E+00  0.84947164682E+00  0.90007594867E+02  0.89999854319E+02 0.  0.
         12    1    1    2    0    0 -0.70527786583E+00  0.41753722132E+00 -0.84947164682E+00  0.11804051330E+01  0.00000000000E+00 0. -1.
         11    1    3    3    0    0 -0.46488040079E+01 -0.52171977954E+01  0.41468720726E+01  0.81257048794E+01  0.51100000000E-03 0. -1.
        -11    1    3    3    0    0 -0.20438413414E+02  0.69187915732E+01 -0.34901976027E+02  0.41033478412E+02  0.51100000000E-03 0.  1.
         12    1    3    3    0    0  0.25792495287E+02 -0.21191309992E+01  0.31604575601E+02  0.40848411576E+02  0.00000000000E+00 0. -1.
</event>
<event>
 7    1  0.1501154E-015  0.9000762E+02  0.7816164E-02  0.1186339E+00
        -11   -1    0    0    0    0  0.00000000000E+00  0.00000000000E+00  0.45593999997E+02  0.45594000000E+02  0.51100000000E-03 0. -1.
         11   -1    0    0    0    0 -0.00000000000E+00 -0.00000000000E+00 -0.45593999997E+02  0.45594000000E+02  0.51100000000E-03 0.  1.
    9900012    2    1    2    0    0  0.65409713458E+00  0.94065907968E+00 -0.28392243926E+00  0.90007621028E+02  0.89999880826E+02 0.  0.
         12    1    1    2    0    0 -0.65409713458E+00 -0.94065907968E+00  0.28392243926E+00  0.11803789718E+01  0.00000000000E+00 0. -1.
         11    1    3    3    0    0 -0.44814272026E+01 -0.39661323755E+01  0.26834258266E+02  0.27493468546E+02  0.51100000000E-03 0. -1.
        -11    1    3    3    0    0  0.10129077114E+02  0.18391649813E+02  0.95952564386E+01  0.23085058640E+02  0.51100000000E-03 0.  1.
        -12    1    3    3    0    0 -0.49935527770E+01 -0.13484858358E+02 -0.36713437143E+02  0.39429093841E+02  0.00000000000E+00 0.  1.
</event>
<event>
 7    1  0.1501154E-015  0.9000773E+02  0.7816164E-02  0.1186339E+00
        -11   -1    0    0    0    0  0.00000000000E+00  0.00000000000E+00  0.45593999997E+02  0.45594000000E+02  0.51100000000E-03 0.  1.
         11   -1    0    0    0    0 -0.00000000000E+00 -0.00000000000E+00 -0.45593999997E+02  0.45594000000E+02  0.51100000000E-03 0. -1.
    9900012    2    1    2    0    0 -0.83062498309E+00  0.70005776159E+00  0.46154483745E+00  0.90007727841E+02  0.89999989049E+02 0.  0.
         12    1    1    2    0    0  0.83062498309E+00 -0.70005776159E+00 -0.46154483745E+00  0.11802721589E+01  0.00000000000E+00 0. -1.
         11    1    3    3    0    0 -0.11385445458E+01  0.48810677773E+01  0.80279087599E+01  0.94640596811E+01  0.51100000000E-03 0. -1.
        -11    1    3    3    0    0  0.15064249366E+02  0.15395045327E+02  0.29242265461E+02  0.36318715824E+02  0.51100000000E-03 0.  1.
         12    1    3    3    0    0 -0.14756329803E+02 -0.19576055343E+02 -0.36808629383E+02  0.44224952336E+02  0.00000000000E+00 0. -1.
</event>
<event>
 7    1  0.1501154E-015  0.9000778E+02  0.7816164E-02  0.1186339E+00
        -11   -1    0    0    0    0  0.00000000000E+00  0.00000000000E+00  0.45593999997E+02  0.45594000000E+02  0.51100000000E-03 0.  1.
         11   -1    0    0    0    0 -0.00000000000E+00 -0.00000000000E+00 -0.45593999997E+02  0.45594000000E+02  0.51100000000E-03 0. -1.
    9900012    2    1    2    0    0  0.17769248676E+00 -0.28047814680E+00  0.11325567012E+01  0.90007776592E+02  0.90000038443E+02 0.  0.
         12    1    1    2    0    0 -0.17769248676E+00  0.28047814680E+00 -0.11325567012E+01  0.11802234077E+01  0.00000000000E+00 0. -1.
         11    1    3    3    0    0 -0.10213169499E+02  0.38234816513E+02  0.94583622990E+01  0.40689932940E+02  0.51100000000E-03 0. -1.
        -11    1    3    3    0    0  0.27896928650E+00  0.12375289795E+00 -0.93592171716E+01  0.93641916345E+01  0.51100000000E-03 0.  1.
        -12    1    3    3    0    0  0.10111892699E+02 -0.38639047558E+02  0.10334115737E+01  0.39953652018E+02  0.00000000000E+00 0.  1.
</event>
<event>
 7    1  0.1501154E-015  0.9000771E+02  0.7816164E-02  0.1186339E+00
        -11   -1    0    0    0    0  0.00000000000E+00  0.00000000000E+00  0.45593999997E+02  0.45594000000E+02  0.51100000000E-03 0.  1.
         11   -1    0    0    0    0 -0.00000000000E+00 -0.00000000000E+00 -0.45593999997E+02  0.45594000000E+02  0.51100000000E-03 0. -1.
    9900012    2    1    2    0    0  0.65800324872E+00 -0.97542737766E+00 -0.93017064935E-01  0.90007712315E+02  0.89999973318E+02 0.  0.
         12    1    1    2    0    0 -0.65800324872E+00  0.97542737766E+00  0.93017064935E-01  0.11802876847E+01  0.00000000000E+00 0. -1.
         11    1    3    3    0    0  0.34620007471E+01 -0.65291117979E+00 -0.85614257400E+01  0.92579562077E+01  0.51100000000E-03 0. -1.
        -11    1    3    3    0    0 -0.18688947505E+02 -0.35069146446E+02 -0.54034755184E+01  0.40103856912E+02  0.51100000000E-03 0.  1.
         12    1    3    3    0    0  0.15884950006E+02  0.34746630248E+02  0.13871884193E+02  0.40645899195E+02  0.00000000000E+00 0. -1.
</event>
<event>
 7    1  0.1501154E-015  0.9000783E+02  0.7816164E-02  0.1186339E+00
        -11   -1    0    0    0    0  0.00000000000E+00  0.00000000000E+00  0.45593999997E+02  0.45594000000E+02  0.51100000000E-03 0.  1.
         11   -1    0    0    0    0 -0.00000000000E+00 -0.00000000000E+00 -0.45593999997E+02  0.45594000000E+02  0.51100000000E-03 0. -1.
    9900012    2    1    2    0    0  0.75856641353E+00  0.15862369344E+00  0.89006637105E+00  0.90007829409E+02  0.90000091957E+02 0.  0.
         12    1    1    2    0    0 -0.75856641353E+00 -0.15862369344E+00 -0.89006637105E+00  0.11801705914E+01  0.00000000000E+00 0. -1.
         11    1    3    3    0    0 -0.24084873822E+02 -0.37835566078E+01 -0.29991714774E+02  0.38650994851E+02  0.51100000000E-03 0. -1.
        -11    1    3    3    0    0 -0.50094671982E+01 -0.75095221977E+01  0.59525495136E+01  0.10812979757E+02  0.51100000000E-03 0.  1.
        -12    1    3    3    0    0  0.29852907434E+02  0.11451702499E+02  0.24929231631E+02  0.40543854801E+02  0.00000000000E+00 0.  1.
</event>
<event>
 7    1  0.1501154E-015  0.9000777E+02  0.7816164E-02  0.1186339E+00
        -11   -1    0    0    0    0  0.00000000000E+00  0.00000000000E+00  0.45593999997E+02  0.45594000000E+02  0.51100000000E-03 0.  1.
         11   -1    0    0    0    0 -0.00000000000E+00 -0.00000000000E+00 -0.45593999997E+02  0.45594000000E+02  0.51100000000E-03 0. -1.
    9900012    2    1    2    0    0  0.10790001620E+01 -0.72063055809E-01  0.47277813616E+00  0.90007765447E+02  0.90000027151E+02 0.  0.
         12    1    1    2    0    0 -0.10790001620E+01  0.72063055809E-01 -0.47277813616E+00  0.11802345528E+01  0.00000000000E+00 0. -1.
         11    1    3    3    0    0 -0.26489757020E+02  0.17414863130E+01 -0.23829853808E+02  0.35673546702E+02  0.51100000000E-03 0. -1.
        -11    1    3    3    0    0 -0.96094097590E+01  0.42056247303E+01  0.23796270958E+01  0.10755959309E+02  0.51100000000E-03 0.  1.
        -12    1    3    3    0    0  0.37178166941E+02 -0.60191740991E+01  0.21923004848E+02  0.43578259436E+02  0.00000000000E+00 0.  1.
</event>
<event>
 7    1  0.1501154E-015  0.9000798E+02  0.7816164E-02  0.1186339E+00
        -11   -1    0    0    0    0  0.00000000000E+00  0.00000000000E+00  0.45593999997E+02  0.45594000000E+02  0.51100000000E-03 0.  1.
         11   -1    0    0    0    0 -0.00000000000E+00 -0.00000000000E+00 -0.45593999997E+02  0.45594000000E+02  0.51100000000E-03 0. -1.
    9900012    2    1    2    0    0 -0.10396346835E+01  0.53882929476E+00 -0.14584049290E+00  0.90007980198E+02  0.90000244736E+02 0.  0.
         12    1    1    2    0    0  0.10396346835E+01 -0.53882929476E+00  0.14584049290E+00  0.11800198021E+01  0.00000000000E+00 0. -1.
         11    1    3    3    0    0  0.98814395886E+01 -0.10831481632E+02 -0.12325818076E+02  0.19154363320E+02  0.51100000000E-03 0. -1.
        -11    1    3    3    0    0  0.36875802603E+01 -0.25126252321E+02  0.17980413503E+02  0.31116267030E+02  0.51100000000E-03 0.  1.
         12    1    3    3    0    0 -0.14608654532E+02  0.36496563247E+02 -0.58004359202E+01  0.39737349848E+02  0.00000000000E+00 0. -1.
</event>
<event>
 7    1  0.1501154E-015  0.9000775E+02  0.7816164E-02  0.1186339E+00
        -11   -1    0    0    0    0  0.00000000000E+00  0.00000000000E+00  0.45593999997E+02  0.45594000000E+02  0.51100000000E-03 0. -1.
         11   -1    0    0    0    0 -0.00000000000E+00 -0.00000000000E+00 -0.45593999997E+02  0.45594000000E+02  0.51100000000E-03 0.  1.
    9900012    2    1    2    0    0 -0.38064448235E+00 -0.96188432079E+00 -0.56823101837E+00  0.90007746570E+02  0.90000008025E+02 0.  0.
         12    1    1    2    0    0  0.38064448235E+00  0.96188432079E+00  0.56823101837E+00  0.11802534299E+01  0.00000000000E+00 0. -1.
         11    1    3    3    0    0 -0.28131055943E+02  0.12125454286E+02  0.19143030489E+02  0.36122549282E+02  0.51100000000E-03 0. -1.
        -11    1    3    3    0    0 -0.66956656871E+01 -0.54824788687E+01  0.57418270155E+01  0.10385475014E+02  0.51100000000E-03 0.  1.
        -12    1    3    3    0    0  0.34446077147E+02 -0.76048597380E+01 -0.25453088523E+02  0.43499722273E+02  0.00000000000E+00 0.  1.
</event>
<event>
 7    1  0.1501154E-015  0.9000766E+02  0.7816164E-02  0.1186339E+00
        -11   -1    0    0    0    0  0.00000000000E+00  0.00000000000E+00  0.45593999997E+02  0.45594000000E+02  0.51100000000E-03 0.  1.
         11   -1    0    0    0    0 -0.00000000000E+00 -0.00000000000E+00 -0.45593999997E+02  0.45594000000E+02  0.51100000000E-03 0. -1.
    9900012    2    1    2    0    0 -0.87406363737E-01  0.11592642642E+01  0.20410456065E+00  0.90007664379E+02  0.89999924749E+02 0.  0.
         12    1    1    2    0    0  0.87406363737E-01 -0.11592642642E+01 -0.20410456065E+00  0.11803356210E+01  0.00000000000E+00 0. -1.
         11    1    3    3    0    0  0.24819095470E+02 -0.20596683557E+02  0.18260785385E+02  0.37063016022E+02  0.51100000000E-03 0. -1.
        -11    1    3    3    0    0  0.37086243349E+01 -0.73014616612E+01 -0.67819484677E+01  0.10632970522E+02  0.51100000000E-03 0.  1.
        -12    1    3    3    0    0 -0.28615126168E+02  0.29057409483E+02 -0.11274732357E+02  0.42311677835E+02  0.00000000000E+00 0.  1.
</event>
<event>
 7    1  0.1501154E-015  0.9000772E+02  0.7816164E-02  0.1186339E+00
        -11   -1    0    0    0    0  0.00000000000E+00  0.00000000000E+00  0.45593999997E+02  0.45594000000E+02  0.51100000000E-03 0. -1.
         11   -1    0    0    0    0 -0.00000000000E+00 -0.00000000000E+00 -0.45593999997E+02  0.45594000000E+02  0.51100000000E-03 0.  1.
    9900012    2    1    2    0    0  0.83390147642E+00 -0.56365374643E+00 -0.61640373610E+00  0.90007724276E+02  0.89999985437E+02 0.  0.
         12    1    1    2    0    0 -0.83390147642E+00  0.56365374643E+00  0.61640373610E+00  0.11802757238E+01  0.00000000000E+00 0. -1.
         11    1    3    3    0    0 -0.32673440284E+02 -0.11234257190E+02  0.10847774081E+02  0.36213760332E+02  0.51100000000E-03 0. -1.
        -11    1    3    3    0    0 -0.85778335947E+01  0.54179580145E+01 -0.20906978134E+01  0.10358789303E+02  0.51100000000E-03 0.  1.
        -12    1    3    3    0    0  0.42085175355E+02  0.52526454295E+01 -0.93734800041E+01  0.43435174641E+02  0.00000000000E+00 0.  1.
</event>
<event>
 7    1  0.1501154E-015  0.9000769E+02  0.7816164E-02  0.1186339E+00
        -11   -1    0    0    0    0  0.00000000000E+00  0.00000000000E+00  0.45593999997E+02  0.45594000000E+02  0.51100000000E-03 0.  1.
         11   -1    0    0    0    0 -0.00000000000E+00 -0.00000000000E+00 -0.45593999997E+02  0.45594000000E+02  0.51100000000E-03 0. -1.
    9900012    2    1    2    0    0 -0.68515184208E+00  0.19527977641E+00  0.94104205910E+00  0.90007691822E+02  0.89999952554E+02 0.  0.
         12    1    1    2    0    0  0.68515184208E+00 -0.19527977641E+00 -0.94104205910E+00  0.11803081779E+01  0.00000000000E+00 0. -1.
         11    1    3    3    0    0  0.85839592144E+01  0.46238033996E+01 -0.26405533817E+01  0.10101308633E+02  0.51100000000E-03 0. -1.
        -11    1    3    3    0    0  0.24631222886E+02 -0.27073812294E+02  0.11521407711E+02  0.38372272397E+02  0.51100000000E-03 0.  1.
         12    1    3    3    0    0 -0.33900333942E+02  0.22645288671E+02 -0.79398122707E+01  0.41534110792E+02  0.00000000000E+00 0. -1.
</event>
<event>
 7    1  0.1501154E-015  0.9000770E+02  0.7816164E-02  0.1186339E+00
        -11   -1    0    0    0    0  0.00000000000E+00  0.00000000000E+00  0.45593999997E+02  0.45594000000E+02  0.51100000000E-03 0.  1.
         11   -1    0    0    0    0 -0.00000000000E+00 -0.00000000000E+00 -0.45593999997E+02  0.45594000000E+02  0.51100000000E-03 0. -1.
    9900012    2    1    2    0    0  0.52951644185E+00 -0.38604786401E+00  0.98167397516E+00  0.90007701559E+02  0.89999962420E+02 0.  0.
         12    1    1    2    0    0 -0.52951644185E+00  0.38604786401E+00 -0.98167397516E+00  0.11802984406E+01  0.00000000000E+00 0. -1.
         11    1    3    3    0    0 -0.16802065392E+02 -0.69427442796E+01  0.73924582063E+01  0.19625481858E+02  0.51100000000E-03 0.  1.
        -11    1    3    3    0    0  0.49179572627E+01  0.33018632076E+02  0.12413380922E+02  0.35616125477E+02  0.51100000000E-03 0. -1.
        -12    1    3    3    0    0  0.12413624571E+02 -0.26461935661E+02 -0.18824165153E+02  0.34766094224E+02  0.00000000000E+00 0.  1.
</event>
<event>
 7    1  0.1501154E-015  0.9000780E+02  0.7816164E-02  0.1186339E+00
        -11   -1    0    0    0    0  0.00000000000E+00  0.00000000000E+00  0.45593999997E+02  0.45594000000E+02  0.51100000000E-03 0. -1.
         11   -1    0    0    0    0 -0.00000000000E+00 -0.00000000000E+00 -0.45593999997E+02  0.45594000000E+02  0.51100000000E-03 0.  1.
    9900012    2    1    2    0    0  0.30017899068E+00  0.99138707404E+00  0.56561526205E+00  0.90007798161E+02  0.90000060296E+02 0.  0.
         12    1    1    2    0    0 -0.30017899068E+00 -0.99138707404E+00 -0.56561526205E+00  0.11802018394E+01  0.00000000000E+00 0. -1.
         11    1    3    3    0    0 -0.29900877613E+01 -0.52537656766E+01 -0.10333647517E+02  0.11971923399E+02  0.51100000000E-03 0. -1.
        -11    1    3    3    0    0 -0.32367493165E+02  0.14357664903E+02 -0.88173555582E+01  0.36490312612E+02  0.51100000000E-03 0.  1.
         12    1    3    3    0    0  0.35657759917E+02 -0.81125121522E+01  0.19716618337E+02  0.41545562150E+02  0.00000000000E+00 0. -1.
</event>
<event>
 7    1  0.1501154E-015  0.9000655E+02  0.7816164E-02  0.1186341E+00
        -11   -1    0    0    0    0  0.00000000000E+00  0.00000000000E+00  0.45593999997E+02  0.45594000000E+02  0.51100000000E-03 0. -1.
         11   -1    0    0    0    0 -0.00000000000E+00 -0.00000000000E+00 -0.45593999997E+02  0.45594000000E+02  0.51100000000E-03 0.  1.
    9900012    2    1    2    0    0 -0.44627816797E+00  0.44513092165E+00  0.99925694441E+00  0.90006551659E+02  0.89998797333E+02 0.  0.
         12    1    1    2    0    0  0.44627816797E+00 -0.44513092165E+00 -0.99925694441E+00  0.11814483406E+01  0.00000000000E+00 0. -1.
         11    1    3    3    0    0 -0.66938308927E+01 -0.77333594198E+01 -0.15901643185E+01  0.10350886086E+02  0.51100000000E-03 0. -1.
        -11    1    3    3    0    0 -0.14292652311E+02 -0.27049332652E+02 -0.16355915245E+02  0.34690953731E+02  0.51100000000E-03 0.  1.
         12    1    3    3    0    0  0.20540205035E+02  0.35227822993E+02  0.18945336508E+02  0.44964711843E+02  0.00000000000E+00 0. -1.
</event>
<event>
 7    1  0.1501154E-015  0.9000771E+02  0.7816164E-02  0.1186339E+00
        -11   -1    0    0    0    0  0.00000000000E+00  0.00000000000E+00  0.45593999997E+02  0.45594000000E+02  0.51100000000E-03 0. -1.
         11   -1    0    0    0    0 -0.00000000000E+00 -0.00000000000E+00 -0.45593999997E+02  0.45594000000E+02  0.51100000000E-03 0.  1.
    9900012    2    1    2    0    0  0.31104736563E+00 -0.10439776824E+01 -0.45436978000E+00  0.90007706917E+02  0.89999967848E+02 0.  0.
         12    1    1    2    0    0 -0.31104736563E+00  0.10439776824E+01  0.45436978000E+00  0.11802930831E+01  0.00000000000E+00 0. -1.
         11    1    3    3    0    0  0.13303709858E+02  0.17290340776E+02  0.29111058723E+02  0.36378542032E+02  0.51100000000E-03 0. -1.
        -11    1    3    3    0    0  0.11599334393E+02 -0.11248311974E+01 -0.22570226290E+00  0.11655931767E+02  0.51100000000E-03 0.  1.
        -12    1    3    3    0    0 -0.24591996885E+02 -0.17209487261E+02 -0.29339726240E+02  0.41973233118E+02  0.00000000000E+00 0.  1.
</event>
<event>
 7    1  0.1501154E-015  0.9000766E+02  0.7816164E-02  0.1186339E+00
        -11   -1    0    0    0    0  0.00000000000E+00  0.00000000000E+00  0.45593999997E+02  0.45594000000E+02  0.51100000000E-03 0.  1.
         11   -1    0    0    0    0 -0.00000000000E+00 -0.00000000000E+00 -0.45593999997E+02  0.45594000000E+02  0.51100000000E-03 0. -1.
    9900012    2    1    2    0    0 -0.43424622381E+00 -0.10207663336E+01 -0.40332096171E+00  0.90007660435E+02  0.89999920753E+02 0.  0.
         12    1    1    2    0    0  0.43424622381E+00  0.10207663336E+01  0.40332096171E+00  0.11803395651E+01  0.00000000000E+00 0. -1.
         11    1    3    3    0    0 -0.22422983642E+02  0.94297159314E+01 -0.18048434045E+02  0.30289531355E+02  0.51100000000E-03 0. -1.
        -11    1    3    3    0    0 -0.14028944898E+02 -0.14379868713E+01 -0.63970444360E+01  0.15485518363E+02  0.51100000000E-03 0.  1.
        -12    1    3    3    0    0  0.36017682316E+02 -0.90124953937E+01  0.24042157520E+02  0.44232610717E+02  0.00000000000E+00 0.  1.
</event>
<event>
 7    1  0.1501154E-015  0.9000771E+02  0.7816164E-02  0.1186339E+00
        -11   -1    0    0    0    0  0.00000000000E+00  0.00000000000E+00  0.45593999997E+02  0.45594000000E+02  0.51100000000E-03 0. -1.
         11   -1    0    0    0    0 -0.00000000000E+00 -0.00000000000E+00 -0.45593999997E+02  0.45594000000E+02  0.51100000000E-03 0.  1.
    9900012    2    1    2    0    0  0.10624368626E+01  0.51137310810E+00 -0.53117260414E-01  0.90007705128E+02  0.89999966035E+02 0.  0.
         12    1    1    2    0    0 -0.10624368626E+01 -0.51137310810E+00  0.53117260414E-01  0.11802948725E+01  0.00000000000E+00 0. -1.
         11    1    3    3    0    0  0.19194863369E+02  0.35464716579E+02 -0.75187482239E+01  0.41020976060E+02  0.51100000000E-03 0. -1.
        -11    1    3    3    0    0 -0.36491441378E+01  0.22372385745E+01  0.79986823737E+01  0.90719573056E+01  0.51100000000E-03 0.  1.
        -12    1    3    3    0    0 -0.14483282369E+02 -0.37190582045E+02 -0.53305141020E+00  0.39914771762E+02  0.00000000000E+00 0.  1.
</event>
<event>
 7    1  0.1501154E-015  0.9000777E+02  0.7816164E-02  0.1186339E+00
        -11   -1    0    0    0    0  0.00000000000E+00  0.00000000000E+00  0.45593999997E+02  0.45594000000E+02  0.51100000000E-03 0. -1.
         11   -1    0    0    0    0 -0.00000000000E+00 -0.00000000000E+00 -0.45593999997E+02  0.45594000000E+02  0.51100000000E-03 0.  1.
    9900012    2    1    2    0    0 -0.59194241025E+00  0.62686855142E+00 -0.80596089739E+00  0.90007774189E+02  0.90000036008E+02 0.  0.
         12    1    1    2    0    0  0.59194241025E+00 -0.62686855142E+00  0.80596089739E+00  0.11802258114E+01  0.00000000000E+00 0. -1.
         11    1    3    3    0    0 -0.29932605792E+02 -0.98651390421E+01  0.16408331626E+02  0.35531889970E+02  0.51100000000E-03 0. -1.
        -11    1    3    3    0    0 -0.22256808438E+01 -0.37045679589E+01  0.97078568407E+01  0.10626380554E+02  0.51100000000E-03 0.  1.
        -12    1    3    3    0    0  0.31566344226E+02  0.14196575552E+02 -0.26922149364E+02  0.43849503664E+02  0.00000000000E+00 0.  1.
</event>
<event>
 7    1  0.1746560E-015  0.9000770E+02  0.7816164E-02  0.1186339E+00
        -11   -1    0    0    0    0  0.00000000000E+00  0.00000000000E+00  0.45593999997E+02  0.45594000000E+02  0.51100000000E-03 0. -1.
         11   -1    0    0    0    0 -0.00000000000E+00 -0.00000000000E+00 -0.45593999997E+02  0.45594000000E+02  0.51100000000E-03 0.  1.
    9900012    2    1    2    0    0 -0.28363059265E+00 -0.83088094796E+00 -0.78886341046E+00  0.90007697097E+02  0.89999957899E+02 0.  0.
         12    1    1    2    0    0  0.28363059265E+00  0.83088094796E+00  0.78886341046E+00  0.11803029031E+01  0.00000000000E+00 0. -1.
         11    1    3    3    0    0  0.29159141530E+01  0.75563380813E+01 -0.41504967384E+01  0.91009573114E+01  0.51100000000E-03 0. -1.
        -11    1    3    3    0    0  0.27502358943E+02  0.43782769946E+01 -0.24832568269E+02  0.37312270153E+02  0.51100000000E-03 0.  1.
         12    1    3    3    0    0 -0.30701903689E+02 -0.12765496024E+02  0.28194201597E+02  0.43594469632E+02  0.00000000000E+00 0. -1.
</event>
<event>
 7    1  0.1501154E-015  0.9000780E+02  0.7816164E-02  0.1186339E+00
        -11   -1    0    0    0    0  0.00000000000E+00  0.00000000000E+00  0.45593999997E+02  0.45594000000E+02  0.51100000000E-03 0.  1.
         11   -1    0    0    0    0 -0.00000000000E+00 -0.00000000000E+00 -0.45593999997E+02  0.45594000000E+02  0.51100000000E-03 0. -1.
    9900012    2    1    2    0    0  0.42196800873E+00 -0.83157712685E+00  0.72339090229E+00  0.90007800053E+02  0.90000062213E+02 0.  0.
         12    1    1    2    0    0 -0.42196800873E+00  0.83157712685E+00 -0.72339090229E+00  0.11801999474E+01  0.00000000000E+00 0. -1.
         11    1    3    3    0    0 -0.17870204298E+02 -0.19243912696E+01  0.13178114379E+02  0.22286995811E+02  0.51100000000E-03 0. -1.
        -11    1    3    3    0    0 -0.14947701392E+02 -0.21178886905E+02 -0.37373454206E+00  0.25925252269E+02  0.51100000000E-03 0.  1.
        -12    1    3    3    0    0  0.33239873699E+02  0.22271701048E+02 -0.12080988935E+02  0.41795551973E+02  0.00000000000E+00 0.  1.
</event>
<event>
 7    1  0.1501154E-015  0.9000770E+02  0.7816164E-02  0.1186339E+00
        -11   -1    0    0    0    0  0.00000000000E+00  0.00000000000E+00  0.45593999997E+02  0.45594000000E+02  0.51100000000E-03 0. -1.
         11   -1    0    0    0    0 -0.00000000000E+00 -0.00000000000E+00 -0.45593999997E+02  0.45594000000E+02  0.51100000000E-03 0.  1.
    9900012    2    1    2    0    0 -0.83949350751E+00  0.14395763049E-02 -0.82967651567E+00  0.90007697267E+02  0.89999958071E+02 0.  0.
         12    1    1    2    0    0  0.83949350751E+00 -0.14395763049E-02  0.82967651567E+00  0.11803027333E+01  0.00000000000E+00 0. -1.
         11    1    3    3    0    0  0.81012962191E+01 -0.59192504638E+01 -0.38127878780E+01  0.10733400120E+02  0.51100000000E-03 0. -1.
        -11    1    3    3    0    0  0.32352144948E+02 -0.89294524614E+01 -0.69693290918E+01  0.34277805534E+02  0.51100000000E-03 0.  1.
         12    1    3    3    0    0 -0.41292934675E+02  0.14850142502E+02  0.99524404541E+01  0.44996491612E+02  0.00000000000E+00 0. -1.
</event>
<event>
 7    1  0.1501154E-015  0.9000774E+02  0.7816164E-02  0.1186339E+00
        -11   -1    0    0    0    0  0.00000000000E+00  0.00000000000E+00  0.45593999997E+02  0.45594000000E+02  0.51100000000E-03 0. -1.
         11   -1    0    0    0    0 -0.00000000000E+00 -0.00000000000E+00 -0.45593999997E+02  0.45594000000E+02  0.51100000000E-03 0.  1.
    9900012    2    1    2    0    0  0.11601595981E+01 -0.26231517229E-02  0.21689997765E+00  0.90007736142E+02  0.89999997459E+02 0.  0.
         12    1    1    2    0    0 -0.11601595981E+01  0.26231517229E-02 -0.21689997765E+00  0.11802638579E+01  0.00000000000E+00 0. -1.
         11    1    3    3    0    0  0.33491528843E+02 -0.46081857291E+01  0.12291361551E+02  0.35972148240E+02  0.51100000000E-03 0. -1.
        -11    1    3    3    0    0  0.69290706582E+01  0.56202858525E+00  0.72896615337E+01  0.10073086014E+02  0.51100000000E-03 0.  1.
        -12    1    3    3    0    0 -0.39260439903E+02  0.40435339921E+01 -0.19364123107E+02  0.43962501888E+02  0.00000000000E+00 0.  1.
</event>
<event>
 7    1  0.1501154E-015  0.9000764E+02  0.7816164E-02  0.1186339E+00
        -11   -1    0    0    0    0  0.00000000000E+00  0.00000000000E+00  0.45593999997E+02  0.45594000000E+02  0.51100000000E-03 0.  1.
         11   -1    0    0    0    0 -0.00000000000E+00 -0.00000000000E+00 -0.45593999997E+02  0.45594000000E+02  0.51100000000E-03 0. -1.
    9900012    2    1    2    0    0 -0.79475902411E+00 -0.87253788142E+00 -0.17018083237E-01  0.90007638244E+02  0.89999898268E+02 0.  0.
         12    1    1    2    0    0  0.79475902411E+00  0.87253788142E+00  0.17018083237E-01  0.11803617564E+01  0.00000000000E+00 0. -1.
         11    1    3    3    0    0  0.42976033925E+01  0.78282626487E+00 -0.64250359641E+01  0.77693821686E+01  0.51100000000E-03 0. -1.
        -11    1    3    3    0    0  0.24484983073E+02  0.66523529552E+01 -0.26863921554E+02  0.36951839973E+02  0.51100000000E-03 0.  1.
         12    1    3    3    0    0 -0.29577345489E+02 -0.83077171015E+01  0.33271939434E+02  0.45286416102E+02  0.00000000000E+00 0. -1.
</event>
<event>
 7    1  0.1501154E-015  0.9000779E+02  0.7816164E-02  0.1186339E+00
        -11   -1    0    0    0    0  0.00000000000E+00  0.00000000000E+00  0.45593999997E+02  0.45594000000E+02  0.51100000000E-03 0. -1.
         11   -1    0    0    0    0 -0.00000000000E+00 -0.00000000000E+00 -0.45593999997E+02  0.45594000000E+02  0.51100000000E-03 0.  1.
    9900012    2    1    2    0    0  0.10822081439E+00  0.89925659940E+00 -0.75665387181E+00  0.90007788469E+02  0.90000050477E+02 0.  0.
         12    1    1    2    0    0 -0.10822081439E+00 -0.89925659940E+00  0.75665387181E+00  0.11802115310E+01  0.00000000000E+00 0. -1.
         11    1    3    3    0    0 -0.28176254681E+02  0.14756451376E+02 -0.19525956589E+02  0.37321805503E+02  0.51100000000E-03 0. -1.
        -11    1    3    3    0    0 -0.59685983013E+01  0.49391137108E+00 -0.56544882322E+01  0.82365861589E+01  0.51100000000E-03 0.  1.
        -12    1    3    3    0    0  0.34253073797E+02 -0.14351106147E+02  0.24423790949E+02  0.44449396807E+02  0.00000000000E+00 0.  1.
</event>
<event>
 7    1  0.1501154E-015  0.9000784E+02  0.7816164E-02  0.1186339E+00
        -11   -1    0    0    0    0  0.00000000000E+00  0.00000000000E+00  0.45593999997E+02  0.45594000000E+02  0.51100000000E-03 0.  1.
         11   -1    0    0    0    0 -0.00000000000E+00 -0.00000000000E+00 -0.45593999997E+02  0.45594000000E+02  0.51100000000E-03 0. -1.
    9900012    2    1    2    0    0 -0.94774713364E+00  0.64488969304E+00  0.28048113698E+00  0.90007840259E+02  0.90000102951E+02 0.  0.
         12    1    1    2    0    0  0.94774713364E+00 -0.64488969304E+00 -0.28048113698E+00  0.11801597408E+01  0.00000000000E+00 0. -1.
         11    1    3    3    0    0 -0.19180534738E+02  0.27107530312E+02 -0.25292182765E+02  0.41742132453E+02  0.51100000000E-03 0. -1.
        -11    1    3    3    0    0 -0.63578200110E+01 -0.64478726041E+01  0.38958055709E+01  0.98576994131E+01  0.51100000000E-03 0.  1.
        -12    1    3    3    0    0  0.24590607615E+02 -0.20014768015E+02  0.21676858331E+02  0.38408008393E+02  0.00000000000E+00 0.  1.
</event>
<event>
 7    1  0.1501154E-015  0.9000777E+02  0.7816164E-02  0.1186339E+00
        -11   -1    0    0    0    0  0.00000000000E+00  0.00000000000E+00  0.45593999997E+02  0.45594000000E+02  0.51100000000E-03 0. -1.
         11   -1    0    0    0    0 -0.00000000000E+00 -0.00000000000E+00 -0.45593999997E+02  0.45594000000E+02  0.51100000000E-03 0.  1.
    9900012    2    1    2    0    0  0.82962400148E+00  0.82043998758E+00  0.17763573200E+00  0.90007766036E+02  0.90000027747E+02 0.  0.
         12    1    1    2    0    0 -0.82962400148E+00 -0.82043998758E+00 -0.17763573200E+00  0.11802339642E+01  0.00000000000E+00 0. -1.
         11    1    3    3    0    0 -0.79235939331E+01 -0.57396064623E+01 -0.10446251912E+00  0.97845457655E+01  0.51100000000E-03 0. -1.
        -11    1    3    3    0    0 -0.23140947179E+02 -0.25053918460E+02 -0.67534750430E+01  0.34767969339E+02  0.51100000000E-03 0.  1.
         12    1    3    3    0    0  0.31894165113E+02  0.31613964910E+02  0.70355732941E+01  0.45455250931E+02  0.00000000000E+00 0. -1.
</event>
<event>
 7    1  0.1501154E-015  0.9000772E+02  0.7816164E-02  0.1186339E+00
        -11   -1    0    0    0    0  0.00000000000E+00  0.00000000000E+00  0.45593999997E+02  0.45594000000E+02  0.51100000000E-03 0. -1.
         11   -1    0    0    0    0 -0.00000000000E+00 -0.00000000000E+00 -0.45593999997E+02  0.45594000000E+02  0.51100000000E-03 0.  1.
    9900012    2    1    2    0    0 -0.96319448838E+00  0.75127523040E-01  0.67799622664E+00  0.90007717555E+02  0.89999978626E+02 0.  0.
         12    1    1    2    0    0  0.96319448838E+00 -0.75127523040E-01 -0.67799622664E+00  0.11802824452E+01  0.00000000000E+00 0. -1.
         11    1    3    3    0    0 -0.30092329350E+02 -0.28404211365E+02 -0.56174915233E+01  0.41760073279E+02  0.51100000000E-03 0. -1.
        -11    1    3    3    0    0  0.36332793257E+01  0.36085310594E+01 -0.83026220309E+01  0.97547807722E+01  0.51100000000E-03 0.  1.
        -12    1    3    3    0    0  0.25495855536E+02  0.24870807829E+02  0.14598109781E+02  0.38492863504E+02  0.00000000000E+00 0.  1.
</event>
<event>
 7    1  0.1501154E-015  0.9000781E+02  0.7816164E-02  0.1186339E+00
        -11   -1    0    0    0    0  0.00000000000E+00  0.00000000000E+00  0.45593999997E+02  0.45594000000E+02  0.51100000000E-03 0. -1.
         11   -1    0    0    0    0 -0.00000000000E+00 -0.00000000000E+00 -0.45593999997E+02  0.45594000000E+02  0.51100000000E-03 0.  1.
    9900012    2    1    2    0    0 -0.10792248916E+01 -0.47437577609E+00 -0.55536590875E-01  0.90007812279E+02  0.90000074601E+02 0.  0.
         12    1    1    2    0    0  0.10792248916E+01  0.47437577609E+00  0.55536590875E-01  0.11801877209E+01  0.00000000000E+00 0. -1.
         11    1    3    3    0    0  0.15372299150E+02  0.30888777879E+02  0.21552875793E+02  0.40681084489E+02  0.51100000000E-03 0. -1.
        -11    1    3    3    0    0 -0.27676656904E+01 -0.58618833321E+01  0.63590570599E+01  0.90807079309E+01  0.51100000000E-03 0.  1.
        -12    1    3    3    0    0 -0.13683858351E+02 -0.25501270323E+02 -0.27967469443E+02  0.40246019859E+02  0.00000000000E+00 0.  1.
</event>
<event>
 7    1  0.1501154E-015  0.9000777E+02  0.7816164E-02  0.1186339E+00
        -11   -1    0    0    0    0  0.00000000000E+00  0.00000000000E+00  0.45593999997E+02  0.45594000000E+02  0.51100000000E-03 0. -1.
         11   -1    0    0    0    0 -0.00000000000E+00 -0.00000000000E+00 -0.45593999997E+02  0.45594000000E+02  0.51100000000E-03 0.  1.
    9900012    2    1    2    0    0 -0.51767893649E+00  0.32855481021E+00 -0.10084683804E+01  0.90007767727E+02  0.90000029461E+02 0.  0.
         12    1    1    2    0    0  0.51767893649E+00 -0.32855481021E+00  0.10084683804E+01  0.11802322733E+01  0.00000000000E+00 0. -1.
         11    1    3    3    0    0  0.23757869384E+02 -0.34448559944E+02  0.45691241430E+01  0.42095326766E+02  0.51100000000E-03 0. -1.
        -11    1    3    3    0    0 -0.88188721702E+01  0.70854617163E+00  0.33342279886E+01  0.94547141983E+01  0.51100000000E-03 0.  1.
        -12    1    3    3    0    0 -0.15456676150E+02  0.34068568582E+02 -0.89118205120E+01  0.38457726762E+02  0.00000000000E+00 0.  1.
</event>
<event>
 7    1  0.1501154E-015  0.9000781E+02  0.7816164E-02  0.1186339E+00
        -11   -1    0    0    0    0  0.00000000000E+00  0.00000000000E+00  0.45593999997E+02  0.45594000000E+02  0.51100000000E-03 0. -1.
         11   -1    0    0    0    0 -0.00000000000E+00 -0.00000000000E+00 -0.45593999997E+02  0.45594000000E+02  0.51100000000E-03 0.  1.
    9900012    2    1    2    0    0 -0.10786612015E+01  0.18779669831E+00  0.44052704970E+00  0.90007812867E+02  0.90000075197E+02 0.  0.
         12    1    1    2    0    0  0.10786612015E+01 -0.18779669831E+00 -0.44052704970E+00  0.11801871331E+01  0.00000000000E+00 0. -1.
         11    1    3    3    0    0 -0.36617837187E+01 -0.21263787082E+02  0.31129423291E+02  0.37876091348E+02  0.51100000000E-03 0. -1.
        -11    1    3    3    0    0 -0.67077773625E+01 -0.78942611924E+01 -0.31453902506E+01  0.10826223580E+02  0.51100000000E-03 0.  1.
        -12    1    3    3    0    0  0.92908998797E+01  0.29345844973E+02 -0.27543505991E+02  0.41305497939E+02  0.00000000000E+00 0.  1.
</event>
<event>
 7    1  0.1501154E-015  0.9000712E+02  0.7816164E-02  0.1186340E+00
        -11   -1    0    0    0    0  0.00000000000E+00  0.00000000000E+00  0.45593999997E+02  0.45594000000E+02  0.51100000000E-03 0. -1.
         11   -1    0    0    0    0 -0.00000000000E+00 -0.00000000000E+00 -0.45593999997E+02  0.45594000000E+02  0.51100000000E-03 0.  1.
    9900012    2    1    2    0    0  0.77645288119E+00 -0.30789514219E+00 -0.83474613299E+00  0.90007119142E+02  0.89999372312E+02 0.  0.
         12    1    1    2    0    0 -0.77645288119E+00  0.30789514219E+00  0.83474613299E+00  0.11808808584E+01  0.00000000000E+00 0. -1.
         11    1    3    3    0    0 -0.17873864852E+00  0.88738601832E+01  0.83821122136E+01  0.12208077141E+02  0.51100000000E-03 0. -1.
        -11    1    3    3    0    0 -0.10436530697E+02 -0.37737498069E+02 -0.21527335040E+02  0.44681831741E+02  0.51100000000E-03 0.  1.
         12    1    3    3    0    0  0.11391722227E+02  0.28555742744E+02  0.12310476694E+02  0.33117210260E+02  0.00000000000E+00 0. -1.
</event>
<event>
 7    1  0.1501154E-015  0.9000782E+02  0.7816164E-02  0.1186339E+00
        -11   -1    0    0    0    0  0.00000000000E+00  0.00000000000E+00  0.45593999997E+02  0.45594000000E+02  0.51100000000E-03 0.  1.
         11   -1    0    0    0    0 -0.00000000000E+00 -0.00000000000E+00 -0.45593999997E+02  0.45594000000E+02  0.51100000000E-03 0. -1.
    9900012    2    1    2    0    0  0.65883588790E+00 -0.10566977001E-01  0.97910411908E+00  0.90007821512E+02  0.90000083956E+02 0.  0.
         12    1    1    2    0    0 -0.65883588790E+00  0.10566977001E-01 -0.97910411908E+00  0.11801784883E+01  0.00000000000E+00 0. -1.
         11    1    3    3    0    0  0.15341850318E+02  0.33771170257E+02 -0.66830219578E+01  0.37689880531E+02  0.51100000000E-03 0. -1.
        -11    1    3    3    0    0  0.12925795025E+01  0.11319276787E+01 -0.99349355812E+01  0.10082408805E+02  0.51100000000E-03 0.  1.
        -12    1    3    3    0    0 -0.15975593933E+02 -0.34913664913E+02  0.17597061658E+02  0.42235532176E+02  0.00000000000E+00 0.  1.
</event>
<event>
 7    1  0.1501154E-015  0.9000780E+02  0.7816164E-02  0.1186339E+00
        -11   -1    0    0    0    0  0.00000000000E+00  0.00000000000E+00  0.45593999997E+02  0.45594000000E+02  0.51100000000E-03 0.  1.
         11   -1    0    0    0    0 -0.00000000000E+00 -0.00000000000E+00 -0.45593999997E+02  0.45594000000E+02  0.51100000000E-03 0. -1.
    9900012    2    1    2    0    0  0.11378721755E+01  0.93690102151E-01  0.29891874237E+00  0.90007795214E+02  0.90000057310E+02 0.  0.
         12    1    1    2    0    0 -0.11378721755E+01 -0.93690102151E-01 -0.29891874237E+00  0.11802047863E+01  0.00000000000E+00 0. -1.
         11    1    3    3    0    0  0.75064107761E+01  0.15261559614E+01  0.78256571053E+01  0.10950628482E+02  0.51100000000E-03 0. -1.
        -11    1    3    3    0    0 -0.44351046528E+01  0.21258658911E+02  0.28868227675E+02  0.36124441882E+02  0.51100000000E-03 0.  1.
         12    1    3    3    0    0 -0.19334339478E+01 -0.22691124770E+02 -0.36394966037E+02  0.42932724850E+02  0.00000000000E+00 0. -1.
</event>
<event>
 7    1  0.1501154E-015  0.9000773E+02  0.7816164E-02  0.1186339E+00
        -11   -1    0    0    0    0  0.00000000000E+00  0.00000000000E+00  0.45593999997E+02  0.45594000000E+02  0.51100000000E-03 0. -1.
         11   -1    0    0    0    0 -0.00000000000E+00 -0.00000000000E+00 -0.45593999997E+02  0.45594000000E+02  0.51100000000E-03 0.  1.
    9900012    2    1    2    0    0 -0.54402846518E-01  0.11287097662E+01 -0.34073731750E+00  0.90007725741E+02  0.89999986921E+02 0.  0.
         12    1    1    2    0    0  0.54402846518E-01 -0.11287097662E+01  0.34073731750E+00  0.11802742586E+01  0.00000000000E+00 0. -1.
         11    1    3    3    0    0 -0.32832681764E+02  0.67937908015E+01  0.14980833653E+02  0.36722826178E+02  0.51100000000E-03 0. -1.
        -11    1    3    3    0    0 -0.38000101929E+01 -0.34422317291E+01  0.82494887113E+01  0.97130376815E+01  0.51100000000E-03 0.  1.
        -12    1    3    3    0    0  0.36578289111E+02 -0.22228493063E+01 -0.23571059682E+02  0.43571861882E+02  0.00000000000E+00 0.  1.
</event>
<event>
 7    1  0.1932845E-015  0.9000773E+02  0.7816164E-02  0.1186339E+00
        -11   -1    0    0    0    0  0.00000000000E+00  0.00000000000E+00  0.45593999997E+02  0.45594000000E+02  0.51100000000E-03 0.  1.
         11   -1    0    0    0    0 -0.00000000000E+00 -0.00000000000E+00 -0.45593999997E+02  0.45594000000E+02  0.51100000000E-03 0. -1.
    9900012    2    1    2    0    0  0.44166991402E+00  0.17920275295E+00  0.10797439288E+01  0.90007731856E+02  0.89999993117E+02 0.  0.
         12    1    1    2    0    0 -0.44166991402E+00 -0.17920275295E+00 -0.10797439288E+01  0.11802681438E+01  0.00000000000E+00 0. -1.
         11    1    3    3    0    0 -0.41218484137E+01  0.74924280587E+01 -0.37802931213E+02  0.38758066529E+02  0.51100000000E-03 0. -1.
        -11    1    3    3    0    0 -0.85130093722E+01 -0.34481278538E+01 -0.86753432995E+00  0.92256994500E+01  0.51100000000E-03 0.  1.
        -12    1    3    3    0    0  0.13076527700E+02 -0.38650974520E+01  0.39750209471E+02  0.42023965877E+02  0.00000000000E+00 0.  1.
</event>
<event>
 7    1  0.1501154E-015  0.9000760E+02  0.7816164E-02  0.1186339E+00
        -11   -1    0    0    0    0  0.00000000000E+00  0.00000000000E+00  0.45593999997E+02  0.45594000000E+02  0.51100000000E-03 0.  1.
         11   -1    0    0    0    0 -0.00000000000E+00 -0.00000000000E+00 -0.45593999997E+02  0.45594000000E+02  0.51100000000E-03 0. -1.
    9900012    2    1    2    0    0  0.42088893466E+00  0.59554957907E+00  0.92818347594E+00  0.90007596950E+02  0.89999856429E+02 0.  0.
         12    1    1    2    0    0 -0.42088893466E+00 -0.59554957907E+00 -0.92818347594E+00  0.11804030504E+01  0.00000000000E+00 0. -1.
         11    1    3    3    0    0  0.26227780887E+02 -0.71643708132E+01 -0.24340047347E+02  0.36491952600E+02  0.51100000000E-03 0. -1.
        -11    1    3    3    0    0  0.68133784842E+01  0.16770419709E+01 -0.49887506099E+01  0.86094267550E+01  0.51100000000E-03 0.  1.
        -12    1    3    3    0    0 -0.32620270437E+02  0.60828784214E+01  0.30256981433E+02  0.44906217595E+02  0.00000000000E+00 0.  1.
</event>
<event>
 7    1  0.2127878E-015  0.9000773E+02  0.7816164E-02  0.1186339E+00
        -11   -1    0    0    0    0  0.00000000000E+00  0.00000000000E+00  0.45593999997E+02  0.45594000000E+02  0.51100000000E-03 0.  1.
         11   -1    0    0    0    0 -0.00000000000E+00 -0.00000000000E+00 -0.45593999997E+02  0.45594000000E+02  0.51100000000E-03 0. -1.
    9900012    2    1    2    0    0 -0.82620078887E+00  0.10392646200E-01  0.84280775023E+00  0.90007728567E+02  0.89999989785E+02 0.  0.
         12    1    1    2    0    0  0.82620078887E+00 -0.10392646200E-01 -0.84280775023E+00  0.11802714325E+01  0.00000000000E+00 0. -1.
         11    1    3    3    0    0  0.24126635079E+02  0.51388582294E+00 -0.26178043023E+02  0.35604052236E+02  0.51100000000E-03 0. -1.
        -11    1    3    3    0    0  0.47994565234E+01  0.36295466451E+01 -0.68596600036E+01  0.91248741029E+01  0.51100000000E-03 0.  1.
        -12    1    3    3    0    0 -0.29752292391E+02 -0.41330398218E+01  0.33880510777E+02  0.45278802228E+02  0.00000000000E+00 0.  1.
</event>
<event>
 7    1  0.1501154E-015  0.9000770E+02  0.7816164E-02  0.1186339E+00
        -11   -1    0    0    0    0  0.00000000000E+00  0.00000000000E+00  0.45593999997E+02  0.45594000000E+02  0.51100000000E-03 0. -1.
         11   -1    0    0    0    0 -0.00000000000E+00 -0.00000000000E+00 -0.45593999997E+02  0.45594000000E+02  0.51100000000E-03 0.  1.
    9900012    2    1    2    0    0  0.83408993769E+00  0.15486268625E+00 -0.82061876189E+00  0.90007701890E+02  0.89999962755E+02 0.  0.
         12    1    1    2    0    0 -0.83408993769E+00 -0.15486268625E+00  0.82061876189E+00  0.11802981098E+01  0.00000000000E+00 0. -1.
         11    1    3    3    0    0  0.33243568860E+02  0.22238438581E+01  0.51751944161E+01  0.33717398915E+02  0.51100000000E-03 0. -1.
        -11    1    3    3    0    0  0.68134303415E+01 -0.13475628428E+02 -0.23202934671E+01  0.15277406736E+02  0.51100000000E-03 0.  1.
        -12    1    3    3    0    0 -0.39222909264E+02  0.11406647256E+02 -0.36755197109E+01  0.41012896239E+02  0.00000000000E+00 0.  1.
</event>
<event>
 7    1  0.1501154E-015  0.9000770E+02  0.7816164E-02  0.1186339E+00
        -11   -1    0    0    0    0  0.00000000000E+00  0.00000000000E+00  0.45593999997E+02  0.45594000000E+02  0.51100000000E-03 0.  1.
         11   -1    0    0    0    0 -0.00000000000E+00 -0.00000000000E+00 -0.45593999997E+02  0.45594000000E+02  0.51100000000E-03 0. -1.
    9900012    2    1    2    0    0 -0.25978655040E-01  0.98710095362E+00 -0.64657835308E+00  0.90007700568E+02  0.89999961415E+02 0.  0.
         12    1    1    2    0    0  0.25978655040E-01 -0.98710095362E+00  0.64657835308E+00  0.11802994323E+01  0.00000000000E+00 0. -1.
         11    1    3    3    0    0  0.46262628701E+01  0.11569821549E+02 -0.32526869642E+02  0.34831886653E+02  0.51100000000E-03 0. -1.
        -11    1    3    3    0    0 -0.26357860858E+01  0.13757722326E+01 -0.10594426719E+02  0.11003726427E+02  0.51100000000E-03 0.  1.
        -12    1    3    3    0    0 -0.20164554394E+01 -0.11958492828E+02  0.42474718007E+02  0.44172087488E+02  0.00000000000E+00 0.  1.
</event>
<event>
 7    1  0.1501154E-015  0.9000772E+02  0.7816164E-02  0.1186339E+00
        -11   -1    0    0    0    0  0.00000000000E+00  0.00000000000E+00  0.45593999997E+02  0.45594000000E+02  0.51100000000E-03 0. -1.
         11   -1    0    0    0    0 -0.00000000000E+00 -0.00000000000E+00 -0.45593999997E+02  0.45594000000E+02  0.51100000000E-03 0.  1.
    9900012    2    1    2    0    0  0.11096361648E+01 -0.25159875420E+00  0.31379028883E+00  0.90007720924E+02  0.89999982040E+02 0.  0.
         12    1    1    2    0    0 -0.11096361648E+01  0.25159875420E+00 -0.31379028883E+00  0.11802790758E+01  0.00000000000E+00 0. -1.
         11    1    3    3    0    0 -0.93070657461E+01 -0.50628680658E+00 -0.46901083863E+01  0.10434314356E+02  0.51100000000E-03 0. -1.
        -11    1    3    3    0    0 -0.45865575119E+01  0.30166711195E+02  0.25982993930E+02  0.40077212328E+02  0.51100000000E-03 0.  1.
         12    1    3    3    0    0  0.15003259423E+02 -0.29912023143E+02 -0.20979095255E+02  0.39496194241E+02  0.00000000000E+00 0. -1.
</event>
<event>
 7    1  0.1501154E-015  0.9000772E+02  0.7816164E-02  0.1186339E+00
        -11   -1    0    0    0    0  0.00000000000E+00  0.00000000000E+00  0.45593999997E+02  0.45594000000E+02  0.51100000000E-03 0.  1.
         11   -1    0    0    0    0 -0.00000000000E+00 -0.00000000000E+00 -0.45593999997E+02  0.45594000000E+02  0.51100000000E-03 0. -1.
    9900012    2    1    2    0    0  0.85595371543E+00 -0.67216068743E+00 -0.45673148164E+00  0.90007720203E+02  0.89999981310E+02 0.  0.
         12    1    1    2    0    0 -0.85595371543E+00  0.67216068743E+00  0.45673148164E+00  0.11802797969E+01  0.00000000000E+00 0. -1.
         11    1    3    3    0    0 -0.36241402508E+02 -0.63552390646E+01 -0.98538880779E+01  0.38091041333E+02  0.51100000000E-03 0. -1.
        -11    1    3    3    0    0 -0.23179152172E+01 -0.87559112411E+01  0.10516976819E+01  0.91183760008E+01  0.51100000000E-03 0.  1.
        -12    1    3    3    0    0  0.39415271441E+02  0.14438989618E+02  0.83454589143E+01  0.42798302869E+02  0.00000000000E+00 0.  1.
</event>
<event>
 7    1  0.1501154E-015  0.9000752E+02  0.7816164E-02  0.1186339E+00
        -11   -1    0    0    0    0  0.00000000000E+00  0.00000000000E+00  0.45593999997E+02  0.45594000000E+02  0.51100000000E-03 0.  1.
         11   -1    0    0    0    0 -0.00000000000E+00 -0.00000000000E+00 -0.45593999997E+02  0.45594000000E+02  0.51100000000E-03 0. -1.
    9900012    2    1    2    0    0 -0.57240679024E+00  0.82827192706E+00 -0.61631575006E+00  0.90007521698E+02  0.89999780184E+02 0.  0.
         12    1    1    2    0    0  0.57240679024E+00 -0.82827192706E+00  0.61631575006E+00  0.11804783024E+01  0.00000000000E+00 0. -1.
         11    1    3    3    0    0  0.65424634313E+01 -0.77680992952E+01  0.36301242540E+01  0.10785406658E+02  0.51100000000E-03 0. -1.
        -11    1    3    3    0    0 -0.78094212779E+01 -0.28428685957E+02  0.19393185785E+02  0.35288424463E+02  0.51100000000E-03 0.  1.
         12    1    3    3    0    0  0.69455105642E+00  0.37025057179E+02 -0.23639625789E+02  0.43933690577E+02  0.00000000000E+00 0. -1.
</event>
<event>
 7    1  0.1501154E-015  0.9000771E+02  0.7816164E-02  0.1186339E+00
        -11   -1    0    0    0    0  0.00000000000E+00  0.00000000000E+00  0.45593999997E+02  0.45594000000E+02  0.51100000000E-03 0.  1.
         11   -1    0    0    0    0 -0.00000000000E+00 -0.00000000000E+00 -0.45593999997E+02  0.45594000000E+02  0.51100000000E-03 0. -1.
    9900012    2    1    2    0    0 -0.10881675056E+01  0.53325296765E-01 -0.45401965227E+00  0.90007709378E+02  0.89999970342E+02 0.  0.
         12    1    1    2    0    0  0.10881675056E+01 -0.53325296765E-01  0.45401965227E+00  0.11802906219E+01  0.00000000000E+00 0. -1.
         11    1    3    3    0    0 -0.30168533915E+01 -0.10037209781E+02  0.77078582532E+01  0.13009921740E+02  0.51100000000E-03 0. -1.
        -11    1    3    3    0    0  0.15953658647E+02 -0.17183181930E+02  0.23304107168E+02  0.33058469061E+02  0.51100000000E-03 0.  1.
         12    1    3    3    0    0 -0.14024972762E+02  0.27273717008E+02 -0.31465985074E+02  0.43939318577E+02  0.00000000000E+00 0. -1.
</event>
<event>
 7    1  0.1501154E-015  0.9000769E+02  0.7816164E-02  0.1186339E+00
        -11   -1    0    0    0    0  0.00000000000E+00  0.00000000000E+00  0.45593999997E+02  0.45594000000E+02  0.51100000000E-03 0.  1.
         11   -1    0    0    0    0 -0.00000000000E+00 -0.00000000000E+00 -0.45593999997E+02  0.45594000000E+02  0.51100000000E-03 0. -1.
    9900012    2    1    2    0    0 -0.65929342909E+00  0.53551654648E+00  0.81955862876E+00  0.90007694047E+02  0.89999954808E+02 0.  0.
         12    1    1    2    0    0  0.65929342909E+00 -0.53551654648E+00 -0.81955862876E+00  0.11803059532E+01  0.00000000000E+00 0. -1.
         11    1    3    3    0    0  0.40216399082E+00 -0.12816972681E+02  0.67006046565E+01  0.14468401004E+02  0.51100000000E-03 0. -1.
        -11    1    3    3    0    0  0.22000811210E+02 -0.22932151677E+02  0.19474835139E+01  0.31838843677E+02  0.51100000000E-03 0.  1.
         12    1    3    3    0    0 -0.23062268630E+02  0.36284640905E+02 -0.78285295416E+01  0.43700449365E+02  0.00000000000E+00 0. -1.
</event>
<event>
 7    1  0.1501154E-015  0.9000772E+02  0.7816164E-02  0.1186339E+00
        -11   -1    0    0    0    0  0.00000000000E+00  0.00000000000E+00  0.45593999997E+02  0.45594000000E+02  0.51100000000E-03 0. -1.
         11   -1    0    0    0    0 -0.00000000000E+00 -0.00000000000E+00 -0.45593999997E+02  0.45594000000E+02  0.51100000000E-03 0.  1.
    9900012    2    1    2    0    0 -0.10211901318E+01  0.41790679530E+00  0.41902738163E+00  0.90007720660E+02  0.89999981772E+02 0.  0.
         12    1    1    2    0    0  0.10211901318E+01 -0.41790679530E+00 -0.41902738163E+00  0.11802793404E+01  0.00000000000E+00 0. -1.
         11    1    3    3    0    0 -0.18404400486E+02 -0.54014836567E+01  0.34860661454E+02  0.39788989686E+02  0.51100000000E-03 0. -1.
        -11    1    3    3    0    0 -0.80822122358E+00  0.85847233405E+01  0.24747284887E+01  0.89707846777E+01  0.51100000000E-03 0.  1.
        -12    1    3    3    0    0  0.18191431578E+02 -0.27653328885E+01 -0.36916362561E+02  0.41247946296E+02  0.00000000000E+00 0.  1.
</event>
<event>
 7    1  0.1501154E-015  0.9000773E+02  0.7816164E-02  0.1186339E+00
        -11   -1    0    0    0    0  0.00000000000E+00  0.00000000000E+00  0.45593999997E+02  0.45594000000E+02  0.51100000000E-03 0. -1.
         11   -1    0    0    0    0 -0.00000000000E+00 -0.00000000000E+00 -0.45593999997E+02  0.45594000000E+02  0.51100000000E-03 0.  1.
    9900012    2    1    2    0    0  0.41845429155E+00 -0.10937970262E+01  0.14678925267E+00  0.90007727568E+02  0.89999988772E+02 0.  0.
         12    1    1    2    0    0 -0.41845429155E+00  0.10937970262E+01 -0.14678925267E+00  0.11802724318E+01  0.00000000000E+00 0. -1.
         11    1    3    3    0    0  0.69986392219E+01  0.10552754479E+02  0.23525134127E+02  0.26716540083E+02  0.51100000000E-03 0. -1.
        -11    1    3    3    0    0  0.19841734938E+02 -0.15136073236E+02  0.37797478034E+01  0.25240476463E+02  0.51100000000E-03 0.  1.
        -12    1    3    3    0    0 -0.26421919868E+02  0.34895217303E+01 -0.27158092678E+02  0.38050711022E+02  0.00000000000E+00 0.  1.
</event>
<event>
 7    1  0.1501154E-015  0.9000761E+02  0.7816164E-02  0.1186339E+00
        -11   -1    0    0    0    0  0.00000000000E+00  0.00000000000E+00  0.45593999997E+02  0.45594000000E+02  0.51100000000E-03 0.  1.
         11   -1    0    0    0    0 -0.00000000000E+00 -0.00000000000E+00 -0.45593999997E+02  0.45594000000E+02  0.51100000000E-03 0. -1.
    9900012    2    1    2    0    0  0.43460490582E+00 -0.62921622640E+00  0.89918312418E+00  0.90007608211E+02  0.89999867840E+02 0.  0.
         12    1    1    2    0    0 -0.43460490582E+00  0.62921622640E+00 -0.89918312418E+00  0.11803917886E+01  0.00000000000E+00 0. -1.
         11    1    3    3    0    0 -0.43105928319E+01 -0.14371466964E+02 -0.34972142787E+02  0.38054842591E+02  0.51100000000E-03 0. -1.
        -11    1    3    3    0    0  0.21056188657E+01  0.55524693360E+01 -0.64489706382E+01  0.87665711135E+01  0.51100000000E-03 0.  1.
        -12    1    3    3    0    0  0.26395788720E+01  0.81897814012E+01  0.42320296549E+02  0.43186194507E+02  0.00000000000E+00 0.  1.
</event>
<event>
 7    1  0.1501154E-015  0.9000754E+02  0.7816164E-02  0.1186339E+00
        -11   -1    0    0    0    0  0.00000000000E+00  0.00000000000E+00  0.45593999997E+02  0.45594000000E+02  0.51100000000E-03 0.  1.
         11   -1    0    0    0    0 -0.00000000000E+00 -0.00000000000E+00 -0.45593999997E+02  0.45594000000E+02  0.51100000000E-03 0. -1.
    9900012    2    1    2    0    0  0.28069438510E+00  0.48674300500E+00  0.10381569747E+01  0.90007543311E+02  0.89999802082E+02 0.  0.
         12    1    1    2    0    0 -0.28069438510E+00 -0.48674300500E+00 -0.10381569747E+01  0.11804566891E+01  0.00000000000E+00 0. -1.
         11    1    3    3    0    0  0.30426564335E+02  0.21920786847E+02  0.50769867054E+00  0.37504059400E+02  0.51100000000E-03 0. -1.
        -11    1    3    3    0    0  0.13860763891E+00  0.92971368023E+01  0.10283987798E+01  0.93548687382E+01  0.51100000000E-03 0.  1.
        -12    1    3    3    0    0 -0.30284477589E+02 -0.30731180644E+02 -0.49794047566E+00  0.43148615173E+02  0.00000000000E+00 0.  1.
</event>
<event>
 7    1  0.1501154E-015  0.9000772E+02  0.7816164E-02  0.1186339E+00
        -11   -1    0    0    0    0  0.00000000000E+00  0.00000000000E+00  0.45593999997E+02  0.45594000000E+02  0.51100000000E-03 0.  1.
         11   -1    0    0    0    0 -0.00000000000E+00 -0.00000000000E+00 -0.45593999997E+02  0.45594000000E+02  0.51100000000E-03 0. -1.
    9900012    2    1    2    0    0  0.97970690686E+00 -0.21229267279E+00 -0.62302307085E+00  0.90007723952E+02  0.89999985108E+02 0.  0.
         12    1    1    2    0    0 -0.97970690686E+00  0.21229267279E+00  0.62302307085E+00  0.11802760478E+01  0.00000000000E+00 0. -1.
         11    1    3    3    0    0 -0.55085858651E+00 -0.73719178660E+01 -0.56887218916E+01  0.93279244866E+01  0.51100000000E-03 0. -1.
        -11    1    3    3    0    0 -0.14849765574E+02  0.15840512159E+01  0.39452788284E+02  0.42184680388E+02  0.51100000000E-03 0.  1.
         12    1    3    3    0    0  0.16380331067E+02  0.55755739774E+01 -0.34387089463E+02  0.38495119077E+02  0.00000000000E+00 0. -1.
</event>
<event>
 7    1  0.1501154E-015  0.9000759E+02  0.7816164E-02  0.1186339E+00
        -11   -1    0    0    0    0  0.00000000000E+00  0.00000000000E+00  0.45593999997E+02  0.45594000000E+02  0.51100000000E-03 0. -1.
         11   -1    0    0    0    0 -0.00000000000E+00 -0.00000000000E+00 -0.45593999997E+02  0.45594000000E+02  0.51100000000E-03 0.  1.
    9900012    2    1    2    0    0 -0.10780632145E+01  0.80901947899E-01  0.47393102740E+00  0.90007586497E+02  0.89999845838E+02 0.  0.
         12    1    1    2    0    0  0.10780632145E+01 -0.80901947899E-01 -0.47393102740E+00  0.11804135032E+01  0.00000000000E+00 0. -1.
         11    1    3    3    0    0 -0.32394492899E+02  0.11280742524E+01  0.21238103503E+02  0.38752196872E+02  0.51100000000E-03 0. -1.
        -11    1    3    3    0    0 -0.43672584846E+01 -0.89186855336E+01 -0.18229911504E+01  0.10096494209E+02  0.51100000000E-03 0.  1.
        -12    1    3    3    0    0  0.35683688169E+02  0.78715132291E+01 -0.18941181325E+02  0.41158895416E+02  0.00000000000E+00 0.  1.
</event>
<event>
 7    1  0.1501154E-015  0.9000771E+02  0.7816164E-02  0.1186339E+00
        -11   -1    0    0    0    0  0.00000000000E+00  0.00000000000E+00  0.45593999997E+02  0.45594000000E+02  0.51100000000E-03 0.  1.
         11   -1    0    0    0    0 -0.00000000000E+00 -0.00000000000E+00 -0.45593999997E+02  0.45594000000E+02  0.51100000000E-03 0. -1.
    9900012    2    1    2    0    0 -0.39424237183E+00  0.44044999075E+00  0.10215976108E+01  0.90007709815E+02  0.89999970785E+02 0.  0.
         12    1    1    2    0    0  0.39424237183E+00 -0.44044999075E+00 -0.10215976108E+01  0.11802901848E+01  0.00000000000E+00 0. -1.
         11    1    3    3    0    0  0.29508590591E+01 -0.51908978066E+01 -0.24409874416E+01  0.64506905968E+01  0.51100000000E-03 0. -1.
        -11    1    3    3    0    0  0.20982630857E+02 -0.26432784580E+02  0.20897259813E+02  0.39694563435E+02  0.51100000000E-03 0.  1.
         12    1    3    3    0    0 -0.24327732288E+02  0.32064132377E+02 -0.17434674761E+02  0.43862455784E+02  0.00000000000E+00 0. -1.
</event>
<event>
 7    1  0.1501154E-015  0.9000774E+02  0.7816164E-02  0.1186339E+00
        -11   -1    0    0    0    0  0.00000000000E+00  0.00000000000E+00  0.45593999997E+02  0.45594000000E+02  0.51100000000E-03 0.  1.
         11   -1    0    0    0    0 -0.00000000000E+00 -0.00000000000E+00 -0.45593999997E+02  0.45594000000E+02  0.51100000000E-03 0. -1.
    9900012    2    1    2    0    0 -0.87628587726E+00  0.23891708113E+00  0.75370224091E+00  0.90007735039E+02  0.89999996341E+02 0.  0.
         12    1    1    2    0    0  0.87628587726E+00 -0.23891708113E+00 -0.75370224091E+00  0.11802649611E+01  0.00000000000E+00 0. -1.
         11    1    3    3    0    0 -0.83386705896E+01  0.21503901062E+02 -0.31244603691E+02  0.38835247497E+02  0.51100000000E-03 0. -1.
        -11    1    3    3    0    0 -0.87674846711E+01 -0.28527904503E+00 -0.10070236619E+01  0.88297377372E+01  0.51100000000E-03 0.  1.
        -12    1    3    3    0    0  0.16229869383E+02 -0.20979704936E+02  0.33005329594E+02  0.42342749805E+02  0.00000000000E+00 0.  1.
</event>
<event>
 7    1  0.1501154E-015  0.9000772E+02  0.7816164E-02  0.1186339E+00
        -11   -1    0    0    0    0  0.00000000000E+00  0.00000000000E+00  0.45593999997E+02  0.45594000000E+02  0.51100000000E-03 0. -1.
         11   -1    0    0    0    0 -0.00000000000E+00 -0.00000000000E+00 -0.45593999997E+02  0.45594000000E+02  0.51100000000E-03 0.  1.
    9900012    2    1    2    0    0 -0.94230488266E+00 -0.70161091443E+00  0.11339107189E+00  0.90007722955E+02  0.89999984098E+02 0.  0.
         12    1    1    2    0    0  0.94230488266E+00  0.70161091443E+00 -0.11339107189E+00  0.11802770447E+01  0.00000000000E+00 0. -1.
         11    1    3    3    0    0  0.10788523876E+00 -0.64662746590E+01 -0.75478739819E+01  0.99395547736E+01  0.51100000000E-03 0. -1.
        -11    1    3    3    0    0 -0.17555959505E+02 -0.19149526390E+02 -0.24820065068E+02  0.35929816383E+02  0.51100000000E-03 0.  1.
         12    1    3    3    0    0  0.16505769384E+02  0.24914190135E+02  0.32481330121E+02  0.44138351798E+02  0.00000000000E+00 0. -1.
</event>
<event>
 7    1  0.1501154E-015  0.9000794E+02  0.7816164E-02  0.1186339E+00
        -11   -1    0    0    0    0  0.00000000000E+00  0.00000000000E+00  0.45593999997E+02  0.45594000000E+02  0.51100000000E-03 0.  1.
         11   -1    0    0    0    0 -0.00000000000E+00 -0.00000000000E+00 -0.45593999997E+02  0.45594000000E+02  0.51100000000E-03 0. -1.
    9900012    2    1    2    0    0 -0.10764975055E+00  0.78702759194E+00  0.87266309543E+00  0.90007939926E+02  0.90000203933E+02 0.  0.
         12    1    1    2    0    0  0.10764975055E+00 -0.78702759194E+00 -0.87266309543E+00  0.11800600736E+01  0.00000000000E+00 0. -1.
         11    1    3    3    0    0 -0.34159776990E+02  0.25984821401E+02  0.35535980570E+01  0.43066569014E+02  0.51100000000E-03 0. -1.
        -11    1    3    3    0    0  0.35719454854E+01 -0.79389426804E+01 -0.76177975135E+01  0.11567905802E+02  0.51100000000E-03 0.  1.
        -12    1    3    3    0    0  0.30480181754E+02 -0.17258851129E+02  0.49368625519E+01  0.35373465110E+02  0.00000000000E+00 0.  1.
</event>
<event>
 8    1  0.1501154E-015  0.9000772E+02  0.7816164E-02  0.1186339E+00
        -11   -1    0    0    0    0  0.00000000000E+00  0.00000000000E+00  0.45593999997E+02  0.45594000000E+02  0.51100000000E-03 0.  1.
         11   -1    0    0    0    0 -0.00000000000E+00 -0.00000000000E+00 -0.45593999997E+02  0.45594000000E+02  0.51100000000E-03 0. -1.
    9900012    2    1    2    0    0 -0.88855982305E+00  0.53489626787E+00  0.56340025448E+00  0.90007715109E+02  0.89999976149E+02 0.  0.
         23    2    3    3    0    0 -0.83099874400E+01 -0.19376181171E+02 -0.82943299821E+00  0.68712913464E+02  0.65393304164E+02 0.  0.
         12    1    1    2    0    0  0.88855982305E+00 -0.53489626787E+00 -0.56340025448E+00  0.11802848907E+01  0.00000000000E+00 0. -1.
         11    1    4    4    0    0 -0.17032332497E+02 -0.37027970784E+02 -0.16073251569E+02  0.43812331448E+02  0.51100000000E-03 0. -1.
        -11    1    4    4    0    0  0.87223450572E+01  0.17651789613E+02  0.15243818571E+02  0.24900582015E+02  0.51100000000E-03 0.  1.
        -12    1    3    3    0    0  0.74214276170E+01  0.19911077439E+02  0.13928332527E+01  0.21294801646E+02  0.00000000000E+00 0.  1.
</event>
<event>
 7    1  0.1501154E-015  0.9000762E+02  0.7816164E-02  0.1186339E+00
        -11   -1    0    0    0    0  0.00000000000E+00  0.00000000000E+00  0.45593999997E+02  0.45594000000E+02  0.51100000000E-03 0.  1.
         11   -1    0    0    0    0 -0.00000000000E+00 -0.00000000000E+00 -0.45593999997E+02  0.45594000000E+02  0.51100000000E-03 0. -1.
    9900012    2    1    2    0    0 -0.92456912942E-01 -0.75808947477E+00  0.90003151370E+00  0.90007616733E+02  0.89999876473E+02 0.  0.
         12    1    1    2    0    0  0.92456912942E-01  0.75808947477E+00 -0.90003151370E+00  0.11803832675E+01  0.00000000000E+00 0. -1.
         11    1    3    3    0    0  0.17599111633E+02  0.69185975556E+01  0.65682957363E+01  0.20018447281E+02  0.51100000000E-03 0. -1.
        -11    1    3    3    0    0  0.49168641698E+01 -0.25589720576E+02  0.18826483750E+02  0.32147252496E+02  0.51100000000E-03 0.  1.
         12    1    3    3    0    0 -0.22608432716E+02  0.17913033545E+02 -0.24494747972E+02  0.37841916956E+02  0.00000000000E+00 0. -1.
</event>
<event>
 7    1  0.1501154E-015  0.9000771E+02  0.7816164E-02  0.1186339E+00
        -11   -1    0    0    0    0  0.00000000000E+00  0.00000000000E+00  0.45593999997E+02  0.45594000000E+02  0.51100000000E-03 0. -1.
         11   -1    0    0    0    0 -0.00000000000E+00 -0.00000000000E+00 -0.45593999997E+02  0.45594000000E+02  0.51100000000E-03 0.  1.
    9900012    2    1    2    0    0  0.80841407482E+00  0.35313271414E+00 -0.78411756516E+00  0.90007713430E+02  0.89999974448E+02 0.  0.
         12    1    1    2    0    0 -0.80841407482E+00 -0.35313271414E+00  0.78411756516E+00  0.11802865695E+01  0.00000000000E+00 0. -1.
         11    1    3    3    0    0 -0.21682058672E+02  0.17910276794E+02  0.22272220602E+02  0.35873966799E+02  0.51100000000E-03 0. -1.
        -11    1    3    3    0    0 -0.93740795006E+00 -0.12086641042E+00  0.99885952823E+01  0.10033213759E+02  0.51100000000E-03 0.  1.
        -12    1    3    3    0    0  0.23427880697E+02 -0.17436277670E+02 -0.33044933450E+02  0.44100532872E+02  0.00000000000E+00 0.  1.
</event>
<event>
 7    1  0.1501154E-015  0.9000774E+02  0.7816164E-02  0.1186339E+00
        -11   -1    0    0    0    0  0.00000000000E+00  0.00000000000E+00  0.45593999997E+02  0.45594000000E+02  0.51100000000E-03 0.  1.
         11   -1    0    0    0    0 -0.00000000000E+00 -0.00000000000E+00 -0.45593999997E+02  0.45594000000E+02  0.51100000000E-03 0. -1.
    9900012    2    1    2    0    0  0.86083356279E+00 -0.31812381743E+00  0.74214599899E+00  0.90007738220E+02  0.89999999564E+02 0.  0.
         12    1    1    2    0    0 -0.86083356279E+00  0.31812381743E+00 -0.74214599899E+00  0.11802617802E+01  0.00000000000E+00 0. -1.
         11    1    3    3    0    0 -0.22840550608E+02  0.12773746689E+02 -0.23431583240E+02  0.35126890695E+02  0.51100000000E-03 0. -1.
        -11    1    3    3    0    0 -0.70364260317E+01  0.29703760502E+01 -0.53578091973E+01  0.93295522312E+01  0.51100000000E-03 0.  1.
        -12    1    3    3    0    0  0.30737810202E+02 -0.16062246557E+02  0.29531538436E+02  0.45551295293E+02  0.00000000000E+00 0.  1.
</event>
<event>
 7    1  0.1501154E-015  0.9000776E+02  0.7816164E-02  0.1186339E+00
        -11   -1    0    0    0    0  0.00000000000E+00  0.00000000000E+00  0.45593999997E+02  0.45594000000E+02  0.51100000000E-03 0.  1.
         11   -1    0    0    0    0 -0.00000000000E+00 -0.00000000000E+00 -0.45593999997E+02  0.45594000000E+02  0.51100000000E-03 0. -1.
    9900012    2    1    2    0    0 -0.11427084306E+01  0.25402153335E+00  0.15051037388E+00  0.90007761520E+02  0.90000023172E+02 0.  0.
         12    1    1    2    0    0  0.11427084306E+01 -0.25402153335E+00 -0.15051037388E+00  0.11802384799E+01  0.00000000000E+00 0. -1.
         11    1    3    3    0    0 -0.52629160980E+01  0.13659941968E+01  0.77563338287E+01  0.94723249904E+01  0.51100000000E-03 0. -1.
        -11    1    3    3    0    0 -0.29761914968E+02  0.11563476879E+02  0.17586543494E+02  0.36452326296E+02  0.51100000000E-03 0.  1.
         12    1    3    3    0    0  0.33882122635E+02 -0.12675449542E+02 -0.25192366948E+02  0.44083110233E+02  0.00000000000E+00 0. -1.
</event>
<event>
 7    1  0.1501154E-015  0.9000778E+02  0.7816164E-02  0.1186339E+00
        -11   -1    0    0    0    0  0.00000000000E+00  0.00000000000E+00  0.45593999997E+02  0.45594000000E+02  0.51100000000E-03 0. -1.
         11   -1    0    0    0    0 -0.00000000000E+00 -0.00000000000E+00 -0.45593999997E+02  0.45594000000E+02  0.51100000000E-03 0.  1.
    9900012    2    1    2    0    0  0.51086888192E+00  0.98327289702E+00 -0.40634453725E+00  0.90007776086E+02  0.90000037930E+02 0.  0.
         12    1    1    2    0    0 -0.51086888192E+00 -0.98327289702E+00  0.40634453725E+00  0.11802239141E+01  0.00000000000E+00 0. -1.
         11    1    3    3    0    0 -0.10403239073E+02  0.60585483711E+00 -0.20469799664E+01  0.10620008029E+02  0.51100000000E-03 0. -1.
        -11    1    3    3    0    0 -0.22969323949E+01  0.86380268465E+01 -0.36820811827E+02  0.37890151624E+02  0.51100000000E-03 0.  1.
         12    1    3    3    0    0  0.13211040350E+02 -0.82606087866E+01  0.38461447256E+02  0.41497616433E+02  0.00000000000E+00 0. -1.
</event>
<event>
 7    1  0.1501154E-015  0.9000787E+02  0.7816164E-02  0.1186339E+00
        -11   -1    0    0    0    0  0.00000000000E+00  0.00000000000E+00  0.45593999997E+02  0.45594000000E+02  0.51100000000E-03 0. -1.
         11   -1    0    0    0    0 -0.00000000000E+00 -0.00000000000E+00 -0.45593999997E+02  0.45594000000E+02  0.51100000000E-03 0.  1.
    9900012    2    1    2    0    0  0.49329688269E+00  0.52027379268E-01 -0.10708196960E+01  0.90007871412E+02  0.90000134515E+02 0.  0.
         12    1    1    2    0    0 -0.49329688269E+00 -0.52027379268E-01  0.10708196960E+01  0.11801285879E+01  0.00000000000E+00 0. -1.
         11    1    3    3    0    0 -0.91502256728E+00 -0.13443360056E+01  0.76858783359E+01  0.78560315459E+01  0.51100000000E-03 0. -1.
        -11    1    3    3    0    0  0.21987527603E+01 -0.39911550768E+02 -0.26613432158E+00  0.39972956185E+02  0.51100000000E-03 0.  1.
         12    1    3    3    0    0 -0.79043331031E+00  0.41307914153E+02 -0.84905637104E+01  0.42178883681E+02  0.00000000000E+00 0. -1.
</event>
<event>
 7    1  0.1501154E-015  0.9000789E+02  0.7816164E-02  0.1186339E+00
        -11   -1    0    0    0    0  0.00000000000E+00  0.00000000000E+00  0.45593999997E+02  0.45594000000E+02  0.51100000000E-03 0. -1.
         11   -1    0    0    0    0 -0.00000000000E+00 -0.00000000000E+00 -0.45593999997E+02  0.45594000000E+02  0.51100000000E-03 0.  1.
    9900012    2    1    2    0    0  0.78750498057E+00  0.69758081003E+00 -0.53467223659E+00  0.90007890903E+02  0.90000154262E+02 0.  0.
         12    1    1    2    0    0 -0.78750498057E+00 -0.69758081003E+00  0.53467223659E+00  0.11801090973E+01  0.00000000000E+00 0. -1.
         11    1    3    3    0    0 -0.14463963371E+01  0.18733872050E+01 -0.95208618972E+01  0.98106296184E+01  0.51100000000E-03 0. -1.
        -11    1    3    3    0    0  0.12798445758E+02 -0.38670736299E+02  0.42029925058E+01  0.40949862100E+02  0.51100000000E-03 0.  1.
         12    1    3    3    0    0 -0.10564544440E+02  0.37494929904E+02  0.47831971548E+01  0.39247399185E+02  0.00000000000E+00 0. -1.
</event>
<event>
 7    1  0.1501154E-015  0.9000775E+02  0.7816164E-02  0.1186339E+00
        -11   -1    0    0    0    0  0.00000000000E+00  0.00000000000E+00  0.45593999997E+02  0.45594000000E+02  0.51100000000E-03 0.  1.
         11   -1    0    0    0    0 -0.00000000000E+00 -0.00000000000E+00 -0.45593999997E+02  0.45594000000E+02  0.51100000000E-03 0. -1.
    9900012    2    1    2    0    0  0.11009468188E+01  0.32391865675E+00  0.27566569805E+00  0.90007746311E+02  0.90000007762E+02 0.  0.
         12    1    1    2    0    0 -0.11009468188E+01 -0.32391865675E+00 -0.27566569805E+00  0.11802536893E+01  0.00000000000E+00 0. -1.
         11    1    3    3    0    0 -0.30167288987E+02  0.38039601734E+01 -0.21057135206E+02  0.36985651017E+02  0.51100000000E-03 0. -1.
        -11    1    3    3    0    0  0.28527991791E+01 -0.14636384006E+01 -0.10102697027E+02  0.10599301298E+02  0.51100000000E-03 0.  1.
        -12    1    3    3    0    0  0.28415436626E+02 -0.20164031160E+01  0.31435497931E+02  0.42422793996E+02  0.00000000000E+00 0.  1.
</event>
<event>
 7    1  0.1501154E-015  0.9000788E+02  0.7816164E-02  0.1186339E+00
        -11   -1    0    0    0    0  0.00000000000E+00  0.00000000000E+00  0.45593999997E+02  0.45594000000E+02  0.51100000000E-03 0.  1.
         11   -1    0    0    0    0 -0.00000000000E+00 -0.00000000000E+00 -0.45593999997E+02  0.45594000000E+02  0.51100000000E-03 0. -1.
    9900012    2    1    2    0    0 -0.71813710854E+00  0.38792763936E+00 -0.85233674592E+00  0.90007878528E+02  0.90000141725E+02 0.  0.
         12    1    1    2    0    0  0.71813710854E+00 -0.38792763936E+00  0.85233674592E+00  0.11801214719E+01  0.00000000000E+00 0. -1.
         11    1    3    3    0    0  0.25685483695E+01 -0.26978288816E+01  0.78688082837E+01  0.87059672333E+01  0.51100000000E-03 0. -1.
        -11    1    3    3    0    0  0.21119700667E+01 -0.38435108896E+02 -0.85499094127E+01  0.39431192788E+02  0.51100000000E-03 0.  1.
         12    1    3    3    0    0 -0.53986555447E+01  0.41520865417E+02 -0.17123561689E+00  0.41870718507E+02  0.00000000000E+00 0. -1.
</event>
<event>
 7    1  0.2005043E-015  0.9000778E+02  0.7816164E-02  0.1186339E+00
        -11   -1    0    0    0    0  0.00000000000E+00  0.00000000000E+00  0.45593999997E+02  0.45594000000E+02  0.51100000000E-03 0. -1.
         11   -1    0    0    0    0 -0.00000000000E+00 -0.00000000000E+00 -0.45593999997E+02  0.45594000000E+02  0.51100000000E-03 0.  1.
    9900012    2    1    2    0    0  0.42684220755E+00 -0.45578509810E-01 -0.10993835170E+01  0.90007781466E+02  0.90000043381E+02 0.  0.
         12    1    1    2    0    0 -0.42684220755E+00  0.45578509810E-01  0.10993835170E+01  0.11802185340E+01  0.00000000000E+00 0. -1.
         11    1    3    3    0    0  0.70875669712E+01  0.35433794754E+02  0.15311433878E+02  0.39245731283E+02  0.51100000000E-03 0. -1.
        -11    1    3    3    0    0 -0.22166575471E+01 -0.23968632613E+01  0.85041105117E+01  0.91092491475E+01  0.51100000000E-03 0.  1.
        -12    1    3    3    0    0 -0.44440672166E+01 -0.33082510003E+02 -0.24914927907E+02  0.41652801036E+02  0.00000000000E+00 0.  1.
</event>
<event>
 7    1  0.1501154E-015  0.9000783E+02  0.7816164E-02  0.1186339E+00
        -11   -1    0    0    0    0  0.00000000000E+00  0.00000000000E+00  0.45593999997E+02  0.45594000000E+02  0.51100000000E-03 0. -1.
         11   -1    0    0    0    0 -0.00000000000E+00 -0.00000000000E+00 -0.45593999997E+02  0.45594000000E+02  0.51100000000E-03 0.  1.
    9900012    2    1    2    0    0 -0.43024419894E-01 -0.75196169486E+00 -0.90857828933E+00  0.90007825437E+02  0.90000087933E+02 0.  0.
         12    1    1    2    0    0  0.43024419894E-01  0.75196169486E+00  0.90857828933E+00  0.11801745630E+01  0.00000000000E+00 0. -1.
         11    1    3    3    0    0  0.98085105444E+01 -0.15925791601E+01 -0.11169835893E+01  0.99995419936E+01  0.51100000000E-03 0. -1.
        -11    1    3    3    0    0  0.72638100095E+01  0.75888551538E+01 -0.37020239511E+02  0.38481837172E+02  0.51100000000E-03 0.  1.
         12    1    3    3    0    0 -0.17115344974E+02 -0.67482376886E+01  0.37228644811E+02  0.41526446272E+02  0.00000000000E+00 0. -1.
</event>
<event>
 7    1  0.1501154E-015  0.9000789E+02  0.7816164E-02  0.1186339E+00
        -11   -1    0    0    0    0  0.00000000000E+00  0.00000000000E+00  0.45593999997E+02  0.45594000000E+02  0.51100000000E-03 0.  1.
         11   -1    0    0    0    0 -0.00000000000E+00 -0.00000000000E+00 -0.45593999997E+02  0.45594000000E+02  0.51100000000E-03 0. -1.
    9900012    2    1    2    0    0 -0.73199536384E-01 -0.66140626880E+00  0.97459410565E+00  0.90007894032E+02  0.90000157433E+02 0.  0.
         12    1    1    2    0    0  0.73199536384E-01  0.66140626880E+00 -0.97459410565E+00  0.11801059678E+01  0.00000000000E+00 0. -1.
         11    1    3    3    0    0 -0.52310579315E+01  0.27924093513E+02 -0.16054379251E+02  0.32632224243E+02  0.51100000000E-03 0. -1.
        -11    1    3    3    0    0  0.20537749868E+02 -0.19838004878E+01  0.16862852587E+02  0.26647522055E+02  0.51100000000E-03 0.  1.
        -12    1    3    3    0    0 -0.15379891473E+02 -0.26601699294E+02  0.16612076945E+00  0.30728147734E+02  0.00000000000E+00 0.  1.
</event>
<event>
 7    1  0.1501154E-015  0.9000772E+02  0.7816164E-02  0.1186339E+00
        -11   -1    0    0    0    0  0.00000000000E+00  0.00000000000E+00  0.45593999997E+02  0.45594000000E+02  0.51100000000E-03 0. -1.
         11   -1    0    0    0    0 -0.00000000000E+00 -0.00000000000E+00 -0.45593999997E+02  0.45594000000E+02  0.51100000000E-03 0.  1.
    9900012    2    1    2    0    0 -0.33883833035E+00 -0.89216016919E+00 -0.69447953589E+00  0.90007719098E+02  0.89999980190E+02 0.  0.
         12    1    1    2    0    0  0.33883833035E+00  0.89216016919E+00  0.69447953589E+00  0.11802809019E+01  0.00000000000E+00 0. -1.
         11    1    3    3    0    0  0.99311724019E+01 -0.84848723798E+01 -0.65057175389E+01  0.14592655877E+02  0.51100000000E-03 0. -1.
        -11    1    3    3    0    0  0.18556654149E+02 -0.24130710002E+02  0.10714096214E+02  0.32271232334E+02  0.51100000000E-03 0.  1.
        -12    1    3    3    0    0 -0.28826664881E+02  0.31723422212E+02 -0.49028582111E+01  0.43143830888E+02  0.00000000000E+00 0.  1.
</event>
<event>
 7    1  0.1501154E-015  0.9000770E+02  0.7816164E-02  0.1186339E+00
        -11   -1    0    0    0    0  0.00000000000E+00  0.00000000000E+00  0.45593999997E+02  0.45594000000E+02  0.51100000000E-03 0.  1.
         11   -1    0    0    0    0 -0.00000000000E+00 -0.00000000000E+00 -0.45593999997E+02  0.45594000000E+02  0.51100000000E-03 0. -1.
    9900012    2    1    2    0    0  0.36165237145E+00  0.10150928851E+01 -0.48155379556E+00  0.90007703401E+02  0.89999964286E+02 0.  0.
         12    1    1    2    0    0 -0.36165237145E+00 -0.10150928851E+01  0.48155379556E+00  0.11802965988E+01  0.00000000000E+00 0. -1.
         11    1    3    3    0    0  0.10204882836E+01  0.57779066062E+01 -0.10068546858E+02  0.11653378788E+02  0.51100000000E-03 0. -1.
        -11    1    3    3    0    0  0.32432627358E+02  0.18133159719E+02  0.80130372362E+00  0.37166233151E+02  0.51100000000E-03 0.  1.
         12    1    3    3    0    0 -0.33091463270E+02 -0.22895973440E+02  0.87856893391E+01  0.41188091462E+02  0.00000000000E+00 0. -1.
</event>
<event>
 7    1  0.1501154E-015  0.9000751E+02  0.7816164E-02  0.1186340E+00
        -11   -1    0    0    0    0  0.00000000000E+00  0.00000000000E+00  0.45593999997E+02  0.45594000000E+02  0.51100000000E-03 0. -1.
         11   -1    0    0    0    0 -0.00000000000E+00 -0.00000000000E+00 -0.45593999997E+02  0.45594000000E+02  0.51100000000E-03 0.  1.
    9900012    2    1    2    0    0  0.11302126185E+01 -0.34055260290E+00  0.14525110311E-01  0.90007505351E+02  0.89999763621E+02 0.  0.
         12    1    1    2    0    0 -0.11302126185E+01  0.34055260290E+00 -0.14525110311E-01  0.11804946494E+01  0.00000000000E+00 0. -1.
         11    1    3    3    0    0  0.95783949669E+00  0.10313928932E+02  0.88074090361E+01  0.13596508401E+02  0.51100000000E-03 0. -1.
        -11    1    3    3    0    0  0.26657465364E+02 -0.21469835282E+02 -0.26038534816E+02  0.43006738801E+02  0.51100000000E-03 0.  1.
         12    1    3    3    0    0 -0.26485092242E+02  0.10815353747E+02  0.17245650891E+02  0.33404258148E+02  0.00000000000E+00 0. -1.
</event>
<event>
 7    1  0.1501154E-015  0.9000778E+02  0.7816164E-02  0.1186339E+00
        -11   -1    0    0    0    0  0.00000000000E+00  0.00000000000E+00  0.45593999997E+02  0.45594000000E+02  0.51100000000E-03 0.  1.
         11   -1    0    0    0    0 -0.00000000000E+00 -0.00000000000E+00 -0.45593999997E+02  0.45594000000E+02  0.51100000000E-03 0. -1.
    9900012    2    1    2    0    0 -0.42251657754E+00 -0.65686664270E+00 -0.88482886907E+00  0.90007781303E+02  0.90000043216E+02 0.  0.
         12    1    1    2    0    0  0.42251657754E+00  0.65686664270E+00  0.88482886907E+00  0.11802186967E+01  0.00000000000E+00 0. -1.
         11    1    3    3    0    0  0.19833336724E+01 -0.17217487208E+02 -0.35200128972E+02  0.39235501247E+02  0.51100000000E-03 0. -1.
        -11    1    3    3    0    0 -0.45907287102E+01 -0.81028655848E+01  0.11497037286E+01  0.93836581194E+01  0.51100000000E-03 0.  1.
        -12    1    3    3    0    0  0.21848784603E+01  0.24663486150E+02  0.33165596374E+02  0.41388621937E+02  0.00000000000E+00 0.  1.
</event>
<event>
 7    1  0.1501154E-015  0.9000768E+02  0.7816164E-02  0.1186339E+00
        -11   -1    0    0    0    0  0.00000000000E+00  0.00000000000E+00  0.45593999997E+02  0.45594000000E+02  0.51100000000E-03 0.  1.
         11   -1    0    0    0    0 -0.00000000000E+00 -0.00000000000E+00 -0.45593999997E+02  0.45594000000E+02  0.51100000000E-03 0. -1.
    9900012    2    1    2    0    0 -0.18653909698E+00  0.55199126656E+00  0.10264835922E+01  0.90007678113E+02  0.89999938664E+02 0.  0.
         12    1    1    2    0    0  0.18653909698E+00 -0.55199126656E+00 -0.10264835922E+01  0.11803218875E+01  0.00000000000E+00 0. -1.
         11    1    3    3    0    0 -0.10433676624E+02 -0.65896046129E+01 -0.12089761351E+01  0.12399440327E+02  0.51100000000E-03 0. -1.
        -11    1    3    3    0    0 -0.17274348947E+02 -0.61947699674E+01  0.30740223114E+02  0.35801391367E+02  0.51100000000E-03 0.  1.
         12    1    3    3    0    0  0.27521486475E+02  0.13336365847E+02 -0.28504763386E+02  0.41806846419E+02  0.00000000000E+00 0. -1.
</event>
<event>
 7    1  0.1501154E-015  0.9000782E+02  0.7816164E-02  0.1186339E+00
        -11   -1    0    0    0    0  0.00000000000E+00  0.00000000000E+00  0.45593999997E+02  0.45594000000E+02  0.51100000000E-03 0. -1.
         11   -1    0    0    0    0 -0.00000000000E+00 -0.00000000000E+00 -0.45593999997E+02  0.45594000000E+02  0.51100000000E-03 0.  1.
    9900012    2    1    2    0    0  0.88914951898E+00 -0.49607563522E+00  0.59678535910E+00  0.90007817528E+02  0.90000079919E+02 0.  0.
         12    1    1    2    0    0 -0.88914951898E+00  0.49607563522E+00 -0.59678535910E+00  0.11801824722E+01  0.00000000000E+00 0. -1.
         11    1    3    3    0    0 -0.64385312832E+00  0.69254587103E+01 -0.10269882999E+02  0.12403508467E+02  0.51100000000E-03 0. -1.
        -11    1    3    3    0    0  0.19415760348E+02  0.28177919072E+02 -0.52678412718E+01  0.34622493050E+02  0.51100000000E-03 0.  1.
         12    1    3    3    0    0 -0.17882757701E+02 -0.35599453417E+02  0.16134509630E+02  0.42981816011E+02  0.00000000000E+00 0. -1.
</event>
<event>
 7    1  0.1894032E-015  0.9000773E+02  0.7816164E-02  0.1186339E+00
        -11   -1    0    0    0    0  0.00000000000E+00  0.00000000000E+00  0.45593999997E+02  0.45594000000E+02  0.51100000000E-03 0.  1.
         11   -1    0    0    0    0 -0.00000000000E+00 -0.00000000000E+00 -0.45593999997E+02  0.45594000000E+02  0.51100000000E-03 0. -1.
    9900012    2    1    2    0    0 -0.95196760151E+00  0.30741119380E+00  0.62632403122E+00  0.90007734882E+02  0.89999996183E+02 0.  0.
         12    1    1    2    0    0  0.95196760151E+00 -0.30741119380E+00 -0.62632403122E+00  0.11802651179E+01  0.00000000000E+00 0. -1.
         11    1    3    3    0    0 -0.32842740565E+01  0.57473770750E+01 -0.65620080403E+01  0.93208770565E+01  0.51100000000E-03 0. -1.
        -11    1    3    3    0    0 -0.27944904061E+02  0.44408979921E+01  0.30207691597E+02  0.41390142181E+02  0.51100000000E-03 0.  1.
         12    1    3    3    0    0  0.30277210516E+02 -0.98808638733E+01 -0.23019359525E+02  0.39296715644E+02  0.00000000000E+00 0. -1.
</event>
<event>
 7    1  0.1501154E-015  0.9000768E+02  0.7816164E-02  0.1186339E+00
        -11   -1    0    0    0    0  0.00000000000E+00  0.00000000000E+00  0.45593999997E+02  0.45594000000E+02  0.51100000000E-03 0. -1.
         11   -1    0    0    0    0 -0.00000000000E+00 -0.00000000000E+00 -0.45593999997E+02  0.45594000000E+02  0.51100000000E-03 0.  1.
    9900012    2    1    2    0    0  0.32521160378E+00  0.24794156040E+00 -0.11072116024E+01  0.90007680070E+02  0.89999940647E+02 0.  0.
         12    1    1    2    0    0 -0.32521160378E+00 -0.24794156040E+00  0.11072116024E+01  0.11803199299E+01  0.00000000000E+00 0. -1.
         11    1    3    3    0    0 -0.34848672260E+02 -0.65464857475E+01  0.18526684783E+02  0.40006555504E+02  0.51100000000E-03 0. -1.
        -11    1    3    3    0    0  0.65388650694E+01  0.14512424970E+02 -0.10091264911E+02  0.18846773269E+02  0.51100000000E-03 0.  1.
        -12    1    3    3    0    0  0.28635018795E+02 -0.77179976619E+01 -0.95426314745E+01  0.31154351297E+02  0.00000000000E+00 0.  1.
</event>
<event>
 7    1  0.1501154E-015  0.9000766E+02  0.7816164E-02  0.1186339E+00
        -11   -1    0    0    0    0  0.00000000000E+00  0.00000000000E+00  0.45593999997E+02  0.45594000000E+02  0.51100000000E-03 0.  1.
         11   -1    0    0    0    0 -0.00000000000E+00 -0.00000000000E+00 -0.45593999997E+02  0.45594000000E+02  0.51100000000E-03 0. -1.
    9900012    2    1    2    0    0  0.11182887708E+01 -0.65182076838E-01 -0.37199083548E+00  0.90007662904E+02  0.89999923254E+02 0.  0.
         12    1    1    2    0    0 -0.11182887708E+01  0.65182076838E-01  0.37199083548E+00  0.11803370958E+01  0.00000000000E+00 0. -1.
         11    1    3    3    0    0  0.83319733510E+01 -0.18851070216E+02 -0.17505293205E+02  0.27041078356E+02  0.51100000000E-03 0. -1.
        -11    1    3    3    0    0 -0.21389431241E+02 -0.16876094803E+01 -0.12045754538E+02  0.24606015468E+02  0.51100000000E-03 0.  1.
         12    1    3    3    0    0  0.14175746661E+02  0.20473497619E+02  0.29179056907E+02  0.38360569080E+02  0.00000000000E+00 0. -1.
</event>
<event>
 7    1  0.1563687E-015  0.9000768E+02  0.7816164E-02  0.1186339E+00
        -11   -1    0    0    0    0  0.00000000000E+00  0.00000000000E+00  0.45593999997E+02  0.45594000000E+02  0.51100000000E-03 0. -1.
         11   -1    0    0    0    0 -0.00000000000E+00 -0.00000000000E+00 -0.45593999997E+02  0.45594000000E+02  0.51100000000E-03 0.  1.
    9900012    2    1    2    0    0  0.93746463618E+00 -0.16207196118E+00 -0.69860152353E+00  0.90007681673E+02  0.89999942271E+02 0.  0.
         12    1    1    2    0    0 -0.93746463618E+00  0.16207196118E+00  0.69860152353E+00  0.11803183271E+01  0.00000000000E+00 0. -1.
         11    1    3    3    0    0  0.87086363812E+01 -0.68105674533E+00 -0.37441936098E+01  0.95038503754E+01  0.51100000000E-03 0. -1.
        -11    1    3    3    0    0  0.15639213678E+02 -0.54357372067E+01 -0.33111340616E+02  0.37020171814E+02  0.51100000000E-03 0.  1.
         12    1    3    3    0    0 -0.23410385423E+02  0.59547219908E+01  0.36156932702E+02  0.43483659484E+02  0.00000000000E+00 0. -1.
</event>
<event>
 7    1  0.1501154E-015  0.9000772E+02  0.7816164E-02  0.1186339E+00
        -11   -1    0    0    0    0  0.00000000000E+00  0.00000000000E+00  0.45593999997E+02  0.45594000000E+02  0.51100000000E-03 0.  1.
         11   -1    0    0    0    0 -0.00000000000E+00 -0.00000000000E+00 -0.45593999997E+02  0.45594000000E+02  0.51100000000E-03 0. -1.
    9900012    2    1    2    0    0 -0.59010705832E+00 -0.99322439532E+00  0.24155265964E+00  0.90007716675E+02  0.89999977735E+02 0.  0.
         12    1    1    2    0    0  0.59010705832E+00  0.99322439532E+00 -0.24155265964E+00  0.11802833249E+01  0.00000000000E+00 0. -1.
         11    1    3    3    0    0  0.10949793778E+01  0.31254381287E+01  0.78216324182E+01  0.84938376063E+01  0.51100000000E-03 0. -1.
        -11    1    3    3    0    0  0.96225639601E+01  0.27922512936E+02  0.21709246612E+02  0.36654492965E+02  0.51100000000E-03 0.  1.
         12    1    3    3    0    0 -0.11307650396E+02 -0.32041175460E+02 -0.29289326370E+02  0.44859386103E+02  0.00000000000E+00 0. -1.
</event>
<event>
 7    1  0.1501154E-015  0.9000786E+02  0.7816164E-02  0.1186339E+00
        -11   -1    0    0    0    0  0.00000000000E+00  0.00000000000E+00  0.45593999997E+02  0.45594000000E+02  0.51100000000E-03 0. -1.
         11   -1    0    0    0    0 -0.00000000000E+00 -0.00000000000E+00 -0.45593999997E+02  0.45594000000E+02  0.51100000000E-03 0.  1.
    9900012    2    1    2    0    0  0.72603838068E+00 -0.76965462952E+00 -0.52271117756E+00  0.90007861468E+02  0.90000124440E+02 0.  0.
         12    1    1    2    0    0 -0.72603838068E+00  0.76965462952E+00  0.52271117756E+00  0.11801385317E+01  0.00000000000E+00 0. -1.
         11    1    3    3    0    0 -0.85009193761E+01 -0.18012856982E+02  0.26157411710E+02  0.32877634260E+02  0.51100000000E-03 0. -1.
        -11    1    3    3    0    0 -0.17848268914E+02  0.10059228632E+01 -0.41707913151E+01  0.18356690455E+02  0.51100000000E-03 0.  1.
        -12    1    3    3    0    0  0.27075226671E+02  0.16237279490E+02 -0.22509331572E+02  0.38773536753E+02  0.00000000000E+00 0.  1.
</event>
<event>
 7    1  0.1501154E-015  0.9000765E+02  0.7816164E-02  0.1186339E+00
        -11   -1    0    0    0    0  0.00000000000E+00  0.00000000000E+00  0.45593999997E+02  0.45594000000E+02  0.51100000000E-03 0.  1.
         11   -1    0    0    0    0 -0.00000000000E+00 -0.00000000000E+00 -0.45593999997E+02  0.45594000000E+02  0.51100000000E-03 0. -1.
    9900012    2    1    2    0    0 -0.65670838401E+00 -0.54431199984E+00  0.81589079657E+00  0.90007652913E+02  0.89999913131E+02 0.  0.
         12    1    1    2    0    0  0.65670838401E+00  0.54431199984E+00 -0.81589079657E+00  0.11803470874E+01  0.00000000000E+00 0. -1.
         11    1    3    3    0    0 -0.17005928059E+01 -0.13472112839E+02 -0.32344393597E+02  0.35079190949E+02  0.51100000000E-03 0. -1.
        -11    1    3    3    0    0 -0.74676978071E+00 -0.38465801529E+01 -0.88385754115E+01  0.96682087040E+01  0.51100000000E-03 0.  1.
        -12    1    3    3    0    0  0.17906542026E+01  0.16774380992E+02  0.41998859805E+02  0.45260253259E+02  0.00000000000E+00 0.  1.
</event>
<event>
 7    1  0.1501154E-015  0.9000768E+02  0.7816164E-02  0.1186339E+00
        -11   -1    0    0    0    0  0.00000000000E+00  0.00000000000E+00  0.45593999997E+02  0.45594000000E+02  0.51100000000E-03 0. -1.
         11   -1    0    0    0    0 -0.00000000000E+00 -0.00000000000E+00 -0.45593999997E+02  0.45594000000E+02  0.51100000000E-03 0.  1.
    9900012    2    1    2    0    0  0.86423935088E+00 -0.78560162186E+00  0.17053512063E+00  0.90007677251E+02  0.89999937791E+02 0.  0.
         12    1    1    2    0    0 -0.86423935088E+00  0.78560162186E+00 -0.17053512063E+00  0.11803227488E+01  0.00000000000E+00 0. -1.
         11    1    3    3    0    0 -0.18210939507E+01  0.11185141281E+01  0.73868318178E+01  0.76897816352E+01  0.51100000000E-03 0. -1.
        -11    1    3    3    0    0  0.29180799293E+02 -0.11299946459E+02  0.24641753004E+02  0.39829936338E+02  0.51100000000E-03 0.  1.
         12    1    3    3    0    0 -0.26495465992E+02  0.93958307090E+01 -0.31858049701E+02  0.42487959278E+02  0.00000000000E+00 0. -1.
</event>
<event>
 7    1  0.1501154E-015  0.9000773E+02  0.7816164E-02  0.1186339E+00
        -11   -1    0    0    0    0  0.00000000000E+00  0.00000000000E+00  0.45593999997E+02  0.45594000000E+02  0.51100000000E-03 0. -1.
         11   -1    0    0    0    0 -0.00000000000E+00 -0.00000000000E+00 -0.45593999997E+02  0.45594000000E+02  0.51100000000E-03 0.  1.
    9900012    2    1    2    0    0  0.33185074067E+00  0.10133017717E+01 -0.50610490207E+00  0.90007725639E+02  0.89999986818E+02 0.  0.
         12    1    1    2    0    0 -0.33185074067E+00 -0.10133017717E+01  0.50610490207E+00  0.11802743607E+01  0.00000000000E+00 0. -1.
         11    1    3    3    0    0  0.27528600138E+02  0.70300417329E+01  0.22129585436E+02  0.36013384514E+02  0.51100000000E-03 0. -1.
        -11    1    3    3    0    0  0.21834876177E+01  0.83481957556E+01  0.60124893585E+01  0.10517129794E+02  0.51100000000E-03 0.  1.
        -12    1    3    3    0    0 -0.29380237015E+02 -0.14364935717E+02 -0.28648179697E+02  0.43477211331E+02  0.00000000000E+00 0.  1.
</event>
<event>
 7    1  0.1501154E-015  0.9000768E+02  0.7816164E-02  0.1186339E+00
        -11   -1    0    0    0    0  0.00000000000E+00  0.00000000000E+00  0.45593999997E+02  0.45594000000E+02  0.51100000000E-03 0. -1.
         11   -1    0    0    0    0 -0.00000000000E+00 -0.00000000000E+00 -0.45593999997E+02  0.45594000000E+02  0.51100000000E-03 0.  1.
    9900012    2    1    2    0    0  0.29940372701E+00  0.10522390289E+01 -0.44305503434E+00  0.90007683378E+02  0.89999943998E+02 0.  0.
         12    1    1    2    0    0 -0.29940372701E+00 -0.10522390289E+01  0.44305503434E+00  0.11803166224E+01  0.00000000000E+00 0. -1.
         11    1    3    3    0    0  0.13741110789E+02 -0.22484347064E+02 -0.28924721858E+02  0.39128040117E+02  0.51100000000E-03 0. -1.
        -11    1    3    3    0    0  0.86865634889E+01  0.44554474548E+01 -0.43329212059E+00  0.97721614596E+01  0.51100000000E-03 0.  1.
        -12    1    3    3    0    0 -0.22128270550E+02  0.19081138638E+02  0.28914958944E+02  0.41107481801E+02  0.00000000000E+00 0.  1.
</event>
<event>
 7    1  0.1501154E-015  0.9000772E+02  0.7816164E-02  0.1186339E+00
        -11   -1    0    0    0    0  0.00000000000E+00  0.00000000000E+00  0.45593999997E+02  0.45594000000E+02  0.51100000000E-03 0.  1.
         11   -1    0    0    0    0 -0.00000000000E+00 -0.00000000000E+00 -0.45593999997E+02  0.45594000000E+02  0.51100000000E-03 0. -1.
    9900012    2    1    2    0    0  0.89159227326E+00  0.38159542817E+00  0.67269382315E+00  0.90007716631E+02  0.89999977690E+02 0.  0.
         12    1    1    2    0    0 -0.89159227326E+00 -0.38159542817E+00 -0.67269382315E+00  0.11802833695E+01  0.00000000000E+00 0. -1.
         11    1    3    3    0    0 -0.94750175243E+01  0.21761353079E+02 -0.26341791402E+02  0.35457332380E+02  0.51100000000E-03 0. -1.
        -11    1    3    3    0    0 -0.30206732616E+01  0.97296496266E+01 -0.14744736611E+01  0.10293911873E+02  0.51100000000E-03 0.  1.
        -12    1    3    3    0    0  0.13387283059E+02 -0.31109407278E+02  0.28488958887E+02  0.44256472378E+02  0.00000000000E+00 0.  1.
</event>
<event>
 7    1  0.1501154E-015  0.9000772E+02  0.7816164E-02  0.1186339E+00
        -11   -1    0    0    0    0  0.00000000000E+00  0.00000000000E+00  0.45593999997E+02  0.45594000000E+02  0.51100000000E-03 0.  1.
         11   -1    0    0    0    0 -0.00000000000E+00 -0.00000000000E+00 -0.45593999997E+02  0.45594000000E+02  0.51100000000E-03 0. -1.
    9900012    2    1    2    0    0  0.41892997082E+00 -0.91981283439E+00  0.60950738378E+00  0.90007721549E+02  0.89999982674E+02 0.  0.
         12    1    1    2    0    0 -0.41892997082E+00  0.91981283439E+00 -0.60950738378E+00  0.11802784509E+01  0.00000000000E+00 0. -1.
         11    1    3    3    0    0 -0.45889142233E+01  0.24711656698E+01 -0.87605488923E+01  0.10193724083E+02  0.51100000000E-03 0. -1.
        -11    1    3    3    0    0 -0.33542356415E+02 -0.12208607878E+02  0.17003750568E+02  0.39538175398E+02  0.51100000000E-03 0.  1.
         12    1    3    3    0    0  0.38550200609E+02  0.88176293735E+01 -0.76336942916E+01  0.40275822069E+02  0.00000000000E+00 0. -1.
</event>
<event>
 7    1  0.1501154E-015  0.9000774E+02  0.7816164E-02  0.1186339E+00
        -11   -1    0    0    0    0  0.00000000000E+00  0.00000000000E+00  0.45593999997E+02  0.45594000000E+02  0.51100000000E-03 0. -1.
         11   -1    0    0    0    0 -0.00000000000E+00 -0.00000000000E+00 -0.45593999997E+02  0.45594000000E+02  0.51100000000E-03 0.  1.
    9900012    2    1    2    0    0  0.71769056027E+00 -0.34134248124E-03 -0.93698317338E+00  0.90007738451E+02  0.89999999799E+02 0.  0.
         12    1    1    2    0    0 -0.71769056027E+00  0.34134248124E-03  0.93698317338E+00  0.11802615490E+01  0.00000000000E+00 0. -1.
         11    1    3    3    0    0 -0.19157268528E+02 -0.28084897751E+02  0.19847747799E+02  0.39366172180E+02  0.51100000000E-03 0. -1.
        -11    1    3    3    0    0 -0.41180426466E+01 -0.36787365983E+01  0.42271381422E+00  0.55380561055E+01  0.51100000000E-03 0.  1.
        -12    1    3    3    0    0  0.23993001735E+02  0.31763293007E+02 -0.21207444786E+02  0.45103510166E+02  0.00000000000E+00 0.  1.
</event>
<event>
 7    1  0.1501154E-015  0.9000777E+02  0.7816164E-02  0.1186339E+00
        -11   -1    0    0    0    0  0.00000000000E+00  0.00000000000E+00  0.45593999997E+02  0.45594000000E+02  0.51100000000E-03 0. -1.
         11   -1    0    0    0    0 -0.00000000000E+00 -0.00000000000E+00 -0.45593999997E+02  0.45594000000E+02  0.51100000000E-03 0.  1.
    9900012    2    1    2    0    0 -0.22077272592E+00 -0.19558040509E+00 -0.11427810470E+01  0.90007770864E+02  0.90000032640E+02 0.  0.
         12    1    1    2    0    0  0.22077272592E+00  0.19558040509E+00  0.11427810470E+01  0.11802291357E+01  0.00000000000E+00 0. -1.
         11    1    3    3    0    0 -0.31934500399E+01  0.71641837428E+01  0.22000365243E+01  0.81463987644E+01  0.51100000000E-03 0. -1.
        -11    1    3    3    0    0  0.25792613290E+02 -0.25622023509E+01 -0.34370277371E+02  0.43048109692E+02  0.51100000000E-03 0.  1.
         12    1    3    3    0    0 -0.22819935976E+02 -0.47975617970E+01  0.31027459800E+02  0.38813262408E+02  0.00000000000E+00 0. -1.
</event>
<event>
 7    1  0.1501154E-015  0.9000780E+02  0.7816164E-02  0.1186339E+00
        -11   -1    0    0    0    0  0.00000000000E+00  0.00000000000E+00  0.45593999997E+02  0.45594000000E+02  0.51100000000E-03 0.  1.
         11   -1    0    0    0    0 -0.00000000000E+00 -0.00000000000E+00 -0.45593999997E+02  0.45594000000E+02  0.51100000000E-03 0. -1.
    9900012    2    1    2    0    0 -0.95122676153E+00  0.53844177114E+00  0.44510723724E+00  0.90007799871E+02  0.90000062029E+02 0.  0.
         12    1    1    2    0    0  0.95122676153E+00 -0.53844177114E+00 -0.44510723724E+00  0.11802001294E+01  0.00000000000E+00 0. -1.
         11    1    3    3    0    0 -0.42637500192E-02 -0.34510270122E+01  0.89969119396E+01  0.96360796140E+01  0.51100000000E-03 0. -1.
        -11    1    3    3    0    0 -0.17427558101E+02  0.20774442838E+02  0.26658910852E+02  0.38026238108E+02  0.51100000000E-03 0.  1.
         12    1    3    3    0    0  0.16480595090E+02 -0.16784974055E+02 -0.35210715554E+02  0.42345482148E+02  0.00000000000E+00 0. -1.
</event>
<event>
 7    1  0.1501154E-015  0.9000780E+02  0.7816164E-02  0.1186339E+00
        -11   -1    0    0    0    0  0.00000000000E+00  0.00000000000E+00  0.45593999997E+02  0.45594000000E+02  0.51100000000E-03 0.  1.
         11   -1    0    0    0    0 -0.00000000000E+00 -0.00000000000E+00 -0.45593999997E+02  0.45594000000E+02  0.51100000000E-03 0. -1.
    9900012    2    1    2    0    0 -0.82231698953E+00  0.48465004392E+00  0.69409748333E+00  0.90007804163E+02  0.90000066378E+02 0.  0.
         12    1    1    2    0    0  0.82231698953E+00 -0.48465004392E+00 -0.69409748333E+00  0.11801958366E+01  0.00000000000E+00 0. -1.
         11    1    3    3    0    0 -0.95729208181E+00 -0.52817403902E+01 -0.43950119942E+01  0.69375298464E+01  0.51100000000E-03 0. -1.
        -11    1    3    3    0    0  0.65998599982E+01 -0.37357185543E+02 -0.51365334250E+01  0.38281868287E+02  0.51100000000E-03 0.  1.
         12    1    3    3    0    0 -0.64648849059E+01  0.43123575977E+02  0.10225642902E+02  0.44788406030E+02  0.00000000000E+00 0. -1.
</event>
<event>
 7    1  0.1501154E-015  0.9000770E+02  0.7816164E-02  0.1186339E+00
        -11   -1    0    0    0    0  0.00000000000E+00  0.00000000000E+00  0.45593999997E+02  0.45594000000E+02  0.51100000000E-03 0.  1.
         11   -1    0    0    0    0 -0.00000000000E+00 -0.00000000000E+00 -0.45593999997E+02  0.45594000000E+02  0.51100000000E-03 0. -1.
    9900012    2    1    2    0    0  0.20516214422E+00 -0.18373195569E+00  0.11477151041E+01  0.90007703894E+02  0.89999964786E+02 0.  0.
         12    1    1    2    0    0 -0.20516214422E+00  0.18373195569E+00 -0.11477151041E+01  0.11802961057E+01  0.00000000000E+00 0. -1.
         11    1    3    3    0    0 -0.22153384934E+02 -0.16845458053E+02 -0.22715024426E+02  0.35923728314E+02  0.51100000000E-03 0. -1.
        -11    1    3    3    0    0 -0.19039160529E+01 -0.11119277519E+02  0.85150232812E+01  0.14133960896E+02  0.51100000000E-03 0.  1.
        -12    1    3    3    0    0  0.24262463131E+02  0.27781003617E+02  0.15347716249E+02  0.39950014683E+02  0.00000000000E+00 0.  1.
</event>
<event>
 7    1  0.1501154E-015  0.9000771E+02  0.7816164E-02  0.1186339E+00
        -11   -1    0    0    0    0  0.00000000000E+00  0.00000000000E+00  0.45593999997E+02  0.45594000000E+02  0.51100000000E-03 0.  1.
         11   -1    0    0    0    0 -0.00000000000E+00 -0.00000000000E+00 -0.45593999997E+02  0.45594000000E+02  0.51100000000E-03 0. -1.
    9900012    2    1    2    0    0 -0.55188818032E+00 -0.45972948796E-01  0.10422958788E+01  0.90007714113E+02  0.89999975139E+02 0.  0.
         12    1    1    2    0    0  0.55188818032E+00  0.45972948796E-01 -0.10422958788E+01  0.11802858868E+01  0.00000000000E+00 0. -1.
         11    1    3    3    0    0  0.19398076018E+02 -0.32035784569E+02 -0.13161328132E+02  0.39696314749E+02  0.51100000000E-03 0. -1.
        -11    1    3    3    0    0  0.58057584815E+01  0.14083519915E+01  0.77914614352E+01  0.98182054590E+01  0.51100000000E-03 0.  1.
        -12    1    3    3    0    0 -0.25755722680E+02  0.30581459629E+02  0.64121625752E+01  0.40493193906E+02  0.00000000000E+00 0.  1.
</event>
<event>
 7    1  0.1501154E-015  0.9000779E+02  0.7816164E-02  0.1186339E+00
        -11   -1    0    0    0    0  0.00000000000E+00  0.00000000000E+00  0.45593999997E+02  0.45594000000E+02  0.51100000000E-03 0.  1.
         11   -1    0    0    0    0 -0.00000000000E+00 -0.00000000000E+00 -0.45593999997E+02  0.45594000000E+02  0.51100000000E-03 0. -1.
    9900012    2    1    2    0    0 -0.94533997343E+00 -0.66153086579E+00  0.24822624079E+00  0.90007785181E+02  0.90000047146E+02 0.  0.
         12    1    1    2    0    0  0.94533997343E+00  0.66153086579E+00 -0.24822624079E+00  0.11802148187E+01  0.00000000000E+00 0. -1.
         11    1    3    3    0    0  0.22990985736E+01  0.86063403804E+01 -0.50735170624E+01  0.10251610831E+02  0.51100000000E-03 0. -1.
        -11    1    3    3    0    0  0.18741197891E+02  0.24011060727E+02 -0.16131415302E+02  0.34467174174E+02  0.51100000000E-03 0.  1.
         12    1    3    3    0    0 -0.21985636438E+02 -0.33278931973E+02  0.21453158605E+02  0.45289000176E+02  0.00000000000E+00 0. -1.
</event>
<event>
 8    1  0.1501154E-015  0.9000766E+02  0.7816164E-02  0.1186339E+00
        -11   -1    0    0    0    0  0.00000000000E+00  0.00000000000E+00  0.45593999997E+02  0.45594000000E+02  0.51100000000E-03 0. -1.
         11   -1    0    0    0    0 -0.00000000000E+00 -0.00000000000E+00 -0.45593999997E+02  0.45594000000E+02  0.51100000000E-03 0.  1.
    9900012    2    1    2    0    0  0.54295214523E+00 -0.58898971150E+00 -0.86689277237E+00  0.90007657257E+02  0.89999917533E+02 0.  0.
         23    2    3    3    0    0  0.10747653540E+02  0.63601365020E+01  0.12215466206E+02  0.72019483305E+02  0.69868626492E+02 0.  0.
         12    1    1    2    0    0 -0.54295214523E+00  0.58898971150E+00  0.86689277237E+00  0.11803427430E+01  0.00000000000E+00 0. -1.
         11    1    4    4    0    0 -0.61227255451E+01 -0.29298323548E+02  0.12834083004E+02  0.32566750185E+02  0.51100000000E-03 0. -1.
        -11    1    4    4    0    0  0.16870379085E+02  0.35658460050E+02 -0.61861679740E+00  0.39452733120E+02  0.51100000000E-03 0.  1.
         12    1    3    3    0    0 -0.10204701395E+02 -0.69491262135E+01 -0.13082358979E+02  0.17988173952E+02  0.00000000000E+00 0. -1.
</event>
<event>
 7    1  0.1501154E-015  0.9000770E+02  0.7816164E-02  0.1186339E+00
        -11   -1    0    0    0    0  0.00000000000E+00  0.00000000000E+00  0.45593999997E+02  0.45594000000E+02  0.51100000000E-03 0.  1.
         11   -1    0    0    0    0 -0.00000000000E+00 -0.00000000000E+00 -0.45593999997E+02  0.45594000000E+02  0.51100000000E-03 0. -1.
    9900012    2    1    2    0    0 -0.94627779341E+00 -0.69629957001E+00 -0.11332470007E+00  0.90007696123E+02  0.89999956912E+02 0.  0.
         12    1    1    2    0    0  0.94627779341E+00  0.69629957001E+00  0.11332470007E+00  0.11803038766E+01  0.00000000000E+00 0. -1.
         11    1    3    3    0    0 -0.98807603323E+01 -0.56763196627E+01  0.15944066280E+01  0.11506179314E+02  0.51100000000E-03 0. -1.
        -11    1    3    3    0    0 -0.15824043180E+02  0.18569854640E+02  0.28251716452E+02  0.37328264447E+02  0.51100000000E-03 0.  1.
         12    1    3    3    0    0  0.24758525718E+02 -0.13589834547E+02 -0.29959447780E+02  0.41173252362E+02  0.00000000000E+00 0. -1.
</event>
<event>
 7    1  0.1501154E-015  0.9000768E+02  0.7816164E-02  0.1186339E+00
        -11   -1    0    0    0    0  0.00000000000E+00  0.00000000000E+00  0.45593999997E+02  0.45594000000E+02  0.51100000000E-03 0. -1.
         11   -1    0    0    0    0 -0.00000000000E+00 -0.00000000000E+00 -0.45593999997E+02  0.45594000000E+02  0.51100000000E-03 0.  1.
    9900012    2    1    2    0    0  0.69756051379E+00  0.60436405261E+00 -0.73573398753E+00  0.90007681789E+02  0.89999942389E+02 0.  0.
         12    1    1    2    0    0 -0.69756051379E+00 -0.60436405261E+00  0.73573398753E+00  0.11803182109E+01  0.00000000000E+00 0. -1.
         11    1    3    3    0    0 -0.31026748359E+02 -0.34363814976E+01 -0.18862668566E+02  0.36472840542E+02  0.51100000000E-03 0. -1.
        -11    1    3    3    0    0  0.77965208221E+01 -0.51614808987E+01 -0.11195064955E+02  0.14586161305E+02  0.51100000000E-03 0.  1.
        -12    1    3    3    0    0  0.23927788050E+02  0.92022264489E+01  0.29321999534E+02  0.38948679942E+02  0.00000000000E+00 0.  1.
</event>
<event>
 7    1  0.1501154E-015  0.9000776E+02  0.7816164E-02  0.1186339E+00
        -11   -1    0    0    0    0  0.00000000000E+00  0.00000000000E+00  0.45593999997E+02  0.45594000000E+02  0.51100000000E-03 0.  1.
         11   -1    0    0    0    0 -0.00000000000E+00 -0.00000000000E+00 -0.45593999997E+02  0.45594000000E+02  0.51100000000E-03 0. -1.
    9900012    2    1    2    0    0 -0.25475731151E+00 -0.11102241008E+01 -0.30897178079E+00  0.90007761718E+02  0.90000023372E+02 0.  0.
         12    1    1    2    0    0  0.25475731151E+00  0.11102241008E+01  0.30897178079E+00  0.11802382824E+01  0.00000000000E+00 0. -1.
         11    1    3    3    0    0 -0.59726535082E+01 -0.49312127321E+01 -0.17455431607E+01  0.79395447052E+01  0.51100000000E-03 0. -1.
        -11    1    3    3    0    0  0.39643829295E+02 -0.15868965141E+02  0.30366814463E+01  0.42809796663E+02  0.51100000000E-03 0.  1.
         12    1    3    3    0    0 -0.33925933098E+02  0.19689953772E+02 -0.16001100664E+01  0.39258420350E+02  0.00000000000E+00 0. -1.
</event>
<event>
 7    1  0.1501154E-015  0.9000796E+02  0.7816164E-02  0.1186339E+00
        -11   -1    0    0    0    0  0.00000000000E+00  0.00000000000E+00  0.45593999997E+02  0.45594000000E+02  0.51100000000E-03 0.  1.
         11   -1    0    0    0    0 -0.00000000000E+00 -0.00000000000E+00 -0.45593999997E+02  0.45594000000E+02  0.51100000000E-03 0. -1.
    9900012    2    1    2    0    0  0.84800361073E+00  0.77965436128E+00  0.25597866088E+00  0.90007959271E+02  0.90000223533E+02 0.  0.
         12    1    1    2    0    0 -0.84800361073E+00 -0.77965436128E+00 -0.25597866088E+00  0.11800407288E+01  0.00000000000E+00 0. -1.
         11    1    3    3    0    0  0.33027381647E+02  0.22217825239E+02  0.25086462491E+01  0.39883994322E+02  0.51100000000E-03 0. -1.
        -11    1    3    3    0    0 -0.61296219510E+01  0.84080162476E+01  0.46383610871E+00  0.10415476306E+02  0.51100000000E-03 0.  1.
        -12    1    3    3    0    0 -0.26049756085E+02 -0.29846187125E+02 -0.27165036970E+01  0.39708488643E+02  0.00000000000E+00 0.  1.
</event>
<event>
 7    1  0.1501154E-015  0.9000770E+02  0.7816164E-02  0.1186339E+00
        -11   -1    0    0    0    0  0.00000000000E+00  0.00000000000E+00  0.45593999997E+02  0.45594000000E+02  0.51100000000E-03 0.  1.
         11   -1    0    0    0    0 -0.00000000000E+00 -0.00000000000E+00 -0.45593999997E+02  0.45594000000E+02  0.51100000000E-03 0. -1.
    9900012    2    1    2    0    0 -0.12914620282E+00  0.11176454375E+01  0.35677755787E+00  0.90007703304E+02  0.89999964187E+02 0.  0.
         12    1    1    2    0    0  0.12914620282E+00 -0.11176454375E+01 -0.35677755787E+00  0.11802966963E+01  0.00000000000E+00 0. -1.
         11    1    3    3    0    0 -0.91827031923E+01  0.49213106288E+00  0.67856799409E+00  0.92208831293E+01  0.51100000000E-03 0. -1.
        -11    1    3    3    0    0  0.38866457725E+01 -0.31823495510E+02 -0.24200740911E+02  0.40168603943E+02  0.51100000000E-03 0.  1.
         12    1    3    3    0    0  0.51669112170E+01  0.32449009885E+02  0.23878950475E+02  0.40618216231E+02  0.00000000000E+00 0. -1.
</event>
<event>
 7    1  0.1501154E-015  0.9000758E+02  0.7816164E-02  0.1186339E+00
        -11   -1    0    0    0    0  0.00000000000E+00  0.00000000000E+00  0.45593999997E+02  0.45594000000E+02  0.51100000000E-03 0.  1.
         11   -1    0    0    0    0 -0.00000000000E+00 -0.00000000000E+00 -0.45593999997E+02  0.45594000000E+02  0.51100000000E-03 0. -1.
    9900012    2    1    2    0    0 -0.51942126690E+00 -0.65063731140E+00  0.83681216508E+00  0.90007583987E+02  0.89999843296E+02 0.  0.
         12    1    1    2    0    0  0.51942126690E+00  0.65063731140E+00 -0.83681216508E+00  0.11804160127E+01  0.00000000000E+00 0. -1.
         11    1    3    3    0    0 -0.77530104650E+01  0.16444348301E+02 -0.65243622151E+01  0.19315617124E+02  0.51100000000E-03 0. -1.
        -11    1    3    3    0    0 -0.58581969406E+01  0.11135956471E+02  0.29786216515E+02  0.32334914449E+02  0.51100000000E-03 0.  1.
        -12    1    3    3    0    0  0.13091786139E+02 -0.28230942083E+02 -0.22425042134E+02  0.38357052414E+02  0.00000000000E+00 0.  1.
</event>
<event>
 7    1  0.1501154E-015  0.9000811E+02  0.7816164E-02  0.1186338E+00
        -11   -1    0    0    0    0  0.00000000000E+00  0.00000000000E+00  0.45593999997E+02  0.45594000000E+02  0.51100000000E-03 0.  1.
         11   -1    0    0    0    0 -0.00000000000E+00 -0.00000000000E+00 -0.45593999997E+02  0.45594000000E+02  0.51100000000E-03 0. -1.
    9900012    2    1    2    0    0 -0.22026781198E+00 -0.16500659468E+00  0.11473463936E+01  0.90008106432E+02  0.90000372636E+02 0.  0.
         12    1    1    2    0    0  0.22026781198E+00  0.16500659468E+00 -0.11473463936E+01  0.11798935681E+01  0.00000000000E+00 0. -1.
         11    1    3    3    0    0 -0.48922428281E+01 -0.17092271183E+02 -0.31951742325E+02  0.36564923246E+02  0.51100000000E-03 0. -1.
        -11    1    3    3    0    0  0.52953116591E+01  0.38449102834E+01 -0.79838555038E+01  0.10323062027E+02  0.51100000000E-03 0.  1.
        -12    1    3    3    0    0 -0.62333664294E+00  0.13082354305E+02  0.41082944223E+02  0.43120121159E+02  0.00000000000E+00 0.  1.
</event>
<event>
 7    1  0.1501154E-015  0.9000770E+02  0.7816164E-02  0.1186339E+00
        -11   -1    0    0    0    0  0.00000000000E+00  0.00000000000E+00  0.45593999997E+02  0.45594000000E+02  0.51100000000E-03 0.  1.
         11   -1    0    0    0    0 -0.00000000000E+00 -0.00000000000E+00 -0.45593999997E+02  0.45594000000E+02  0.51100000000E-03 0. -1.
    9900012    2    1    2    0    0  0.63720552134E+00  0.22662383603E+00  0.96732583450E+00  0.90007699822E+02  0.89999960660E+02 0.  0.
         12    1    1    2    0    0 -0.63720552134E+00 -0.22662383603E+00 -0.96732583450E+00  0.11803001777E+01  0.00000000000E+00 0. -1.
         11    1    3    3    0    0 -0.93639272978E+00  0.85948815467E+01  0.39389072604E+01  0.95007268571E+01  0.51100000000E-03 0. -1.
        -11    1    3    3    0    0 -0.65204854672E+01 -0.22494683274E+02  0.33321723855E+02  0.40729163842E+02  0.51100000000E-03 0.  1.
         12    1    3    3    0    0  0.80940837184E+01  0.14126425563E+02 -0.36293305281E+02  0.39777809123E+02  0.00000000000E+00 0. -1.
</event>
<event>
 7    1  0.1501154E-015  0.9000764E+02  0.7816164E-02  0.1186339E+00
        -11   -1    0    0    0    0  0.00000000000E+00  0.00000000000E+00  0.45593999997E+02  0.45594000000E+02  0.51100000000E-03 0. -1.
         11   -1    0    0    0    0 -0.00000000000E+00 -0.00000000000E+00 -0.45593999997E+02  0.45594000000E+02  0.51100000000E-03 0.  1.
    9900012    2    1    2    0    0 -0.92007801016E+00  0.66087736945E-01 -0.73643250098E+00  0.90007642443E+02  0.89999902523E+02 0.  0.
         12    1    1    2    0    0  0.92007801016E+00 -0.66087736945E-01  0.73643250098E+00  0.11803575570E+01  0.00000000000E+00 0. -1.
         11    1    3    3    0    0 -0.45849184044E+01 -0.61722591974E+01  0.78611647840E+01  0.10996188994E+02  0.51100000000E-03 0. -1.
        -11    1    3    3    0    0 -0.54408951886E+01  0.23924946333E+02 -0.36963327868E+02  0.44365459592E+02  0.51100000000E-03 0.  1.
         12    1    3    3    0    0  0.91057355829E+01 -0.17686599398E+02  0.28365730583E+02  0.34645993856E+02  0.00000000000E+00 0. -1.
</event>
<event>
 7    1  0.1501154E-015  0.9000785E+02  0.7816164E-02  0.1186339E+00
        -11   -1    0    0    0    0  0.00000000000E+00  0.00000000000E+00  0.45593999997E+02  0.45594000000E+02  0.51100000000E-03 0. -1.
         11   -1    0    0    0    0 -0.00000000000E+00 -0.00000000000E+00 -0.45593999997E+02  0.45594000000E+02  0.51100000000E-03 0.  1.
    9900012    2    1    2    0    0 -0.72197955184E+00 -0.29001375779E+00 -0.88734592854E+00  0.90007853717E+02  0.90000116586E+02 0.  0.
         12    1    1    2    0    0  0.72197955184E+00  0.29001375779E+00  0.88734592854E+00  0.11801462833E+01  0.00000000000E+00 0. -1.
         11    1    3    3    0    0 -0.10633474258E+02 -0.29450601637E+02 -0.27094768148E+02  0.41406945949E+02  0.51100000000E-03 0. -1.
        -11    1    3    3    0    0  0.38294844481E+01 -0.47622222237E+01  0.64076617323E+01  0.88544813955E+01  0.51100000000E-03 0.  1.
        -12    1    3    3    0    0  0.60820102583E+01  0.33922810103E+02  0.19799760487E+02  0.39746426372E+02  0.00000000000E+00 0.  1.
</event>
<event>
 7    1  0.1501154E-015  0.9000776E+02  0.7816164E-02  0.1186339E+00
        -11   -1    0    0    0    0  0.00000000000E+00  0.00000000000E+00  0.45593999997E+02  0.45594000000E+02  0.51100000000E-03 0. -1.
         11   -1    0    0    0    0 -0.00000000000E+00 -0.00000000000E+00 -0.45593999997E+02  0.45594000000E+02  0.51100000000E-03 0.  1.
    9900012    2    1    2    0    0 -0.26124673335E+00  0.37891822949E+00 -0.10867995723E+01  0.90007761808E+02  0.90000023464E+02 0.  0.
         12    1    1    2    0    0  0.26124673335E+00 -0.37891822949E+00  0.10867995723E+01  0.11802381923E+01  0.00000000000E+00 0. -1.
         11    1    3    3    0    0 -0.34021054855E+02 -0.17315970372E+02  0.41501831186E+01  0.38399206028E+02  0.51100000000E-03 0. -1.
        -11    1    3    3    0    0  0.24851511141E+01 -0.68189652779E+01 -0.91504588907E+01  0.11679262035E+02  0.51100000000E-03 0.  1.
        -12    1    3    3    0    0  0.31274657008E+02  0.24513853879E+02  0.39134761997E+01  0.39929293745E+02  0.00000000000E+00 0.  1.
</event>
<event>
 7    1  0.1501154E-015  0.9000732E+02  0.7816164E-02  0.1186340E+00
        -11   -1    0    0    0    0  0.00000000000E+00  0.00000000000E+00  0.45593999997E+02  0.45594000000E+02  0.51100000000E-03 0.  1.
         11   -1    0    0    0    0 -0.00000000000E+00 -0.00000000000E+00 -0.45593999997E+02  0.45594000000E+02  0.51100000000E-03 0. -1.
    9900012    2    1    2    0    0 -0.85258452357E+00 -0.81422673921E+00  0.64371663836E-01  0.90007318305E+02  0.89999574106E+02 0.  0.
         12    1    1    2    0    0  0.85258452357E+00  0.81422673921E+00 -0.64371663836E-01  0.11806816945E+01  0.00000000000E+00 0. -1.
         11    1    3    3    0    0  0.42960161348E+01  0.22674200448E+01  0.91223278107E+01  0.10335076838E+02  0.51100000000E-03 0. -1.
        -11    1    3    3    0    0  0.49640102489E+01  0.37241189748E+02 -0.50354071423E+01  0.37906502568E+02  0.51100000000E-03 0.  1.
         12    1    3    3    0    0 -0.10112610907E+02 -0.40322836532E+02 -0.40225490046E+01  0.41765738900E+02  0.00000000000E+00 0. -1.
</event>
<event>
 7    1  0.1501154E-015  0.9000774E+02  0.7816164E-02  0.1186339E+00
        -11   -1    0    0    0    0  0.00000000000E+00  0.00000000000E+00  0.45593999997E+02  0.45594000000E+02  0.51100000000E-03 0.  1.
         11   -1    0    0    0    0 -0.00000000000E+00 -0.00000000000E+00 -0.45593999997E+02  0.45594000000E+02  0.51100000000E-03 0. -1.
    9900012    2    1    2    0    0 -0.46725986742E+00  0.10798647151E+01  0.92556581593E-01  0.90007743118E+02  0.90000004527E+02 0.  0.
         12    1    1    2    0    0  0.46725986742E+00 -0.10798647151E+01 -0.92556581593E-01  0.11802568820E+01  0.00000000000E+00 0. -1.
         11    1    3    3    0    0 -0.20847499324E+02 -0.29264850499E+02  0.13545845806E+02  0.38399734916E+02  0.51100000000E-03 0. -1.
        -11    1    3    3    0    0 -0.94713770608E+01  0.59616387896E+01 -0.17587208206E+01  0.11328778384E+02  0.51100000000E-03 0.  1.
        -12    1    3    3    0    0  0.29851616517E+02  0.24383076424E+02 -0.11694568404E+02  0.40279229818E+02  0.00000000000E+00 0.  1.
</event>
<event>
 7    1  0.1988875E-015  0.9000771E+02  0.7816164E-02  0.1186339E+00
        -11   -1    0    0    0    0  0.00000000000E+00  0.00000000000E+00  0.45593999997E+02  0.45594000000E+02  0.51100000000E-03 0. -1.
         11   -1    0    0    0    0 -0.00000000000E+00 -0.00000000000E+00 -0.45593999997E+02  0.45594000000E+02  0.51100000000E-03 0.  1.
    9900012    2    1    2    0    0 -0.99187280762E-01 -0.83358744645E-01 -0.11731616034E+01  0.90007705569E+02  0.89999966482E+02 0.  0.
         12    1    1    2    0    0  0.99187280762E-01  0.83358744645E-01  0.11731616034E+01  0.11802944314E+01  0.00000000000E+00 0. -1.
         11    1    3    3    0    0  0.16648217591E+02 -0.12213703943E+02  0.29132886517E+02  0.35708021368E+02  0.51100000000E-03 0. -1.
        -11    1    3    3    0    0  0.48179090225E+01  0.11448148459E+00  0.76382098051E+01  0.90314784309E+01  0.51100000000E-03 0.  1.
        -12    1    3    3    0    0 -0.21565313894E+02  0.12015863713E+02 -0.37944257925E+02  0.45268205770E+02  0.00000000000E+00 0.  1.
</event>
<event>
 7    1  0.1501154E-015  0.9000811E+02  0.7816164E-02  0.1186338E+00
        -11   -1    0    0    0    0  0.00000000000E+00  0.00000000000E+00  0.45593999997E+02  0.45594000000E+02  0.51100000000E-03 0.  1.
         11   -1    0    0    0    0 -0.00000000000E+00 -0.00000000000E+00 -0.45593999997E+02  0.45594000000E+02  0.51100000000E-03 0. -1.
    9900012    2    1    2    0    0  0.77722812347E+00 -0.87200616116E+00 -0.16633904240E+00  0.90008107218E+02  0.90000373432E+02 0.  0.
         12    1    1    2    0    0 -0.77722812347E+00  0.87200616116E+00  0.16633904240E+00  0.11798927824E+01  0.00000000000E+00 0. -1.
         11    1    3    3    0    0  0.89166306646E+01 -0.29583189189E+01 -0.70762348144E+01  0.11761422220E+02  0.51100000000E-03 0. -1.
        -11    1    3    3    0    0  0.17313934792E+02 -0.16949674749E+02 -0.23862172480E+02  0.34006868245E+02  0.51100000000E-03 0.  1.
         12    1    3    3    0    0 -0.25453337333E+02  0.19035987507E+02  0.30772068252E+02  0.44239816752E+02  0.00000000000E+00 0. -1.
</event>
<event>
 7    1  0.1945037E-015  0.9000764E+02  0.7816164E-02  0.1186339E+00
        -11   -1    0    0    0    0  0.00000000000E+00  0.00000000000E+00  0.45593999997E+02  0.45594000000E+02  0.51100000000E-03 0. -1.
         11   -1    0    0    0    0 -0.00000000000E+00 -0.00000000000E+00 -0.45593999997E+02  0.45594000000E+02  0.51100000000E-03 0.  1.
    9900012    2    1    2    0    0 -0.25218878618E+00  0.61747581346E+00 -0.97384525439E+00  0.90007639825E+02  0.89999899870E+02 0.  0.
         12    1    1    2    0    0  0.25218878618E+00 -0.61747581346E+00  0.97384525439E+00  0.11803601754E+01  0.00000000000E+00 0. -1.
         11    1    3    3    0    0  0.15699681410E+02 -0.11138501095E+02  0.30300660281E+02  0.35898136675E+02  0.51100000000E-03 0. -1.
        -11    1    3    3    0    0  0.55611347671E+01 -0.83431820409E+01  0.14040967124E+01  0.10124544153E+02  0.51100000000E-03 0.  1.
        -12    1    3    3    0    0 -0.21513004963E+02  0.20099158949E+02 -0.32678602248E+02  0.43984958996E+02  0.00000000000E+00 0.  1.
</event>
<event>
 7    1  0.1501154E-015  0.9000766E+02  0.7816164E-02  0.1186339E+00
        -11   -1    0    0    0    0  0.00000000000E+00  0.00000000000E+00  0.45593999997E+02  0.45594000000E+02  0.51100000000E-03 0.  1.
         11   -1    0    0    0    0 -0.00000000000E+00 -0.00000000000E+00 -0.45593999997E+02  0.45594000000E+02  0.51100000000E-03 0. -1.
    9900012    2    1    2    0    0 -0.10882302408E+01  0.31242391554E+00  0.33367567669E+00  0.90007663939E+02  0.89999924303E+02 0.  0.
         12    1    1    2    0    0  0.10882302408E+01 -0.31242391554E+00 -0.33367567669E+00  0.11803360612E+01  0.00000000000E+00 0. -1.
         11    1    3    3    0    0 -0.58526567184E+01  0.42934951492E+01 -0.57405300928E+00  0.72812930430E+01  0.51100000000E-03 0. -1.
        -11    1    3    3    0    0 -0.16806747530E+01  0.36599819954E+02 -0.13702185402E+02  0.39116765886E+02  0.51100000000E-03 0.  1.
         12    1    3    3    0    0  0.64451012306E+01 -0.40580891188E+02  0.14609914088E+02  0.43609605010E+02  0.00000000000E+00 0. -1.
</event>
<event>
 7    1  0.1501154E-015  0.9000782E+02  0.7816164E-02  0.1186339E+00
        -11   -1    0    0    0    0  0.00000000000E+00  0.00000000000E+00  0.45593999997E+02  0.45594000000E+02  0.51100000000E-03 0.  1.
         11   -1    0    0    0    0 -0.00000000000E+00 -0.00000000000E+00 -0.45593999997E+02  0.45594000000E+02  0.51100000000E-03 0. -1.
    9900012    2    1    2    0    0 -0.13514343070E+00  0.11301056730E+01  0.31213908937E+00  0.90007816374E+02  0.90000078751E+02 0.  0.
         12    1    1    2    0    0  0.13514343070E+00 -0.11301056730E+01 -0.31213908937E+00  0.11801836256E+01  0.00000000000E+00 0. -1.
         11    1    3    3    0    0 -0.33183198002E+01  0.81664583079E+01  0.49286987192E+01  0.10099225659E+02  0.51100000000E-03 0. -1.
        -11    1    3    3    0    0  0.37343913608E+01  0.34375667043E+02  0.99908609007E+01  0.35992352872E+02  0.51100000000E-03 0.  1.
         12    1    3    3    0    0 -0.55121499125E+00 -0.41412019678E+02 -0.14607420531E+02  0.43916237843E+02  0.00000000000E+00 0. -1.
</event>
<event>
 7    1  0.1501154E-015  0.9000771E+02  0.7816164E-02  0.1186339E+00
        -11   -1    0    0    0    0  0.00000000000E+00  0.00000000000E+00  0.45593999997E+02  0.45594000000E+02  0.51100000000E-03 0.  1.
         11   -1    0    0    0    0 -0.00000000000E+00 -0.00000000000E+00 -0.45593999997E+02  0.45594000000E+02  0.51100000000E-03 0. -1.
    9900012    2    1    2    0    0 -0.83684478473E+00 -0.83191881625E+00  0.26253341147E-01  0.90007708787E+02  0.89999969743E+02 0.  0.
         12    1    1    2    0    0  0.83684478473E+00  0.83191881625E+00 -0.26253341147E-01  0.11802912134E+01  0.00000000000E+00 0. -1.
         11    1    3    3    0    0  0.76287020700E+01  0.98539026453E+00  0.13631804846E+02  0.15652290339E+02  0.51100000000E-03 0. -1.
        -11    1    3    3    0    0  0.88649909362E+01 -0.15928947552E+02  0.24284373371E+02  0.30365279921E+02  0.51100000000E-03 0.  1.
         12    1    3    3    0    0 -0.17330537791E+02  0.14111638471E+02 -0.37889924876E+02  0.43990138526E+02  0.00000000000E+00 0. -1.
</event>
<event>
 8    1  0.1501154E-015  0.9000775E+02  0.7816164E-02  0.1186339E+00
        -11   -1    0    0    0    0  0.00000000000E+00  0.00000000000E+00  0.45593999997E+02  0.45594000000E+02  0.51100000000E-03 0. -1.
         11   -1    0    0    0    0 -0.00000000000E+00 -0.00000000000E+00 -0.45593999997E+02  0.45594000000E+02  0.51100000000E-03 0.  1.
    9900012    2    1    2    0    0  0.71822765547E+00 -0.57556884400E+00  0.73881938636E+00  0.90007752337E+02  0.90000013868E+02 0.  0.
         23    2    3    3    0    0  0.15120628280E+02 -0.20122217474E+02 -0.13387979890E+02  0.61917414600E+02  0.54963544187E+02 0.  0.
         12    1    1    2    0    0 -0.71822765547E+00  0.57556884400E+00 -0.73881938636E+00  0.11802476625E+01  0.00000000000E+00 0. -1.
         11    1    4    4    0    0  0.13537563475E+02 -0.38930307436E+02 -0.60133412626E+01  0.41653268002E+02  0.51100000000E-03 0. -1.
        -11    1    4    4    0    0  0.15830648046E+01  0.18808089962E+02 -0.73746386276E+01  0.20264146598E+02  0.51100000000E-03 0.  1.
        -12    1    3    3    0    0 -0.14402400624E+02  0.19546648630E+02  0.14126799277E+02  0.28090337738E+02  0.00000000000E+00 0.  1.
</event>
<event>
 7    1  0.1501154E-015  0.9000784E+02  0.7816164E-02  0.1186339E+00
        -11   -1    0    0    0    0  0.00000000000E+00  0.00000000000E+00  0.45593999997E+02  0.45594000000E+02  0.51100000000E-03 0. -1.
         11   -1    0    0    0    0 -0.00000000000E+00 -0.00000000000E+00 -0.45593999997E+02  0.45594000000E+02  0.51100000000E-03 0.  1.
    9900012    2    1    2    0    0  0.70351489942E+00  0.48301789478E+00 -0.81518933693E+00  0.90007841894E+02  0.90000104607E+02 0.  0.
         12    1    1    2    0    0 -0.70351489942E+00 -0.48301789478E+00  0.81518933693E+00  0.11801581061E+01  0.00000000000E+00 0. -1.
         11    1    3    3    0    0  0.17236680793E+01  0.77991416870E+01  0.22523739211E+01  0.82988451752E+01  0.51100000000E-03 0. -1.
        -11    1    3    3    0    0 -0.13411304891E+02  0.23704441846E+02 -0.28728549516E+02  0.39586528260E+02  0.51100000000E-03 0.  1.
         12    1    3    3    0    0  0.12391151711E+02 -0.31020565639E+02  0.25660986258E+02  0.42122468458E+02  0.00000000000E+00 0. -1.
</event>
<event>
 7    1  0.1501154E-015  0.9000776E+02  0.7816164E-02  0.1186339E+00
        -11   -1    0    0    0    0  0.00000000000E+00  0.00000000000E+00  0.45593999997E+02  0.45594000000E+02  0.51100000000E-03 0.  1.
         11   -1    0    0    0    0 -0.00000000000E+00 -0.00000000000E+00 -0.45593999997E+02  0.45594000000E+02  0.51100000000E-03 0. -1.
    9900012    2    1    2    0    0 -0.58612200128E+00 -0.53596084591E+00  0.87302316180E+00  0.90007761689E+02  0.90000023344E+02 0.  0.
         12    1    1    2    0    0  0.58612200128E+00  0.53596084591E+00 -0.87302316180E+00  0.11802383106E+01  0.00000000000E+00 0. -1.
         11    1    3    3    0    0 -0.17038335929E+01 -0.67515272301E+01  0.10935875457E+02  0.12964549399E+02  0.51100000000E-03 0. -1.
        -11    1    3    3    0    0  0.27891949375E+02 -0.19009238592E+02 -0.19613425211E+02  0.39038422619E+02  0.51100000000E-03 0.  1.
         12    1    3    3    0    0 -0.26774237783E+02  0.25224804977E+02  0.95505729166E+01  0.38004789672E+02  0.00000000000E+00 0. -1.
</event>
<event>
 7    1  0.1501154E-015  0.9000775E+02  0.7816164E-02  0.1186339E+00
        -11   -1    0    0    0    0  0.00000000000E+00  0.00000000000E+00  0.45593999997E+02  0.45594000000E+02  0.51100000000E-03 0.  1.
         11   -1    0    0    0    0 -0.00000000000E+00 -0.00000000000E+00 -0.45593999997E+02  0.45594000000E+02  0.51100000000E-03 0. -1.
    9900012    2    1    2    0    0 -0.70657015204E+00  0.86744669832E+00  0.37588265539E+00  0.90007748787E+02  0.90000010271E+02 0.  0.
         12    1    1    2    0    0  0.70657015204E+00 -0.86744669832E+00 -0.37588265539E+00  0.11802512126E+01  0.00000000000E+00 0. -1.
         11    1    3    3    0    0  0.20531120331E+02 -0.47291651870E+01 -0.28608888981E+02  0.35529711994E+02  0.51100000000E-03 0. -1.
        -11    1    3    3    0    0  0.34222881563E+01 -0.30396659512E+01 -0.79868572947E+01  0.92055154677E+01  0.51100000000E-03 0.  1.
        -12    1    3    3    0    0 -0.24659978640E+02  0.86362778365E+01  0.36971628931E+02  0.45272521325E+02  0.00000000000E+00 0.  1.
</event>
<event>
 7    1  0.1501154E-015  0.9000777E+02  0.7816164E-02  0.1186339E+00
        -11   -1    0    0    0    0  0.00000000000E+00  0.00000000000E+00  0.45593999997E+02  0.45594000000E+02  0.51100000000E-03 0. -1.
         11   -1    0    0    0    0 -0.00000000000E+00 -0.00000000000E+00 -0.45593999997E+02  0.45594000000E+02  0.51100000000E-03 0.  1.
    9900012    2    1    2    0    0 -0.72524955769E+00  0.81777255306E+00  0.44520451712E+00  0.90007768696E+02  0.90000030443E+02 0.  0.
         12    1    1    2    0    0  0.72524955769E+00 -0.81777255306E+00 -0.44520451712E+00  0.11802313043E+01  0.00000000000E+00 0. -1.
         11    1    3    3    0    0  0.81388189637E+01  0.14632988054E+02  0.29969575966E+02  0.34329873250E+02  0.51100000000E-03 0. -1.
        -11    1    3    3    0    0  0.15751868620E+01 -0.57226708781E+01  0.11303198356E+02  0.12766850393E+02  0.51100000000E-03 0.  1.
        -12    1    3    3    0    0 -0.10439255383E+02 -0.80925446232E+01 -0.40827569804E+02  0.42911045053E+02  0.00000000000E+00 0.  1.
</event>
<event>
 7    1  0.1501154E-015  0.9000783E+02  0.7816164E-02  0.1186339E+00
        -11   -1    0    0    0    0  0.00000000000E+00  0.00000000000E+00  0.45593999997E+02  0.45594000000E+02  0.51100000000E-03 0. -1.
         11   -1    0    0    0    0 -0.00000000000E+00 -0.00000000000E+00 -0.45593999997E+02  0.45594000000E+02  0.51100000000E-03 0.  1.
    9900012    2    1    2    0    0 -0.10374374760E+01 -0.31139331248E+00 -0.46855886655E+00  0.90007834875E+02  0.90000097495E+02 0.  0.
         12    1    1    2    0    0  0.10374374760E+01  0.31139331248E+00  0.46855886655E+00  0.11801651253E+01  0.00000000000E+00 0. -1.
         11    1    3    3    0    0  0.10280233103E+02 -0.32620859422E+01  0.36107629740E+02  0.37684019465E+02  0.51100000000E-03 0. -1.
        -11    1    3    3    0    0 -0.93904215054E+01  0.22251311597E+01  0.48816351800E+01  0.10814878040E+02  0.51100000000E-03 0.  1.
        -12    1    3    3    0    0 -0.19272490733E+01  0.72556147003E+00 -0.41457823787E+02  0.41508937370E+02  0.00000000000E+00 0.  1.
</event>
<event>
 7    1  0.1501154E-015  0.9000776E+02  0.7816164E-02  0.1186339E+00
        -11   -1    0    0    0    0  0.00000000000E+00  0.00000000000E+00  0.45593999997E+02  0.45594000000E+02  0.51100000000E-03 0.  1.
         11   -1    0    0    0    0 -0.00000000000E+00 -0.00000000000E+00 -0.45593999997E+02  0.45594000000E+02  0.51100000000E-03 0. -1.
    9900012    2    1    2    0    0  0.35987731961E+00 -0.55578909822E+00  0.97701250349E+00  0.90007759923E+02  0.90000021554E+02 0.  0.
         12    1    1    2    0    0 -0.35987731961E+00  0.55578909822E+00 -0.97701250349E+00  0.11802400768E+01  0.00000000000E+00 0. -1.
         11    1    3    3    0    0 -0.27817273836E+02 -0.15909872996E+01 -0.10066003893E+02  0.29625266225E+02  0.51100000000E-03 0. -1.
        -11    1    3    3    0    0 -0.11327767383E+02  0.29343324746E+01 -0.10168910005E+02  0.15502753042E+02  0.51100000000E-03 0.  1.
        -12    1    3    3    0    0  0.39504918538E+02 -0.18991342732E+01  0.21211926401E+02  0.44879740656E+02  0.00000000000E+00 0.  1.
</event>
<event>
 7    1  0.1501154E-015  0.9000766E+02  0.7816164E-02  0.1186339E+00
        -11   -1    0    0    0    0  0.00000000000E+00  0.00000000000E+00  0.45593999997E+02  0.45594000000E+02  0.51100000000E-03 0. -1.
         11   -1    0    0    0    0 -0.00000000000E+00 -0.00000000000E+00 -0.45593999997E+02  0.45594000000E+02  0.51100000000E-03 0.  1.
    9900012    2    1    2    0    0  0.68175614663E+00  0.86903248551E+00  0.41617631060E+00  0.90007656141E+02  0.89999916402E+02 0.  0.
         12    1    1    2    0    0 -0.68175614663E+00 -0.86903248551E+00 -0.41617631060E+00  0.11803438592E+01  0.00000000000E+00 0. -1.
         11    1    3    3    0    0 -0.32102563411E+02 -0.79747592648E+01  0.24768589201E+02  0.41323774927E+02  0.51100000000E-03 0. -1.
        -11    1    3    3    0    0  0.67680512275E+01 -0.58825629094E+01  0.15839327554E+01  0.91060368457E+01  0.51100000000E-03 0.  1.
        -12    1    3    3    0    0  0.26016268330E+02  0.14726354660E+02 -0.25936345646E+02  0.39577844369E+02  0.00000000000E+00 0.  1.
</event>
<event>
 7    1  0.1501154E-015  0.9000814E+02  0.7816164E-02  0.1186338E+00
        -11   -1    0    0    0    0  0.00000000000E+00  0.00000000000E+00  0.45593999997E+02  0.45594000000E+02  0.51100000000E-03 0. -1.
         11   -1    0    0    0    0 -0.00000000000E+00 -0.00000000000E+00 -0.45593999997E+02  0.45594000000E+02  0.51100000000E-03 0.  1.
    9900012    2    1    2    0    0  0.83468905376E+00 -0.23900471431E+00 -0.79890509176E+00  0.90008136272E+02  0.90000402870E+02 0.  0.
         12    1    1    2    0    0 -0.83468905376E+00  0.23900471431E+00  0.79890509176E+00  0.11798637275E+01  0.00000000000E+00 0. -1.
         11    1    3    3    0    0  0.34203429839E+01 -0.33433420818E+01 -0.12270735205E+02  0.13169951600E+02  0.51100000000E-03 0. -1.
        -11    1    3    3    0    0  0.37657518495E+01  0.20799185353E+02 -0.26838953026E+02  0.34163085313E+02  0.51100000000E-03 0.  1.
         12    1    3    3    0    0 -0.63514057796E+01 -0.17694847986E+02  0.38310783139E+02  0.42675099359E+02  0.00000000000E+00 0. -1.
</event>
<event>
 7    1  0.1501154E-015  0.9000776E+02  0.7816164E-02  0.1186339E+00
        -11   -1    0    0    0    0  0.00000000000E+00  0.00000000000E+00  0.45593999997E+02  0.45594000000E+02  0.51100000000E-03 0. -1.
         11   -1    0    0    0    0 -0.00000000000E+00 -0.00000000000E+00 -0.45593999997E+02  0.45594000000E+02  0.51100000000E-03 0.  1.
    9900012    2    1    2    0    0 -0.55811425353E+00 -0.63518661430E+00  0.82341949107E+00  0.90007757138E+02  0.90000018732E+02 0.  0.
         12    1    1    2    0    0  0.55811425353E+00  0.63518661430E+00 -0.82341949107E+00  0.11802428620E+01  0.00000000000E+00 0. -1.
         11    1    3    3    0    0 -0.73029939435E+01  0.14622202862E+02  0.11531659412E+02  0.20003042422E+02  0.51100000000E-03 0. -1.
        -11    1    3    3    0    0 -0.14236492558E+02 -0.25959869920E+02 -0.28027412168E+02  0.40769208967E+02  0.51100000000E-03 0.  1.
         12    1    3    3    0    0  0.20981372248E+02  0.10702480444E+02  0.17319172247E+02  0.29235505749E+02  0.00000000000E+00 0. -1.
</event>
<event>
 8    1  0.1501154E-015  0.9000776E+02  0.7816164E-02  0.1186339E+00
        -11   -1    0    0    0    0  0.00000000000E+00  0.00000000000E+00  0.45593999997E+02  0.45594000000E+02  0.51100000000E-03 0. -1.
         11   -1    0    0    0    0 -0.00000000000E+00 -0.00000000000E+00 -0.45593999997E+02  0.45594000000E+02  0.51100000000E-03 0.  1.
    9900012    2    1    2    0    0 -0.65955513383E+00 -0.88276062781E+00 -0.42270889651E+00  0.90007761841E+02  0.90000023497E+02 0.  0.
         23    2    3    3    0    0 -0.16597710249E+02 -0.13884459751E+01  0.22363888938E+02  0.62195722236E+02  0.55594537216E+02 0.  0.
         12    1    1    2    0    0  0.65955513383E+00  0.88276062781E+00  0.42270889651E+00  0.11802381589E+01  0.00000000000E+00 0. -1.
         11    1    4    4    0    0  0.19640764023E+02 -0.45345465100E+01  0.13853778623E+01  0.20204974525E+02  0.51100000000E-03 0. -1.
        -11    1    4    4    0    0 -0.36238474272E+02  0.31461005349E+01  0.20978511076E+02  0.41990747711E+02  0.51100000000E-03 0.  1.
         12    1    3    3    0    0  0.15938155115E+02  0.50568534731E+00 -0.22786597835E+02  0.27812039605E+02  0.00000000000E+00 0. -1.
</event>
<event>
 7    1  0.1501154E-015  0.9000774E+02  0.7816164E-02  0.1186339E+00
        -11   -1    0    0    0    0  0.00000000000E+00  0.00000000000E+00  0.45593999997E+02  0.45594000000E+02  0.51100000000E-03 0.  1.
         11   -1    0    0    0    0 -0.00000000000E+00 -0.00000000000E+00 -0.45593999997E+02  0.45594000000E+02  0.51100000000E-03 0. -1.
    9900012    2    1    2    0    0  0.87931661730E+00 -0.20376788672E+00 -0.76045571054E+00  0.90007740726E+02  0.90000002104E+02 0.  0.
         12    1    1    2    0    0 -0.87931661730E+00  0.20376788672E+00  0.76045571054E+00  0.11802592736E+01  0.00000000000E+00 0. -1.
         11    1    3    3    0    0 -0.77942234441E+01  0.26351771909E+02  0.11883903825E+02  0.29939822515E+02  0.51100000000E-03 0. -1.
        -11    1    3    3    0    0 -0.19797556269E+02 -0.30385157811E-01 -0.36934914221E+01  0.20139166731E+02  0.51100000000E-03 0.  1.
        -12    1    3    3    0    0  0.28471096330E+02 -0.26525154638E+02 -0.89508681137E+01  0.39928751480E+02  0.00000000000E+00 0.  1.
</event>
<event>
 7    1  0.1501154E-015  0.9000766E+02  0.7816164E-02  0.1186339E+00
        -11   -1    0    0    0    0  0.00000000000E+00  0.00000000000E+00  0.45593999997E+02  0.45594000000E+02  0.51100000000E-03 0.  1.
         11   -1    0    0    0    0 -0.00000000000E+00 -0.00000000000E+00 -0.45593999997E+02  0.45594000000E+02  0.51100000000E-03 0. -1.
    9900012    2    1    2    0    0 -0.65118911107E+00 -0.94581872273E+00  0.27310417176E+00  0.90007658438E+02  0.89999918729E+02 0.  0.
         12    1    1    2    0    0  0.65118911107E+00  0.94581872273E+00 -0.27310417176E+00  0.11803415621E+01  0.00000000000E+00 0. -1.
         11    1    3    3    0    0 -0.10756834138E+02  0.36709748127E+02 -0.32115533600E+01  0.38387877819E+02  0.51100000000E-03 0. -1.
        -11    1    3    3    0    0  0.52910242140E+01  0.44083034679E+01 -0.49089143167E+01  0.84572759639E+01  0.51100000000E-03 0.  1.
        -12    1    3    3    0    0  0.48146208130E+01 -0.42063870318E+02  0.83935718485E+01  0.43162504655E+02  0.00000000000E+00 0.  1.
</event>
<event>
 7    1  0.1501154E-015  0.9000772E+02  0.7816164E-02  0.1186339E+00
        -11   -1    0    0    0    0  0.00000000000E+00  0.00000000000E+00  0.45593999997E+02  0.45594000000E+02  0.51100000000E-03 0. -1.
         11   -1    0    0    0    0 -0.00000000000E+00 -0.00000000000E+00 -0.45593999997E+02  0.45594000000E+02  0.51100000000E-03 0.  1.
    9900012    2    1    2    0    0  0.33126949554E+00  0.23538544956E+00 -0.11081172740E+01  0.90007716271E+02  0.89999977326E+02 0.  0.
         12    1    1    2    0    0 -0.33126949554E+00 -0.23538544956E+00  0.11081172740E+01  0.11802837292E+01  0.00000000000E+00 0. -1.
         11    1    3    3    0    0 -0.36827698730E+02  0.92350578184E+01  0.15512056399E+02  0.41014504516E+02  0.51100000000E-03 0. -1.
        -11    1    3    3    0    0  0.76252475655E+01 -0.11545016622E+01  0.69652522870E+01  0.10391920622E+02  0.51100000000E-03 0.  1.
        -12    1    3    3    0    0  0.29533720660E+02 -0.78451707067E+01 -0.23585425960E+02  0.38601291134E+02  0.00000000000E+00 0.  1.
</event>
<event>
 7    1  0.1501154E-015  0.9000836E+02  0.7816164E-02  0.1186338E+00
        -11   -1    0    0    0    0  0.00000000000E+00  0.00000000000E+00  0.45593999997E+02  0.45594000000E+02  0.51100000000E-03 0.  1.
         11   -1    0    0    0    0 -0.00000000000E+00 -0.00000000000E+00 -0.45593999997E+02  0.45594000000E+02  0.51100000000E-03 0. -1.
    9900012    2    1    2    0    0 -0.32556313631E+00 -0.38961580258E+00  0.10647756556E+01  0.90008364876E+02  0.90000634490E+02 0.  0.
         12    1    1    2    0    0  0.32556313631E+00  0.38961580258E+00 -0.10647756556E+01  0.11796351242E+01  0.00000000000E+00 0. -1.
         11    1    3    3    0    0  0.62945857795E+01 -0.51862704536E+01  0.29343288097E+01  0.86677273364E+01  0.51100000000E-03 0. -1.
        -11    1    3    3    0    0  0.30485734539E+02 -0.96650801150E+01  0.18144627683E+02  0.36769842236E+02  0.51100000000E-03 0.  1.
         12    1    3    3    0    0 -0.37105883455E+02  0.14461734766E+02 -0.20014180837E+02  0.44570795304E+02  0.00000000000E+00 0. -1.
</event>
<event>
 7    1  0.1501154E-015  0.9000765E+02  0.7816164E-02  0.1186339E+00
        -11   -1    0    0    0    0  0.00000000000E+00  0.00000000000E+00  0.45593999997E+02  0.45594000000E+02  0.51100000000E-03 0.  1.
         11   -1    0    0    0    0 -0.00000000000E+00 -0.00000000000E+00 -0.45593999997E+02  0.45594000000E+02  0.51100000000E-03 0. -1.
    9900012    2    1    2    0    0  0.53938335909E+00  0.83753381878E+00  0.63310573205E+00  0.90007652520E+02  0.89999912733E+02 0.  0.
         12    1    1    2    0    0 -0.53938335909E+00 -0.83753381878E+00 -0.63310573205E+00  0.11803474800E+01  0.00000000000E+00 0. -1.
         11    1    3    3    0    0  0.95827539746E+01 -0.40578659522E+02 -0.10092920055E+02  0.42898995534E+02  0.51100000000E-03 0. -1.
        -11    1    3    3    0    0 -0.23155267468E+01  0.41179369995E+01  0.77698190242E+01  0.90933578604E+01  0.51100000000E-03 0.  1.
        -12    1    3    3    0    0 -0.67278438687E+01  0.37298256341E+02  0.29562067624E+01  0.38015299126E+02  0.00000000000E+00 0.  1.
</event>
<event>
 7    1  0.1501154E-015  0.9000765E+02  0.7816164E-02  0.1186339E+00
        -11   -1    0    0    0    0  0.00000000000E+00  0.00000000000E+00  0.45593999997E+02  0.45594000000E+02  0.51100000000E-03 0.  1.
         11   -1    0    0    0    0 -0.00000000000E+00 -0.00000000000E+00 -0.45593999997E+02  0.45594000000E+02  0.51100000000E-03 0. -1.
    9900012    2    1    2    0    0 -0.94940553566E+00 -0.47214353263E+00  0.51858280786E+00  0.90007653222E+02  0.89999913445E+02 0.  0.
         12    1    1    2    0    0  0.94940553566E+00  0.47214353263E+00 -0.51858280786E+00  0.11803467775E+01  0.00000000000E+00 0. -1.
         11    1    3    3    0    0 -0.15006717919E+02  0.12140811763E+02 -0.31343608736E+02  0.36810632999E+02  0.51100000000E-03 0. -1.
        -11    1    3    3    0    0 -0.27170472338E-01  0.10018374504E+02 -0.18828358305E+01  0.10193803852E+02  0.51100000000E-03 0.  1.
        -12    1    3    3    0    0  0.14084482856E+02 -0.22631329800E+02  0.33745027374E+02  0.43003216372E+02  0.00000000000E+00 0.  1.
</event>
<event>
 7    1  0.1501154E-015  0.9000756E+02  0.7816164E-02  0.1186339E+00
        -11   -1    0    0    0    0  0.00000000000E+00  0.00000000000E+00  0.45593999997E+02  0.45594000000E+02  0.51100000000E-03 0. -1.
         11   -1    0    0    0    0 -0.00000000000E+00 -0.00000000000E+00 -0.45593999997E+02  0.45594000000E+02  0.51100000000E-03 0.  1.
    9900012    2    1    2    0    0  0.11742752624E+01 -0.58558339929E-01 -0.10529325394E+00  0.90007560192E+02  0.89999819186E+02 0.  0.
         12    1    1    2    0    0 -0.11742752624E+01  0.58558339929E-01  0.10529325394E+00  0.11804398080E+01  0.00000000000E+00 0. -1.
         11    1    3    3    0    0  0.10424364516E+02  0.13250626620E+02  0.37061664215E+02  0.40716255181E+02  0.51100000000E-03 0. -1.
        -11    1    3    3    0    0 -0.60549337274E+00 -0.88256085893E+01  0.18837540781E+01  0.90446956214E+01  0.51100000000E-03 0.  1.
        -12    1    3    3    0    0 -0.86445958808E+01 -0.44835763703E+01 -0.39050711547E+02  0.40246609389E+02  0.00000000000E+00 0.  1.
</event>
<event>
 7    1  0.1501154E-015  0.9000805E+02  0.7816164E-02  0.1186338E+00
        -11   -1    0    0    0    0  0.00000000000E+00  0.00000000000E+00  0.45593999997E+02  0.45594000000E+02  0.51100000000E-03 0.  1.
         11   -1    0    0    0    0 -0.00000000000E+00 -0.00000000000E+00 -0.45593999997E+02  0.45594000000E+02  0.51100000000E-03 0. -1.
    9900012    2    1    2    0    0 -0.90192297284E+00  0.84661427262E-02  0.76076012209E+00  0.90008045472E+02  0.90000310872E+02 0.  0.
         12    1    1    2    0    0  0.90192297284E+00 -0.84661427262E-02 -0.76076012209E+00  0.11799545279E+01  0.00000000000E+00 0. -1.
         11    1    3    3    0    0  0.10386823821E+02 -0.94993264393E+01 -0.34344578349E+02  0.37117022700E+02  0.51100000000E-03 0. -1.
        -11    1    3    3    0    0 -0.58396114913E+01 -0.67849206374E+01 -0.42795642737E+01  0.99222417356E+01  0.51100000000E-03 0.  1.
        -12    1    3    3    0    0 -0.54491353028E+01  0.16292713219E+02  0.39384902744E+02  0.42968781037E+02  0.00000000000E+00 0.  1.
</event>
<event>
 7    1  0.1501154E-015  0.9000823E+02  0.7816164E-02  0.1186338E+00
        -11   -1    0    0    0    0  0.00000000000E+00  0.00000000000E+00  0.45593999997E+02  0.45594000000E+02  0.51100000000E-03 0. -1.
         11   -1    0    0    0    0 -0.00000000000E+00 -0.00000000000E+00 -0.45593999997E+02  0.45594000000E+02  0.51100000000E-03 0.  1.
    9900012    2    1    2    0    0 -0.17457905578E+00 -0.50506411025E+00 -0.10518019928E+01  0.90008230940E+02  0.90000498787E+02 0.  0.
         12    1    1    2    0    0  0.17457905578E+00  0.50506411025E+00  0.10518019928E+01  0.11797690597E+01  0.00000000000E+00 0. -1.
         11    1    3    3    0    0 -0.20238301483E+02  0.32987435346E+02  0.61611193347E+01  0.39188252441E+02  0.51100000000E-03 0. -1.
        -11    1    3    3    0    0 -0.80444640003E+00  0.53390100422E+01  0.20470342198E+01  0.57742974984E+01  0.51100000000E-03 0.  1.
        -12    1    3    3    0    0  0.20868168827E+02 -0.38831509498E+02 -0.92599555474E+01  0.45045681001E+02  0.00000000000E+00 0.  1.
</event>
<event>
 7    1  0.1501154E-015  0.9000776E+02  0.7816164E-02  0.1186339E+00
        -11   -1    0    0    0    0  0.00000000000E+00  0.00000000000E+00  0.45593999997E+02  0.45594000000E+02  0.51100000000E-03 0. -1.
         11   -1    0    0    0    0 -0.00000000000E+00 -0.00000000000E+00 -0.45593999997E+02  0.45594000000E+02  0.51100000000E-03 0.  1.
    9900012    2    1    2    0    0 -0.99652539098E+00  0.63200909569E+00 -0.21743927143E-01  0.90007758012E+02  0.90000019618E+02 0.  0.
         12    1    1    2    0    0  0.99652539098E+00 -0.63200909569E+00  0.21743927143E-01  0.11802419880E+01  0.00000000000E+00 0. -1.
         11    1    3    3    0    0 -0.28582563356E+01  0.12328352318E+02  0.89184144058E+00  0.12686736443E+02  0.51100000000E-03 0. -1.
        -11    1    3    3    0    0 -0.21943980438E+02  0.91229025064E+01 -0.27256255283E+02  0.36161707370E+02  0.51100000000E-03 0.  1.
         12    1    3    3    0    0  0.23805711382E+02 -0.20819245728E+02  0.26342669915E+02  0.41159314200E+02  0.00000000000E+00 0. -1.
</event>
<event>
 7    1  0.1501154E-015  0.9000783E+02  0.7816164E-02  0.1186339E+00
        -11   -1    0    0    0    0  0.00000000000E+00  0.00000000000E+00  0.45593999997E+02  0.45594000000E+02  0.51100000000E-03 0. -1.
         11   -1    0    0    0    0 -0.00000000000E+00 -0.00000000000E+00 -0.45593999997E+02  0.45594000000E+02  0.51100000000E-03 0.  1.
    9900012    2    1    2    0    0 -0.73472967946E+00 -0.58455059872E+00  0.71504071135E+00  0.90007826147E+02  0.90000088652E+02 0.  0.
         12    1    1    2    0    0  0.73472967946E+00  0.58455059872E+00 -0.71504071135E+00  0.11801738530E+01  0.00000000000E+00 0. -1.
         11    1    3    3    0    0  0.33977023558E+01  0.17473757968E+01  0.81503456677E+01  0.90014353433E+01  0.51100000000E-03 0. -1.
        -11    1    3    3    0    0 -0.33744428203E+02 -0.19957695625E+02 -0.20391520759E+02  0.44190611769E+02  0.51100000000E-03 0.  1.
         12    1    3    3    0    0  0.29611996168E+02  0.17625769230E+02  0.12956215802E+02  0.36815779034E+02  0.00000000000E+00 0. -1.
</event>
<event>
 7    1  0.1501154E-015  0.9000753E+02  0.7816164E-02  0.1186339E+00
        -11   -1    0    0    0    0  0.00000000000E+00  0.00000000000E+00  0.45593999997E+02  0.45594000000E+02  0.51100000000E-03 0.  1.
         11   -1    0    0    0    0 -0.00000000000E+00 -0.00000000000E+00 -0.45593999997E+02  0.45594000000E+02  0.51100000000E-03 0. -1.
    9900012    2    1    2    0    0 -0.46723176413E+00  0.60485901959E+00  0.89963984885E+00  0.90007528987E+02  0.89999787569E+02 0.  0.
         12    1    1    2    0    0  0.46723176413E+00 -0.60485901959E+00 -0.89963984885E+00  0.11804710130E+01  0.00000000000E+00 0. -1.
         11    1    3    3    0    0  0.13181956593E+01  0.15741797287E+01  0.11852280815E+02  0.12028808852E+02  0.51100000000E-03 0. -1.
        -11    1    3    3    0    0  0.29842164916E+02  0.87143674804E+01  0.16316809108E+02  0.35110301440E+02  0.51100000000E-03 0.  1.
         12    1    3    3    0    0 -0.31627592340E+02 -0.96836881895E+01 -0.27269450074E+02  0.42868418696E+02  0.00000000000E+00 0. -1.
</event>
<event>
 7    1  0.1501154E-015  0.9000779E+02  0.7816164E-02  0.1186339E+00
        -11   -1    0    0    0    0  0.00000000000E+00  0.00000000000E+00  0.45593999997E+02  0.45594000000E+02  0.51100000000E-03 0.  1.
         11   -1    0    0    0    0 -0.00000000000E+00 -0.00000000000E+00 -0.45593999997E+02  0.45594000000E+02  0.51100000000E-03 0. -1.
    9900012    2    1    2    0    0  0.95739247316E+00  0.39361160934E+00 -0.56688356242E+00  0.90007793484E+02  0.90000055558E+02 0.  0.
         12    1    1    2    0    0 -0.95739247316E+00 -0.39361160934E+00  0.56688356242E+00  0.11802065158E+01  0.00000000000E+00 0. -1.
         11    1    3    3    0    0  0.15822677497E+01 -0.96257826624E+01  0.34179718708E+00  0.97609471197E+01  0.51100000000E-03 0. -1.
        -11    1    3    3    0    0 -0.28244058785E+00 -0.34826551290E+02 -0.51211270798E+01  0.35202192975E+02  0.51100000000E-03 0.  1.
         12    1    3    3    0    0 -0.34243468866E+00  0.44845945562E+02  0.42124463303E+01  0.45044653389E+02  0.00000000000E+00 0. -1.
</event>
<event>
 7    1  0.1501154E-015  0.9000815E+02  0.7816164E-02  0.1186338E+00
        -11   -1    0    0    0    0  0.00000000000E+00  0.00000000000E+00  0.45593999997E+02  0.45594000000E+02  0.51100000000E-03 0. -1.
         11   -1    0    0    0    0 -0.00000000000E+00 -0.00000000000E+00 -0.45593999997E+02  0.45594000000E+02  0.51100000000E-03 0.  1.
    9900012    2    1    2    0    0 -0.81002282718E+00  0.13647997222E-01 -0.85774409302E+00  0.90008149087E+02  0.90000415854E+02 0.  0.
         12    1    1    2    0    0  0.81002282718E+00 -0.13647997222E-01  0.85774409302E+00  0.11798509132E+01  0.00000000000E+00 0. -1.
         11    1    3    3    0    0 -0.18870422513E+01 -0.34541032674E+01  0.26257208018E+02  0.26550569316E+02  0.51100000000E-03 0. -1.
        -11    1    3    3    0    0  0.17512748385E+02 -0.58419572792E+01  0.10591826203E+02  0.21284069240E+02  0.51100000000E-03 0.  1.
        -12    1    3    3    0    0 -0.16435728960E+02  0.93097085438E+01 -0.37706778314E+02  0.42173510531E+02  0.00000000000E+00 0.  1.
</event>
<event>
 7    1  0.1501154E-015  0.9000784E+02  0.7816164E-02  0.1186339E+00
        -11   -1    0    0    0    0  0.00000000000E+00  0.00000000000E+00  0.45593999997E+02  0.45594000000E+02  0.51100000000E-03 0. -1.
         11   -1    0    0    0    0 -0.00000000000E+00 -0.00000000000E+00 -0.45593999997E+02  0.45594000000E+02  0.51100000000E-03 0.  1.
    9900012    2    1    2    0    0 -0.10884701004E+01  0.45279783133E-01 -0.45381881886E+00  0.90007843680E+02  0.90000106417E+02 0.  0.
         12    1    1    2    0    0  0.10884701004E+01 -0.45279783133E-01  0.45381881886E+00  0.11801563196E+01  0.00000000000E+00 0. -1.
         11    1    3    3    0    0 -0.60584014754E+00  0.93367989685E+01  0.45523789011E+01  0.10405143497E+02  0.51100000000E-03 0. -1.
        -11    1    3    3    0    0  0.14328479121E+02  0.19072153139E+02 -0.30478564315E+02  0.38703943239E+02  0.51100000000E-03 0.  1.
         12    1    3    3    0    0 -0.14811109074E+02 -0.28363672324E+02  0.25472366595E+02  0.40898756945E+02  0.00000000000E+00 0. -1.
</event>
<event>
 7    1  0.1501154E-015  0.9000773E+02  0.7816164E-02  0.1186339E+00
        -11   -1    0    0    0    0  0.00000000000E+00  0.00000000000E+00  0.45593999997E+02  0.45594000000E+02  0.51100000000E-03 0. -1.
         11   -1    0    0    0    0 -0.00000000000E+00 -0.00000000000E+00 -0.45593999997E+02  0.45594000000E+02  0.51100000000E-03 0.  1.
    9900012    2    1    2    0    0 -0.26668366185E+00  0.71216166814E+00 -0.90263201923E+00  0.90007729277E+02  0.89999990504E+02 0.  0.
         12    1    1    2    0    0  0.26668366185E+00 -0.71216166814E+00  0.90263201923E+00  0.11802707228E+01  0.00000000000E+00 0. -1.
         11    1    3    3    0    0 -0.42389072415E+01 -0.34147790604E+01  0.43709338415E+02  0.44046967156E+02  0.51100000000E-03 0. -1.
        -11    1    3    3    0    0 -0.30201054537E+01  0.10222423194E+01 -0.93601261323E+01  0.98882747628E+01  0.51100000000E-03 0.  1.
        -12    1    3    3    0    0  0.69923290333E+01  0.31046984091E+01 -0.35251844302E+02  0.36072487359E+02  0.00000000000E+00 0.  1.
</event>
<event>
 7    1  0.1501154E-015  0.9000779E+02  0.7816164E-02  0.1186339E+00
        -11   -1    0    0    0    0  0.00000000000E+00  0.00000000000E+00  0.45593999997E+02  0.45594000000E+02  0.51100000000E-03 0. -1.
         11   -1    0    0    0    0 -0.00000000000E+00 -0.00000000000E+00 -0.45593999997E+02  0.45594000000E+02  0.51100000000E-03 0.  1.
    9900012    2    1    2    0    0  0.11886162596E+00  0.11308547257E+01  0.31612527326E+00  0.90007789983E+02  0.90000052010E+02 0.  0.
         12    1    1    2    0    0 -0.11886162596E+00 -0.11308547257E+01 -0.31612527326E+00  0.11802100174E+01  0.00000000000E+00 0. -1.
         11    1    3    3    0    0 -0.30314499965E+01 -0.98497411160E+01 -0.35975496723E+01  0.10915560134E+02  0.51100000000E-03 0. -1.
        -11    1    3    3    0    0 -0.26497704011E+01 -0.52197146047E+01 -0.35556055665E+02  0.36034702696E+02  0.51100000000E-03 0.  1.
         12    1    3    3    0    0  0.58000820236E+01  0.16200310446E+02  0.39469730610E+02  0.43057527152E+02  0.00000000000E+00 0. -1.
</event>
<event>
 7    1  0.1501154E-015  0.9000770E+02  0.7816164E-02  0.1186339E+00
        -11   -1    0    0    0    0  0.00000000000E+00  0.00000000000E+00  0.45593999997E+02  0.45594000000E+02  0.51100000000E-03 0.  1.
         11   -1    0    0    0    0 -0.00000000000E+00 -0.00000000000E+00 -0.45593999997E+02  0.45594000000E+02  0.51100000000E-03 0. -1.
    9900012    2    1    2    0    0 -0.68179527477E+00  0.52204411402E-01  0.96205403266E+00  0.90007695777E+02  0.89999956561E+02 0.  0.
         12    1    1    2    0    0  0.68179527477E+00 -0.52204411402E-01 -0.96205403266E+00  0.11803042231E+01  0.00000000000E+00 0. -1.
         11    1    3    3    0    0 -0.36023897382E+02  0.33872951468E+00 -0.37187243390E+01  0.36216913607E+02  0.51100000000E-03 0. -1.
        -11    1    3    3    0    0 -0.58808336100E+00  0.15383420975E+01  0.15993116119E+02  0.16077689570E+02  0.51100000000E-03 0.  1.
        -12    1    3    3    0    0  0.35930185468E+02 -0.18248672008E+01 -0.11312337748E+02  0.37713092599E+02  0.00000000000E+00 0.  1.
</event>
<event>
 7    1  0.1501154E-015  0.9000776E+02  0.7816164E-02  0.1186339E+00
        -11   -1    0    0    0    0  0.00000000000E+00  0.00000000000E+00  0.45593999997E+02  0.45594000000E+02  0.51100000000E-03 0.  1.
         11   -1    0    0    0    0 -0.00000000000E+00 -0.00000000000E+00 -0.45593999997E+02  0.45594000000E+02  0.51100000000E-03 0. -1.
    9900012    2    1    2    0    0  0.68900510444E+00  0.49119073746E+00  0.82278427086E+00  0.90007758359E+02  0.90000019969E+02 0.  0.
         12    1    1    2    0    0 -0.68900510444E+00 -0.49119073746E+00 -0.82278427086E+00  0.11802416409E+01  0.00000000000E+00 0. -1.
         11    1    3    3    0    0  0.88777242574E+01 -0.51210161251E+01 -0.14590014751E+00  0.10249882012E+02  0.51100000000E-03 0. -1.
        -11    1    3    3    0    0 -0.10350202175E+02  0.41099938075E+02  0.89540208302E+01  0.43318657460E+02  0.51100000000E-03 0.  1.
         12    1    3    3    0    0  0.21614830225E+01 -0.35487731213E+02 -0.79853364118E+01  0.36439218887E+02  0.00000000000E+00 0. -1.
</event>
<event>
 7    1  0.1501154E-015  0.9000768E+02  0.7816164E-02  0.1186339E+00
        -11   -1    0    0    0    0  0.00000000000E+00  0.00000000000E+00  0.45593999997E+02  0.45594000000E+02  0.51100000000E-03 0.  1.
         11   -1    0    0    0    0 -0.00000000000E+00 -0.00000000000E+00 -0.45593999997E+02  0.45594000000E+02  0.51100000000E-03 0. -1.
    9900012    2    1    2    0    0 -0.65425280069E+00 -0.51817956493E+00  0.83462905281E+00  0.90007676975E+02  0.89999937511E+02 0.  0.
         12    1    1    2    0    0  0.65425280069E+00  0.51817956493E+00 -0.83462905281E+00  0.11803230255E+01  0.00000000000E+00 0. -1.
         11    1    3    3    0    0  0.17723541795E+02  0.30906541202E+02 -0.17946299126E+02  0.39892453865E+02  0.51100000000E-03 0. -1.
        -11    1    3    3    0    0 -0.51368141122E+01  0.53096491741E+01  0.36247923046E+01  0.82291161790E+01  0.51100000000E-03 0.  1.
        -12    1    3    3    0    0 -0.13240980484E+02 -0.36734369941E+02  0.15156135874E+02  0.41886106930E+02  0.00000000000E+00 0.  1.
</event>
<event>
 7    1  0.1501154E-015  0.9000770E+02  0.7816164E-02  0.1186339E+00
        -11   -1    0    0    0    0  0.00000000000E+00  0.00000000000E+00  0.45593999997E+02  0.45594000000E+02  0.51100000000E-03 0.  1.
         11   -1    0    0    0    0 -0.00000000000E+00 -0.00000000000E+00 -0.45593999997E+02  0.45594000000E+02  0.51100000000E-03 0. -1.
    9900012    2    1    2    0    0  0.81964461652E+00 -0.51848501697E+00  0.67265481663E+00  0.90007699821E+02  0.89999960659E+02 0.  0.
         12    1    1    2    0    0 -0.81964461652E+00  0.51848501697E+00 -0.67265481663E+00  0.11803001790E+01  0.00000000000E+00 0. -1.
         11    1    3    3    0    0 -0.31751951035E+02 -0.13407017215E+02 -0.18309495927E+02  0.39027838097E+02  0.51100000000E-03 0. -1.
        -11    1    3    3    0    0 -0.45412796737E+01  0.76347426201E+01 -0.17533861800E+00  0.88850019607E+01  0.51100000000E-03 0.  1.
        -12    1    3    3    0    0  0.37112875326E+02  0.52537895776E+01  0.19157489362E+02  0.42094859763E+02  0.00000000000E+00 0.  1.
</event>
<event>
 7    1  0.1501154E-015  0.9000791E+02  0.7816164E-02  0.1186339E+00
        -11   -1    0    0    0    0  0.00000000000E+00  0.00000000000E+00  0.45593999997E+02  0.45594000000E+02  0.51100000000E-03 0. -1.
         11   -1    0    0    0    0 -0.00000000000E+00 -0.00000000000E+00 -0.45593999997E+02  0.45594000000E+02  0.51100000000E-03 0.  1.
    9900012    2    1    2    0    0  0.77251452823E+00 -0.71554022820E+00 -0.53275452763E+00  0.90007913604E+02  0.90000177264E+02 0.  0.
         12    1    1    2    0    0 -0.77251452823E+00  0.71554022820E+00  0.53275452763E+00  0.11800863957E+01  0.00000000000E+00 0. -1.
         11    1    3    3    0    0  0.23277562622E+02  0.19067220551E+02  0.14932751621E+02  0.33591530070E+02  0.51100000000E-03 0. -1.
        -11    1    3    3    0    0 -0.18561590498E+02  0.11569590329E+02 -0.11066254394E+02  0.24512242834E+02  0.51100000000E-03 0.  1.
        -12    1    3    3    0    0 -0.39434575965E+01 -0.31352351108E+02 -0.43992517544E+01  0.31904140700E+02  0.00000000000E+00 0.  1.
</event>
<event>
 7    1  0.1501154E-015  0.9000824E+02  0.7816164E-02  0.1186338E+00
        -11   -1    0    0    0    0  0.00000000000E+00  0.00000000000E+00  0.45593999997E+02  0.45594000000E+02  0.51100000000E-03 0.  1.
         11   -1    0    0    0    0 -0.00000000000E+00 -0.00000000000E+00 -0.45593999997E+02  0.45594000000E+02  0.51100000000E-03 0. -1.
    9900012    2    1    2    0    0  0.11675190392E+01  0.17048971324E-01 -0.16863402902E+00  0.90008242054E+02  0.90000510048E+02 0.  0.
         12    1    1    2    0    0 -0.11675190392E+01 -0.17048971324E-01  0.16863402902E+00  0.11797579456E+01  0.00000000000E+00 0. -1.
         11    1    3    3    0    0  0.74727406045E+01  0.30899751612E+01 -0.56764991876E+01  0.98799009068E+01  0.51100000000E-03 0. -1.
        -11    1    3    3    0    0  0.30406868204E+02  0.19270187375E+02  0.86937948371E+01  0.37033766003E+02  0.51100000000E-03 0.  1.
         12    1    3    3    0    0 -0.36712089769E+02 -0.22343113565E+02 -0.31859296785E+01  0.43094575145E+02  0.00000000000E+00 0. -1.
</event>
<event>
 7    1  0.1501154E-015  0.9000762E+02  0.7816164E-02  0.1186339E+00
        -11   -1    0    0    0    0  0.00000000000E+00  0.00000000000E+00  0.45593999997E+02  0.45594000000E+02  0.51100000000E-03 0.  1.
         11   -1    0    0    0    0 -0.00000000000E+00 -0.00000000000E+00 -0.45593999997E+02  0.45594000000E+02  0.51100000000E-03 0. -1.
    9900012    2    1    2    0    0  0.22864140915E+00  0.52242274171E+00  0.10334882267E+01  0.90007618566E+02  0.89999878331E+02 0.  0.
         12    1    1    2    0    0 -0.22864140915E+00 -0.52242274171E+00 -0.10334882267E+01  0.11803814340E+01  0.00000000000E+00 0. -1.
         11    1    3    3    0    0  0.23158213210E+02  0.89266030450E+00  0.93065962098E+00  0.23194089961E+02  0.51100000000E-03 0. -1.
        -11    1    3    3    0    0  0.12600551312E+02  0.48733401349E+01  0.21216008138E+02  0.25152382372E+02  0.51100000000E-03 0.  1.
         12    1    3    3    0    0 -0.35530123113E+02 -0.52435776977E+01 -0.21113179532E+02  0.41661146233E+02  0.00000000000E+00 0. -1.
</event>
<event>
 7    1  0.1501154E-015  0.9000763E+02  0.7816164E-02  0.1186339E+00
        -11   -1    0    0    0    0  0.00000000000E+00  0.00000000000E+00  0.45593999997E+02  0.45594000000E+02  0.51100000000E-03 0. -1.
         11   -1    0    0    0    0 -0.00000000000E+00 -0.00000000000E+00 -0.45593999997E+02  0.45594000000E+02  0.51100000000E-03 0.  1.
    9900012    2    1    2    0    0 -0.22544081069E+00 -0.11109283780E+01  0.32908119065E+00  0.90007627241E+02  0.89999887121E+02 0.  0.
         12    1    1    2    0    0  0.22544081069E+00  0.11109283780E+01 -0.32908119065E+00  0.11803727590E+01  0.00000000000E+00 0. -1.
         11    1    3    3    0    0 -0.31455055048E+02 -0.17200140948E+02 -0.97952783557E+01  0.37164671599E+02  0.51100000000E-03 0. -1.
        -11    1    3    3    0    0 -0.62621083253E+01 -0.16564967893E+01  0.93273129708E+01  0.11355912548E+02  0.51100000000E-03 0.  1.
        -12    1    3    3    0    0  0.37491722563E+02  0.17745709359E+02  0.79704657557E+00  0.41487043094E+02  0.00000000000E+00 0.  1.
</event>
<event>
 7    1  0.1501154E-015  0.9000783E+02  0.7816164E-02  0.1186339E+00
        -11   -1    0    0    0    0  0.00000000000E+00  0.00000000000E+00  0.45593999997E+02  0.45594000000E+02  0.51100000000E-03 0. -1.
         11   -1    0    0    0    0 -0.00000000000E+00 -0.00000000000E+00 -0.45593999997E+02  0.45594000000E+02  0.51100000000E-03 0.  1.
    9900012    2    1    2    0    0 -0.61732637085E+00 -0.75687440103E+00  0.66245947474E+00  0.90007829138E+02  0.90000091683E+02 0.  0.
         12    1    1    2    0    0  0.61732637085E+00  0.75687440103E+00 -0.66245947474E+00  0.11801708617E+01  0.00000000000E+00 0. -1.
         11    1    3    3    0    0  0.37970350012E+01 -0.67018323919E+01  0.76106778744E+01  0.10828409402E+02  0.51100000000E-03 0. -1.
        -11    1    3    3    0    0 -0.81505977217E+01 -0.34605466913E+02 -0.13312225011E+02  0.37962954554E+02  0.51100000000E-03 0.  1.
         12    1    3    3    0    0  0.37362363496E+01  0.40550424904E+02  0.63640066116E+01  0.41216465182E+02  0.00000000000E+00 0. -1.
</event>
<event>
 7    1  0.1501154E-015  0.9000770E+02  0.7816164E-02  0.1186339E+00
        -11   -1    0    0    0    0  0.00000000000E+00  0.00000000000E+00  0.45593999997E+02  0.45594000000E+02  0.51100000000E-03 0.  1.
         11   -1    0    0    0    0 -0.00000000000E+00 -0.00000000000E+00 -0.45593999997E+02  0.45594000000E+02  0.51100000000E-03 0. -1.
    9900012    2    1    2    0    0 -0.11461027860E+00 -0.11822331173E+00  0.11687575993E+01  0.90007700634E+02  0.89999961482E+02 0.  0.
         12    1    1    2    0    0  0.11461027860E+00  0.11822331173E+00 -0.11687575993E+01  0.11802993660E+01  0.00000000000E+00 0. -1.
         11    1    3    3    0    0  0.29224136907E+02 -0.11254362228E+02 -0.19782403061E+02  0.37041251575E+02  0.51100000000E-03 0. -1.
        -11    1    3    3    0    0  0.74366918015E+01  0.34841926142E+01 -0.26200302535E+01  0.86202402469E+01  0.51100000000E-03 0.  1.
        -12    1    3    3    0    0 -0.36775438987E+02  0.76519463023E+01  0.23571190914E+02  0.44346208812E+02  0.00000000000E+00 0.  1.
</event>
<event>
 7    1  0.1501154E-015  0.9000779E+02  0.7816164E-02  0.1186339E+00
        -11   -1    0    0    0    0  0.00000000000E+00  0.00000000000E+00  0.45593999997E+02  0.45594000000E+02  0.51100000000E-03 0.  1.
         11   -1    0    0    0    0 -0.00000000000E+00 -0.00000000000E+00 -0.45593999997E+02  0.45594000000E+02  0.51100000000E-03 0. -1.
    9900012    2    1    2    0    0 -0.12962891930E+00 -0.61215825013E-01  0.11714748973E+01  0.90007786261E+02  0.90000048240E+02 0.  0.
         12    1    1    2    0    0  0.12962891930E+00  0.61215825013E-01 -0.11714748973E+01  0.11802137387E+01  0.00000000000E+00 0. -1.
         11    1    3    3    0    0 -0.21800017455E+02 -0.30427373622E+02 -0.18384585154E+02  0.41702023909E+02  0.51100000000E-03 0. -1.
        -11    1    3    3    0    0  0.13471901176E+02  0.82989524886E+00  0.66478980054E+01  0.15045776669E+02  0.51100000000E-03 0.  1.
        -12    1    3    3    0    0  0.81984873597E+01  0.29536262548E+02  0.12908162046E+02  0.33259985684E+02  0.00000000000E+00 0.  1.
</event>
<event>
 7    1  0.2091823E-015  0.9000781E+02  0.7816164E-02  0.1186339E+00
        -11   -1    0    0    0    0  0.00000000000E+00  0.00000000000E+00  0.45593999997E+02  0.45594000000E+02  0.51100000000E-03 0.  1.
         11   -1    0    0    0    0 -0.00000000000E+00 -0.00000000000E+00 -0.45593999997E+02  0.45594000000E+02  0.51100000000E-03 0. -1.
    9900012    2    1    2    0    0 -0.60468393992E+00  0.84032426763E+00  0.56663064571E+00  0.90007806020E+02  0.90000068259E+02 0.  0.
         12    1    1    2    0    0  0.60468393992E+00 -0.84032426763E+00 -0.56663064571E+00  0.11801939801E+01  0.00000000000E+00 0. -1.
         11    1    3    3    0    0 -0.18161202915E+02 -0.89458547056E+01 -0.33954751570E+02  0.39532047280E+02  0.51100000000E-03 0. -1.
        -11    1    3    3    0    0  0.82595978027E+01  0.83766471814E-02 -0.43459831846E+01  0.93331986014E+01  0.51100000000E-03 0.  1.
        -12    1    3    3    0    0  0.92969211721E+01  0.97778023260E+01  0.38867365400E+02  0.41142560139E+02  0.00000000000E+00 0.  1.
</event>
<event>
 7    1  0.1501154E-015  0.9000792E+02  0.7816164E-02  0.1186339E+00
        -11   -1    0    0    0    0  0.00000000000E+00  0.00000000000E+00  0.45593999997E+02  0.45594000000E+02  0.51100000000E-03 0.  1.
         11   -1    0    0    0    0 -0.00000000000E+00 -0.00000000000E+00 -0.45593999997E+02  0.45594000000E+02  0.51100000000E-03 0. -1.
    9900012    2    1    2    0    0  0.55312290761E+00 -0.99264686511E+00  0.31828695648E+00  0.90007915538E+02  0.90000179223E+02 0.  0.
         12    1    1    2    0    0 -0.55312290761E+00  0.99264686511E+00 -0.31828695648E+00  0.11800844616E+01  0.00000000000E+00 0. -1.
         11    1    3    3    0    0 -0.12632166190E+01 -0.32671943368E+02  0.15788733658E+02  0.36308892995E+02  0.51100000000E-03 0. -1.
        -11    1    3    3    0    0 -0.45154527642E+01  0.42950829888E+00  0.11229795429E+02  0.12111238445E+02  0.51100000000E-03 0.  1.
        -12    1    3    3    0    0  0.63317922908E+01  0.31249788204E+02 -0.26700242130E+02  0.41587784099E+02  0.00000000000E+00 0.  1.
</event>
<event>
 7    1  0.1501154E-015  0.9000775E+02  0.7816164E-02  0.1186339E+00
        -11   -1    0    0    0    0  0.00000000000E+00  0.00000000000E+00  0.45593999997E+02  0.45594000000E+02  0.51100000000E-03 0. -1.
         11   -1    0    0    0    0 -0.00000000000E+00 -0.00000000000E+00 -0.45593999997E+02  0.45594000000E+02  0.51100000000E-03 0.  1.
    9900012    2    1    2    0    0 -0.33208691576E+00  0.10817247989E+01 -0.33553303674E+00  0.90007748892E+02  0.90000010377E+02 0.  0.
         12    1    1    2    0    0  0.33208691576E+00 -0.10817247989E+01  0.33553303674E+00  0.11802511084E+01  0.00000000000E+00 0. -1.
         11    1    3    3    0    0  0.25012050080E+00  0.31616943671E+02  0.27671991116E+02  0.42017053442E+02  0.51100000000E-03 0. -1.
        -11    1    3    3    0    0  0.65989689197E+01 -0.70591981194E+01  0.13102056592E+01  0.97516823176E+01  0.51100000000E-03 0.  1.
        -12    1    3    3    0    0 -0.71811763363E+01 -0.23476020753E+02 -0.29317729812E+02  0.38239013132E+02  0.00000000000E+00 0.  1.
</event>
<event>
 7    1  0.1501154E-015  0.9000778E+02  0.7816164E-02  0.1186339E+00
        -11   -1    0    0    0    0  0.00000000000E+00  0.00000000000E+00  0.45593999997E+02  0.45594000000E+02  0.51100000000E-03 0.  1.
         11   -1    0    0    0    0 -0.00000000000E+00 -0.00000000000E+00 -0.45593999997E+02  0.45594000000E+02  0.51100000000E-03 0. -1.
    9900012    2    1    2    0    0 -0.37550543011E+00 -0.35447760322E+00  0.10612501144E+01  0.90007783704E+02  0.90000045649E+02 0.  0.
         12    1    1    2    0    0  0.37550543011E+00  0.35447760322E+00 -0.10612501144E+01  0.11802162957E+01  0.00000000000E+00 0. -1.
         11    1    3    3    0    0 -0.60889698894E+01  0.33038970202E+01 -0.51996483889E+00  0.69470607835E+01  0.51100000000E-03 0. -1.
        -11    1    3    3    0    0  0.12807325572E+02 -0.72060050862E+01  0.40634505799E+02  0.43210151115E+02  0.51100000000E-03 0.  1.
         12    1    3    3    0    0 -0.70938611123E+01  0.35476304627E+01 -0.39053290846E+02  0.39850571806E+02  0.00000000000E+00 0. -1.
</event>
<event>
 7    1  0.1501154E-015  0.9000773E+02  0.7816164E-02  0.1186339E+00
        -11   -1    0    0    0    0  0.00000000000E+00  0.00000000000E+00  0.45593999997E+02  0.45594000000E+02  0.51100000000E-03 0.  1.
         11   -1    0    0    0    0 -0.00000000000E+00 -0.00000000000E+00 -0.45593999997E+02  0.45594000000E+02  0.51100000000E-03 0. -1.
    9900012    2    1    2    0    0  0.64443870499E+00 -0.58685152099E+00  0.79582386770E+00  0.90007732411E+02  0.89999993679E+02 0.  0.
         12    1    1    2    0    0 -0.64443870499E+00  0.58685152099E+00 -0.79582386770E+00  0.11802675885E+01  0.00000000000E+00 0. -1.
         11    1    3    3    0    0 -0.78152058481E+01 -0.66003388731E+00  0.41932613387E+01  0.88936228893E+01  0.51100000000E-03 0. -1.
        -11    1    3    3    0    0 -0.20275707541E+02  0.35126618246E+01  0.30342828041E+02  0.36662382944E+02  0.51100000000E-03 0.  1.
         12    1    3    3    0    0  0.28735352094E+02 -0.34394794582E+01 -0.33740265512E+02  0.44451726578E+02  0.00000000000E+00 0. -1.
</event>
<event>
 7    1  0.1501154E-015  0.9000780E+02  0.7816164E-02  0.1186339E+00
        -11   -1    0    0    0    0  0.00000000000E+00  0.00000000000E+00  0.45593999997E+02  0.45594000000E+02  0.51100000000E-03 0.  1.
         11   -1    0    0    0    0 -0.00000000000E+00 -0.00000000000E+00 -0.45593999997E+02  0.45594000000E+02  0.51100000000E-03 0. -1.
    9900012    2    1    2    0    0 -0.66794353714E+00 -0.11746204759E-01  0.97292643655E+00  0.90007799850E+02  0.90000062008E+02 0.  0.
         12    1    1    2    0    0  0.66794353714E+00  0.11746204759E-01 -0.97292643655E+00  0.11802001496E+01  0.00000000000E+00 0. -1.
         11    1    3    3    0    0  0.94704340463E+01  0.32865557295E+02 -0.77826538783E+01  0.35077110471E+02  0.51100000000E-03 0. -1.
        -11    1    3    3    0    0  0.51719771714E+01  0.85880944951E+01  0.14575040967E+01  0.10130598865E+02  0.51100000000E-03 0.  1.
        -12    1    3    3    0    0 -0.15310354755E+02 -0.41465397995E+02  0.72980762181E+01  0.44800090514E+02  0.00000000000E+00 0.  1.
</event>
<event>
 7    1  0.1501154E-015  0.9000777E+02  0.7816164E-02  0.1186339E+00
        -11   -1    0    0    0    0  0.00000000000E+00  0.00000000000E+00  0.45593999997E+02  0.45594000000E+02  0.51100000000E-03 0.  1.
         11   -1    0    0    0    0 -0.00000000000E+00 -0.00000000000E+00 -0.45593999997E+02  0.45594000000E+02  0.51100000000E-03 0. -1.
    9900012    2    1    2    0    0  0.76416888856E+00 -0.72154205416E+00  0.53699551286E+00  0.90007770697E+02  0.90000032470E+02 0.  0.
         12    1    1    2    0    0 -0.76416888856E+00  0.72154205416E+00 -0.53699551286E+00  0.11802293027E+01  0.00000000000E+00 0. -1.
         11    1    3    3    0    0  0.34924557501E+01  0.35755236169E+01  0.76267788568E+01  0.91186277637E+01  0.51100000000E-03 0. -1.
        -11    1    3    3    0    0  0.35187235786E+02  0.77610108884E+01  0.10287986959E+02  0.37472890577E+02  0.51100000000E-03 0.  1.
         12    1    3    3    0    0 -0.37915522648E+02 -0.12058076559E+02 -0.17377770302E+02  0.43416252356E+02  0.00000000000E+00 0. -1.
</event>
<event>
 7    1  0.1501154E-015  0.9000801E+02  0.7816164E-02  0.1186339E+00
        -11   -1    0    0    0    0  0.00000000000E+00  0.00000000000E+00  0.45593999997E+02  0.45594000000E+02  0.51100000000E-03 0.  1.
         11   -1    0    0    0    0 -0.00000000000E+00 -0.00000000000E+00 -0.45593999997E+02  0.45594000000E+02  0.51100000000E-03 0. -1.
    9900012    2    1    2    0    0 -0.95223170485E+00 -0.45416455109E-01  0.69539392085E+00  0.90008008229E+02  0.90000273137E+02 0.  0.
         12    1    1    2    0    0  0.95223170485E+00  0.45416455109E-01 -0.69539392085E+00  0.11799917709E+01  0.00000000000E+00 0. -1.
         11    1    3    3    0    0 -0.14055029746E+02  0.82843663272E+01 -0.35091468033E+02  0.38698652633E+02  0.51100000000E-03 0. -1.
        -11    1    3    3    0    0  0.48331915110E+01 -0.29615046199E+01 -0.60711045388E+01  0.83059352501E+01  0.51100000000E-03 0.  1.
        -12    1    3    3    0    0  0.82696065304E+01 -0.53682781623E+01  0.41857966493E+02  0.43003420346E+02  0.00000000000E+00 0.  1.
</event>
<event>
 7    1  0.1501154E-015  0.9000793E+02  0.7816164E-02  0.1186339E+00
        -11   -1    0    0    0    0  0.00000000000E+00  0.00000000000E+00  0.45593999997E+02  0.45594000000E+02  0.51100000000E-03 0. -1.
         11   -1    0    0    0    0 -0.00000000000E+00 -0.00000000000E+00 -0.45593999997E+02  0.45594000000E+02  0.51100000000E-03 0.  1.
    9900012    2    1    2    0    0  0.50400097699E-01 -0.50319296353E+00 -0.10662142994E+01  0.90007933790E+02  0.90000197716E+02 0.  0.
         12    1    1    2    0    0 -0.50400097699E-01  0.50319296353E+00  0.10662142994E+01  0.11800662103E+01  0.00000000000E+00 0. -1.
         11    1    3    3    0    0 -0.21411926556E+01 -0.70654310831E+01  0.46339970167E+01  0.87165905600E+01  0.51100000000E-03 0. -1.
        -11    1    3    3    0    0 -0.24055425465E+02 -0.28363234928E+02 -0.55506497783E+01  0.37602477353E+02  0.51100000000E-03 0.  1.
         12    1    3    3    0    0  0.26247018218E+02  0.34925473047E+02 -0.14956153778E+00  0.43688865877E+02  0.00000000000E+00 0. -1.
</event>
<event>
 7    1  0.1501154E-015  0.9000778E+02  0.7816164E-02  0.1186339E+00
        -11   -1    0    0    0    0  0.00000000000E+00  0.00000000000E+00  0.45593999997E+02  0.45594000000E+02  0.51100000000E-03 0.  1.
         11   -1    0    0    0    0 -0.00000000000E+00 -0.00000000000E+00 -0.45593999997E+02  0.45594000000E+02  0.51100000000E-03 0. -1.
    9900012    2    1    2    0    0 -0.40792920015E+00  0.41965588830E+00  0.10248872484E+01  0.90007783423E+02  0.90000045364E+02 0.  0.
         12    1    1    2    0    0  0.40792920015E+00 -0.41965588830E+00 -0.10248872484E+01  0.11802165771E+01  0.00000000000E+00 0. -1.
         11    1    3    3    0    0 -0.28479047383E+01 -0.15012953752E+01  0.13789961007E+02  0.14160772367E+02  0.51100000000E-03 0. -1.
        -11    1    3    3    0    0 -0.14228723502E+02 -0.39596751107E+01  0.27865819725E+02  0.31537905902E+02  0.51100000000E-03 0.  1.
         12    1    3    3    0    0  0.16668699040E+02  0.58806263741E+01 -0.40630893484E+02  0.44309105154E+02  0.00000000000E+00 0. -1.
</event>
<event>
 7    1  0.1501154E-015  0.9000772E+02  0.7816164E-02  0.1186339E+00
        -11   -1    0    0    0    0  0.00000000000E+00  0.00000000000E+00  0.45593999997E+02  0.45594000000E+02  0.51100000000E-03 0. -1.
         11   -1    0    0    0    0 -0.00000000000E+00 -0.00000000000E+00 -0.45593999997E+02  0.45594000000E+02  0.51100000000E-03 0.  1.
    9900012    2    1    2    0    0 -0.68154164397E+00 -0.51934093397E+00 -0.81169059730E+00  0.90007722217E+02  0.89999983351E+02 0.  0.
         12    1    1    2    0    0  0.68154164397E+00  0.51934093397E+00  0.81169059730E+00  0.11802777825E+01  0.00000000000E+00 0. -1.
         11    1    3    3    0    0  0.11155018036E+02 -0.34778206149E+02  0.16318678581E+02  0.40003216386E+02  0.51100000000E-03 0. -1.
        -11    1    3    3    0    0 -0.55275209427E+01  0.46653198147E+01  0.79172745283E+01  0.10723895419E+02  0.51100000000E-03 0.  1.
        -12    1    3    3    0    0 -0.63090387368E+01  0.29593545400E+02 -0.25047643706E+02  0.39280610413E+02  0.00000000000E+00 0.  1.
</event>
<event>
 7    1  0.1501154E-015  0.9000779E+02  0.7816164E-02  0.1186339E+00
        -11   -1    0    0    0    0  0.00000000000E+00  0.00000000000E+00  0.45593999997E+02  0.45594000000E+02  0.51100000000E-03 0. -1.
         11   -1    0    0    0    0 -0.00000000000E+00 -0.00000000000E+00 -0.45593999997E+02  0.45594000000E+02  0.51100000000E-03 0.  1.
    9900012    2    1    2    0    0  0.10346384447E+01 -0.55870745985E+00  0.10126104784E+00  0.90007794706E+02  0.90000056796E+02 0.  0.
         12    1    1    2    0    0 -0.10346384447E+01  0.55870745985E+00 -0.10126104784E+00  0.11802052943E+01  0.00000000000E+00 0. -1.
         11    1    3    3    0    0 -0.76663923116E+01 -0.25326149032E+01 -0.35520776434E+01  0.88207122824E+01  0.51100000000E-03 0. -1.
        -11    1    3    3    0    0 -0.11280457161E+02 -0.33621179721E+02  0.15470998574E+02  0.38690880537E+02  0.51100000000E-03 0.  1.
         12    1    3    3    0    0  0.19981487917E+02  0.35595087165E+02 -0.11817659883E+02  0.42496201886E+02  0.00000000000E+00 0. -1.
</event>
<event>
 7    1  0.1501154E-015  0.9000774E+02  0.7816164E-02  0.1186339E+00
        -11   -1    0    0    0    0  0.00000000000E+00  0.00000000000E+00  0.45593999997E+02  0.45594000000E+02  0.51100000000E-03 0.  1.
         11   -1    0    0    0    0 -0.00000000000E+00 -0.00000000000E+00 -0.45593999997E+02  0.45594000000E+02  0.51100000000E-03 0. -1.
    9900012    2    1    2    0    0 -0.86150476614E+00  0.22002861782E+00  0.77614531023E+00  0.90007743842E+02  0.90000005261E+02 0.  0.
         12    1    1    2    0    0  0.86150476614E+00 -0.22002861782E+00 -0.77614531023E+00  0.11802561575E+01  0.00000000000E+00 0. -1.
         11    1    3    3    0    0  0.14095213923E+02  0.38273190666E+02 -0.29395614233E+01  0.40891969883E+02  0.51100000000E-03 0. -1.
        -11    1    3    3    0    0  0.69013627535E-01 -0.44037269397E+01 -0.90913234583E+01  0.10101966953E+02  0.51100000000E-03 0.  1.
        -12    1    3    3    0    0 -0.15025732317E+02 -0.33649435109E+02  0.12807030192E+02  0.39013807006E+02  0.00000000000E+00 0.  1.
</event>
<event>
 7    1  0.1501154E-015  0.9000778E+02  0.7816164E-02  0.1186339E+00
        -11   -1    0    0    0    0  0.00000000000E+00  0.00000000000E+00  0.45593999997E+02  0.45594000000E+02  0.51100000000E-03 0.  1.
         11   -1    0    0    0    0 -0.00000000000E+00 -0.00000000000E+00 -0.45593999997E+02  0.45594000000E+02  0.51100000000E-03 0. -1.
    9900012    2    1    2    0    0 -0.10965972665E+01 -0.41658615540E+00 -0.12982029957E+00  0.90007778453E+02  0.90000040329E+02 0.  0.
         12    1    1    2    0    0  0.10965972665E+01  0.41658615540E+00  0.12982029957E+00  0.11802215470E+01  0.00000000000E+00 0. -1.
         11    1    3    3    0    0 -0.23334667567E+01  0.12985158644E+02 -0.48874549469E+01  0.14069350669E+02  0.51100000000E-03 0. -1.
        -11    1    3    3    0    0  0.29278605035E+02  0.17430397526E+02  0.33385041876E+01  0.34237422233E+02  0.51100000000E-03 0.  1.
         12    1    3    3    0    0 -0.28041735545E+02 -0.30832142325E+02  0.14191304597E+01  0.41701005551E+02  0.00000000000E+00 0. -1.
</event>
<event>
 8    1  0.1501154E-015  0.9000758E+02  0.7816164E-02  0.1186339E+00
        -11   -1    0    0    0    0  0.00000000000E+00  0.00000000000E+00  0.45593999997E+02  0.45594000000E+02  0.51100000000E-03 0.  1.
         11   -1    0    0    0    0 -0.00000000000E+00 -0.00000000000E+00 -0.45593999997E+02  0.45594000000E+02  0.51100000000E-03 0. -1.
    9900012    2    1    2    0    0  0.67992795400E+00  0.88649457661E+00  0.38108496459E+00  0.90007576175E+02  0.89999835380E+02 0.  0.
         23    2    3    3    0    0  0.76495144918E-01 -0.20800543635E+02 -0.13852127816E+02  0.64060011673E+02  0.58984194353E+02 0.  0.
         12    1    1    2    0    0 -0.67992795400E+00 -0.88649457661E+00 -0.38108496459E+00  0.11804238253E+01  0.00000000000E+00 0. -1.
         11    1    4    4    0    0  0.17065312566E+02 -0.81835209141E+00 -0.29083240707E+02  0.33730245824E+02  0.51100000000E-03 0. -1.
        -11    1    4    4    0    0 -0.16988817421E+02 -0.19982191543E+02  0.15231112891E+02  0.30329765848E+02  0.51100000000E-03 0.  1.
        -12    1    3    3    0    0  0.60343280908E+00  0.21687038211E+02  0.14233212780E+02  0.25947564502E+02  0.00000000000E+00 0.  1.
</event>
<event>
 7    1  0.1501154E-015  0.9000788E+02  0.7816164E-02  0.1186339E+00
        -11   -1    0    0    0    0  0.00000000000E+00  0.00000000000E+00  0.45593999997E+02  0.45594000000E+02  0.51100000000E-03 0. -1.
         11   -1    0    0    0    0 -0.00000000000E+00 -0.00000000000E+00 -0.45593999997E+02  0.45594000000E+02  0.51100000000E-03 0.  1.
    9900012    2    1    2    0    0  0.10093139335E+01 -0.13648791543E+00 -0.59611098080E+00  0.90007876333E+02  0.90000139501E+02 0.  0.
         12    1    1    2    0    0 -0.10093139335E+01  0.13648791543E+00  0.59611098080E+00  0.11801236668E+01  0.00000000000E+00 0. -1.
         11    1    3    3    0    0  0.21812128988E+00 -0.12430171102E+02  0.50854685163E+01  0.13432003604E+02  0.51100000000E-03 0. -1.
        -11    1    3    3    0    0  0.26799323178E+02 -0.19826719878E+02 -0.10537249539E+02  0.34961924604E+02  0.51100000000E-03 0.  1.
         12    1    3    3    0    0 -0.26008130535E+02  0.32120403065E+02  0.48556700416E+01  0.41613948125E+02  0.00000000000E+00 0. -1.
</event>
<event>
 7    1  0.1501154E-015  0.9000773E+02  0.7816164E-02  0.1186339E+00
        -11   -1    0    0    0    0  0.00000000000E+00  0.00000000000E+00  0.45593999997E+02  0.45594000000E+02  0.51100000000E-03 0. -1.
         11   -1    0    0    0    0 -0.00000000000E+00 -0.00000000000E+00 -0.45593999997E+02  0.45594000000E+02  0.51100000000E-03 0.  1.
    9900012    2    1    2    0    0 -0.11789545548E+01  0.36488994283E-01 -0.42095553570E-01  0.90007729978E+02  0.89999991214E+02 0.  0.
         12    1    1    2    0    0  0.11789545548E+01 -0.36488994283E-01  0.42095553570E-01  0.11802700219E+01  0.00000000000E+00 0. -1.
         11    1    3    3    0    0  0.72458359823E+01 -0.72663978071E+01 -0.11860049228E+01  0.10330018592E+02  0.51100000000E-03 0. -1.
        -11    1    3    3    0    0 -0.30942026503E+02 -0.16712906561E+02 -0.20091775990E+02  0.40501971712E+02  0.51100000000E-03 0.  1.
         12    1    3    3    0    0  0.22517235966E+02  0.24015793362E+02  0.21235685359E+02  0.39175739674E+02  0.00000000000E+00 0. -1.
</event>
<event>
 7    1  0.1501154E-015  0.9000772E+02  0.7816164E-02  0.1186339E+00
        -11   -1    0    0    0    0  0.00000000000E+00  0.00000000000E+00  0.45593999997E+02  0.45594000000E+02  0.51100000000E-03 0.  1.
         11   -1    0    0    0    0 -0.00000000000E+00 -0.00000000000E+00 -0.45593999997E+02  0.45594000000E+02  0.51100000000E-03 0. -1.
    9900012    2    1    2    0    0 -0.99999487404E-01  0.10667949471E+01 -0.49498852143E+00  0.90007718257E+02  0.89999979338E+02 0.  0.
         12    1    1    2    0    0  0.99999487404E-01 -0.10667949471E+01  0.49498852143E+00  0.11802817431E+01  0.00000000000E+00 0. -1.
         11    1    3    3    0    0  0.88446518733E+01 -0.22063426377E+01  0.43792034602E+01  0.10113023178E+02  0.51100000000E-03 0. -1.
        -11    1    3    3    0    0  0.21402962666E+02 -0.88146997289E+01  0.26094869272E+02  0.34881627610E+02  0.51100000000E-03 0.  1.
         12    1    3    3    0    0 -0.30347614026E+02  0.12087837314E+02 -0.30969061253E+02  0.45013067469E+02  0.00000000000E+00 0. -1.
</event>
<event>
 7    1  0.1501154E-015  0.9000770E+02  0.7816164E-02  0.1186339E+00
        -11   -1    0    0    0    0  0.00000000000E+00  0.00000000000E+00  0.45593999997E+02  0.45594000000E+02  0.51100000000E-03 0. -1.
         11   -1    0    0    0    0 -0.00000000000E+00 -0.00000000000E+00 -0.45593999997E+02  0.45594000000E+02  0.51100000000E-03 0.  1.
    9900012    2    1    2    0    0  0.41240507227E+00  0.50179771978E+00 -0.98550435324E+00  0.90007704391E+02  0.89999965289E+02 0.  0.
         12    1    1    2    0    0 -0.41240507227E+00 -0.50179771978E+00  0.98550435324E+00  0.11802956094E+01  0.00000000000E+00 0. -1.
         11    1    3    3    0    0  0.40331830091E+01  0.37258987586E+02  0.98302625571E+01  0.38744454872E+02  0.51100000000E-03 0. -1.
        -11    1    3    3    0    0 -0.80272669379E+01 -0.60502904196E+00  0.70470468723E+01  0.10698782385E+02  0.51100000000E-03 0.  1.
        -12    1    3    3    0    0  0.44064890011E+01 -0.36152160825E+02 -0.17862813783E+02  0.40564467134E+02  0.00000000000E+00 0.  1.
</event>
<event>
 7    1  0.1501154E-015  0.9000780E+02  0.7816164E-02  0.1186339E+00
        -11   -1    0    0    0    0  0.00000000000E+00  0.00000000000E+00  0.45593999997E+02  0.45594000000E+02  0.51100000000E-03 0. -1.
         11   -1    0    0    0    0 -0.00000000000E+00 -0.00000000000E+00 -0.45593999997E+02  0.45594000000E+02  0.51100000000E-03 0.  1.
    9900012    2    1    2    0    0  0.94717251672E+00 -0.65522539682E+00  0.25769171550E+00  0.90007804627E+02  0.90000066849E+02 0.  0.
         12    1    1    2    0    0 -0.94717251672E+00  0.65522539682E+00 -0.25769171550E+00  0.11801953725E+01  0.00000000000E+00 0. -1.
         11    1    3    3    0    0  0.21782941114E+01  0.10041967807E+01 -0.98453325264E+01  0.10133308898E+02  0.51100000000E-03 0. -1.
        -11    1    3    3    0    0 -0.24538737179E+02 -0.31292520546E+02 -0.32007183592E+01  0.39895063138E+02  0.51100000000E-03 0.  1.
         12    1    3    3    0    0  0.23307615584E+02  0.29633098369E+02  0.13303742601E+02  0.39979432592E+02  0.00000000000E+00 0. -1.
</event>
<event>
 7    1  0.1501154E-015  0.9000778E+02  0.7816164E-02  0.1186339E+00
        -11   -1    0    0    0    0  0.00000000000E+00  0.00000000000E+00  0.45593999997E+02  0.45594000000E+02  0.51100000000E-03 0.  1.
         11   -1    0    0    0    0 -0.00000000000E+00 -0.00000000000E+00 -0.45593999997E+02  0.45594000000E+02  0.51100000000E-03 0. -1.
    9900012    2    1    2    0    0  0.55405121500E+00 -0.52147781569E-01  0.10407806682E+01  0.90007781148E+02  0.90000043059E+02 0.  0.
         12    1    1    2    0    0 -0.55405121500E+00  0.52147781569E-01 -0.10407806682E+01  0.11802188523E+01  0.00000000000E+00 0. -1.
         11    1    3    3    0    0 -0.28061400963E+01  0.88473600495E+01  0.78225733246E+01  0.12138486552E+02  0.51100000000E-03 0. -1.
        -11    1    3    3    0    0  0.15189674285E+02 -0.95136047738E+01  0.32350410050E+02  0.36983562719E+02  0.51100000000E-03 0.  1.
         12    1    3    3    0    0 -0.11829482974E+02  0.61409694278E+00 -0.39132202707E+02  0.40885731877E+02  0.00000000000E+00 0. -1.
</event>
<event>
 7    1  0.1501154E-015  0.9000783E+02  0.7816164E-02  0.1186339E+00
        -11   -1    0    0    0    0  0.00000000000E+00  0.00000000000E+00  0.45593999997E+02  0.45594000000E+02  0.51100000000E-03 0. -1.
         11   -1    0    0    0    0 -0.00000000000E+00 -0.00000000000E+00 -0.45593999997E+02  0.45594000000E+02  0.51100000000E-03 0.  1.
    9900012    2    1    2    0    0 -0.59443295697E+00 -0.99035101365E+00  0.24216558832E+00  0.90007834824E+02  0.90000097444E+02 0.  0.
         12    1    1    2    0    0  0.59443295697E+00  0.99035101365E+00 -0.24216558832E+00  0.11801651760E+01  0.00000000000E+00 0. -1.
         11    1    3    3    0    0  0.38347298571E+01  0.23153646781E+00  0.84827840999E+01  0.93121634737E+01  0.51100000000E-03 0. -1.
        -11    1    3    3    0    0  0.57677733760E+01  0.38449196980E+02  0.17338973641E+00  0.38879789382E+02  0.51100000000E-03 0.  1.
         12    1    3    3    0    0 -0.10196936190E+02 -0.39671084461E+02 -0.84140082480E+01  0.41815881968E+02  0.00000000000E+00 0. -1.
</event>
<event>
 7    1  0.2006069E-015  0.9000772E+02  0.7816164E-02  0.1186339E+00
        -11   -1    0    0    0    0  0.00000000000E+00  0.00000000000E+00  0.45593999997E+02  0.45594000000E+02  0.51100000000E-03 0. -1.
         11   -1    0    0    0    0 -0.00000000000E+00 -0.00000000000E+00 -0.45593999997E+02  0.45594000000E+02  0.51100000000E-03 0.  1.
    9900012    2    1    2    0    0  0.69353979304E+00 -0.74996219534E+00 -0.59129066735E+00  0.90007718088E+02  0.89999979167E+02 0.  0.
         12    1    1    2    0    0 -0.69353979304E+00  0.74996219534E+00  0.59129066735E+00  0.11802819122E+01  0.00000000000E+00 0. -1.
         11    1    3    3    0    0 -0.65460239147E+01  0.50846295593E+01 -0.46413396154E+01  0.94997852888E+01  0.51100000000E-03 0. -1.
        -11    1    3    3    0    0 -0.10793501886E+02  0.16809919835E+02 -0.29857696522E+02  0.35924297205E+02  0.51100000000E-03 0.  1.
         12    1    3    3    0    0  0.18033065594E+02 -0.22644511590E+02  0.33907745471E+02  0.44583635593E+02  0.00000000000E+00 0. -1.
</event>
<event>
 7    1  0.1501154E-015  0.9000775E+02  0.7816164E-02  0.1186339E+00
        -11   -1    0    0    0    0  0.00000000000E+00  0.00000000000E+00  0.45593999997E+02  0.45594000000E+02  0.51100000000E-03 0.  1.
         11   -1    0    0    0    0 -0.00000000000E+00 -0.00000000000E+00 -0.45593999997E+02  0.45594000000E+02  0.51100000000E-03 0. -1.
    9900012    2    1    2    0    0 -0.51347591253E+00 -0.47781265756E-01  0.10616240317E+01  0.90007751659E+02  0.90000013181E+02 0.  0.
         12    1    1    2    0    0  0.51347591253E+00  0.47781265756E-01 -0.10616240317E+01  0.11802483412E+01  0.00000000000E+00 0. -1.
         11    1    3    3    0    0 -0.90395209282E-01  0.16785029451E+02  0.87629287178E+01  0.18935002111E+02  0.51100000000E-03 0.  1.
        -11    1    3    3    0    0  0.27712717105E+02  0.83316708120E+01 -0.15048281534E+02  0.32616900608E+02  0.51100000000E-03 0. -1.
        -12    1    3    3    0    0 -0.28135797808E+02 -0.25164481529E+02  0.73469768481E+01  0.38455848940E+02  0.00000000000E+00 0.  1.
</event>
<event>
 7    1  0.1501154E-015  0.9000758E+02  0.7816164E-02  0.1186339E+00
        -11   -1    0    0    0    0  0.00000000000E+00  0.00000000000E+00  0.45593999997E+02  0.45594000000E+02  0.51100000000E-03 0.  1.
         11   -1    0    0    0    0 -0.00000000000E+00 -0.00000000000E+00 -0.45593999997E+02  0.45594000000E+02  0.51100000000E-03 0. -1.
    9900012    2    1    2    0    0  0.14031140112E+00 -0.11668310467E+01 -0.11054825926E+00  0.90007575120E+02  0.89999834311E+02 0.  0.
         12    1    1    2    0    0 -0.14031140112E+00  0.11668310467E+01  0.11054825926E+00  0.11804248805E+01  0.00000000000E+00 0. -1.
         11    1    3    3    0    0  0.21619568877E+02 -0.11294664570E+02 -0.30640753296E+02  0.39164154134E+02  0.51100000000E-03 0. -1.
        -11    1    3    3    0    0  0.99755455387E+00 -0.87754523534E+01  0.51050559429E+00  0.88467109887E+01  0.51100000000E-03 0.  1.
        -12    1    3    3    0    0 -0.22476812030E+02  0.18903285876E+02  0.30019699443E+02  0.41996709997E+02  0.00000000000E+00 0.  1.
</event>
<event>
 7    1  0.1501154E-015  0.9000768E+02  0.7816164E-02  0.1186339E+00
        -11   -1    0    0    0    0  0.00000000000E+00  0.00000000000E+00  0.45593999997E+02  0.45594000000E+02  0.51100000000E-03 0. -1.
         11   -1    0    0    0    0 -0.00000000000E+00 -0.00000000000E+00 -0.45593999997E+02  0.45594000000E+02  0.51100000000E-03 0.  1.
    9900012    2    1    2    0    0 -0.10788834879E+01 -0.21220210665E+00 -0.42910079430E+00  0.90007683599E+02  0.89999944223E+02 0.  0.
         12    1    1    2    0    0  0.10788834879E+01  0.21220210665E+00  0.42910079430E+00  0.11803164009E+01  0.00000000000E+00 0. -1.
         11    1    3    3    0    0 -0.34991818760E+02  0.13452642327E+02  0.58884427107E+01  0.37948316478E+02  0.51100000000E-03 0. -1.
        -11    1    3    3    0    0  0.17228352791E+01  0.90594695154E+01 -0.85738864795E+01  0.12591809994E+02  0.51100000000E-03 0.  1.
        -12    1    3    3    0    0  0.32190099993E+02 -0.22724313949E+02  0.22563429745E+01  0.39467557127E+02  0.00000000000E+00 0.  1.
</event>
<event>
 7    1  0.1501154E-015  0.9000768E+02  0.7816164E-02  0.1186339E+00
        -11   -1    0    0    0    0  0.00000000000E+00  0.00000000000E+00  0.45593999997E+02  0.45594000000E+02  0.51100000000E-03 0.  1.
         11   -1    0    0    0    0 -0.00000000000E+00 -0.00000000000E+00 -0.45593999997E+02  0.45594000000E+02  0.51100000000E-03 0. -1.
    9900012    2    1    2    0    0 -0.52025953402E+00 -0.28144275338E+00  0.10214078587E+01  0.90007680543E+02  0.89999941126E+02 0.  0.
         12    1    1    2    0    0  0.52025953402E+00  0.28144275338E+00 -0.10214078587E+01  0.11803194568E+01  0.00000000000E+00 0. -1.
         11    1    3    3    0    0  0.11969960443E+01 -0.51020264491E+01 -0.33719083143E+02  0.34123892534E+02  0.51100000000E-03 0. -1.
        -11    1    3    3    0    0 -0.82176059528E+01 -0.31837753150E+01 -0.80089520445E+01  0.11908349422E+02  0.51100000000E-03 0.  1.
        -12    1    3    3    0    0  0.65003503746E+01  0.80043590107E+01  0.42749443046E+02  0.43975438587E+02  0.00000000000E+00 0.  1.
</event>
<event>
 7    1  0.1501154E-015  0.9000772E+02  0.7816164E-02  0.1186339E+00
        -11   -1    0    0    0    0  0.00000000000E+00  0.00000000000E+00  0.45593999997E+02  0.45594000000E+02  0.51100000000E-03 0.  1.
         11   -1    0    0    0    0 -0.00000000000E+00 -0.00000000000E+00 -0.45593999997E+02  0.45594000000E+02  0.51100000000E-03 0. -1.
    9900012    2    1    2    0    0 -0.17690402627E+00 -0.98655307083E+00  0.62328678975E+00  0.90007716806E+02  0.89999977868E+02 0.  0.
         12    1    1    2    0    0  0.17690402627E+00  0.98655307083E+00 -0.62328678975E+00  0.11802831941E+01  0.00000000000E+00 0. -1.
         11    1    3    3    0    0  0.64382154294E+01 -0.54111821233E+01 -0.39134781126E+02  0.40028272558E+02  0.51100000000E-03 0. -1.
        -11    1    3    3    0    0  0.85158912792E+01  0.32296312771E+01  0.20561144640E+01  0.93369443297E+01  0.51100000000E-03 0.  1.
        -12    1    3    3    0    0 -0.15131010735E+02  0.11949977753E+01  0.37701953452E+02  0.40642499919E+02  0.00000000000E+00 0.  1.
</event>
<event>
 7    1  0.1501154E-015  0.9000772E+02  0.7816164E-02  0.1186339E+00
        -11   -1    0    0    0    0  0.00000000000E+00  0.00000000000E+00  0.45593999997E+02  0.45594000000E+02  0.51100000000E-03 0. -1.
         11   -1    0    0    0    0 -0.00000000000E+00 -0.00000000000E+00 -0.45593999997E+02  0.45594000000E+02  0.51100000000E-03 0.  1.
    9900012    2    1    2    0    0  0.84471566312E+00  0.80796311362E+00  0.16342467686E+00  0.90007721825E+02  0.89999982953E+02 0.  0.
         12    1    1    2    0    0 -0.84471566312E+00 -0.80796311362E+00 -0.16342467686E+00  0.11802781746E+01  0.00000000000E+00 0. -1.
         11    1    3    3    0    0  0.32993091598E+01  0.51180917218E+01  0.84896253824E+01  0.10447681236E+02  0.51100000000E-03 0. -1.
        -11    1    3    3    0    0 -0.17884122255E+02  0.30725180573E+02 -0.18321265658E+02  0.39994341170E+02  0.51100000000E-03 0.  1.
         12    1    3    3    0    0  0.15429528758E+02 -0.35035309182E+02  0.99950649520E+01  0.39565699419E+02  0.00000000000E+00 0. -1.
</event>
<event>
 7    1  0.1501154E-015  0.9000770E+02  0.7816164E-02  0.1186339E+00
        -11   -1    0    0    0    0  0.00000000000E+00  0.00000000000E+00  0.45593999997E+02  0.45594000000E+02  0.51100000000E-03 0.  1.
         11   -1    0    0    0    0 -0.00000000000E+00 -0.00000000000E+00 -0.45593999997E+02  0.45594000000E+02  0.51100000000E-03 0. -1.
    9900012    2    1    2    0    0  0.94848246938E+00  0.67722361720E+00 -0.18669525991E+00  0.90007700910E+02  0.89999961762E+02 0.  0.
         12    1    1    2    0    0 -0.94848246938E+00 -0.67722361720E+00  0.18669525991E+00  0.11802990903E+01  0.00000000000E+00 0. -1.
         11    1    3    3    0    0 -0.13468764905E+02  0.78632087141E+01  0.16804940332E+02  0.22926920839E+02  0.51100000000E-03 0. -1.
        -11    1    3    3    0    0  0.25498866381E+02  0.18932668318E+02 -0.21500532909E+02  0.38352457965E+02  0.51100000000E-03 0.  1.
         12    1    3    3    0    0 -0.11081619006E+02 -0.26118653414E+02  0.45088973167E+01  0.28728322105E+02  0.00000000000E+00 0. -1.
</event>
<event>
 7    1  0.1501154E-015  0.9000776E+02  0.7816164E-02  0.1186339E+00
        -11   -1    0    0    0    0  0.00000000000E+00  0.00000000000E+00  0.45593999997E+02  0.45594000000E+02  0.51100000000E-03 0.  1.
         11   -1    0    0    0    0 -0.00000000000E+00 -0.00000000000E+00 -0.45593999997E+02  0.45594000000E+02  0.51100000000E-03 0. -1.
    9900012    2    1    2    0    0 -0.55985038193E+00 -0.11732995957E+00  0.10323629623E+01  0.90007757628E+02  0.90000019229E+02 0.  0.
         12    1    1    2    0    0  0.55985038193E+00  0.11732995957E+00 -0.10323629623E+01  0.11802423715E+01  0.00000000000E+00 0. -1.
         11    1    3    3    0    0  0.11994349784E+01  0.57159845331E+01 -0.72380174486E+01  0.93005387101E+01  0.51100000000E-03 0. -1.
        -11    1    3    3    0    0  0.25328820244E+02 -0.32483558812E+02  0.10922025490E+02  0.42614802230E+02  0.51100000000E-03 0.  1.
         12    1    3    3    0    0 -0.27088105605E+02  0.26650244319E+02 -0.26516450794E+01  0.38092416688E+02  0.00000000000E+00 0. -1.
</event>
<event>
 7    1  0.1501154E-015  0.9000762E+02  0.7816164E-02  0.1186339E+00
        -11   -1    0    0    0    0  0.00000000000E+00  0.00000000000E+00  0.45593999997E+02  0.45594000000E+02  0.51100000000E-03 0. -1.
         11   -1    0    0    0    0 -0.00000000000E+00 -0.00000000000E+00 -0.45593999997E+02  0.45594000000E+02  0.51100000000E-03 0.  1.
    9900012    2    1    2    0    0 -0.93092056467E+00  0.24003807210E+00 -0.68488984175E+00  0.90007616389E+02  0.89999876125E+02 0.  0.
         12    1    1    2    0    0  0.93092056467E+00 -0.24003807210E+00  0.68488984175E+00  0.11803836110E+01  0.00000000000E+00 0. -1.
         11    1    3    3    0    0  0.10668871416E+02  0.36563717723E+02  0.90011282319E+01  0.39137585270E+02  0.51100000000E-03 0. -1.
        -11    1    3    3    0    0 -0.98896661785E+01  0.12036066994E+01  0.42105501472E+01  0.10815863304E+02  0.51100000000E-03 0.  1.
        -12    1    3    3    0    0 -0.17101258025E+01 -0.37527286350E+02 -0.13896568221E+02  0.40054167815E+02  0.00000000000E+00 0.  1.
</event>
<event>
 7    1  0.1501154E-015  0.9000777E+02  0.7816164E-02  0.1186339E+00
        -11   -1    0    0    0    0  0.00000000000E+00  0.00000000000E+00  0.45593999997E+02  0.45594000000E+02  0.51100000000E-03 0.  1.
         11   -1    0    0    0    0 -0.00000000000E+00 -0.00000000000E+00 -0.45593999997E+02  0.45594000000E+02  0.51100000000E-03 0. -1.
    9900012    2    1    2    0    0  0.89687060348E-01 -0.72948431747E+00  0.92344995473E+00  0.90007766567E+02  0.90000028285E+02 0.  0.
         12    1    1    2    0    0 -0.89687060348E-01  0.72948431747E+00 -0.92344995473E+00  0.11802334333E+01  0.00000000000E+00 0. -1.
         11    1    3    3    0    0 -0.65931855808E+00 -0.98065444912E+01 -0.38977018623E+01  0.10573320003E+02  0.51100000000E-03 0. -1.
        -11    1    3    3    0    0 -0.23771328806E+02  0.29319631148E+02  0.21593507477E+02  0.43485588524E+02  0.51100000000E-03 0.  1.
         12    1    3    3    0    0  0.24520334425E+02 -0.20242570974E+02 -0.16772355660E+02  0.35948858039E+02  0.00000000000E+00 0. -1.
</event>
<event>
 7    1  0.1501154E-015  0.9000767E+02  0.7816164E-02  0.1186339E+00
        -11   -1    0    0    0    0  0.00000000000E+00  0.00000000000E+00  0.45593999997E+02  0.45594000000E+02  0.51100000000E-03 0.  1.
         11   -1    0    0    0    0 -0.00000000000E+00 -0.00000000000E+00 -0.45593999997E+02  0.45594000000E+02  0.51100000000E-03 0. -1.
    9900012    2    1    2    0    0  0.10691704597E+01 -0.18091121628E+00  0.46618310188E+00  0.90007669104E+02  0.89999929536E+02 0.  0.
         12    1    1    2    0    0 -0.10691704597E+01  0.18091121628E+00 -0.46618310188E+00  0.11803308962E+01  0.00000000000E+00 0. -1.
         11    1    3    3    0    0  0.23040989228E+02 -0.60427420657E+00 -0.25281167945E+02  0.34210960011E+02  0.51100000000E-03 0. -1.
        -11    1    3    3    0    0  0.56019902985E+01  0.74166451938E+01 -0.75700256571E+01  0.11987251976E+02  0.51100000000E-03 0.  1.
        -12    1    3    3    0    0 -0.27573809066E+02 -0.69932822035E+01  0.33317376704E+02  0.43809457117E+02  0.00000000000E+00 0.  1.
</event>
<event>
 7    1  0.1501154E-015  0.9000779E+02  0.7816164E-02  0.1186339E+00
        -11   -1    0    0    0    0  0.00000000000E+00  0.00000000000E+00  0.45593999997E+02  0.45594000000E+02  0.51100000000E-03 0.  1.
         11   -1    0    0    0    0 -0.00000000000E+00 -0.00000000000E+00 -0.45593999997E+02  0.45594000000E+02  0.51100000000E-03 0. -1.
    9900012    2    1    2    0    0 -0.77047661922E+00  0.82187207925E+00 -0.35184298105E+00  0.90007787554E+02  0.90000049549E+02 0.  0.
         12    1    1    2    0    0  0.77047661922E+00 -0.82187207925E+00  0.35184298105E+00  0.11802124464E+01  0.00000000000E+00 0. -1.
         11    1    3    3    0    0  0.38509117207E+01  0.45463137101E+01 -0.72169914880E+01  0.93586033056E+01  0.51100000000E-03 0. -1.
        -11    1    3    3    0    0  0.34256023522E+02  0.12161148789E+02 -0.57391039565E+01  0.36800896754E+02  0.51100000000E-03 0.  1.
         12    1    3    3    0    0 -0.38877411862E+02 -0.15885590419E+02  0.12604252463E+02  0.43848287494E+02  0.00000000000E+00 0. -1.
</event>
<event>
 7    1  0.1501154E-015  0.9000783E+02  0.7816164E-02  0.1186339E+00
        -11   -1    0    0    0    0  0.00000000000E+00  0.00000000000E+00  0.45593999997E+02  0.45594000000E+02  0.51100000000E-03 0. -1.
         11   -1    0    0    0    0 -0.00000000000E+00 -0.00000000000E+00 -0.45593999997E+02  0.45594000000E+02  0.51100000000E-03 0.  1.
    9900012    2    1    2    0    0  0.16712384406E+00  0.88812581006E+00 -0.75901306346E+00  0.90007831087E+02  0.90000093657E+02 0.  0.
         12    1    1    2    0    0 -0.16712384406E+00 -0.88812581006E+00  0.75901306346E+00  0.11801689134E+01  0.00000000000E+00 0. -1.
         11    1    3    3    0    0 -0.32264243211E+01 -0.79581781257E+01 -0.10707565181E+01  0.86538391921E+01  0.51100000000E-03 0. -1.
        -11    1    3    3    0    0  0.11944139608E+02  0.38454291462E+02 -0.19476955611E+02  0.44729708282E+02  0.51100000000E-03 0.  1.
         12    1    3    3    0    0 -0.85505914424E+01 -0.29607987527E+02  0.19788699066E+02  0.36624283612E+02  0.00000000000E+00 0. -1.
</event>
<event>
 7    1  0.1501154E-015  0.9000769E+02  0.7816164E-02  0.1186339E+00
        -11   -1    0    0    0    0  0.00000000000E+00  0.00000000000E+00  0.45593999997E+02  0.45594000000E+02  0.51100000000E-03 0.  1.
         11   -1    0    0    0    0 -0.00000000000E+00 -0.00000000000E+00 -0.45593999997E+02  0.45594000000E+02  0.51100000000E-03 0. -1.
    9900012    2    1    2    0    0  0.76113301010E+00  0.49204137911E+00  0.75610627502E+00  0.90007692889E+02  0.89999953635E+02 0.  0.
         12    1    1    2    0    0 -0.76113301010E+00 -0.49204137911E+00 -0.75610627502E+00  0.11803071113E+01  0.00000000000E+00 0. -1.
         11    1    3    3    0    0 -0.23577398987E+02 -0.22654659866E+02 -0.11204731841E+02  0.34564047398E+02  0.51100000000E-03 0. -1.
        -11    1    3    3    0    0 -0.93744547810E+01 -0.31251354638E+01 -0.27244902892E+01  0.10250352272E+02  0.51100000000E-03 0.  1.
        -12    1    3    3    0    0  0.33712986778E+02  0.26271836709E+02  0.14685328405E+02  0.45193293218E+02  0.00000000000E+00 0.  1.
</event>
<event>
 7    1  0.1501154E-015  0.9000771E+02  0.7816164E-02  0.1186339E+00
        -11   -1    0    0    0    0  0.00000000000E+00  0.00000000000E+00  0.45593999997E+02  0.45594000000E+02  0.51100000000E-03 0. -1.
         11   -1    0    0    0    0 -0.00000000000E+00 -0.00000000000E+00 -0.45593999997E+02  0.45594000000E+02  0.51100000000E-03 0.  1.
    9900012    2    1    2    0    0  0.51649644720E-02 -0.73833397771E+00 -0.92082331038E+00  0.90007712193E+02  0.89999973193E+02 0.  0.
         12    1    1    2    0    0 -0.51649644720E-02  0.73833397771E+00  0.92082331038E+00  0.11802878075E+01  0.00000000000E+00 0. -1.
         11    1    3    3    0    0  0.34536943825E+00 -0.54911729316E+01 -0.45459800979E+01  0.71370999381E+01  0.51100000000E-03 0. -1.
        -11    1    3    3    0    0  0.73581863511E-01 -0.16817507390E+02 -0.34885998224E+02  0.38728114354E+02  0.51100000000E-03 0.  1.
         12    1    3    3    0    0 -0.41378633729E+00  0.21570346343E+02  0.38511155012E+02  0.44142497900E+02  0.00000000000E+00 0. -1.
</event>
<event>
 7    1  0.1501154E-015  0.9000780E+02  0.7816164E-02  0.1186339E+00
        -11   -1    0    0    0    0  0.00000000000E+00  0.00000000000E+00  0.45593999997E+02  0.45594000000E+02  0.51100000000E-03 0.  1.
         11   -1    0    0    0    0 -0.00000000000E+00 -0.00000000000E+00 -0.45593999997E+02  0.45594000000E+02  0.51100000000E-03 0. -1.
    9900012    2    1    2    0    0  0.34003210688E+00 -0.76700075773E+00  0.83003055856E+00  0.90007803947E+02  0.90000066159E+02 0.  0.
         12    1    1    2    0    0 -0.34003210688E+00  0.76700075773E+00 -0.83003055856E+00  0.11801960533E+01  0.00000000000E+00 0. -1.
         11    1    3    3    0    0 -0.31191302175E+02 -0.21723246522E+02  0.12351840824E+02  0.39967045711E+02  0.51100000000E-03 0. -1.
        -11    1    3    3    0    0 -0.25799412292E+01  0.55120187677E+00 -0.99147789638E+01  0.10259764248E+02  0.51100000000E-03 0.  1.
        -12    1    3    3    0    0  0.34111275511E+02  0.20405043888E+02 -0.16070313017E+01  0.39780993988E+02  0.00000000000E+00 0.  1.
</event>
<event>
 8    1  0.1501154E-015  0.9000780E+02  0.7816164E-02  0.1186339E+00
        -11   -1    0    0    0    0  0.00000000000E+00  0.00000000000E+00  0.45593999997E+02  0.45594000000E+02  0.51100000000E-03 0.  1.
         11   -1    0    0    0    0 -0.00000000000E+00 -0.00000000000E+00 -0.45593999997E+02  0.45594000000E+02  0.51100000000E-03 0. -1.
    9900012    2    1    2    0    0 -0.17287906017E+00 -0.50192041200E+00  0.10540673236E+01  0.90007801207E+02  0.90000063382E+02 0.  0.
         23    2    3    3    0    0 -0.22436318021E+02 -0.83830385209E+01 -0.12642382817E+02  0.62706418761E+02  0.56556179232E+02 0.  0.
         12    1    1    2    0    0  0.17287906017E+00  0.50192041200E+00 -0.10540673236E+01  0.11801987935E+01  0.00000000000E+00 0. -1.
         11    1    4    4    0    0 -0.14345571999E+02  0.23026165093E+02 -0.13410357701E+02  0.30262805699E+02  0.51100000000E-03 0. -1.
        -11    1    4    4    0    0 -0.80907460216E+01 -0.31409203613E+02  0.76797488439E+00  0.32443613062E+02  0.51100000000E-03 0.  1.
         12    1    3    3    0    0  0.22263438960E+02  0.78811181089E+01  0.13696450141E+02  0.27301382446E+02  0.00000000000E+00 0. -1.
</event>
<event>
 7    1  0.1527297E-015  0.9000765E+02  0.7816164E-02  0.1186339E+00
        -11   -1    0    0    0    0  0.00000000000E+00  0.00000000000E+00  0.45593999997E+02  0.45594000000E+02  0.51100000000E-03 0.  1.
         11   -1    0    0    0    0 -0.00000000000E+00 -0.00000000000E+00 -0.45593999997E+02  0.45594000000E+02  0.51100000000E-03 0. -1.
    9900012    2    1    2    0    0 -0.89187879632E+00  0.25369910404E+00  0.73034652338E+00  0.90007653836E+02  0.89999914067E+02 0.  0.
         12    1    1    2    0    0  0.89187879632E+00 -0.25369910404E+00 -0.73034652338E+00  0.11803461640E+01  0.00000000000E+00 0. -1.
         11    1    3    3    0    0 -0.28826812133E+02  0.25876449189E+02 -0.69649602028E+01  0.39358434818E+02  0.51100000000E-03 0. -1.
        -11    1    3    3    0    0  0.52679436067E+01  0.63532967389E+01 -0.47539571386E+01  0.95244799350E+01  0.51100000000E-03 0.  1.
        -12    1    3    3    0    0  0.22666989730E+02 -0.31976046824E+02  0.12449263865E+02  0.41124739083E+02  0.00000000000E+00 0.  1.
</event>
<event>
 7    1  0.1501154E-015  0.9000778E+02  0.7816164E-02  0.1186339E+00
        -11   -1    0    0    0    0  0.00000000000E+00  0.00000000000E+00  0.45593999997E+02  0.45594000000E+02  0.51100000000E-03 0. -1.
         11   -1    0    0    0    0 -0.00000000000E+00 -0.00000000000E+00 -0.45593999997E+02  0.45594000000E+02  0.51100000000E-03 0.  1.
    9900012    2    1    2    0    0  0.31238590454E+00  0.59473292770E+00 -0.97037936460E+00  0.90007776157E+02  0.90000038002E+02 0.  0.
         12    1    1    2    0    0 -0.31238590454E+00 -0.59473292770E+00  0.97037936460E+00  0.11802238431E+01  0.00000000000E+00 0. -1.
         11    1    3    3    0    0 -0.22137233071E+01  0.19642285671E+01  0.95464439314E+01  0.99946664147E+01  0.51100000000E-03 0. -1.
        -11    1    3    3    0    0  0.26715645495E+02  0.20917043477E+02 -0.26869970629E+02  0.43280985939E+02  0.51100000000E-03 0.  1.
         12    1    3    3    0    0 -0.24189536283E+02 -0.22286539116E+02  0.16353147332E+02  0.36732123803E+02  0.00000000000E+00 0. -1.
</event>
<event>
 7    1  0.1501154E-015  0.9000779E+02  0.7816164E-02  0.1186339E+00
        -11   -1    0    0    0    0  0.00000000000E+00  0.00000000000E+00  0.45593999997E+02  0.45594000000E+02  0.51100000000E-03 0.  1.
         11   -1    0    0    0    0 -0.00000000000E+00 -0.00000000000E+00 -0.45593999997E+02  0.45594000000E+02  0.51100000000E-03 0. -1.
    9900012    2    1    2    0    0  0.59301419872E+00  0.85736256110E+00 -0.55331913748E+00  0.90007788803E+02  0.90000050815E+02 0.  0.
         12    1    1    2    0    0 -0.59301419872E+00 -0.85736256110E+00  0.55331913748E+00  0.11802111968E+01  0.00000000000E+00 0. -1.
         11    1    3    3    0    0  0.67743679024E+01  0.54231147044E+01  0.31994454045E+01  0.92487125986E+01  0.51100000000E-03 0. -1.
        -11    1    3    3    0    0 -0.26519907170E+02 -0.24469061354E+02  0.22098714636E+02  0.42313043245E+02  0.51100000000E-03 0.  1.
         12    1    3    3    0    0  0.20338553466E+02  0.19903309211E+02 -0.25851479178E+02  0.38446032960E+02  0.00000000000E+00 0. -1.
</event>
<event>
 7    1  0.1501154E-015  0.9000774E+02  0.7816164E-02  0.1186339E+00
        -11   -1    0    0    0    0  0.00000000000E+00  0.00000000000E+00  0.45593999997E+02  0.45594000000E+02  0.51100000000E-03 0.  1.
         11   -1    0    0    0    0 -0.00000000000E+00 -0.00000000000E+00 -0.45593999997E+02  0.45594000000E+02  0.51100000000E-03 0. -1.
    9900012    2    1    2    0    0 -0.85260270117E+00 -0.63737319156E+00 -0.50975093184E+00  0.90007736485E+02  0.89999997807E+02 0.  0.
         12    1    1    2    0    0  0.85260270117E+00  0.63737319156E+00  0.50975093184E+00  0.11802635146E+01  0.00000000000E+00 0. -1.
         11    1    3    3    0    0  0.41522049548E+01 -0.14430800831E+02 -0.37969691747E+02  0.40831192859E+02  0.51100000000E-03 0. -1.
        -11    1    3    3    0    0 -0.95643952609E+01 -0.48162768079E+01  0.58215067492E+01  0.12188688202E+02  0.51100000000E-03 0.  1.
        -12    1    3    3    0    0  0.45595876050E+01  0.18609704448E+02  0.31638434066E+02  0.36987855425E+02  0.00000000000E+00 0.  1.
</event>
<event>
 7    1  0.1501154E-015  0.9000770E+02  0.7816164E-02  0.1186339E+00
        -11   -1    0    0    0    0  0.00000000000E+00  0.00000000000E+00  0.45593999997E+02  0.45594000000E+02  0.51100000000E-03 0.  1.
         11   -1    0    0    0    0 -0.00000000000E+00 -0.00000000000E+00 -0.45593999997E+02  0.45594000000E+02  0.51100000000E-03 0. -1.
    9900012    2    1    2    0    0  0.11517522400E+01 -0.91032219079E-01  0.24141646588E+00  0.90007702581E+02  0.89999963455E+02 0.  0.
         12    1    1    2    0    0 -0.11517522400E+01  0.91032219079E-01 -0.24141646588E+00  0.11802974190E+01  0.00000000000E+00 0. -1.
         11    1    3    3    0    0  0.35863424486E+02  0.72256244313E+00  0.34255912821E+01  0.36033900541E+02  0.51100000000E-03 0. -1.
        -11    1    3    3    0    0  0.87174083084E+01  0.20970080388E+01  0.40705918093E+01  0.98468456000E+01  0.51100000000E-03 0.  1.
        -12    1    3    3    0    0 -0.43429080554E+02 -0.29106027010E+01 -0.72547666255E+01  0.44126956440E+02  0.00000000000E+00 0.  1.
</event>
<event>
 7    1  0.1501154E-015  0.9000769E+02  0.7816164E-02  0.1186339E+00
        -11   -1    0    0    0    0  0.00000000000E+00  0.00000000000E+00  0.45593999997E+02  0.45594000000E+02  0.51100000000E-03 0.  1.
         11   -1    0    0    0    0 -0.00000000000E+00 -0.00000000000E+00 -0.45593999997E+02  0.45594000000E+02  0.51100000000E-03 0. -1.
    9900012    2    1    2    0    0 -0.28890428961E+00  0.37066071595E+00  0.10827191673E+01  0.90007688240E+02  0.89999948925E+02 0.  0.
         12    1    1    2    0    0  0.28890428961E+00 -0.37066071595E+00 -0.10827191673E+01  0.11803117598E+01  0.00000000000E+00 0. -1.
         11    1    3    3    0    0  0.82475448099E+01 -0.23639273580E+02  0.29794104991E+02  0.38916910762E+02  0.51100000000E-03 0. -1.
        -11    1    3    3    0    0 -0.38601820478E+00 -0.19009807804E+01  0.64066748938E+01  0.66938943402E+01  0.51100000000E-03 0.  1.
        -12    1    3    3    0    0 -0.81504308948E+01  0.25910915076E+02 -0.35118060717E+02  0.44396883138E+02  0.00000000000E+00 0.  1.
</event>
<event>
 7    1  0.1501154E-015  0.9000774E+02  0.7816164E-02  0.1186339E+00
        -11   -1    0    0    0    0  0.00000000000E+00  0.00000000000E+00  0.45593999997E+02  0.45594000000E+02  0.51100000000E-03 0. -1.
         11   -1    0    0    0    0 -0.00000000000E+00 -0.00000000000E+00 -0.45593999997E+02  0.45594000000E+02  0.51100000000E-03 0.  1.
    9900012    2    1    2    0    0 -0.65226336482E+00 -0.92865767395E+00  0.32428008550E+00  0.90007741492E+02  0.90000002879E+02 0.  0.
         12    1    1    2    0    0  0.65226336482E+00  0.92865767395E+00 -0.32428008550E+00  0.11802585083E+01  0.00000000000E+00 0. -1.
         11    1    3    3    0    0  0.44312869859E+01  0.13672610038E+01  0.75408891460E+01  0.88527236700E+01  0.51100000000E-03 0. -1.
        -11    1    3    3    0    0  0.36269911620E+02  0.91717293427E+01 -0.78951982138E+01  0.38235602037E+02  0.51100000000E-03 0.  1.
         12    1    3    3    0    0 -0.41353461970E+02 -0.11467648020E+02  0.67858915322E+00  0.42919415785E+02  0.00000000000E+00 0. -1.
</event>
<event>
 7    1  0.1501154E-015  0.9000768E+02  0.7816164E-02  0.1186339E+00
        -11   -1    0    0    0    0  0.00000000000E+00  0.00000000000E+00  0.45593999997E+02  0.45594000000E+02  0.51100000000E-03 0. -1.
         11   -1    0    0    0    0 -0.00000000000E+00 -0.00000000000E+00 -0.45593999997E+02  0.45594000000E+02  0.51100000000E-03 0.  1.
    9900012    2    1    2    0    0  0.69116944945E+00  0.21737693679E+00  0.93176068267E+00  0.90007683979E+02  0.89999944607E+02 0.  0.
         12    1    1    2    0    0 -0.69116944945E+00 -0.21737693679E+00 -0.93176068267E+00  0.11803160214E+01  0.00000000000E+00 0. -1.
         11    1    3    3    0    0  0.17709762469E+02  0.27643771438E+02  0.13159935110E+02  0.35369445548E+02  0.51100000000E-03 0. -1.
        -11    1    3    3    0    0  0.15499129075E+01  0.10395731067E+02  0.78553265732E+00  0.10539948589E+02  0.51100000000E-03 0.  1.
        -12    1    3    3    0    0 -0.18568505927E+02 -0.37822125568E+02 -0.13013707085E+02  0.44098289842E+02  0.00000000000E+00 0.  1.
</event>
<event>
 7    1  0.1501154E-015  0.9000778E+02  0.7816164E-02  0.1186339E+00
        -11   -1    0    0    0    0  0.00000000000E+00  0.00000000000E+00  0.45593999997E+02  0.45594000000E+02  0.51100000000E-03 0. -1.
         11   -1    0    0    0    0 -0.00000000000E+00 -0.00000000000E+00 -0.45593999997E+02  0.45594000000E+02  0.51100000000E-03 0.  1.
    9900012    2    1    2    0    0  0.96030413519E+00  0.14733912647E+00 -0.67010116863E+00  0.90007776112E+02  0.90000037956E+02 0.  0.
         12    1    1    2    0    0 -0.96030413519E+00 -0.14733912647E+00  0.67010116863E+00  0.11802238883E+01  0.00000000000E+00 0. -1.
         11    1    3    3    0    0 -0.59026501894E+01  0.41115528256E+01 -0.47304805868E+01  0.86095059521E+01  0.51100000000E-03 0. -1.
        -11    1    3    3    0    0 -0.19907500798E+02  0.21117585560E+02 -0.21984399351E+02  0.36408444391E+02  0.51100000000E-03 0.  1.
         12    1    3    3    0    0  0.26770455123E+02 -0.25081799259E+02  0.26044778769E+02  0.44989825768E+02  0.00000000000E+00 0. -1.
</event>
<event>
 7    1  0.1501154E-015  0.9000769E+02  0.7816164E-02  0.1186339E+00
        -11   -1    0    0    0    0  0.00000000000E+00  0.00000000000E+00  0.45593999997E+02  0.45594000000E+02  0.51100000000E-03 0. -1.
         11   -1    0    0    0    0 -0.00000000000E+00 -0.00000000000E+00 -0.45593999997E+02  0.45594000000E+02  0.51100000000E-03 0.  1.
    9900012    2    1    2    0    0 -0.19007943845E+00 -0.28255565551E+00 -0.11301131077E+01  0.90007693460E+02  0.89999954214E+02 0.  0.
         12    1    1    2    0    0  0.19007943845E+00  0.28255565551E+00  0.11301131077E+01  0.11803065396E+01  0.00000000000E+00 0. -1.
         11    1    3    3    0    0 -0.29498218326E+02 -0.21523748171E+02 -0.16987217414E+01  0.36555468477E+02  0.51100000000E-03 0. -1.
        -11    1    3    3    0    0 -0.75224071643E+01 -0.33173353209E+01  0.38199379620E+01  0.90654977509E+01  0.51100000000E-03 0.  1.
        -12    1    3    3    0    0  0.36830546052E+02  0.24558527837E+02 -0.32513293283E+01  0.44386727232E+02  0.00000000000E+00 0.  1.
</event>
<event>
 7    1  0.1501154E-015  0.9000740E+02  0.7816164E-02  0.1186340E+00
        -11   -1    0    0    0    0  0.00000000000E+00  0.00000000000E+00  0.45593999997E+02  0.45594000000E+02  0.51100000000E-03 0.  1.
         11   -1    0    0    0    0 -0.00000000000E+00 -0.00000000000E+00 -0.45593999997E+02  0.45594000000E+02  0.51100000000E-03 0. -1.
    9900012    2    1    2    0    0  0.44084380167E+00 -0.65139346668E+00  0.88043646049E+00  0.90007396313E+02  0.89999653143E+02 0.  0.
         12    1    1    2    0    0 -0.44084380167E+00  0.65139346668E+00 -0.88043646049E+00  0.11806036875E+01  0.00000000000E+00 0. -1.
         11    1    3    3    0    0  0.91000495728E+01 -0.21346813209E+02 -0.33433303814E+02  0.40697458650E+02  0.51100000000E-03 0. -1.
        -11    1    3    3    0    0 -0.63246325273E+01  0.49243050667E+01 -0.31364763434E+01  0.86073945598E+01  0.51100000000E-03 0.  1.
        -12    1    3    3    0    0 -0.23345732438E+01  0.15771114676E+02  0.37450216617E+02  0.40702543103E+02  0.00000000000E+00 0.  1.
</event>
<event>
 7    1  0.1501154E-015  0.9000773E+02  0.7816164E-02  0.1186339E+00
        -11   -1    0    0    0    0  0.00000000000E+00  0.00000000000E+00  0.45593999997E+02  0.45594000000E+02  0.51100000000E-03 0.  1.
         11   -1    0    0    0    0 -0.00000000000E+00 -0.00000000000E+00 -0.45593999997E+02  0.45594000000E+02  0.51100000000E-03 0. -1.
    9900012    2    1    2    0    0 -0.63856041348E+00 -0.90452390166E+00  0.40879886996E+00  0.90007729096E+02  0.89999990320E+02 0.  0.
         12    1    1    2    0    0  0.63856041348E+00  0.90452390166E+00 -0.40879886996E+00  0.11802709038E+01  0.00000000000E+00 0. -1.
         11    1    3    3    0    0 -0.12186622468E+02  0.15304863467E+01 -0.90851968041E+01  0.15277334744E+02  0.51100000000E-03 0. -1.
        -11    1    3    3    0    0 -0.15360659298E+02  0.52027788690E+00 -0.25932612120E+02  0.30144998172E+02  0.51100000000E-03 0.  1.
         12    1    3    3    0    0  0.26908721353E+02 -0.29552881353E+01  0.35426607794E+02  0.44585396181E+02  0.00000000000E+00 0. -1.
</event>
<event>
 7    1  0.1501154E-015  0.9000792E+02  0.7816164E-02  0.1186339E+00
        -11   -1    0    0    0    0  0.00000000000E+00  0.00000000000E+00  0.45593999997E+02  0.45594000000E+02  0.51100000000E-03 0.  1.
         11   -1    0    0    0    0 -0.00000000000E+00 -0.00000000000E+00 -0.45593999997E+02  0.45594000000E+02  0.51100000000E-03 0. -1.
    9900012    2    1    2    0    0 -0.83036114142E+00  0.54243399456E+00  0.63942611863E+00  0.90007915247E+02  0.90000178928E+02 0.  0.
         12    1    1    2    0    0  0.83036114142E+00 -0.54243399456E+00 -0.63942611863E+00  0.11800847532E+01  0.00000000000E+00 0. -1.
         11    1    3    3    0    0 -0.47731174104E+00 -0.83388885985E+01  0.23485284675E+01  0.86764322034E+01  0.51100000000E-03 0. -1.
        -11    1    3    3    0    0  0.37919860836E+02  0.13855959060E+02  0.88239821882E+01  0.41325126851E+02  0.51100000000E-03 0.  1.
         12    1    3    3    0    0 -0.38272910237E+02 -0.49746364666E+01 -0.10533084537E+02  0.40006356193E+02  0.00000000000E+00 0. -1.
</event>
<event>
 7    1  0.1501154E-015  0.9000771E+02  0.7816164E-02  0.1186339E+00
        -11   -1    0    0    0    0  0.00000000000E+00  0.00000000000E+00  0.45593999997E+02  0.45594000000E+02  0.51100000000E-03 0.  1.
         11   -1    0    0    0    0 -0.00000000000E+00 -0.00000000000E+00 -0.45593999997E+02  0.45594000000E+02  0.51100000000E-03 0. -1.
    9900012    2    1    2    0    0  0.50218236754E+00  0.85277933610E+00  0.64316089376E+00  0.90007713737E+02  0.89999974759E+02 0.  0.
         12    1    1    2    0    0 -0.50218236754E+00 -0.85277933610E+00 -0.64316089376E+00  0.11802862626E+01  0.00000000000E+00 0. -1.
         11    1    3    3    0    0 -0.47375511028E+01 -0.66626612200E+01 -0.17830121317E+01  0.83674713926E+01  0.51100000000E-03 0. -1.
        -11    1    3    3    0    0  0.12910706213E+01  0.22316213245E+01  0.41718497118E+02  0.41798086071E+02  0.51100000000E-03 0.  1.
         12    1    3    3    0    0  0.39486628490E+01  0.52838192316E+01 -0.39292324093E+02  0.39842156274E+02  0.00000000000E+00 0. -1.
</event>
<event>
 7    1  0.1501154E-015  0.9000859E+02  0.7816164E-02  0.1186337E+00
        -11   -1    0    0    0    0  0.00000000000E+00  0.00000000000E+00  0.45593999997E+02  0.45594000000E+02  0.51100000000E-03 0.  1.
         11   -1    0    0    0    0 -0.00000000000E+00 -0.00000000000E+00 -0.45593999997E+02  0.45594000000E+02  0.51100000000E-03 0. -1.
    9900012    2    1    2    0    0 -0.73375926973E+00 -0.85016010083E+00 -0.36031674937E+00  0.90008592088E+02  0.90000864699E+02 0.  0.
         12    1    1    2    0    0  0.73375926973E+00  0.85016010083E+00  0.36031674937E+00  0.11794079120E+01  0.00000000000E+00 0. -1.
         11    1    3    3    0    0 -0.99622727624E+01  0.31526534368E+01 -0.14328189568E+01  0.10546993539E+02  0.51100000000E-03 0. -1.
        -11    1    3    3    0    0 -0.64000804223E+01 -0.17404485571E+02  0.35096094075E+02  0.39693991573E+02  0.51100000000E-03 0.  1.
         12    1    3    3    0    0  0.15628593915E+02  0.13401672033E+02 -0.34023591868E+02  0.39767606976E+02  0.00000000000E+00 0. -1.
</event>
<event>
 7    1  0.1501154E-015  0.9000765E+02  0.7816164E-02  0.1186339E+00
        -11   -1    0    0    0    0  0.00000000000E+00  0.00000000000E+00  0.45593999997E+02  0.45594000000E+02  0.51100000000E-03 0. -1.
         11   -1    0    0    0    0 -0.00000000000E+00 -0.00000000000E+00 -0.45593999997E+02  0.45594000000E+02  0.51100000000E-03 0.  1.
    9900012    2    1    2    0    0 -0.33987763756E-01 -0.11785648161E+01  0.55270784960E-01  0.90007650453E+02  0.89999910639E+02 0.  0.
         12    1    1    2    0    0  0.33987763756E-01  0.11785648161E+01 -0.55270784960E-01  0.11803495472E+01  0.00000000000E+00 0. -1.
         11    1    3    3    0    0  0.14218243235E+01  0.25339390115E+02  0.29208692601E+02  0.38694366509E+02  0.51100000000E-03 0. -1.
        -11    1    3    3    0    0  0.28262487112E+01  0.74582089463E+01 -0.58611445751E+01  0.98977562334E+01  0.51100000000E-03 0.  1.
        -12    1    3    3    0    0 -0.42820607984E+01 -0.33976163877E+02 -0.23292277241E+02  0.41415527711E+02  0.00000000000E+00 0.  1.
</event>
<event>
 7    1  0.1501154E-015  0.9000858E+02  0.7816164E-02  0.1186337E+00
        -11   -1    0    0    0    0  0.00000000000E+00  0.00000000000E+00  0.45593999997E+02  0.45594000000E+02  0.51100000000E-03 0.  1.
         11   -1    0    0    0    0 -0.00000000000E+00 -0.00000000000E+00 -0.45593999997E+02  0.45594000000E+02  0.51100000000E-03 0. -1.
    9900012    2    1    2    0    0  0.83842562903E+00  0.40351550910E+00  0.72473782918E+00  0.90008581829E+02  0.90000854305E+02 0.  0.
         12    1    1    2    0    0 -0.83842562903E+00 -0.40351550910E+00 -0.72473782918E+00  0.11794181712E+01  0.00000000000E+00 0. -1.
         11    1    3    3    0    0  0.10766151873E+02  0.27211547209E+02 -0.33026108470E+02  0.44125980653E+02  0.51100000000E-03 0. -1.
        -11    1    3    3    0    0 -0.49509914240E+01 -0.13944641958E+01  0.65124819865E+01  0.82987510120E+01  0.51100000000E-03 0.  1.
        -12    1    3    3    0    0 -0.49767348196E+01 -0.25413567504E+02  0.27238364312E+02  0.37583850164E+02  0.00000000000E+00 0.  1.
</event>
<event>
 7    1  0.1501154E-015  0.9000803E+02  0.7816164E-02  0.1186338E+00
        -11   -1    0    0    0    0  0.00000000000E+00  0.00000000000E+00  0.45593999997E+02  0.45594000000E+02  0.51100000000E-03 0. -1.
         11   -1    0    0    0    0 -0.00000000000E+00 -0.00000000000E+00 -0.45593999997E+02  0.45594000000E+02  0.51100000000E-03 0.  1.
    9900012    2    1    2    0    0  0.22446329742E+00 -0.10541575073E+01 -0.48031963521E+00  0.90008025943E+02  0.90000291085E+02 0.  0.
         12    1    1    2    0    0 -0.22446329742E+00  0.10541575073E+01  0.48031963521E+00  0.11799740565E+01  0.00000000000E+00 0. -1.
         11    1    3    3    0    0 -0.14447695238E+01 -0.84096947503E+01 -0.47784001914E+00  0.85462656239E+01  0.51100000000E-03 0. -1.
        -11    1    3    3    0    0  0.39003709941E+02 -0.98006371909E+01 -0.25357965869E+01  0.40296056173E+02  0.51100000000E-03 0.  1.
         12    1    3    3    0    0 -0.37334477120E+02  0.17156174434E+02  0.25333169708E+01  0.41165704147E+02  0.00000000000E+00 0. -1.
</event>
<event>
 7    1  0.1501154E-015  0.9000791E+02  0.7816164E-02  0.1186339E+00
        -11   -1    0    0    0    0  0.00000000000E+00  0.00000000000E+00  0.45593999997E+02  0.45594000000E+02  0.51100000000E-03 0. -1.
         11   -1    0    0    0    0 -0.00000000000E+00 -0.00000000000E+00 -0.45593999997E+02  0.45594000000E+02  0.51100000000E-03 0.  1.
    9900012    2    1    2    0    0  0.47094838236E-01  0.11634036082E+01 -0.19205960033E+00  0.90007909847E+02  0.90000173457E+02 0.  0.
         12    1    1    2    0    0 -0.47094838236E-01 -0.11634036082E+01  0.19205960033E+00  0.11800901531E+01  0.00000000000E+00 0. -1.
         11    1    3    3    0    0  0.97330933227E+00  0.91010217814E+01  0.57021246220E+01  0.10783791262E+02  0.51100000000E-03 0. -1.
        -11    1    3    3    0    0 -0.15108648405E+02  0.28693159931E+02  0.13848669183E+02  0.35261229727E+02  0.51100000000E-03 0.  1.
         12    1    3    3    0    0  0.14182433911E+02 -0.36630778104E+02 -0.19742853405E+02  0.43962888858E+02  0.00000000000E+00 0. -1.
</event>
<event>
 7    1  0.1501154E-015  0.9000781E+02  0.7816164E-02  0.1186339E+00
        -11   -1    0    0    0    0  0.00000000000E+00  0.00000000000E+00  0.45593999997E+02  0.45594000000E+02  0.51100000000E-03 0.  1.
         11   -1    0    0    0    0 -0.00000000000E+00 -0.00000000000E+00 -0.45593999997E+02  0.45594000000E+02  0.51100000000E-03 0. -1.
    9900012    2    1    2    0    0 -0.78463421952E+00  0.44048423699E+00  0.76365225297E+00  0.90007812733E+02  0.90000075061E+02 0.  0.
         12    1    1    2    0    0  0.78463421952E+00 -0.44048423699E+00 -0.76365225297E+00  0.11801872669E+01  0.00000000000E+00 0. -1.
         11    1    3    3    0    0 -0.71150393748E+01 -0.47686644206E+01 -0.86101304619E+00  0.86084429130E+01  0.51100000000E-03 0. -1.
        -11    1    3    3    0    0  0.80018861903E+00 -0.30875627756E+02  0.23527822121E+02  0.38826577305E+02  0.51100000000E-03 0.  1.
         12    1    3    3    0    0  0.55302165362E+01  0.36084776414E+02 -0.21903156822E+02  0.42572792515E+02  0.00000000000E+00 0. -1.
</event>
<event>
 7    1  0.1501154E-015  0.9000775E+02  0.7816164E-02  0.1186339E+00
        -11   -1    0    0    0    0  0.00000000000E+00  0.00000000000E+00  0.45593999997E+02  0.45594000000E+02  0.51100000000E-03 0.  1.
         11   -1    0    0    0    0 -0.00000000000E+00 -0.00000000000E+00 -0.45593999997E+02  0.45594000000E+02  0.51100000000E-03 0. -1.
    9900012    2    1    2    0    0 -0.10552115939E+01 -0.22104532278E+00  0.48025931110E+00  0.90007753607E+02  0.90000015154E+02 0.  0.
         12    1    1    2    0    0  0.10552115939E+01  0.22104532278E+00 -0.48025931110E+00  0.11802463932E+01  0.00000000000E+00 0. -1.
         11    1    3    3    0    0  0.21409488798E+01 -0.43024567313E+01 -0.78881345411E+01  0.92367452509E+01  0.51100000000E-03 0. -1.
        -11    1    3    3    0    0  0.23581569585E+02 -0.28229810340E+02  0.11893130323E+02  0.38658235410E+02  0.51100000000E-03 0.  1.
         12    1    3    3    0    0 -0.26777730059E+02  0.32311221748E+02 -0.35247364704E+01  0.42112772945E+02  0.00000000000E+00 0. -1.
</event>
<event>
 7    1  0.1501154E-015  0.9000794E+02  0.7816164E-02  0.1186339E+00
        -11   -1    0    0    0    0  0.00000000000E+00  0.00000000000E+00  0.45593999997E+02  0.45594000000E+02  0.51100000000E-03 0. -1.
         11   -1    0    0    0    0 -0.00000000000E+00 -0.00000000000E+00 -0.45593999997E+02  0.45594000000E+02  0.51100000000E-03 0.  1.
    9900012    2    1    2    0    0 -0.10052140822E+00 -0.53600269094E+00 -0.10464867836E+01  0.90007941516E+02  0.90000205543E+02 0.  0.
         12    1    1    2    0    0  0.10052140822E+00  0.53600269094E+00  0.10464867836E+01  0.11800584844E+01  0.00000000000E+00 0. -1.
         11    1    3    3    0    0 -0.96098526421E+01 -0.28622709792E+02  0.31338544058E+02  0.43516814309E+02  0.51100000000E-03 0. -1.
        -11    1    3    3    0    0  0.44958520296E+01  0.50387385702E-01 -0.71098035952E+01  0.84121657012E+01  0.51100000000E-03 0.  1.
        -12    1    3    3    0    0  0.50134792042E+01  0.28036319716E+02 -0.25275227247E+02  0.38078961505E+02  0.00000000000E+00 0.  1.
</event>
<event>
 7    1  0.1501154E-015  0.9000772E+02  0.7816164E-02  0.1186339E+00
        -11   -1    0    0    0    0  0.00000000000E+00  0.00000000000E+00  0.45593999997E+02  0.45594000000E+02  0.51100000000E-03 0.  1.
         11   -1    0    0    0    0 -0.00000000000E+00 -0.00000000000E+00 -0.45593999997E+02  0.45594000000E+02  0.51100000000E-03 0. -1.
    9900012    2    1    2    0    0 -0.11784368538E+01 -0.50686253175E-01  0.42077374364E-01  0.90007723329E+02  0.89999984477E+02 0.  0.
         12    1    1    2    0    0  0.11784368538E+01  0.50686253175E-01 -0.42077374364E-01  0.11802766710E+01  0.00000000000E+00 0. -1.
         11    1    3    3    0    0 -0.67563235122E+01 -0.10346852667E+01  0.61508517650E+01  0.91951867137E+01  0.51100000000E-03 0. -1.
        -11    1    3    3    0    0 -0.20842325840E+02 -0.21516177618E+02  0.21161936722E+02  0.36676641229E+02  0.51100000000E-03 0.  1.
         12    1    3    3    0    0  0.26420212498E+02  0.22500176632E+02 -0.27270711113E+02  0.44135895386E+02  0.00000000000E+00 0. -1.
</event>
<event>
 7    1  0.1501154E-015  0.9000773E+02  0.7816164E-02  0.1186339E+00
        -11   -1    0    0    0    0  0.00000000000E+00  0.00000000000E+00  0.45593999997E+02  0.45594000000E+02  0.51100000000E-03 0.  1.
         11   -1    0    0    0    0 -0.00000000000E+00 -0.00000000000E+00 -0.45593999997E+02  0.45594000000E+02  0.51100000000E-03 0. -1.
    9900012    2    1    2    0    0  0.51108804505E-01  0.43389668497E+00  0.10964342866E+01  0.90007726054E+02  0.89999987238E+02 0.  0.
         12    1    1    2    0    0 -0.51108804505E-01 -0.43389668497E+00 -0.10964342866E+01  0.11802739462E+01  0.00000000000E+00 0. -1.
         11    1    3    3    0    0 -0.17134990515E+01  0.19512387585E+01  0.82070168697E+01  0.86080507580E+01  0.51100000000E-03 0. -1.
        -11    1    3    3    0    0  0.15826712887E+02 -0.27963997106E+02  0.22542911972E+02  0.39251151008E+02  0.51100000000E-03 0.  1.
         12    1    3    3    0    0 -0.14062105031E+02  0.26446655033E+02 -0.29653494555E+02  0.42148524288E+02  0.00000000000E+00 0. -1.
</event>
<event>
 7    1  0.1501154E-015  0.9000773E+02  0.7816164E-02  0.1186339E+00
        -11   -1    0    0    0    0  0.00000000000E+00  0.00000000000E+00  0.45593999997E+02  0.45594000000E+02  0.51100000000E-03 0.  1.
         11   -1    0    0    0    0 -0.00000000000E+00 -0.00000000000E+00 -0.45593999997E+02  0.45594000000E+02  0.51100000000E-03 0. -1.
    9900012    2    1    2    0    0  0.11114610785E+01  0.35244697257E+00  0.18296321996E+00  0.90007728786E+02  0.89999990006E+02 0.  0.
         12    1    1    2    0    0 -0.11114610785E+01 -0.35244697257E+00 -0.18296321996E+00  0.11802712135E+01  0.00000000000E+00 0. -1.
         11    1    3    3    0    0  0.12522803970E+01  0.36893165457E+02 -0.33556065196E+01  0.37066615154E+02  0.51100000000E-03 0. -1.
        -11    1    3    3    0    0 -0.47437704314E-01  0.72200661178E+01 -0.44153314031E+01  0.84632592269E+01  0.51100000000E-03 0.  1.
        -12    1    3    3    0    0 -0.93381614142E-01 -0.43760784602E+02  0.79539011426E+01  0.44477854405E+02  0.00000000000E+00 0.  1.
</event>
<event>
 7    1  0.1501154E-015  0.9000766E+02  0.7816164E-02  0.1186339E+00
        -11   -1    0    0    0    0  0.00000000000E+00  0.00000000000E+00  0.45593999997E+02  0.45594000000E+02  0.51100000000E-03 0.  1.
         11   -1    0    0    0    0 -0.00000000000E+00 -0.00000000000E+00 -0.45593999997E+02  0.45594000000E+02  0.51100000000E-03 0. -1.
    9900012    2    1    2    0    0  0.77481556873E+00 -0.78721308402E+00 -0.41611120894E+00  0.90007664394E+02  0.89999924764E+02 0.  0.
         12    1    1    2    0    0 -0.77481556873E+00  0.78721308402E+00  0.41611120894E+00  0.11803356063E+01  0.00000000000E+00 0. -1.
         11    1    3    3    0    0 -0.62909298278E+01  0.13541417626E+01  0.56944056787E+01  0.85927733768E+01  0.51100000000E-03 0. -1.
        -11    1    3    3    0    0 -0.36518520322E+02 -0.73760365192E+01 -0.39404873877E+01  0.37463791617E+02  0.51100000000E-03 0.  1.
         12    1    3    3    0    0  0.43584265718E+02  0.52346816727E+01 -0.21700294998E+01  0.43951099400E+02  0.00000000000E+00 0. -1.
</event>
<event>
 7    1  0.1501154E-015  0.9000781E+02  0.7816164E-02  0.1186339E+00
        -11   -1    0    0    0    0  0.00000000000E+00  0.00000000000E+00  0.45593999997E+02  0.45594000000E+02  0.51100000000E-03 0.  1.
         11   -1    0    0    0    0 -0.00000000000E+00 -0.00000000000E+00 -0.45593999997E+02  0.45594000000E+02  0.51100000000E-03 0. -1.
    9900012    2    1    2    0    0 -0.76034279390E-01 -0.11261037754E+01 -0.34489888302E+00  0.90007810963E+02  0.90000073267E+02 0.  0.
         12    1    1    2    0    0  0.76034279390E-01  0.11261037754E+01  0.34489888302E+00  0.11801890375E+01  0.00000000000E+00 0. -1.
         11    1    3    3    0    0 -0.32612710398E+02 -0.16457984191E+02 -0.12749536684E+02  0.38691146391E+02  0.51100000000E-03 0. -1.
        -11    1    3    3    0    0 -0.70923118805E+01  0.40121600773E+01  0.46420802607E+01  0.93780182183E+01  0.51100000000E-03 0.  1.
        -12    1    3    3    0    0  0.39628987999E+02  0.11319720338E+02  0.77625575404E+01  0.41938646353E+02  0.00000000000E+00 0.  1.
</event>
<event>
 7    1  0.1501154E-015  0.9000775E+02  0.7816164E-02  0.1186339E+00
        -11   -1    0    0    0    0  0.00000000000E+00  0.00000000000E+00  0.45593999997E+02  0.45594000000E+02  0.51100000000E-03 0.  1.
         11   -1    0    0    0    0 -0.00000000000E+00 -0.00000000000E+00 -0.45593999997E+02  0.45594000000E+02  0.51100000000E-03 0. -1.
    9900012    2    1    2    0    0 -0.46563589640E+00  0.60382243476E-01  0.10828318722E+01  0.90007751015E+02  0.90000012528E+02 0.  0.
         12    1    1    2    0    0  0.46563589640E+00 -0.60382243476E-01 -0.10828318722E+01  0.11802489851E+01  0.00000000000E+00 0. -1.
         11    1    3    3    0    0  0.49318631978E+01 -0.28836406434E+02 -0.25155399345E+02  0.38583101574E+02  0.51100000000E-03 0. -1.
        -11    1    3    3    0    0  0.92678347483E+01 -0.18807898236E+01  0.96465949383E+01  0.13508772167E+02  0.51100000000E-03 0.  1.
        -12    1    3    3    0    0 -0.14665333842E+02  0.30777578501E+02  0.16591636278E+02  0.37915877274E+02  0.00000000000E+00 0.  1.
</event>
<event>
 7    1  0.1501154E-015  0.9000772E+02  0.7816164E-02  0.1186339E+00
        -11   -1    0    0    0    0  0.00000000000E+00  0.00000000000E+00  0.45593999997E+02  0.45594000000E+02  0.51100000000E-03 0. -1.
         11   -1    0    0    0    0 -0.00000000000E+00 -0.00000000000E+00 -0.45593999997E+02  0.45594000000E+02  0.51100000000E-03 0.  1.
    9900012    2    1    2    0    0 -0.50447628759E+00  0.88487574661E+00 -0.59629389363E+00  0.90007717060E+02  0.89999978125E+02 0.  0.
         12    1    1    2    0    0  0.50447628759E+00 -0.88487574661E+00  0.59629389363E+00  0.11802829403E+01  0.00000000000E+00 0. -1.
         11    1    3    3    0    0  0.12201072132E+02  0.21429582416E+02  0.35320248238E+02  0.43076827872E+02  0.51100000000E-03 0. -1.
        -11    1    3    3    0    0 -0.36246981354E+01 -0.81007784557E+01 -0.12071191907E+01  0.89564605265E+01  0.51100000000E-03 0.  1.
        -12    1    3    3    0    0 -0.90808502846E+01 -0.12443928213E+02 -0.34709422941E+02  0.37974428661E+02  0.00000000000E+00 0.  1.
</event>
<event>
 7    1  0.1501154E-015  0.9000787E+02  0.7816164E-02  0.1186339E+00
        -11   -1    0    0    0    0  0.00000000000E+00  0.00000000000E+00  0.45593999997E+02  0.45594000000E+02  0.51100000000E-03 0.  1.
         11   -1    0    0    0    0 -0.00000000000E+00 -0.00000000000E+00 -0.45593999997E+02  0.45594000000E+02  0.51100000000E-03 0. -1.
    9900012    2    1    2    0    0  0.52307238894E+00  0.25948904495E+00  0.10255572978E+01  0.90007869897E+02  0.90000132980E+02 0.  0.
         12    1    1    2    0    0 -0.52307238894E+00 -0.25948904495E+00 -0.10255572978E+01  0.11801301028E+01  0.00000000000E+00 0. -1.
         11    1    3    3    0    0  0.86877720379E+01 -0.20645852415E+02  0.16124723645E+02  0.27599552855E+02  0.51100000000E-03 0. -1.
        -11    1    3    3    0    0 -0.16466136551E+02 -0.15837820071E+02 -0.46271114685E+01  0.23310520336E+02  0.51100000000E-03 0.  1.
         12    1    3    3    0    0  0.83014369022E+01  0.36743161530E+02 -0.10472054879E+02  0.39097796706E+02  0.00000000000E+00 0. -1.
</event>
<event>
 7    1  0.1501154E-015  0.9000763E+02  0.7816164E-02  0.1186339E+00
        -11   -1    0    0    0    0  0.00000000000E+00  0.00000000000E+00  0.45593999997E+02  0.45594000000E+02  0.51100000000E-03 0. -1.
         11   -1    0    0    0    0 -0.00000000000E+00 -0.00000000000E+00 -0.45593999997E+02  0.45594000000E+02  0.51100000000E-03 0.  1.
    9900012    2    1    2    0    0 -0.72636213525E+00  0.62401335262E-01 -0.92832324845E+00  0.90007627206E+02  0.89999887085E+02 0.  0.
         12    1    1    2    0    0  0.72636213525E+00 -0.62401335262E-01  0.92832324845E+00  0.11803727936E+01  0.00000000000E+00 0. -1.
         11    1    3    3    0    0 -0.33368120865E+02 -0.21915128557E+01  0.49929978710E+01  0.33810712010E+02  0.51100000000E-03 0. -1.
        -11    1    3    3    0    0 -0.11148908599E+02 -0.94161993073E+00  0.25610360043E+01  0.11477966576E+02  0.51100000000E-03 0.  1.
        -12    1    3    3    0    0  0.43790667328E+02  0.31955341217E+01 -0.84823571237E+01  0.44718948621E+02  0.00000000000E+00 0.  1.
</event>
<event>
 7    1  0.1501154E-015  0.9000687E+02  0.7816164E-02  0.1186341E+00
        -11   -1    0    0    0    0  0.00000000000E+00  0.00000000000E+00  0.45593999997E+02  0.45594000000E+02  0.51100000000E-03 0.  1.
         11   -1    0    0    0    0 -0.00000000000E+00 -0.00000000000E+00 -0.45593999997E+02  0.45594000000E+02  0.51100000000E-03 0. -1.
    9900012    2    1    2    0    0  0.79968185733E+00 -0.23761343046E-01  0.86891533459E+00  0.90006869384E+02  0.89999119255E+02 0.  0.
         12    1    1    2    0    0 -0.79968185733E+00  0.23761343046E-01 -0.86891533459E+00  0.11811306164E+01  0.00000000000E+00 0. -1.
         11    1    3    3    0    0 -0.50646885914E+00 -0.35073817534E+02  0.11860685181E+02  0.37028435564E+02  0.51100000000E-03 0. -1.
        -11    1    3    3    0    0 -0.31196902956E+00 -0.16642664193E+01  0.10345579715E+02  0.10483230766E+02  0.51100000000E-03 0.  1.
        -12    1    3    3    0    0  0.16181197460E+01  0.36714322611E+02 -0.21337349561E+02  0.42495203053E+02  0.00000000000E+00 0.  1.
</event>
<event>
 7    1  0.1501154E-015  0.9000779E+02  0.7816164E-02  0.1186339E+00
        -11   -1    0    0    0    0  0.00000000000E+00  0.00000000000E+00  0.45593999997E+02  0.45594000000E+02  0.51100000000E-03 0. -1.
         11   -1    0    0    0    0 -0.00000000000E+00 -0.00000000000E+00 -0.45593999997E+02  0.45594000000E+02  0.51100000000E-03 0.  1.
    9900012    2    1    2    0    0 -0.88257931929E-01 -0.30038113415E+00 -0.11379287517E+01  0.90007788099E+02  0.90000050101E+02 0.  0.
         12    1    1    2    0    0  0.88257931929E-01  0.30038113415E+00  0.11379287517E+01  0.11802119014E+01  0.00000000000E+00 0. -1.
         11    1    3    3    0    0 -0.87989578591E+01 -0.27886688445E+02  0.21426048087E+02  0.36251408093E+02  0.51100000000E-03 0. -1.
        -11    1    3    3    0    0  0.51475729331E+01 -0.34794152296E+01  0.79336879274E+01  0.10077065140E+02  0.51100000000E-03 0.  1.
        -12    1    3    3    0    0  0.35631269941E+01  0.31065722540E+02 -0.30497664767E+02  0.43679314866E+02  0.00000000000E+00 0.  1.
</event>
<event>
 7    1  0.1501154E-015  0.9000773E+02  0.7816164E-02  0.1186339E+00
        -11   -1    0    0    0    0  0.00000000000E+00  0.00000000000E+00  0.45593999997E+02  0.45594000000E+02  0.51100000000E-03 0.  1.
         11   -1    0    0    0    0 -0.00000000000E+00 -0.00000000000E+00 -0.45593999997E+02  0.45594000000E+02  0.51100000000E-03 0. -1.
    9900012    2    1    2    0    0  0.57826742249E+00 -0.60127882426E+00  0.83492453641E+00  0.90007733751E+02  0.89999995037E+02 0.  0.
         12    1    1    2    0    0 -0.57826742249E+00  0.60127882426E+00 -0.83492453641E+00  0.11802662487E+01  0.00000000000E+00 0. -1.
         11    1    3    3    0    0  0.12548023936E+01  0.70472908604E+00  0.32787160682E+01  0.35806635486E+01  0.51100000000E-03 0. -1.
        -11    1    3    3    0    0  0.21988134757E+02 -0.35956438319E+02  0.97588764011E+01  0.43261752109E+02  0.51100000000E-03 0.  1.
         12    1    3    3    0    0 -0.22664669728E+02  0.34650430409E+02 -0.12202667933E+02  0.43165318093E+02  0.00000000000E+00 0. -1.
</event>
<event>
 7    1  0.1501154E-015  0.9000774E+02  0.7816164E-02  0.1186339E+00
        -11   -1    0    0    0    0  0.00000000000E+00  0.00000000000E+00  0.45593999997E+02  0.45594000000E+02  0.51100000000E-03 0.  1.
         11   -1    0    0    0    0 -0.00000000000E+00 -0.00000000000E+00 -0.45593999997E+02  0.45594000000E+02  0.51100000000E-03 0. -1.
    9900012    2    1    2    0    0  0.81163983424E+00  0.80662697909E+00  0.28914835475E+00  0.90007740251E+02  0.90000001622E+02 0.  0.
         12    1    1    2    0    0 -0.81163983424E+00 -0.80662697909E+00 -0.28914835475E+00  0.11802597489E+01  0.00000000000E+00 0. -1.
         11    1    3    3    0    0 -0.59530724645E+01  0.21741875626E+02 -0.30788550497E+02  0.38158656546E+02  0.51100000000E-03 0. -1.
        -11    1    3    3    0    0  0.29493349501E+01  0.95236132365E+01  0.34488011653E+01  0.10549503091E+02  0.51100000000E-03 0.  1.
        -12    1    3    3    0    0  0.38153773486E+01 -0.30458861883E+02  0.27628897686E+02  0.41299580614E+02  0.00000000000E+00 0.  1.
</event>
<event>
 7    1  0.1501154E-015  0.9000773E+02  0.7816164E-02  0.1186339E+00
        -11   -1    0    0    0    0  0.00000000000E+00  0.00000000000E+00  0.45593999997E+02  0.45594000000E+02  0.51100000000E-03 0.  1.
         11   -1    0    0    0    0 -0.00000000000E+00 -0.00000000000E+00 -0.45593999997E+02  0.45594000000E+02  0.51100000000E-03 0. -1.
    9900012    2    1    2    0    0 -0.97122831433E-01  0.10598666760E+01  0.51019071618E+00  0.90007726819E+02  0.89999988013E+02 0.  0.
         12    1    1    2    0    0  0.97122831433E-01 -0.10598666760E+01 -0.51019071618E+00  0.11802731812E+01  0.00000000000E+00 0. -1.
         11    1    3    3    0    0 -0.14726547481E+02  0.29401478443E+01 -0.71847260097E+01  0.16647400943E+02  0.51100000000E-03 0. -1.
        -11    1    3    3    0    0 -0.11416846178E+02  0.18434154423E+02  0.27366035847E+02  0.34915073309E+02  0.51100000000E-03 0.  1.
         12    1    3    3    0    0  0.26046270828E+02 -0.20314435591E+02 -0.19671119121E+02  0.38445252567E+02  0.00000000000E+00 0. -1.
</event>
<event>
 7    1  0.1501154E-015  0.9000775E+02  0.7816164E-02  0.1186339E+00
        -11   -1    0    0    0    0  0.00000000000E+00  0.00000000000E+00  0.45593999997E+02  0.45594000000E+02  0.51100000000E-03 0.  1.
         11   -1    0    0    0    0 -0.00000000000E+00 -0.00000000000E+00 -0.45593999997E+02  0.45594000000E+02  0.51100000000E-03 0. -1.
    9900012    2    1    2    0    0  0.35686652902E+00  0.10736328501E+01 -0.33608697256E+00  0.90007747625E+02  0.90000009093E+02 0.  0.
         12    1    1    2    0    0 -0.35686652902E+00 -0.10736328501E+01  0.33608697256E+00  0.11802523754E+01  0.00000000000E+00 0. -1.
         11    1    3    3    0    0 -0.54699482624E+00  0.61186255349E+01 -0.69645165968E+01  0.92866179777E+01  0.51100000000E-03 0. -1.
        -11    1    3    3    0    0 -0.21822499734E+02  0.28386414473E+02  0.16011037716E+02  0.39221975349E+02  0.51100000000E-03 0.  1.
         12    1    3    3    0    0  0.22726361089E+02 -0.33431407157E+02 -0.93826080919E+01  0.41499154298E+02  0.00000000000E+00 0. -1.
</event>
<event>
 7    1  0.1501154E-015  0.9000780E+02  0.7816164E-02  0.1186339E+00
        -11   -1    0    0    0    0  0.00000000000E+00  0.00000000000E+00  0.45593999997E+02  0.45594000000E+02  0.51100000000E-03 0. -1.
         11   -1    0    0    0    0 -0.00000000000E+00 -0.00000000000E+00 -0.45593999997E+02  0.45594000000E+02  0.51100000000E-03 0.  1.
    9900012    2    1    2    0    0 -0.72427881394E-01 -0.54697189664E+00 -0.10432927526E+01  0.90007795009E+02  0.90000057103E+02 0.  0.
         12    1    1    2    0    0  0.72427881394E-01  0.54697189664E+00  0.10432927526E+01  0.11802049913E+01  0.00000000000E+00 0. -1.
         11    1    3    3    0    0 -0.12777001585E+02 -0.18692266067E+02  0.34506136048E+02  0.41271370288E+02  0.51100000000E-03 0. -1.
        -11    1    3    3    0    0  0.53157163076E+00 -0.61350024639E+01 -0.59293576224E+01  0.85485733141E+01  0.51100000000E-03 0.  1.
        -12    1    3    3    0    0  0.12173002073E+02  0.24280296634E+02 -0.29620071178E+02  0.40187851407E+02  0.00000000000E+00 0.  1.
</event>
<event>
 7    1  0.2558703E-015  0.9000772E+02  0.7816164E-02  0.1186339E+00
        -11   -1    0    0    0    0  0.00000000000E+00  0.00000000000E+00  0.45593999997E+02  0.45594000000E+02  0.51100000000E-03 0. -1.
         11   -1    0    0    0    0 -0.00000000000E+00 -0.00000000000E+00 -0.45593999997E+02  0.45594000000E+02  0.51100000000E-03 0.  1.
    9900012    2    1    2    0    0  0.75621015054E-01 -0.43782934886E+00 -0.10934515778E+01  0.90007724850E+02  0.89999986018E+02 0.  0.
         12    1    1    2    0    0 -0.75621015054E-01  0.43782934886E+00  0.10934515778E+01  0.11802751500E+01  0.00000000000E+00 0. -1.
         11    1    3    3    0    0 -0.27893483432E+02  0.63634334260E+01  0.26366760166E+02  0.38906885572E+02  0.51100000000E-03 0. -1.
        -11    1    3    3    0    0 -0.71324564501E+01 -0.75549537091E+00 -0.70103561894E+01  0.10029347059E+02  0.51100000000E-03 0.  1.
        -12    1    3    3    0    0  0.35101560897E+02 -0.60457674040E+01 -0.20449855555E+02  0.41071492219E+02  0.00000000000E+00 0.  1.
</event>
<event>
 7    1  0.1501154E-015  0.9000771E+02  0.7816164E-02  0.1186339E+00
        -11   -1    0    0    0    0  0.00000000000E+00  0.00000000000E+00  0.45593999997E+02  0.45594000000E+02  0.51100000000E-03 0.  1.
         11   -1    0    0    0    0 -0.00000000000E+00 -0.00000000000E+00 -0.45593999997E+02  0.45594000000E+02  0.51100000000E-03 0. -1.
    9900012    2    1    2    0    0  0.11562476546E+01 -0.17883875477E+00  0.15550693552E+00  0.90007714295E+02  0.89999975323E+02 0.  0.
         12    1    1    2    0    0 -0.11562476546E+01  0.17883875477E+00 -0.15550693552E+00  0.11802857052E+01  0.00000000000E+00 0. -1.
         11    1    3    3    0    0 -0.41245483352E+01  0.88083306449E+01  0.39441973047E+01  0.10495488572E+02  0.51100000000E-03 0. -1.
        -11    1    3    3    0    0 -0.58736500031E+01  0.10118315584E+02  0.33871215227E+02  0.35834889365E+02  0.51100000000E-03 0.  1.
         12    1    3    3    0    0  0.11154445993E+02 -0.19105484984E+02 -0.37659905596E+02  0.43677336358E+02  0.00000000000E+00 0. -1.
</event>
<event>
 7    1  0.1501154E-015  0.9000762E+02  0.7816164E-02  0.1186339E+00
        -11   -1    0    0    0    0  0.00000000000E+00  0.00000000000E+00  0.45593999997E+02  0.45594000000E+02  0.51100000000E-03 0.  1.
         11   -1    0    0    0    0 -0.00000000000E+00 -0.00000000000E+00 -0.45593999997E+02  0.45594000000E+02  0.51100000000E-03 0. -1.
    9900012    2    1    2    0    0  0.50265940018E+00  0.10630273032E+01  0.10293941846E+00  0.90007622923E+02  0.89999882746E+02 0.  0.
         12    1    1    2    0    0 -0.50265940018E+00 -0.10630273032E+01 -0.10293941846E+00  0.11803770770E+01  0.00000000000E+00 0. -1.
         11    1    3    3    0    0  0.51677486827E+01 -0.25629574589E+00  0.44715697754E+01  0.68385854147E+01  0.51100000000E-03 0. -1.
        -11    1    3    3    0    0  0.29417716610E+02  0.19978716802E+02  0.16344349151E+02  0.39136797583E+02  0.51100000000E-03 0.  1.
         12    1    3    3    0    0 -0.34082805893E+02 -0.18659393753E+02 -0.20712979508E+02  0.44032239925E+02  0.00000000000E+00 0. -1.
</event>
<event>
 7    1  0.1501154E-015  0.9000775E+02  0.7816164E-02  0.1186339E+00
        -11   -1    0    0    0    0  0.00000000000E+00  0.00000000000E+00  0.45593999997E+02  0.45594000000E+02  0.51100000000E-03 0. -1.
         11   -1    0    0    0    0 -0.00000000000E+00 -0.00000000000E+00 -0.45593999997E+02  0.45594000000E+02  0.51100000000E-03 0.  1.
    9900012    2    1    2    0    0  0.70696384262E+00 -0.91842094844E+00 -0.22293352319E+00  0.90007748218E+02  0.90000009694E+02 0.  0.
         12    1    1    2    0    0 -0.70696384262E+00  0.91842094844E+00  0.22293352319E+00  0.11802517821E+01  0.00000000000E+00 0. -1.
         11    1    3    3    0    0  0.54476053440E+00 -0.29364265606E+01 -0.87623545022E+01  0.92573333995E+01  0.51100000000E-03 0. -1.
        -11    1    3    3    0    0 -0.67975845989E+01 -0.66897411315E+01 -0.34757114429E+02  0.36041875596E+02  0.51100000000E-03 0.  1.
         12    1    3    3    0    0  0.69597879071E+01  0.87077467436E+01  0.43296535408E+02  0.44708539222E+02  0.00000000000E+00 0. -1.
</event>
<event>
 7    1  0.1501154E-015  0.9000770E+02  0.7816164E-02  0.1186339E+00
        -11   -1    0    0    0    0  0.00000000000E+00  0.00000000000E+00  0.45593999997E+02  0.45594000000E+02  0.51100000000E-03 0. -1.
         11   -1    0    0    0    0 -0.00000000000E+00 -0.00000000000E+00 -0.45593999997E+02  0.45594000000E+02  0.51100000000E-03 0.  1.
    9900012    2    1    2    0    0 -0.79742081403E+00  0.67940382640E+00 -0.54372593967E+00  0.90007700287E+02  0.89999961131E+02 0.  0.
         12    1    1    2    0    0  0.79742081403E+00 -0.67940382640E+00  0.54372593967E+00  0.11802997126E+01  0.00000000000E+00 0. -1.
         11    1    3    3    0    0  0.21919516946E+01 -0.18681582192E+01 -0.11201048942E+02  0.11565386506E+02  0.51100000000E-03 0. -1.
        -11    1    3    3    0    0  0.19711985365E+02 -0.31273200727E+02  0.58280698630E+01  0.37423813934E+02  0.51100000000E-03 0.  1.
         12    1    3    3    0    0 -0.22701357874E+02  0.33820762773E+02  0.48292531398E+01  0.41018499848E+02  0.00000000000E+00 0. -1.
</event>
<event>
 7    1  0.1501154E-015  0.9000757E+02  0.7816164E-02  0.1186339E+00
        -11   -1    0    0    0    0  0.00000000000E+00  0.00000000000E+00  0.45593999997E+02  0.45594000000E+02  0.51100000000E-03 0.  1.
         11   -1    0    0    0    0 -0.00000000000E+00 -0.00000000000E+00 -0.45593999997E+02  0.45594000000E+02  0.51100000000E-03 0. -1.
    9900012    2    1    2    0    0 -0.41401721569E+00 -0.37736667706E+00  0.10390328553E+01  0.90007574171E+02  0.89999833350E+02 0.  0.
         12    1    1    2    0    0  0.41401721569E+00  0.37736667706E+00 -0.10390328553E+01  0.11804258292E+01  0.00000000000E+00 0. -1.
         11    1    3    3    0    0  0.25838171682E+02  0.26206755872E+01 -0.22203211278E+02  0.34168137903E+02  0.51100000000E-03 0. -1.
        -11    1    3    3    0    0  0.73638767717E+01  0.94345766046E-01 -0.72607022719E+01  0.10341826723E+02  0.51100000000E-03 0.  1.
        -12    1    3    3    0    0 -0.33616065670E+02 -0.30923880303E+01  0.30502946406E+02  0.45497609545E+02  0.00000000000E+00 0.  1.
</event>
<event>
 7    1  0.1501154E-015  0.9000863E+02  0.7816164E-02  0.1186337E+00
        -11   -1    0    0    0    0  0.00000000000E+00  0.00000000000E+00  0.45593999997E+02  0.45594000000E+02  0.51100000000E-03 0.  1.
         11   -1    0    0    0    0 -0.00000000000E+00 -0.00000000000E+00 -0.45593999997E+02  0.45594000000E+02  0.51100000000E-03 0. -1.
    9900012    2    1    2    0    0  0.10327251195E+01 -0.26035430053E+00  0.50657208171E+00  0.90008626943E+02  0.90000900014E+02 0.  0.
         12    1    1    2    0    0 -0.10327251195E+01  0.26035430053E+00 -0.50657208171E+00  0.11793730572E+01  0.00000000000E+00 0. -1.
         11    1    3    3    0    0 -0.60471139511E+00  0.53641937187E+01 -0.10645695522E+02  0.11936125148E+02  0.51100000000E-03 0. -1.
        -11    1    3    3    0    0  0.37008370049E+02  0.54451828918E+01  0.16017446224E+02  0.40691867175E+02  0.51100000000E-03 0.  1.
         12    1    3    3    0    0 -0.35370933535E+02 -0.11069730911E+02 -0.48651786196E+01  0.37380634620E+02  0.00000000000E+00 0. -1.
</event>
<event>
 7    1  0.1501154E-015  0.9000774E+02  0.7816164E-02  0.1186339E+00
        -11   -1    0    0    0    0  0.00000000000E+00  0.00000000000E+00  0.45593999997E+02  0.45594000000E+02  0.51100000000E-03 0. -1.
         11   -1    0    0    0    0 -0.00000000000E+00 -0.00000000000E+00 -0.45593999997E+02  0.45594000000E+02  0.51100000000E-03 0.  1.
    9900012    2    1    2    0    0 -0.21252361436E+00 -0.75314627386E+00 -0.88352102446E+00  0.90007743673E+02  0.90000005090E+02 0.  0.
         12    1    1    2    0    0  0.21252361436E+00  0.75314627386E+00  0.88352102446E+00  0.11802563269E+01  0.00000000000E+00 0. -1.
         11    1    3    3    0    0 -0.68903026212E+01  0.41466160839E+01 -0.80513106061E+01  0.11379556138E+02  0.51100000000E-03 0. -1.
        -11    1    3    3    0    0 -0.22965398353E+02 -0.19600772987E+02 -0.19660912440E+02  0.36029866797E+02  0.51100000000E-03 0.  1.
         12    1    3    3    0    0  0.29643177360E+02  0.14701010629E+02  0.26828702021E+02  0.42598320738E+02  0.00000000000E+00 0. -1.
</event>
<event>
 7    1  0.1501154E-015  0.9000777E+02  0.7816164E-02  0.1186339E+00
        -11   -1    0    0    0    0  0.00000000000E+00  0.00000000000E+00  0.45593999997E+02  0.45594000000E+02  0.51100000000E-03 0. -1.
         11   -1    0    0    0    0 -0.00000000000E+00 -0.00000000000E+00 -0.45593999997E+02  0.45594000000E+02  0.51100000000E-03 0.  1.
    9900012    2    1    2    0    0  0.17925304380E-01  0.11776261233E+01  0.76287361499E-01  0.90007769360E+02  0.90000031115E+02 0.  0.
         12    1    1    2    0    0 -0.17925304380E-01 -0.11776261233E+01 -0.76287361499E-01  0.11802306403E+01  0.00000000000E+00 0. -1.
         11    1    3    3    0    0  0.72730071195E+01  0.39158324743E+01 -0.55011610754E+01  0.99243715149E+01  0.51100000000E-03 0. -1.
        -11    1    3    3    0    0  0.25788381433E+02  0.12555769988E+02 -0.20535906890E+02  0.35276216477E+02  0.51100000000E-03 0.  1.
         12    1    3    3    0    0 -0.33043463248E+02 -0.15293976339E+02  0.26113355327E+02  0.44807181367E+02  0.00000000000E+00 0. -1.
</event>
<event>
 7    1  0.1501154E-015  0.9000818E+02  0.7816164E-02  0.1186338E+00
        -11   -1    0    0    0    0  0.00000000000E+00  0.00000000000E+00  0.45593999997E+02  0.45594000000E+02  0.51100000000E-03 0.  1.
         11   -1    0    0    0    0 -0.00000000000E+00 -0.00000000000E+00 -0.45593999997E+02  0.45594000000E+02  0.51100000000E-03 0. -1.
    9900012    2    1    2    0    0 -0.11923627405E+00  0.36393987015E-01  0.11732104993E+01  0.90008184469E+02  0.90000451703E+02 0.  0.
         12    1    1    2    0    0  0.11923627405E+00 -0.36393987015E-01 -0.11732104993E+01  0.11798155310E+01  0.00000000000E+00 0. -1.
         11    1    3    3    0    0 -0.22706154285E+01 -0.64065624421E+01 -0.64973173865E+01  0.94029181764E+01  0.51100000000E-03 0. -1.
        -11    1    3    3    0    0  0.12645722031E+02  0.35423947255E+02 -0.16853591972E+02  0.41216670019E+02  0.51100000000E-03 0.  1.
         12    1    3    3    0    0 -0.10494342876E+02 -0.28980990826E+02  0.24524119858E+02  0.39388596274E+02  0.00000000000E+00 0. -1.
</event>
<event>
 7    1  0.1501154E-015  0.9000772E+02  0.7816164E-02  0.1186339E+00
        -11   -1    0    0    0    0  0.00000000000E+00  0.00000000000E+00  0.45593999997E+02  0.45594000000E+02  0.51100000000E-03 0.  1.
         11   -1    0    0    0    0 -0.00000000000E+00 -0.00000000000E+00 -0.45593999997E+02  0.45594000000E+02  0.51100000000E-03 0. -1.
    9900012    2    1    2    0    0 -0.25708916381E+00 -0.11499788131E+01 -0.67107594702E-01  0.90007724804E+02  0.89999985972E+02 0.  0.
         12    1    1    2    0    0  0.25708916381E+00  0.11499788131E+01  0.67107594702E-01  0.11802751959E+01  0.00000000000E+00 0. -1.
         11    1    3    3    0    0 -0.23968401394E+02  0.12609114662E+02 -0.22006189043E+02  0.34896223211E+02  0.51100000000E-03 0. -1.
        -11    1    3    3    0    0 -0.65877502162E+01  0.10004407757E+02  0.64691850915E+01  0.13613852632E+02  0.51100000000E-03 0.  1.
        -12    1    3    3    0    0  0.30299062446E+02 -0.23763501233E+02  0.15469896357E+02  0.41497648961E+02  0.00000000000E+00 0.  1.
</event>
<event>
 7    1  0.1501154E-015  0.9000786E+02  0.7816164E-02  0.1186339E+00
        -11   -1    0    0    0    0  0.00000000000E+00  0.00000000000E+00  0.45593999997E+02  0.45594000000E+02  0.51100000000E-03 0.  1.
         11   -1    0    0    0    0 -0.00000000000E+00 -0.00000000000E+00 -0.45593999997E+02  0.45594000000E+02  0.51100000000E-03 0. -1.
    9900012    2    1    2    0    0 -0.58389998028E+00 -0.84173192544E+00  0.58590034387E+00  0.90007859740E+02  0.90000122688E+02 0.  0.
         12    1    1    2    0    0  0.58389998028E+00  0.84173192544E+00 -0.58590034387E+00  0.11801402604E+01  0.00000000000E+00 0. -1.
         11    1    3    3    0    0 -0.60197702092E+01  0.17569336136E+01  0.21277281641E+01  0.66220598378E+01  0.51100000000E-03 0. -1.
        -11    1    3    3    0    0 -0.38231365859E+02 -0.67239902612E+01 -0.60744262715E+01  0.39290559111E+02  0.51100000000E-03 0.  1.
         12    1    3    3    0    0  0.43667236088E+02  0.41253247222E+01  0.45325984513E+01  0.44095240790E+02  0.00000000000E+00 0. -1.
</event>
<event>
 7    1  0.1501154E-015  0.9000781E+02  0.7816164E-02  0.1186339E+00
        -11   -1    0    0    0    0  0.00000000000E+00  0.00000000000E+00  0.45593999997E+02  0.45594000000E+02  0.51100000000E-03 0. -1.
         11   -1    0    0    0    0 -0.00000000000E+00 -0.00000000000E+00 -0.45593999997E+02  0.45594000000E+02  0.51100000000E-03 0.  1.
    9900012    2    1    2    0    0 -0.52359128794E+00  0.10531511455E+01 -0.97891042823E-01  0.90007806021E+02  0.90000068260E+02 0.  0.
         12    1    1    2    0    0  0.52359128794E+00 -0.10531511455E+01  0.97891042823E-01  0.11801939792E+01  0.00000000000E+00 0. -1.
         11    1    3    3    0    0 -0.19461140635E+02  0.90083797482E+01  0.24662473148E+02  0.32682173773E+02  0.51100000000E-03 0. -1.
        -11    1    3    3    0    0 -0.63986355922E+01 -0.78808396693E+01  0.10041030952E+02  0.14278391862E+02  0.51100000000E-03 0.  1.
        -12    1    3    3    0    0  0.25336184939E+02 -0.74388933341E-01 -0.34801395142E+02  0.43047240386E+02  0.00000000000E+00 0.  1.
</event>
<event>
 7    1  0.1501154E-015  0.9000775E+02  0.7816164E-02  0.1186339E+00
        -11   -1    0    0    0    0  0.00000000000E+00  0.00000000000E+00  0.45593999997E+02  0.45594000000E+02  0.51100000000E-03 0. -1.
         11   -1    0    0    0    0 -0.00000000000E+00 -0.00000000000E+00 -0.45593999997E+02  0.45594000000E+02  0.51100000000E-03 0.  1.
    9900012    2    1    2    0    0 -0.39996151448E+00  0.67814310689E+00 -0.87928999157E+00  0.90007746563E+02  0.90000008018E+02 0.  0.
         12    1    1    2    0    0  0.39996151448E+00 -0.67814310689E+00  0.87928999157E+00  0.11802534371E+01  0.00000000000E+00 0. -1.
         11    1    3    3    0    0 -0.10306361824E+02  0.35590864099E+01  0.10144816356E+00  0.10904058057E+02  0.51100000000E-03 0. -1.
        -11    1    3    3    0    0  0.33572548595E+02  0.18469689344E+02  0.17646764923E+02  0.42185942637E+02  0.51100000000E-03 0.  1.
         12    1    3    3    0    0 -0.23666148286E+02 -0.21350632647E+02 -0.18627503078E+02  0.36917745869E+02  0.00000000000E+00 0. -1.
</event>
<event>
 7    1  0.1501154E-015  0.9000766E+02  0.7816164E-02  0.1186339E+00
        -11   -1    0    0    0    0  0.00000000000E+00  0.00000000000E+00  0.45593999997E+02  0.45594000000E+02  0.51100000000E-03 0.  1.
         11   -1    0    0    0    0 -0.00000000000E+00 -0.00000000000E+00 -0.45593999997E+02  0.45594000000E+02  0.51100000000E-03 0. -1.
    9900012    2    1    2    0    0 -0.10486501442E+01 -0.46012229011E+00  0.28603147106E+00  0.90007663756E+02  0.89999924117E+02 0.  0.
         12    1    1    2    0    0  0.10486501442E+01  0.46012229011E+00 -0.28603147106E+00  0.11803362441E+01  0.00000000000E+00 0. -1.
         11    1    3    3    0    0 -0.69956541594E+01  0.62837118350E+01 -0.20349493652E+01  0.96210826170E+01  0.51100000000E-03 0. -1.
        -11    1    3    3    0    0 -0.30921457601E+02  0.16323044260E+02  0.96752817419E+01  0.36279324568E+02  0.51100000000E-03 0.  1.
         12    1    3    3    0    0  0.36868461616E+02 -0.23066878385E+02 -0.73543009056E+01  0.44107256571E+02  0.00000000000E+00 0. -1.
</event>
<event>
 7    1  0.1501154E-015  0.9000765E+02  0.7816164E-02  0.1186339E+00
        -11   -1    0    0    0    0  0.00000000000E+00  0.00000000000E+00  0.45593999997E+02  0.45594000000E+02  0.51100000000E-03 0. -1.
         11   -1    0    0    0    0 -0.00000000000E+00 -0.00000000000E+00 -0.45593999997E+02  0.45594000000E+02  0.51100000000E-03 0.  1.
    9900012    2    1    2    0    0  0.25946278527E+00 -0.27333478904E+00 -0.11185680063E+01  0.90007649532E+02  0.89999909705E+02 0.  0.
         12    1    1    2    0    0 -0.25946278527E+00  0.27333478904E+00  0.11185680063E+01  0.11803504685E+01  0.00000000000E+00 0. -1.
         11    1    3    3    0    0 -0.34138069534E+02  0.10703462847E+02 -0.14974594950E+00  0.35777008435E+02  0.51100000000E-03 0. -1.
        -11    1    3    3    0    0  0.20746871898E+01  0.12020816304E+02 -0.70632571906E+01  0.14095884291E+02  0.51100000000E-03 0.  1.
        -12    1    3    3    0    0  0.32322845130E+02 -0.22997613940E+02  0.60944351338E+01  0.40134756805E+02  0.00000000000E+00 0.  1.
</event>
<event>
 7    1  0.1501154E-015  0.9000742E+02  0.7816164E-02  0.1186340E+00
        -11   -1    0    0    0    0  0.00000000000E+00  0.00000000000E+00  0.45593999997E+02  0.45594000000E+02  0.51100000000E-03 0. -1.
         11   -1    0    0    0    0 -0.00000000000E+00 -0.00000000000E+00 -0.45593999997E+02  0.45594000000E+02  0.51100000000E-03 0.  1.
    9900012    2    1    2    0    0  0.28570993534E+00  0.60415170101E+00 -0.97321699904E+00  0.90007415072E+02  0.89999672150E+02 0.  0.
         12    1    1    2    0    0 -0.28570993534E+00 -0.60415170101E+00  0.97321699904E+00  0.11805849280E+01  0.00000000000E+00 0. -1.
         11    1    3    3    0    0 -0.11064668221E+02 -0.29723366809E+01  0.24179269721E+01  0.11709314211E+02  0.51100000000E-03 0. -1.
        -11    1    3    3    0    0  0.74687830627E+01  0.39761832962E+02 -0.90788852321E+01  0.41463384308E+02  0.51100000000E-03 0.  1.
         12    1    3    3    0    0  0.38815950938E+01 -0.36185344580E+02  0.56877412610E+01  0.36834716553E+02  0.00000000000E+00 0. -1.
</event>
<event>
 7    1  0.1501154E-015  0.9000791E+02  0.7816164E-02  0.1186339E+00
        -11   -1    0    0    0    0  0.00000000000E+00  0.00000000000E+00  0.45593999997E+02  0.45594000000E+02  0.51100000000E-03 0. -1.
         11   -1    0    0    0    0 -0.00000000000E+00 -0.00000000000E+00 -0.45593999997E+02  0.45594000000E+02  0.51100000000E-03 0.  1.
    9900012    2    1    2    0    0  0.16235537962E+00  0.27688561473E-01 -0.11685386538E+01  0.90007911651E+02  0.90000175285E+02 0.  0.
         12    1    1    2    0    0 -0.16235537962E+00 -0.27688561473E-01  0.11685386538E+01  0.11800883488E+01  0.00000000000E+00 0. -1.
         11    1    3    3    0    0  0.31160313919E+02  0.15762320014E+02  0.12590754256E+02  0.37120654476E+02  0.51100000000E-03 0. -1.
        -11    1    3    3    0    0  0.64432958374E+01  0.50833046424E+01 -0.16805175129E+01  0.83773615601E+01  0.51100000000E-03 0.  1.
        -12    1    3    3    0    0 -0.37441254376E+02 -0.20817936095E+02 -0.12078775397E+02  0.44509895615E+02  0.00000000000E+00 0.  1.
</event>
<event>
 7    1  0.1622874E-015  0.9000764E+02  0.7816164E-02  0.1186339E+00
        -11   -1    0    0    0    0  0.00000000000E+00  0.00000000000E+00  0.45593999997E+02  0.45594000000E+02  0.51100000000E-03 0. -1.
         11   -1    0    0    0    0 -0.00000000000E+00 -0.00000000000E+00 -0.45593999997E+02  0.45594000000E+02  0.51100000000E-03 0.  1.
    9900012    2    1    2    0    0 -0.67170196567E-01 -0.54731036016E+00 -0.10436388538E+01  0.90007643053E+02  0.89999903141E+02 0.  0.
         12    1    1    2    0    0  0.67170196567E-01  0.54731036016E+00  0.10436388538E+01  0.11803569472E+01  0.00000000000E+00 0. -1.
         11    1    3    3    0    0 -0.30576674053E+02  0.21865768956E+02  0.11712447704E+02  0.39372913020E+02  0.51100000000E-03 0. -1.
        -11    1    3    3    0    0 -0.58698636637E+01 -0.78765708042E+01 -0.23624439834E+01  0.10103306830E+02  0.51100000000E-03 0.  1.
        -12    1    3    3    0    0  0.36379367521E+02 -0.14536508512E+02 -0.10393642574E+02  0.40531423203E+02  0.00000000000E+00 0.  1.
</event>
<event>
 7    1  0.1501154E-015  0.9000774E+02  0.7816164E-02  0.1186339E+00
        -11   -1    0    0    0    0  0.00000000000E+00  0.00000000000E+00  0.45593999997E+02  0.45594000000E+02  0.51100000000E-03 0.  1.
         11   -1    0    0    0    0 -0.00000000000E+00 -0.00000000000E+00 -0.45593999997E+02  0.45594000000E+02  0.51100000000E-03 0. -1.
    9900012    2    1    2    0    0  0.41581806079E+00  0.10415976221E+01  0.36767032852E+00  0.90007740818E+02  0.90000002197E+02 0.  0.
         12    1    1    2    0    0 -0.41581806079E+00 -0.10415976221E+01 -0.36767032852E+00  0.11802591819E+01  0.00000000000E+00 0. -1.
         11    1    3    3    0    0  0.24310122295E+02 -0.14448190558E+02  0.12797359466E+02  0.31040371550E+02  0.51100000000E-03 0. -1.
        -11    1    3    3    0    0  0.11966924242E+02  0.37952623933E+01  0.91277746395E+01  0.15521841469E+02  0.51100000000E-03 0.  1.
        -12    1    3    3    0    0 -0.35861228477E+02  0.11694525787E+02 -0.21557463777E+02  0.43445527799E+02  0.00000000000E+00 0.  1.
</event>
<event>
 7    1  0.1501154E-015  0.9000771E+02  0.7816164E-02  0.1186339E+00
        -11   -1    0    0    0    0  0.00000000000E+00  0.00000000000E+00  0.45593999997E+02  0.45594000000E+02  0.51100000000E-03 0. -1.
         11   -1    0    0    0    0 -0.00000000000E+00 -0.00000000000E+00 -0.45593999997E+02  0.45594000000E+02  0.51100000000E-03 0.  1.
    9900012    2    1    2    0    0 -0.76068893327E-01 -0.81385688334E+00 -0.85143232508E+00  0.90007709143E+02  0.89999970104E+02 0.  0.
         12    1    1    2    0    0  0.76068893327E-01  0.81385688334E+00  0.85143232508E+00  0.11802908571E+01  0.00000000000E+00 0. -1.
         11    1    3    3    0    0 -0.13304735077E+02 -0.43819096909E+01 -0.90432383862E+01  0.16673250096E+02  0.51100000000E-03 0. -1.
        -11    1    3    3    0    0 -0.18835294468E+02 -0.12073108015E+02 -0.18295804737E+02  0.28900946802E+02  0.51100000000E-03 0.  1.
         12    1    3    3    0    0  0.32063960651E+02  0.15641160823E+02  0.26487610798E+02  0.44433512244E+02  0.00000000000E+00 0. -1.
</event>
<event>
 7    1  0.1501154E-015  0.9000772E+02  0.7816164E-02  0.1186339E+00
        -11   -1    0    0    0    0  0.00000000000E+00  0.00000000000E+00  0.45593999997E+02  0.45594000000E+02  0.51100000000E-03 0.  1.
         11   -1    0    0    0    0 -0.00000000000E+00 -0.00000000000E+00 -0.45593999997E+02  0.45594000000E+02  0.51100000000E-03 0. -1.
    9900012    2    1    2    0    0  0.99123664052E+00 -0.44435378275E+00  0.46158262169E+00  0.90007720847E+02  0.89999981962E+02 0.  0.
         12    1    1    2    0    0 -0.99123664052E+00  0.44435378275E+00 -0.46158262169E+00  0.11802791527E+01  0.00000000000E+00 0. -1.
         11    1    3    3    0    0  0.34061820795E+01 -0.36747397512E+02 -0.15987455668E+02  0.40219050700E+02  0.51100000000E-03 0. -1.
        -11    1    3    3    0    0  0.47470679460E+01  0.38188881181E+01 -0.68567864329E+01  0.91724631910E+01  0.51100000000E-03 0.  1.
        -12    1    3    3    0    0 -0.71620133849E+01  0.32484155611E+02  0.23305824723E+02  0.40616206956E+02  0.00000000000E+00 0.  1.
</event>
<event>
 7    1  0.1501154E-015  0.9000773E+02  0.7816164E-02  0.1186339E+00
        -11   -1    0    0    0    0  0.00000000000E+00  0.00000000000E+00  0.45593999997E+02  0.45594000000E+02  0.51100000000E-03 0.  1.
         11   -1    0    0    0    0 -0.00000000000E+00 -0.00000000000E+00 -0.45593999997E+02  0.45594000000E+02  0.51100000000E-03 0. -1.
    9900012    2    1    2    0    0  0.10998194382E+01 -0.72663318244E-01 -0.42207301618E+00  0.90007733765E+02  0.89999995051E+02 0.  0.
         12    1    1    2    0    0 -0.10998194382E+01  0.72663318244E-01  0.42207301618E+00  0.11802662350E+01  0.00000000000E+00 0. -1.
         11    1    3    3    0    0  0.11722509713E+02  0.34304561451E+02 -0.13396751375E+02  0.38648326198E+02  0.51100000000E-03 0. -1.
        -11    1    3    3    0    0 -0.11403057342E+01  0.59033975737E+01 -0.33398477000E+01  0.68778618044E+01  0.51100000000E-03 0.  1.
        -12    1    3    3    0    0 -0.94823845401E+01 -0.40280622343E+02  0.16314526058E+02  0.44481545762E+02  0.00000000000E+00 0.  1.
</event>
<event>
 7    1  0.1501154E-015  0.9000775E+02  0.7816164E-02  0.1186339E+00
        -11   -1    0    0    0    0  0.00000000000E+00  0.00000000000E+00  0.45593999997E+02  0.45594000000E+02  0.51100000000E-03 0.  1.
         11   -1    0    0    0    0 -0.00000000000E+00 -0.00000000000E+00 -0.45593999997E+02  0.45594000000E+02  0.51100000000E-03 0. -1.
    9900012    2    1    2    0    0 -0.39254620295E+00 -0.28653356201E+00  0.10755485826E+01  0.90007746317E+02  0.90000007768E+02 0.  0.
         12    1    1    2    0    0  0.39254620295E+00  0.28653356201E+00 -0.10755485826E+01  0.11802536834E+01  0.00000000000E+00 0. -1.
         11    1    3    3    0    0 -0.34118787966E+01 -0.14989700414E+02 -0.31774739339E+02  0.35298244939E+02  0.51100000000E-03 0. -1.
        -11    1    3    3    0    0 -0.19693480885E+00 -0.28160545538E+01 -0.88900753162E+01  0.93275069530E+01  0.51100000000E-03 0.  1.
        -12    1    3    3    0    0  0.32162674025E+01  0.17519221406E+02  0.41740363238E+02  0.45381994424E+02  0.00000000000E+00 0.  1.
</event>
<event>
 7    1  0.1501154E-015  0.9000771E+02  0.7816164E-02  0.1186339E+00
        -11   -1    0    0    0    0  0.00000000000E+00  0.00000000000E+00  0.45593999997E+02  0.45594000000E+02  0.51100000000E-03 0. -1.
         11   -1    0    0    0    0 -0.00000000000E+00 -0.00000000000E+00 -0.45593999997E+02  0.45594000000E+02  0.51100000000E-03 0.  1.
    9900012    2    1    2    0    0  0.80667445551E+00 -0.62347040962E+00 -0.59468142026E+00  0.90007709773E+02  0.89999970742E+02 0.  0.
         12    1    1    2    0    0 -0.80667445551E+00  0.62347040962E+00  0.59468142026E+00  0.11802902272E+01  0.00000000000E+00 0. -1.
         11    1    3    3    0    0  0.68858121804E+01  0.31312713563E+01 -0.18425582773E+01  0.77855180275E+01  0.51100000000E-03 0. -1.
        -11    1    3    3    0    0 -0.18574966665E+02 -0.10230087407E+02 -0.36346209359E+02  0.42080054776E+02  0.51100000000E-03 0.  1.
         12    1    3    3    0    0  0.12495828940E+02  0.64753456406E+01  0.37594086216E+02  0.40142136969E+02  0.00000000000E+00 0. -1.
</event>
<event>
 7    1  0.1501154E-015  0.9000778E+02  0.7816164E-02  0.1186339E+00
        -11   -1    0    0    0    0  0.00000000000E+00  0.00000000000E+00  0.45593999997E+02  0.45594000000E+02  0.51100000000E-03 0.  1.
         11   -1    0    0    0    0 -0.00000000000E+00 -0.00000000000E+00 -0.45593999997E+02  0.45594000000E+02  0.51100000000E-03 0. -1.
    9900012    2    1    2    0    0 -0.23868105254E+00  0.11504009758E+01  0.11197408756E+00  0.90007775764E+02  0.90000037604E+02 0.  0.
         12    1    1    2    0    0  0.23868105254E+00 -0.11504009758E+01 -0.11197408756E+00  0.11802242356E+01  0.00000000000E+00 0. -1.
         11    1    3    3    0    0  0.53534174159E+01 -0.19564569591E+01  0.11239470591E+02  0.12602083212E+02  0.51100000000E-03 0. -1.
        -11    1    3    3    0    0 -0.21409219198E+02 -0.16535914827E+02  0.22629224152E+02  0.35268582787E+02  0.51100000000E-03 0.  1.
         12    1    3    3    0    0  0.15817120730E+02  0.19642772762E+02 -0.33756720655E+02  0.42137109765E+02  0.00000000000E+00 0. -1.
</event>
<event>
 7    1  0.1501154E-015  0.9000788E+02  0.7816164E-02  0.1186339E+00
        -11   -1    0    0    0    0  0.00000000000E+00  0.00000000000E+00  0.45593999997E+02  0.45594000000E+02  0.51100000000E-03 0. -1.
         11   -1    0    0    0    0 -0.00000000000E+00 -0.00000000000E+00 -0.45593999997E+02  0.45594000000E+02  0.51100000000E-03 0.  1.
    9900012    2    1    2    0    0  0.17191019041E+00 -0.14083389378E+00 -0.11590090772E+01  0.90007877405E+02  0.90000140586E+02 0.  0.
         12    1    1    2    0    0 -0.17191019041E+00  0.14083389378E+00  0.11590090772E+01  0.11801225954E+01  0.00000000000E+00 0. -1.
         11    1    3    3    0    0 -0.12134228516E+02 -0.58248451870E+01  0.47117858036E+01  0.14260759056E+02  0.51100000000E-03 0. -1.
        -11    1    3    3    0    0 -0.28315278344E+02  0.15379843599E+02 -0.10106498995E+02  0.33770340523E+02  0.51100000000E-03 0.  1.
         12    1    3    3    0    0  0.40621417051E+02 -0.96958323055E+01  0.42357041146E+01  0.41976777826E+02  0.00000000000E+00 0. -1.
</event>
<event>
 7    1  0.1501154E-015  0.9000771E+02  0.7816164E-02  0.1186339E+00
        -11   -1    0    0    0    0  0.00000000000E+00  0.00000000000E+00  0.45593999997E+02  0.45594000000E+02  0.51100000000E-03 0. -1.
         11   -1    0    0    0    0 -0.00000000000E+00 -0.00000000000E+00 -0.45593999997E+02  0.45594000000E+02  0.51100000000E-03 0.  1.
    9900012    2    1    2    0    0 -0.51576601777E+00 -0.98195381101E+00 -0.40353012391E+00  0.90007710022E+02  0.89999970994E+02 0.  0.
         12    1    1    2    0    0  0.51576601777E+00  0.98195381101E+00  0.40353012391E+00  0.11802899783E+01  0.00000000000E+00 0. -1.
         11    1    3    3    0    0 -0.81788017746E+01 -0.35262909182E+01 -0.16566900228E+01  0.90593679802E+01  0.51100000000E-03 0. -1.
        -11    1    3    3    0    0 -0.23433185911E+02  0.22600445107E+02 -0.20066048083E+02  0.38243177259E+02  0.51100000000E-03 0.  1.
         12    1    3    3    0    0  0.31096221668E+02 -0.20056107999E+02  0.21319207981E+02  0.42705164782E+02  0.00000000000E+00 0. -1.
</event>
<event>
 7    1  0.1501154E-015  0.9000754E+02  0.7816164E-02  0.1186339E+00
        -11   -1    0    0    0    0  0.00000000000E+00  0.00000000000E+00  0.45593999997E+02  0.45594000000E+02  0.51100000000E-03 0. -1.
         11   -1    0    0    0    0 -0.00000000000E+00 -0.00000000000E+00 -0.45593999997E+02  0.45594000000E+02  0.51100000000E-03 0.  1.
    9900012    2    1    2    0    0  0.10132349806E+00 -0.31907526600E-01 -0.11756656106E+01  0.90007544931E+02  0.89999803724E+02 0.  0.
         12    1    1    2    0    0 -0.10132349806E+00  0.31907526600E-01  0.11756656106E+01  0.11804550688E+01  0.00000000000E+00 0. -1.
         11    1    3    3    0    0 -0.58675734368E+01  0.11396472099E+02  0.42027160067E+01  0.13489655905E+02  0.51100000000E-03 0. -1.
        -11    1    3    3    0    0  0.17097800735E+02  0.21283338501E+02 -0.24798009543E+02  0.36881656216E+02  0.51100000000E-03 0.  1.
         12    1    3    3    0    0 -0.11128903800E+02 -0.32711718127E+02  0.19419627926E+02  0.39636232810E+02  0.00000000000E+00 0. -1.
</event>
<event>
 7    1  0.1501154E-015  0.9000778E+02  0.7816164E-02  0.1186339E+00
        -11   -1    0    0    0    0  0.00000000000E+00  0.00000000000E+00  0.45593999997E+02  0.45594000000E+02  0.51100000000E-03 0.  1.
         11   -1    0    0    0    0 -0.00000000000E+00 -0.00000000000E+00 -0.45593999997E+02  0.45594000000E+02  0.51100000000E-03 0. -1.
    9900012    2    1    2    0    0  0.22496881800E+00  0.34485983220E+00  0.11060598901E+01  0.90007784870E+02  0.90000046830E+02 0.  0.
         12    1    1    2    0    0 -0.22496881800E+00 -0.34485983220E+00 -0.11060598901E+01  0.11802151302E+01  0.00000000000E+00 0. -1.
         11    1    3    3    0    0  0.22113998451E+02  0.22380146385E+02 -0.14369717666E+02  0.34588851755E+02  0.51100000000E-03 0. -1.
        -11    1    3    3    0    0  0.69870524740E+01  0.48550241810E+01 -0.60797252402E+01  0.10457209060E+02  0.51100000000E-03 0.  1.
        -12    1    3    3    0    0 -0.28876082107E+02 -0.26890310734E+02  0.21555502796E+02  0.44961724055E+02  0.00000000000E+00 0.  1.
</event>
<event>
 7    1  0.1501154E-015  0.9000772E+02  0.7816164E-02  0.1186339E+00
        -11   -1    0    0    0    0  0.00000000000E+00  0.00000000000E+00  0.45593999997E+02  0.45594000000E+02  0.51100000000E-03 0.  1.
         11   -1    0    0    0    0 -0.00000000000E+00 -0.00000000000E+00 -0.45593999997E+02  0.45594000000E+02  0.51100000000E-03 0. -1.
    9900012    2    1    2    0    0 -0.89828714097E+00 -0.75239528041E+00  0.14154738141E+00  0.90007722869E+02  0.89999984011E+02 0.  0.
         12    1    1    2    0    0  0.89828714097E+00  0.75239528041E+00 -0.14154738141E+00  0.11802771314E+01  0.00000000000E+00 0. -1.
         11    1    3    3    0    0 -0.61872981824E+01 -0.46635965380E+01  0.13954085982E+02  0.15960836674E+02  0.51100000000E-03 0. -1.
        -11    1    3    3    0    0 -0.18596390704E+02 -0.21524519453E+01  0.23057084311E+02  0.29699965215E+02  0.51100000000E-03 0.  1.
         12    1    3    3    0    0  0.23885401745E+02  0.60636532029E+01 -0.36869622912E+02  0.44346920980E+02  0.00000000000E+00 0. -1.
</event>
<event>
 7    1  0.1501154E-015  0.9000770E+02  0.7816164E-02  0.1186339E+00
        -11   -1    0    0    0    0  0.00000000000E+00  0.00000000000E+00  0.45593999997E+02  0.45594000000E+02  0.51100000000E-03 0.  1.
         11   -1    0    0    0    0 -0.00000000000E+00 -0.00000000000E+00 -0.45593999997E+02  0.45594000000E+02  0.51100000000E-03 0. -1.
    9900012    2    1    2    0    0  0.98345820057E+00 -0.16336610867E+00  0.63184050559E+00  0.90007703028E+02  0.89999963908E+02 0.  0.
         12    1    1    2    0    0 -0.98345820057E+00  0.16336610867E+00 -0.63184050559E+00  0.11802969721E+01  0.00000000000E+00 0. -1.
         11    1    3    3    0    0 -0.43176878810E+02 -0.23006954533E+01  0.21785787119E+01  0.43292981750E+02  0.51100000000E-03 0. -1.
        -11    1    3    3    0    0  0.36933383329E+01  0.94386289463E+00 -0.47652475420E+01  0.61023937601E+01  0.51100000000E-03 0.  1.
        -12    1    3    3    0    0  0.40466998677E+02  0.11934664500E+01  0.32185093357E+01  0.40612327518E+02  0.00000000000E+00 0.  1.
</event>
<event>
 7    1  0.1501154E-015  0.9000780E+02  0.7816164E-02  0.1186339E+00
        -11   -1    0    0    0    0  0.00000000000E+00  0.00000000000E+00  0.45593999997E+02  0.45594000000E+02  0.51100000000E-03 0.  1.
         11   -1    0    0    0    0 -0.00000000000E+00 -0.00000000000E+00 -0.45593999997E+02  0.45594000000E+02  0.51100000000E-03 0. -1.
    9900012    2    1    2    0    0  0.49634323752E+00  0.11881784003E-01  0.10706876318E+01  0.90007800953E+02  0.90000063125E+02 0.  0.
         12    1    1    2    0    0 -0.49634323752E+00 -0.11881784003E-01 -0.10706876318E+01  0.11801990473E+01  0.00000000000E+00 0. -1.
         11    1    3    3    0    0 -0.42083418607E+02  0.82084141686E+01 -0.89823388579E+01  0.43807243652E+02  0.51100000000E-03 0. -1.
        -11    1    3    3    0    0  0.79439324901E+01 -0.57333975234E+01 -0.77682283812E+00  0.98275818263E+01  0.51100000000E-03 0.  1.
        -12    1    3    3    0    0  0.34635829354E+02 -0.24631348611E+01  0.10829849328E+02  0.36372975474E+02  0.00000000000E+00 0.  1.
</event>
<event>
 7    1  0.1501154E-015  0.9000774E+02  0.7816164E-02  0.1186339E+00
        -11   -1    0    0    0    0  0.00000000000E+00  0.00000000000E+00  0.45593999997E+02  0.45594000000E+02  0.51100000000E-03 0. -1.
         11   -1    0    0    0    0 -0.00000000000E+00 -0.00000000000E+00 -0.45593999997E+02  0.45594000000E+02  0.51100000000E-03 0.  1.
    9900012    2    1    2    0    0  0.24915615476E+00 -0.11201959818E+01 -0.27587573376E+00  0.90007735094E+02  0.89999996398E+02 0.  0.
         12    1    1    2    0    0 -0.24915615476E+00  0.11201959818E+01  0.27587573376E+00  0.11802649057E+01  0.00000000000E+00 0. -1.
         11    1    3    3    0    0 -0.25316244766E+02 -0.16284655110E+02  0.79875113554E+01  0.31143258966E+02  0.51100000000E-03 0. -1.
        -11    1    3    3    0    0 -0.13677830678E+02  0.26420610253E+01  0.61433128844E+01  0.15225105319E+02  0.51100000000E-03 0.  1.
        -12    1    3    3    0    0  0.39243231599E+02  0.12522398103E+02 -0.14406699974E+02  0.43639370810E+02  0.00000000000E+00 0.  1.
</event>
<event>
 7    1  0.1501154E-015  0.9000713E+02  0.7816164E-02  0.1186340E+00
        -11   -1    0    0    0    0  0.00000000000E+00  0.00000000000E+00  0.45593999997E+02  0.45594000000E+02  0.51100000000E-03 0.  1.
         11   -1    0    0    0    0 -0.00000000000E+00 -0.00000000000E+00 -0.45593999997E+02  0.45594000000E+02  0.51100000000E-03 0. -1.
    9900012    2    1    2    0    0 -0.69718721897E+00  0.76347052556E+00 -0.57051717355E+00  0.90007132900E+02  0.89999386253E+02 0.  0.
         12    1    1    2    0    0  0.69718721897E+00 -0.76347052556E+00  0.57051717355E+00  0.11808670996E+01  0.00000000000E+00 0. -1.
         11    1    3    3    0    0  0.33515282303E+02 -0.32668043363E+01  0.48367207176E+01  0.34019700557E+02  0.51100000000E-03 0. -1.
        -11    1    3    3    0    0  0.80624058889E+00 -0.14433438711E+02  0.45705615156E+01  0.15161273355E+02  0.51100000000E-03 0.  1.
        -12    1    3    3    0    0 -0.35018710111E+02  0.18463713573E+02 -0.99777994068E+01  0.40826158988E+02  0.00000000000E+00 0.  1.
</event>
<event>
 7    1  0.1501154E-015  0.9000767E+02  0.7816164E-02  0.1186339E+00
        -11   -1    0    0    0    0  0.00000000000E+00  0.00000000000E+00  0.45593999997E+02  0.45594000000E+02  0.51100000000E-03 0.  1.
         11   -1    0    0    0    0 -0.00000000000E+00 -0.00000000000E+00 -0.45593999997E+02  0.45594000000E+02  0.51100000000E-03 0. -1.
    9900012    2    1    2    0    0 -0.15704074337E+00 -0.11365982557E+01  0.27687082937E+00  0.90007671721E+02  0.89999932188E+02 0.  0.
         12    1    1    2    0    0  0.15704074337E+00  0.11365982557E+01 -0.27687082937E+00  0.11803282790E+01  0.00000000000E+00 0. -1.
         11    1    3    3    0    0 -0.30258091295E+02 -0.20590747331E+02  0.47059389279E+01  0.36900905489E+02  0.51100000000E-03 0. -1.
        -11    1    3    3    0    0 -0.71767966972E+01  0.54267642294E+01  0.72994578671E+01  0.11586123866E+02  0.51100000000E-03 0.  1.
        -12    1    3    3    0    0  0.37277847249E+02  0.14027384846E+02 -0.11728525966E+02  0.41520642366E+02  0.00000000000E+00 0.  1.
</event>
<event>
 7    1  0.1878355E-015  0.9000819E+02  0.7816164E-02  0.1186338E+00
        -11   -1    0    0    0    0  0.00000000000E+00  0.00000000000E+00  0.45593999997E+02  0.45594000000E+02  0.51100000000E-03 0. -1.
         11   -1    0    0    0    0 -0.00000000000E+00 -0.00000000000E+00 -0.45593999997E+02  0.45594000000E+02  0.51100000000E-03 0.  1.
    9900012    2    1    2    0    0 -0.28241249414E+00  0.84160022673E+00 -0.77711439689E+00  0.90008188768E+02  0.90000456058E+02 0.  0.
         12    1    1    2    0    0  0.28241249414E+00 -0.84160022673E+00  0.77711439689E+00  0.11798112325E+01  0.00000000000E+00 0. -1.
         11    1    3    3    0    0 -0.32007960553E+02 -0.40430045155E+01  0.23122481105E+02  0.39692625977E+02  0.51100000000E-03 0. -1.
        -11    1    3    3    0    0 -0.14038497824E+01  0.91773928014E+01 -0.75934997231E-01  0.92844547082E+01  0.51100000000E-03 0.  1.
        -12    1    3    3    0    0  0.33129397841E+02 -0.42927880592E+01 -0.23823660505E+02  0.41031108082E+02  0.00000000000E+00 0.  1.
</event>
<event>
 7    1  0.1501154E-015  0.9000770E+02  0.7816164E-02  0.1186339E+00
        -11   -1    0    0    0    0  0.00000000000E+00  0.00000000000E+00  0.45593999997E+02  0.45594000000E+02  0.51100000000E-03 0.  1.
         11   -1    0    0    0    0 -0.00000000000E+00 -0.00000000000E+00 -0.45593999997E+02  0.45594000000E+02  0.51100000000E-03 0. -1.
    9900012    2    1    2    0    0 -0.89006803255E-01  0.11759118368E+01 -0.49144490427E-01  0.90007700868E+02  0.89999961720E+02 0.  0.
         12    1    1    2    0    0  0.89006803255E-01 -0.11759118368E+01  0.49144490427E-01  0.11802991316E+01  0.00000000000E+00 0. -1.
         11    1    3    3    0    0 -0.13731853591E+02  0.19342892120E+02 -0.27357693259E+02  0.36209869639E+02  0.51100000000E-03 0. -1.
        -11    1    3    3    0    0  0.53612311385E+01  0.11451845518E+02 -0.35899595111E-01  0.12644716451E+02  0.51100000000E-03 0.  1.
        -12    1    3    3    0    0  0.82816156489E+01 -0.29618825801E+02  0.27344448364E+02  0.41153114778E+02  0.00000000000E+00 0.  1.
</event>
<event>
 7    1  0.1501154E-015  0.9000774E+02  0.7816164E-02  0.1186339E+00
        -11   -1    0    0    0    0  0.00000000000E+00  0.00000000000E+00  0.45593999997E+02  0.45594000000E+02  0.51100000000E-03 0.  1.
         11   -1    0    0    0    0 -0.00000000000E+00 -0.00000000000E+00 -0.45593999997E+02  0.45594000000E+02  0.51100000000E-03 0. -1.
    9900012    2    1    2    0    0 -0.78867622781E-01  0.11769928484E+01  0.38360548881E-01  0.90007744181E+02  0.90000005604E+02 0.  0.
         12    1    1    2    0    0  0.78867622781E-01 -0.11769928484E+01 -0.38360548881E-01  0.11802558192E+01  0.00000000000E+00 0. -1.
         11    1    3    3    0    0  0.24813658149E+02  0.25297642836E+02 -0.12797844424E+02  0.37675896618E+02  0.51100000000E-03 0. -1.
        -11    1    3    3    0    0 -0.30121908568E+01  0.83040493942E+01 -0.40603027079E+01  0.97219642275E+01  0.51100000000E-03 0.  1.
        -12    1    3    3    0    0 -0.21880334915E+02 -0.32424699382E+02  0.16896507681E+02  0.42609883335E+02  0.00000000000E+00 0.  1.
</event>
<event>
 7    1  0.1501154E-015  0.9000758E+02  0.7816164E-02  0.1186339E+00
        -11   -1    0    0    0    0  0.00000000000E+00  0.00000000000E+00  0.45593999997E+02  0.45594000000E+02  0.51100000000E-03 0.  1.
         11   -1    0    0    0    0 -0.00000000000E+00 -0.00000000000E+00 -0.45593999997E+02  0.45594000000E+02  0.51100000000E-03 0. -1.
    9900012    2    1    2    0    0 -0.20338923730E+00 -0.83890843617E+00  0.80514868289E+00  0.90007576793E+02  0.89999836006E+02 0.  0.
         12    1    1    2    0    0  0.20338923730E+00  0.83890843617E+00 -0.80514868289E+00  0.11804232070E+01  0.00000000000E+00 0. -1.
         11    1    3    3    0    0  0.12147210720E+02 -0.42282241387E+01 -0.23987343113E+01  0.13083827200E+02  0.51100000000E-03 0. -1.
        -11    1    3    3    0    0 -0.14583414715E+02 -0.28297003324E+02 -0.19992170908E+02  0.37590999983E+02  0.51100000000E-03 0.  1.
         12    1    3    3    0    0  0.22328147576E+01  0.31686319026E+02  0.23196053902E+02  0.39332749609E+02  0.00000000000E+00 0. -1.
</event>
<event>
 7    1  0.1501154E-015  0.9000837E+02  0.7816164E-02  0.1186338E+00
        -11   -1    0    0    0    0  0.00000000000E+00  0.00000000000E+00  0.45593999997E+02  0.45594000000E+02  0.51100000000E-03 0. -1.
         11   -1    0    0    0    0 -0.00000000000E+00 -0.00000000000E+00 -0.45593999997E+02  0.45594000000E+02  0.51100000000E-03 0.  1.
    9900012    2    1    2    0    0 -0.38217402613E-01  0.10476632809E+01 -0.54079368127E+00  0.90008374328E+02  0.90000644067E+02 0.  0.
         12    1    1    2    0    0  0.38217402613E-01 -0.10476632809E+01  0.54079368127E+00  0.11796256718E+01  0.00000000000E+00 0. -1.
         11    1    3    3    0    0  0.10877960726E+02 -0.45425397694E+01 -0.15861259713E+02  0.19762192618E+02  0.51100000000E-03 0. -1.
        -11    1    3    3    0    0  0.52748994325E+01  0.25029305047E+02 -0.15857176806E+02  0.30095526772E+02  0.51100000000E-03 0.  1.
         12    1    3    3    0    0 -0.16191077561E+02 -0.19439101997E+02  0.31177642838E+02  0.40150654938E+02  0.00000000000E+00 0. -1.
</event>
<event>
 7    1  0.1501154E-015  0.9000772E+02  0.7816164E-02  0.1186339E+00
        -11   -1    0    0    0    0  0.00000000000E+00  0.00000000000E+00  0.45593999997E+02  0.45594000000E+02  0.51100000000E-03 0. -1.
         11   -1    0    0    0    0 -0.00000000000E+00 -0.00000000000E+00 -0.45593999997E+02  0.45594000000E+02  0.51100000000E-03 0.  1.
    9900012    2    1    2    0    0  0.88205452826E+00 -0.77063967493E+00  0.14542247545E+00  0.90007723170E+02  0.89999984316E+02 0.  0.
         12    1    1    2    0    0 -0.88205452826E+00  0.77063967493E+00 -0.14542247545E+00  0.11802768301E+01  0.00000000000E+00 0. -1.
         11    1    3    3    0    0  0.46668190447E+01  0.32095611739E+01  0.58579254008E+01  0.81483601533E+01  0.51100000000E-03 0. -1.
        -11    1    3    3    0    0  0.37655069135E+02 -0.18284366184E+01 -0.12696660244E+02  0.39780052711E+02  0.51100000000E-03 0.  1.
         12    1    3    3    0    0 -0.41439833652E+02 -0.21517642304E+01  0.69841573190E+01  0.42079310306E+02  0.00000000000E+00 0. -1.
</event>
<event>
 7    1  0.1501154E-015  0.9000768E+02  0.7816164E-02  0.1186339E+00
        -11   -1    0    0    0    0  0.00000000000E+00  0.00000000000E+00  0.45593999997E+02  0.45594000000E+02  0.51100000000E-03 0.  1.
         11   -1    0    0    0    0 -0.00000000000E+00 -0.00000000000E+00 -0.45593999997E+02  0.45594000000E+02  0.51100000000E-03 0. -1.
    9900012    2    1    2    0    0  0.44795178527E+00  0.75318837319E+00  0.79070059155E+00  0.90007677606E+02  0.89999938151E+02 0.  0.
         12    1    1    2    0    0 -0.44795178527E+00 -0.75318837319E+00 -0.79070059155E+00  0.11803223936E+01  0.00000000000E+00 0. -1.
         11    1    3    3    0    0 -0.77195933057E+01  0.44308410475E+01 -0.40815032922E+01  0.97919938000E+01  0.51100000000E-03 0. -1.
        -11    1    3    3    0    0 -0.14775599368E+02  0.18427211970E+02  0.31027987571E+02  0.38995082903E+02  0.51100000000E-03 0.  1.
         12    1    3    3    0    0  0.22943144459E+02 -0.22104864644E+02 -0.26155783687E+02  0.41220600904E+02  0.00000000000E+00 0. -1.
</event>
<event>
 7    1  0.1501154E-015  0.9000777E+02  0.7816164E-02  0.1186339E+00
        -11   -1    0    0    0    0  0.00000000000E+00  0.00000000000E+00  0.45593999997E+02  0.45594000000E+02  0.51100000000E-03 0. -1.
         11   -1    0    0    0    0 -0.00000000000E+00 -0.00000000000E+00 -0.45593999997E+02  0.45594000000E+02  0.51100000000E-03 0.  1.
    9900012    2    1    2    0    0  0.93162493370E+00  0.70599491289E-01 -0.72113290656E+00  0.90007770372E+02  0.90000032141E+02 0.  0.
         12    1    1    2    0    0 -0.93162493370E+00 -0.70599491289E-01  0.72113290656E+00  0.11802296277E+01  0.00000000000E+00 0. -1.
         11    1    3    3    0    0  0.54381710790E+01  0.92376371294E+01 -0.93067672230E+00  0.10759823597E+02  0.51100000000E-03 0. -1.
        -11    1    3    3    0    0  0.31425839615E+02 -0.23348395363E+02  0.76965491406E+01  0.39899471556E+02  0.51100000000E-03 0.  1.
         12    1    3    3    0    0 -0.35932385760E+02  0.14181357725E+02 -0.74870053249E+01  0.39348475219E+02  0.00000000000E+00 0. -1.
</event>
<event>
 7    1  0.1501154E-015  0.9000775E+02  0.7816164E-02  0.1186339E+00
        -11   -1    0    0    0    0  0.00000000000E+00  0.00000000000E+00  0.45593999997E+02  0.45594000000E+02  0.51100000000E-03 0.  1.
         11   -1    0    0    0    0 -0.00000000000E+00 -0.00000000000E+00 -0.45593999997E+02  0.45594000000E+02  0.51100000000E-03 0. -1.
    9900012    2    1    2    0    0 -0.93610688656E+00 -0.58118323429E+00  0.42300069725E+00  0.90007745941E+02  0.90000007387E+02 0.  0.
         12    1    1    2    0    0  0.93610688656E+00  0.58118323429E+00 -0.42300069725E+00  0.11802540594E+01  0.00000000000E+00 0. -1.
         11    1    3    3    0    0  0.74265355820E+01 -0.78188205427E+01  0.23236286658E+01  0.11031166569E+02  0.51100000000E-03 0. -1.
        -11    1    3    3    0    0 -0.36331961720E+02 -0.40154786592E+01  0.20043357560E+02  0.41687788305E+02  0.51100000000E-03 0.  1.
         12    1    3    3    0    0  0.27969319251E+02  0.11253115968E+02 -0.21943985528E+02  0.37288791067E+02  0.00000000000E+00 0. -1.
</event>
<event>
 7    1  0.1501154E-015  0.9000769E+02  0.7816164E-02  0.1186339E+00
        -11   -1    0    0    0    0  0.00000000000E+00  0.00000000000E+00  0.45593999997E+02  0.45594000000E+02  0.51100000000E-03 0. -1.
         11   -1    0    0    0    0 -0.00000000000E+00 -0.00000000000E+00 -0.45593999997E+02  0.45594000000E+02  0.51100000000E-03 0.  1.
    9900012    2    1    2    0    0 -0.11337131192E+01  0.50576801677E-01 -0.32445551926E+00  0.90007688671E+02  0.89999949361E+02 0.  0.
         12    1    1    2    0    0  0.11337131192E+01 -0.50576801677E-01  0.32445551926E+00  0.11803113290E+01  0.00000000000E+00 0. -1.
         11    1    3    3    0    0  0.78169012404E+01 -0.17513289406E+02  0.32877669855E+02  0.38062585648E+02  0.51100000000E-03 0. -1.
        -11    1    3    3    0    0  0.92225600962E+01 -0.28631318128E+01 -0.10101489742E+01  0.97094562009E+01  0.51100000000E-03 0.  1.
        -12    1    3    3    0    0 -0.18173174456E+02  0.20426998021E+02 -0.32191976400E+02  0.42235646822E+02  0.00000000000E+00 0.  1.
</event>
<event>
 7    1  0.1501154E-015  0.9000771E+02  0.7816164E-02  0.1186339E+00
        -11   -1    0    0    0    0  0.00000000000E+00  0.00000000000E+00  0.45593999997E+02  0.45594000000E+02  0.51100000000E-03 0.  1.
         11   -1    0    0    0    0 -0.00000000000E+00 -0.00000000000E+00 -0.45593999997E+02  0.45594000000E+02  0.51100000000E-03 0. -1.
    9900012    2    1    2    0    0  0.45455676835E+00  0.33094111487E+00  0.10377573533E+01  0.90007710120E+02  0.89999971093E+02 0.  0.
         12    1    1    2    0    0 -0.45455676835E+00 -0.33094111487E+00 -0.10377573533E+01  0.11802898803E+01  0.00000000000E+00 0. -1.
         11    1    3    3    0    0 -0.81031680795E+01 -0.61809876508E+01 -0.17748405000E+01  0.10344853809E+02  0.51100000000E-03 0. -1.
        -11    1    3    3    0    0  0.22632791184E+02 -0.19515268238E+02  0.27889347902E+02  0.40876700672E+02  0.51100000000E-03 0.  1.
         12    1    3    3    0    0 -0.14075066336E+02  0.26027197004E+02 -0.25076750049E+02  0.38786155639E+02  0.00000000000E+00 0. -1.
</event>
<event>
 7    1  0.1501154E-015  0.9000774E+02  0.7816164E-02  0.1186339E+00
        -11   -1    0    0    0    0  0.00000000000E+00  0.00000000000E+00  0.45593999997E+02  0.45594000000E+02  0.51100000000E-03 0.  1.
         11   -1    0    0    0    0 -0.00000000000E+00 -0.00000000000E+00 -0.45593999997E+02  0.45594000000E+02  0.51100000000E-03 0. -1.
    9900012    2    1    2    0    0  0.12893071907E+00 -0.67348662329E+00  0.96062494835E+00  0.90007742548E+02  0.90000003949E+02 0.  0.
         12    1    1    2    0    0 -0.12893071907E+00  0.67348662329E+00 -0.96062494835E+00  0.11802574522E+01  0.00000000000E+00 0. -1.
         11    1    3    3    0    0 -0.66147134657E+01  0.28196070446E+01  0.33698913003E+01  0.79410821528E+01  0.51100000000E-03 0. -1.
        -11    1    3    3    0    0 -0.28190112973E+02 -0.45397466199E+00  0.24904743176E+02  0.37618277410E+02  0.51100000000E-03 0.  1.
         12    1    3    3    0    0  0.34933757157E+02 -0.30391190059E+01 -0.27314009528E+02  0.44448382985E+02  0.00000000000E+00 0. -1.
</event>
<event>
 7    1  0.1501154E-015  0.9000771E+02  0.7816164E-02  0.1186339E+00
        -11   -1    0    0    0    0  0.00000000000E+00  0.00000000000E+00  0.45593999997E+02  0.45594000000E+02  0.51100000000E-03 0. -1.
         11   -1    0    0    0    0 -0.00000000000E+00 -0.00000000000E+00 -0.45593999997E+02  0.45594000000E+02  0.51100000000E-03 0.  1.
    9900012    2    1    2    0    0 -0.10565174867E+01 -0.29007745589E+00  0.43898094550E+00  0.90007712577E+02  0.89999973583E+02 0.  0.
         12    1    1    2    0    0  0.10565174867E+01  0.29007745589E+00 -0.43898094550E+00  0.11802874229E+01  0.00000000000E+00 0. -1.
         11    1    3    3    0    0  0.25705994895E+02 -0.23727889764E+02  0.22597509454E+02  0.41646828931E+02  0.51100000000E-03 0. -1.
        -11    1    3    3    0    0 -0.43249553276E+01  0.49031441380E+01  0.52487064597E+01  0.83842102064E+01  0.51100000000E-03 0.  1.
        -12    1    3    3    0    0 -0.22437557054E+02  0.18534668170E+02 -0.27407234969E+02  0.39976673440E+02  0.00000000000E+00 0.  1.
</event>
<event>
 7    1  0.1501154E-015  0.9000775E+02  0.7816164E-02  0.1186339E+00
        -11   -1    0    0    0    0  0.00000000000E+00  0.00000000000E+00  0.45593999997E+02  0.45594000000E+02  0.51100000000E-03 0. -1.
         11   -1    0    0    0    0 -0.00000000000E+00 -0.00000000000E+00 -0.45593999997E+02  0.45594000000E+02  0.51100000000E-03 0.  1.
    9900012    2    1    2    0    0  0.97303683384E+00  0.62138907041E-01  0.66508092726E+00  0.90007748093E+02  0.90000009568E+02 0.  0.
         12    1    1    2    0    0 -0.97303683384E+00 -0.62138907041E-01 -0.66508092726E+00  0.11802519068E+01  0.00000000000E+00 0. -1.
         11    1    3    3    0    0  0.13491655431E+01  0.91754746782E+01 -0.18134972570E+01  0.94497807274E+01  0.51100000000E-03 0. -1.
        -11    1    3    3    0    0 -0.18636348650E+02  0.29277206920E+02 -0.10239273827E+02  0.36184403612E+02  0.51100000000E-03 0.  1.
         12    1    3    3    0    0  0.18260219941E+02 -0.38390542691E+02  0.12717852011E+02  0.44373563753E+02  0.00000000000E+00 0. -1.
</event>
<event>
 7    1  0.1501154E-015  0.9000767E+02  0.7816164E-02  0.1186339E+00
        -11   -1    0    0    0    0  0.00000000000E+00  0.00000000000E+00  0.45593999997E+02  0.45594000000E+02  0.51100000000E-03 0.  1.
         11   -1    0    0    0    0 -0.00000000000E+00 -0.00000000000E+00 -0.45593999997E+02  0.45594000000E+02  0.51100000000E-03 0. -1.
    9900012    2    1    2    0    0  0.20582581833E+00 -0.61828445289E+00  0.98414052570E+00  0.90007672712E+02  0.89999933192E+02 0.  0.
         12    1    1    2    0    0 -0.20582581833E+00  0.61828445289E+00 -0.98414052570E+00  0.11803272879E+01  0.00000000000E+00 0. -1.
         11    1    3    3    0    0  0.30251356376E+00 -0.19957171117E+01  0.10316731209E+02  0.10512342477E+02  0.51100000000E-03 0. -1.
        -11    1    3    3    0    0 -0.22489594036E+02  0.31948349922E+02  0.41123508975E+01  0.39286006832E+02  0.51100000000E-03 0.  1.
         12    1    3    3    0    0  0.22392906290E+02 -0.30570917263E+02 -0.13444941581E+02  0.40209323403E+02  0.00000000000E+00 0. -1.
</event>
<event>
 7    1  0.1501154E-015  0.9000779E+02  0.7816164E-02  0.1186339E+00
        -11   -1    0    0    0    0  0.00000000000E+00  0.00000000000E+00  0.45593999997E+02  0.45594000000E+02  0.51100000000E-03 0.  1.
         11   -1    0    0    0    0 -0.00000000000E+00 -0.00000000000E+00 -0.45593999997E+02  0.45594000000E+02  0.51100000000E-03 0. -1.
    9900012    2    1    2    0    0 -0.19634269056E+00  0.88291706238E+00  0.75815024582E+00  0.90007794600E+02  0.90000056689E+02 0.  0.
         12    1    1    2    0    0  0.19634269056E+00 -0.88291706238E+00 -0.75815024582E+00  0.11802054001E+01  0.00000000000E+00 0. -1.
         11    1    3    3    0    0 -0.36731635603E+01  0.32184536200E+02  0.18286268469E+02  0.37198442383E+02  0.51100000000E-03 0. -1.
        -11    1    3    3    0    0 -0.39410019350E+00  0.69349990070E+01  0.47237951827E+01  0.84002242457E+01  0.51100000000E-03 0.  1.
        -12    1    3    3    0    0  0.38709210632E+01 -0.38236618144E+02 -0.22251913405E+02  0.44409127972E+02  0.00000000000E+00 0.  1.
</event>
<event>
 7    1  0.1501154E-015  0.9000764E+02  0.7816164E-02  0.1186339E+00
        -11   -1    0    0    0    0  0.00000000000E+00  0.00000000000E+00  0.45593999997E+02  0.45594000000E+02  0.51100000000E-03 0. -1.
         11   -1    0    0    0    0 -0.00000000000E+00 -0.00000000000E+00 -0.45593999997E+02  0.45594000000E+02  0.51100000000E-03 0.  1.
    9900012    2    1    2    0    0  0.25157373822E+00  0.63101959400E+00 -0.96528722062E+00  0.90007637983E+02  0.89999898004E+02 0.  0.
         12    1    1    2    0    0 -0.25157373822E+00 -0.63101959400E+00  0.96528722062E+00  0.11803620174E+01  0.00000000000E+00 0. -1.
         11    1    3    3    0    0  0.25797956885E+01 -0.68656631961E+01  0.43754534756E+01  0.85403319781E+01  0.51100000000E-03 0. -1.
        -11    1    3    3    0    0  0.28276796569E+01 -0.33669255138E+02 -0.17746276716E+02  0.38164706881E+02  0.51100000000E-03 0.  1.
         12    1    3    3    0    0 -0.51559016072E+01  0.41165937928E+02  0.12405536020E+02  0.43302599123E+02  0.00000000000E+00 0. -1.
</event>
<event>
 7    1  0.1501154E-015  0.9000684E+02  0.7816164E-02  0.1186341E+00
        -11   -1    0    0    0    0  0.00000000000E+00  0.00000000000E+00  0.45593999997E+02  0.45594000000E+02  0.51100000000E-03 0.  1.
         11   -1    0    0    0    0 -0.00000000000E+00 -0.00000000000E+00 -0.45593999997E+02  0.45594000000E+02  0.51100000000E-03 0. -1.
    9900012    2    1    2    0    0  0.35374178060E+00 -0.47328102708E+00  0.10227440984E+01  0.90006842234E+02  0.89999091747E+02 0.  0.
         12    1    1    2    0    0 -0.35374178060E+00  0.47328102708E+00 -0.10227440984E+01  0.11811577662E+01  0.00000000000E+00 0. -1.
         11    1    3    3    0    0  0.76312624222E+01 -0.65082264965E+00  0.72421485005E+00  0.76931283421E+01  0.51100000000E-03 0. -1.
        -11    1    3    3    0    0  0.21474164242E+01 -0.40460181058E+02  0.19575282259E+01  0.40564387898E+02  0.51100000000E-03 0.  1.
         12    1    3    3    0    0 -0.94249370658E+01  0.40637722680E+02 -0.16589989776E+01  0.41749325994E+02  0.00000000000E+00 0. -1.
</event>
<event>
 7    1  0.1501154E-015  0.9000772E+02  0.7816164E-02  0.1186339E+00
        -11   -1    0    0    0    0  0.00000000000E+00  0.00000000000E+00  0.45593999997E+02  0.45594000000E+02  0.51100000000E-03 0.  1.
         11   -1    0    0    0    0 -0.00000000000E+00 -0.00000000000E+00 -0.45593999997E+02  0.45594000000E+02  0.51100000000E-03 0. -1.
    9900012    2    1    2    0    0 -0.51071894941E+00  0.10637894244E+01 -0.23925375652E-01  0.90007722826E+02  0.89999983967E+02 0.  0.
         12    1    1    2    0    0  0.51071894941E+00 -0.10637894244E+01  0.23925375652E-01  0.11802771744E+01  0.00000000000E+00 0. -1.
         11    1    3    3    0    0  0.49011341986E+01  0.21952952543E+02 -0.22801088778E+02  0.32028782235E+02  0.51100000000E-03 0. -1.
        -11    1    3    3    0    0  0.42405396320E+01 -0.45911388272E+01 -0.14707421990E+02  0.15980268895E+02  0.51100000000E-03 0.  1.
        -12    1    3    3    0    0 -0.96523927800E+01 -0.16298024291E+02  0.37484585392E+02  0.41998671695E+02  0.00000000000E+00 0.  1.
</event>
<event>
 7    1  0.1501154E-015  0.9000773E+02  0.7816164E-02  0.1186339E+00
        -11   -1    0    0    0    0  0.00000000000E+00  0.00000000000E+00  0.45593999997E+02  0.45594000000E+02  0.51100000000E-03 0. -1.
         11   -1    0    0    0    0 -0.00000000000E+00 -0.00000000000E+00 -0.45593999997E+02  0.45594000000E+02  0.51100000000E-03 0.  1.
    9900012    2    1    2    0    0 -0.18919861176E+00  0.94074246883E+00 -0.68720064690E+00  0.90007730015E+02  0.89999991252E+02 0.  0.
         12    1    1    2    0    0  0.18919861176E+00 -0.94074246883E+00  0.68720064690E+00  0.11802699846E+01  0.00000000000E+00 0. -1.
         11    1    3    3    0    0  0.29217956902E+02 -0.49330489461E+01  0.26523728784E+02  0.39768482072E+02  0.51100000000E-03 0. -1.
        -11    1    3    3    0    0 -0.31418322798E+01  0.50570642576E+01  0.56197961636E+01  0.81870091096E+01  0.51100000000E-03 0.  1.
        -12    1    3    3    0    0 -0.26265323234E+02  0.81672715730E+00 -0.32830725595E+02  0.42052238834E+02  0.00000000000E+00 0.  1.
</event>
<event>
 7    1  0.1501154E-015  0.9000773E+02  0.7816164E-02  0.1186339E+00
        -11   -1    0    0    0    0  0.00000000000E+00  0.00000000000E+00  0.45593999997E+02  0.45594000000E+02  0.51100000000E-03 0. -1.
         11   -1    0    0    0    0 -0.00000000000E+00 -0.00000000000E+00 -0.45593999997E+02  0.45594000000E+02  0.51100000000E-03 0.  1.
    9900012    2    1    2    0    0 -0.81535321485E+00  0.31378738465E+00 -0.79358259507E+00  0.90007730233E+02  0.89999991472E+02 0.  0.
         12    1    1    2    0    0  0.81535321485E+00 -0.31378738465E+00  0.79358259507E+00  0.11802697670E+01  0.00000000000E+00 0. -1.
         11    1    3    3    0    0 -0.32492115282E+02  0.24916829385E+02 -0.28979856992E+01  0.41048559822E+02  0.51100000000E-03 0. -1.
        -11    1    3    3    0    0 -0.16032001887E+00 -0.35172132373E+01 -0.86065715159E+01  0.92989012783E+01  0.51100000000E-03 0.  1.
        -12    1    3    3    0    0  0.31837082086E+02 -0.21085828763E+02  0.10710974620E+02  0.39660269133E+02  0.00000000000E+00 0.  1.
</event>
<event>
 7    1  0.1501154E-015  0.9000782E+02  0.7816164E-02  0.1186339E+00
        -11   -1    0    0    0    0  0.00000000000E+00  0.00000000000E+00  0.45593999997E+02  0.45594000000E+02  0.51100000000E-03 0. -1.
         11   -1    0    0    0    0 -0.00000000000E+00 -0.00000000000E+00 -0.45593999997E+02  0.45594000000E+02  0.51100000000E-03 0.  1.
    9900012    2    1    2    0    0  0.46291439086E+00  0.10584561789E+01 -0.24126492759E+00  0.90007818666E+02  0.90000081072E+02 0.  0.
         12    1    1    2    0    0 -0.46291439086E+00 -0.10584561789E+01  0.24126492759E+00  0.11801813340E+01  0.00000000000E+00 0. -1.
         11    1    3    3    0    0 -0.41944996621E+01 -0.79222812466E+01 -0.12623249945E+00  0.89650600930E+01  0.51100000000E-03 0. -1.
        -11    1    3    3    0    0  0.36517074249E+02 -0.11526788543E+02  0.13763763470E+02  0.40691580836E+02  0.51100000000E-03 0.  1.
         12    1    3    3    0    0 -0.31859660196E+02  0.20507525968E+02 -0.13878795898E+02  0.40351177737E+02  0.00000000000E+00 0. -1.
</event>
<event>
 7    1  0.1501154E-015  0.9000779E+02  0.7816164E-02  0.1186339E+00
        -11   -1    0    0    0    0  0.00000000000E+00  0.00000000000E+00  0.45593999997E+02  0.45594000000E+02  0.51100000000E-03 0.  1.
         11   -1    0    0    0    0 -0.00000000000E+00 -0.00000000000E+00 -0.45593999997E+02  0.45594000000E+02  0.51100000000E-03 0. -1.
    9900012    2    1    2    0    0 -0.52786264681E+00 -0.65335739379E+00  0.82908629741E+00  0.90007788601E+02  0.90000050610E+02 0.  0.
         12    1    1    2    0    0  0.52786264681E+00  0.65335739379E+00 -0.82908629741E+00  0.11802113991E+01  0.00000000000E+00 0. -1.
         11    1    3    3    0    0  0.68763049376E+01  0.23584304233E+02  0.23685354163E+02  0.34124756085E+02  0.51100000000E-03 0. -1.
        -11    1    3    3    0    0  0.28617886879E+01 -0.51471596920E+01  0.12837113922E+02  0.14123547058E+02  0.51100000000E-03 0.  1.
        -12    1    3    3    0    0 -0.10265956272E+02 -0.19090501935E+02 -0.35693381788E+02  0.41759485458E+02  0.00000000000E+00 0.  1.
</event>
<event>
 7    1  0.1501154E-015  0.9000776E+02  0.7816164E-02  0.1186339E+00
        -11   -1    0    0    0    0  0.00000000000E+00  0.00000000000E+00  0.45593999997E+02  0.45594000000E+02  0.51100000000E-03 0. -1.
         11   -1    0    0    0    0 -0.00000000000E+00 -0.00000000000E+00 -0.45593999997E+02  0.45594000000E+02  0.51100000000E-03 0.  1.
    9900012    2    1    2    0    0  0.81935063280E+00  0.35629773255E+00 -0.77115452829E+00  0.90007761532E+02  0.90000023185E+02 0.  0.
         12    1    1    2    0    0 -0.81935063280E+00 -0.35629773255E+00  0.77115452829E+00  0.11802384675E+01  0.00000000000E+00 0. -1.
         11    1    3    3    0    0  0.11176141121E+01  0.24518659949E+00  0.88898292575E+01  0.89631602831E+01  0.51100000000E-03 0. -1.
        -11    1    3    3    0    0 -0.28957276593E+01 -0.38252217143E+02 -0.16897705395E+02  0.41918370709E+02  0.51100000000E-03 0.  1.
         12    1    3    3    0    0  0.25974641800E+01  0.38363328276E+02  0.72367216089E+01  0.39126230540E+02  0.00000000000E+00 0. -1.
</event>
<event>
 7    1  0.1501154E-015  0.9000768E+02  0.7816164E-02  0.1186339E+00
        -11   -1    0    0    0    0  0.00000000000E+00  0.00000000000E+00  0.45593999997E+02  0.45594000000E+02  0.51100000000E-03 0.  1.
         11   -1    0    0    0    0 -0.00000000000E+00 -0.00000000000E+00 -0.45593999997E+02  0.45594000000E+02  0.51100000000E-03 0. -1.
    9900012    2    1    2    0    0 -0.22870924858E+00  0.80246564504E+00  0.83479666147E+00  0.90007684577E+02  0.89999945213E+02 0.  0.
         12    1    1    2    0    0  0.22870924858E+00 -0.80246564504E+00 -0.83479666147E+00  0.11803154230E+01  0.00000000000E+00 0. -1.
         11    1    3    3    0    0 -0.30640366621E+01 -0.38513558917E+01  0.31924331161E+01  0.58662502788E+01  0.51100000000E-03 0. -1.
        -11    1    3    3    0    0 -0.56511749382E+01  0.34869866494E+02  0.24371803879E+02  0.42916525862E+02  0.51100000000E-03 0.  1.
         12    1    3    3    0    0  0.84865023517E+01 -0.30216044957E+02 -0.26729440334E+02  0.41224908436E+02  0.00000000000E+00 0. -1.
</event>
<event>
 7    1  0.1501154E-015  0.9000781E+02  0.7816164E-02  0.1186339E+00
        -11   -1    0    0    0    0  0.00000000000E+00  0.00000000000E+00  0.45593999997E+02  0.45594000000E+02  0.51100000000E-03 0.  1.
         11   -1    0    0    0    0 -0.00000000000E+00 -0.00000000000E+00 -0.45593999997E+02  0.45594000000E+02  0.51100000000E-03 0. -1.
    9900012    2    1    2    0    0 -0.76727909985E+00  0.21810852655E+00  0.86980228147E+00  0.90007811644E+02  0.90000073958E+02 0.  0.
         12    1    1    2    0    0  0.76727909985E+00 -0.21810852655E+00 -0.86980228147E+00  0.11801883558E+01  0.00000000000E+00 0. -1.
         11    1    3    3    0    0 -0.71473817227E+01  0.60529201384E+01 -0.39323967141E+01  0.10158083080E+02  0.51100000000E-03 0. -1.
        -11    1    3    3    0    0 -0.30875523240E+02 -0.22542016476E+02  0.73939402770E+01  0.38937267434E+02  0.51100000000E-03 0.  1.
         12    1    3    3    0    0  0.37255625863E+02  0.16707204865E+02 -0.25917412814E+01  0.40912461130E+02  0.00000000000E+00 0. -1.
</event>
<event>
 7    1  0.1501154E-015  0.9000784E+02  0.7816164E-02  0.1186339E+00
        -11   -1    0    0    0    0  0.00000000000E+00  0.00000000000E+00  0.45593999997E+02  0.45594000000E+02  0.51100000000E-03 0. -1.
         11   -1    0    0    0    0 -0.00000000000E+00 -0.00000000000E+00 -0.45593999997E+02  0.45594000000E+02  0.51100000000E-03 0.  1.
    9900012    2    1    2    0    0 -0.86941929040E+00 -0.79786276781E+00 -0.17667822853E-01  0.90007836007E+02  0.90000098642E+02 0.  0.
         12    1    1    2    0    0  0.86941929040E+00  0.79786276781E+00  0.17667822853E-01  0.11801639932E+01  0.00000000000E+00 0. -1.
         11    1    3    3    0    0  0.10455634877E+02 -0.12722448896E+02  0.38177900601E+02  0.41578036283E+02  0.51100000000E-03 0. -1.
        -11    1    3    3    0    0 -0.66541869804E+00  0.77952789232E+01  0.73261794686E+00  0.78578549778E+01  0.51100000000E-03 0.  1.
        -12    1    3    3    0    0 -0.10659635469E+02  0.41293072047E+01 -0.38928186371E+02  0.40571944746E+02  0.00000000000E+00 0.  1.
</event>
<event>
 7    1  0.1501154E-015  0.9000834E+02  0.7816164E-02  0.1186338E+00
        -11   -1    0    0    0    0  0.00000000000E+00  0.00000000000E+00  0.45593999997E+02  0.45594000000E+02  0.51100000000E-03 0.  1.
         11   -1    0    0    0    0 -0.00000000000E+00 -0.00000000000E+00 -0.45593999997E+02  0.45594000000E+02  0.51100000000E-03 0. -1.
    9900012    2    1    2    0    0 -0.36402745710E+00 -0.92864147677E+00  0.62985197826E+00  0.90008337126E+02  0.90000606374E+02 0.  0.
         12    1    1    2    0    0  0.36402745710E+00  0.92864147677E+00 -0.62985197826E+00  0.11796628740E+01  0.00000000000E+00 0. -1.
         11    1    3    3    0    0  0.80014125232E+01 -0.15434938074E+02 -0.21392516490E+02  0.27566277909E+02  0.51100000000E-03 0. -1.
        -11    1    3    3    0    0 -0.82822350211E+01  0.19983294731E+02 -0.14155664371E+02  0.25851698577E+02  0.51100000000E-03 0.  1.
         12    1    3    3    0    0 -0.83204959216E-01 -0.54769981345E+01  0.36178032840E+02  0.36590360640E+02  0.00000000000E+00 0. -1.
</event>
<event>
 7    1  0.1501154E-015  0.9000791E+02  0.7816164E-02  0.1186339E+00
        -11   -1    0    0    0    0  0.00000000000E+00  0.00000000000E+00  0.45593999997E+02  0.45594000000E+02  0.51100000000E-03 0.  1.
         11   -1    0    0    0    0 -0.00000000000E+00 -0.00000000000E+00 -0.45593999997E+02  0.45594000000E+02  0.51100000000E-03 0. -1.
    9900012    2    1    2    0    0  0.97458779282E+00 -0.53497455091E+00  0.39570990762E+00  0.90007912941E+02  0.90000176592E+02 0.  0.
         12    1    1    2    0    0 -0.97458779282E+00  0.53497455091E+00 -0.39570990762E+00  0.11800870591E+01  0.00000000000E+00 0. -1.
         11    1    3    3    0    0 -0.74187957518E+01  0.43095537890E+01  0.29216121668E+01  0.90634762747E+01  0.51100000000E-03 0. -1.
        -11    1    3    3    0    0  0.19303222082E+02 -0.36281651526E+01  0.35932381644E+02  0.40950140610E+02  0.51100000000E-03 0.  1.
         12    1    3    3    0    0 -0.10909838537E+02 -0.12163631874E+01 -0.38458283903E+02  0.39994296057E+02  0.00000000000E+00 0. -1.
</event>
<event>
 7    1  0.1501154E-015  0.9000779E+02  0.7816164E-02  0.1186339E+00
        -11   -1    0    0    0    0  0.00000000000E+00  0.00000000000E+00  0.45593999997E+02  0.45594000000E+02  0.51100000000E-03 0.  1.
         11   -1    0    0    0    0 -0.00000000000E+00 -0.00000000000E+00 -0.45593999997E+02  0.45594000000E+02  0.51100000000E-03 0. -1.
    9900012    2    1    2    0    0  0.25394254452E+00  0.11446056933E+01  0.13521033029E+00  0.90007792034E+02  0.90000054089E+02 0.  0.
         12    1    1    2    0    0 -0.25394254452E+00 -0.11446056933E+01 -0.13521033029E+00  0.11802079658E+01  0.00000000000E+00 0. -1.
         11    1    3    3    0    0  0.12187339274E+02  0.26795642058E+02 -0.27521355808E+02  0.40298420536E+02  0.51100000000E-03 0. -1.
        -11    1    3    3    0    0  0.80103371712E+01 -0.72123357673E+01 -0.22994509833E+00  0.10781287670E+02  0.51100000000E-03 0.  1.
        -12    1    3    3    0    0 -0.19943733901E+02 -0.18438700598E+02  0.27886511236E+02  0.38928083829E+02  0.00000000000E+00 0.  1.
</event>
<event>
 7    1  0.1501154E-015  0.9000773E+02  0.7816164E-02  0.1186339E+00
        -11   -1    0    0    0    0  0.00000000000E+00  0.00000000000E+00  0.45593999997E+02  0.45594000000E+02  0.51100000000E-03 0.  1.
         11   -1    0    0    0    0 -0.00000000000E+00 -0.00000000000E+00 -0.45593999997E+02  0.45594000000E+02  0.51100000000E-03 0. -1.
    9900012    2    1    2    0    0  0.26126658947E+00 -0.11502000781E+01 -0.42537740287E-01  0.90007733119E+02  0.89999994396E+02 0.  0.
         12    1    1    2    0    0 -0.26126658947E+00  0.11502000781E+01  0.42537740287E-01  0.11802668808E+01  0.00000000000E+00 0. -1.
         11    1    3    3    0    0 -0.10916479399E+01 -0.66611443289E+01  0.78779011033E+01  0.10374192260E+02  0.51100000000E-03 0. -1.
        -11    1    3    3    0    0 -0.12675108271E+02 -0.14364730863E+02  0.29396069088E+02  0.35087501202E+02  0.51100000000E-03 0.  1.
         12    1    3    3    0    0  0.14028022800E+02  0.19875675114E+02 -0.37316507932E+02  0.44546039658E+02  0.00000000000E+00 0. -1.
</event>
<event>
 7    1  0.1501154E-015  0.9000773E+02  0.7816164E-02  0.1186339E+00
        -11   -1    0    0    0    0  0.00000000000E+00  0.00000000000E+00  0.45593999997E+02  0.45594000000E+02  0.51100000000E-03 0.  1.
         11   -1    0    0    0    0 -0.00000000000E+00 -0.00000000000E+00 -0.45593999997E+02  0.45594000000E+02  0.51100000000E-03 0. -1.
    9900012    2    1    2    0    0 -0.11454843530E+01 -0.49790414825E-01  0.28002411872E+00  0.90007734354E+02  0.89999995647E+02 0.  0.
         12    1    1    2    0    0  0.11454843530E+01  0.49790414825E-01 -0.28002411872E+00  0.11802656462E+01  0.00000000000E+00 0. -1.
         11    1    3    3    0    0  0.37304394493E+02  0.10987002369E+02  0.15278699853E+02  0.41782421411E+02  0.51100000000E-03 0. -1.
        -11    1    3    3    0    0 -0.97233806878E+01 -0.93587543231E+01  0.35938193384E+01  0.13965885299E+02  0.51100000000E-03 0.  1.
        -12    1    3    3    0    0 -0.28726498158E+02 -0.16780384608E+01 -0.18592495072E+02  0.34259427644E+02  0.00000000000E+00 0.  1.
</event>
<event>
 7    1  0.1501154E-015  0.9000790E+02  0.7816164E-02  0.1186339E+00
        -11   -1    0    0    0    0  0.00000000000E+00  0.00000000000E+00  0.45593999997E+02  0.45594000000E+02  0.51100000000E-03 0.  1.
         11   -1    0    0    0    0 -0.00000000000E+00 -0.00000000000E+00 -0.45593999997E+02  0.45594000000E+02  0.51100000000E-03 0. -1.
    9900012    2    1    2    0    0 -0.80348223987E+00  0.10426324294E+00  0.85800729533E+00  0.90007902100E+02  0.90000165608E+02 0.  0.
         12    1    1    2    0    0  0.80348223987E+00 -0.10426324294E+00 -0.85800729533E+00  0.11800978995E+01  0.00000000000E+00 0. -1.
         11    1    3    3    0    0 -0.82092794944E+01 -0.10066288296E+01  0.87846197210E+01  0.12065451310E+02  0.51100000000E-03 0. -1.
        -11    1    3    3    0    0 -0.75850929008E+01  0.31606226308E+02 -0.23948950856E+02  0.40373746706E+02  0.51100000000E-03 0.  1.
         12    1    3    3    0    0  0.14990890155E+02 -0.30495334235E+02  0.16022338430E+02  0.37568704084E+02  0.00000000000E+00 0. -1.
</event>
<event>
 7    1  0.1501154E-015  0.9000778E+02  0.7816164E-02  0.1186339E+00
        -11   -1    0    0    0    0  0.00000000000E+00  0.00000000000E+00  0.45593999997E+02  0.45594000000E+02  0.51100000000E-03 0.  1.
         11   -1    0    0    0    0 -0.00000000000E+00 -0.00000000000E+00 -0.45593999997E+02  0.45594000000E+02  0.51100000000E-03 0. -1.
    9900012    2    1    2    0    0 -0.34205368035E+00 -0.91015316359E+00  0.66898003217E+00  0.90007782315E+02  0.90000044241E+02 0.  0.
         12    1    1    2    0    0  0.34205368035E+00  0.91015316359E+00 -0.66898003217E+00  0.11802176854E+01  0.00000000000E+00 0. -1.
         11    1    3    3    0    0 -0.82004265042E+01 -0.81875669621E+00 -0.45118406760E+01  0.93954278202E+01  0.51100000000E-03 0. -1.
        -11    1    3    3    0    0 -0.28090502878E+02 -0.10329598322E+02  0.24369807059E+02  0.38596171439E+02  0.51100000000E-03 0.  1.
         12    1    3    3    0    0  0.35948875701E+02  0.10238201854E+02 -0.19188986350E+02  0.42016183056E+02  0.00000000000E+00 0. -1.
</event>
<event>
 7    1  0.1501154E-015  0.9000783E+02  0.7816164E-02  0.1186339E+00
        -11   -1    0    0    0    0  0.00000000000E+00  0.00000000000E+00  0.45593999997E+02  0.45594000000E+02  0.51100000000E-03 0.  1.
         11   -1    0    0    0    0 -0.00000000000E+00 -0.00000000000E+00 -0.45593999997E+02  0.45594000000E+02  0.51100000000E-03 0. -1.
    9900012    2    1    2    0    0  0.43432244376E+00 -0.22371400655E+00  0.10742971241E+01  0.90007831261E+02  0.90000093834E+02 0.  0.
         12    1    1    2    0    0 -0.43432244376E+00  0.22371400655E+00 -0.10742971241E+01  0.11801687391E+01  0.00000000000E+00 0. -1.
         11    1    3    3    0    0 -0.52597162432E+01  0.19903941454E+01 -0.12510206373E+02  0.13716105408E+02  0.51100000000E-03 0. -1.
        -11    1    3    3    0    0  0.33795178813E+02 -0.22315130085E+02  0.63620006233E+01  0.40994562980E+02  0.51100000000E-03 0.  1.
         12    1    3    3    0    0 -0.28101140126E+02  0.20101021933E+02  0.72225028737E+01  0.35297162873E+02  0.00000000000E+00 0. -1.
</event>
<event>
 7    1  0.1501154E-015  0.9000750E+02  0.7816164E-02  0.1186340E+00
        -11   -1    0    0    0    0  0.00000000000E+00  0.00000000000E+00  0.45593999997E+02  0.45594000000E+02  0.51100000000E-03 0.  1.
         11   -1    0    0    0    0 -0.00000000000E+00 -0.00000000000E+00 -0.45593999997E+02  0.45594000000E+02  0.51100000000E-03 0. -1.
    9900012    2    1    2    0    0 -0.60105136224E+00  0.50146187077E+00  0.88366086899E+00  0.90007498717E+02  0.89999756900E+02 0.  0.
         12    1    1    2    0    0  0.60105136224E+00 -0.50146187077E+00 -0.88366086899E+00  0.11805012830E+01  0.00000000000E+00 0. -1.
         11    1    3    3    0    0 -0.86791750679E+01  0.26333526176E+00  0.32445078898E+01  0.92695338085E+01  0.51100000000E-03 0. -1.
        -11    1    3    3    0    0 -0.24459111581E+02  0.27987095238E+02  0.44559042558E+01  0.37435019997E+02  0.51100000000E-03 0.  1.
         12    1    3    3    0    0  0.32537235286E+02 -0.27748968629E+02 -0.68167512766E+01  0.43302944912E+02  0.00000000000E+00 0. -1.
</event>
<event>
 7    1  0.1501154E-015  0.9000771E+02  0.7816164E-02  0.1186339E+00
        -11   -1    0    0    0    0  0.00000000000E+00  0.00000000000E+00  0.45593999997E+02  0.45594000000E+02  0.51100000000E-03 0.  1.
         11   -1    0    0    0    0 -0.00000000000E+00 -0.00000000000E+00 -0.45593999997E+02  0.45594000000E+02  0.51100000000E-03 0. -1.
    9900012    2    1    2    0    0  0.54857397887E+00 -0.10318222696E+01 -0.16578278311E+00  0.90007714214E+02  0.89999975241E+02 0.  0.
         12    1    1    2    0    0 -0.54857397887E+00  0.10318222696E+01  0.16578278311E+00  0.11802857864E+01  0.00000000000E+00 0. -1.
         11    1    3    3    0    0 -0.85105365822E+01 -0.46496054880E+01 -0.14692029487E+01  0.98084974219E+01  0.51100000000E-03 0. -1.
        -11    1    3    3    0    0  0.11348292142E+01  0.18851495843E+01  0.40304009450E+02  0.40364028594E+02  0.51100000000E-03 0.  1.
         12    1    3    3    0    0  0.79242813468E+01  0.17326336341E+01 -0.39000589285E+02  0.39835188198E+02  0.00000000000E+00 0. -1.
</event>
<event>
 7    1  0.1501154E-015  0.9000794E+02  0.7816164E-02  0.1186339E+00
        -11   -1    0    0    0    0  0.00000000000E+00  0.00000000000E+00  0.45593999997E+02  0.45594000000E+02  0.51100000000E-03 0. -1.
         11   -1    0    0    0    0 -0.00000000000E+00 -0.00000000000E+00 -0.45593999997E+02  0.45594000000E+02  0.51100000000E-03 0.  1.
    9900012    2    1    2    0    0  0.36132282897E-01  0.15784654518E+00 -0.11688971598E+01  0.90007939983E+02  0.90000203991E+02 0.  0.
         12    1    1    2    0    0 -0.36132282897E-01 -0.15784654518E+00  0.11688971598E+01  0.11800600170E+01  0.00000000000E+00 0. -1.
         11    1    3    3    0    0  0.64797509372E+01 -0.80973227838E+01 -0.31494489009E+01  0.10838488691E+02  0.51100000000E-03 0. -1.
        -11    1    3    3    0    0 -0.30779309184E+02 -0.15734976199E+02 -0.18623938646E+02  0.39265843182E+02  0.51100000000E-03 0.  1.
         12    1    3    3    0    0  0.24335690530E+02  0.23990145528E+02  0.20604490387E+02  0.39903608109E+02  0.00000000000E+00 0. -1.
</event>
<event>
 7    1  0.1501154E-015  0.9000778E+02  0.7816164E-02  0.1186339E+00
        -11   -1    0    0    0    0  0.00000000000E+00  0.00000000000E+00  0.45593999997E+02  0.45594000000E+02  0.51100000000E-03 0. -1.
         11   -1    0    0    0    0 -0.00000000000E+00 -0.00000000000E+00 -0.45593999997E+02  0.45594000000E+02  0.51100000000E-03 0.  1.
    9900012    2    1    2    0    0 -0.16314635729E+00 -0.11688341928E+01  0.11116486959E-01  0.90007782359E+02  0.90000044286E+02 0.  0.
         12    1    1    2    0    0  0.16314635729E+00  0.11688341928E+01 -0.11116486959E-01  0.11802176412E+01  0.00000000000E+00 0. -1.
         11    1    3    3    0    0 -0.21773037419E+01  0.50461403930E+01  0.67485562384E+01  0.87032865065E+01  0.51100000000E-03 0. -1.
        -11    1    3    3    0    0  0.32877123714E+02  0.20798856512E+02  0.34085732785E+01  0.39052734449E+02  0.51100000000E-03 0.  1.
         12    1    3    3    0    0 -0.30862966329E+02 -0.27013831098E+02 -0.10146013030E+02  0.42251761403E+02  0.00000000000E+00 0. -1.
</event>
<event>
 7    1  0.1501154E-015  0.9000822E+02  0.7816164E-02  0.1186338E+00
        -11   -1    0    0    0    0  0.00000000000E+00  0.00000000000E+00  0.45593999997E+02  0.45594000000E+02  0.51100000000E-03 0. -1.
         11   -1    0    0    0    0 -0.00000000000E+00 -0.00000000000E+00 -0.45593999997E+02  0.45594000000E+02  0.51100000000E-03 0.  1.
    9900012    2    1    2    0    0  0.34185684569E-01 -0.34375738349E-01 -0.11787863624E+01  0.90008217121E+02  0.90000484786E+02 0.  0.
         12    1    1    2    0    0 -0.34185684569E-01  0.34375738349E-01  0.11787863624E+01  0.11797828785E+01  0.00000000000E+00 0. -1.
         11    1    3    3    0    0 -0.21922602696E+01 -0.60492269957E+01 -0.62994608668E+01  0.90045743825E+01  0.51100000000E-03 0. -1.
        -11    1    3    3    0    0 -0.75832193282E+01 -0.35726374641E+02 -0.52266043156E+01  0.36894395960E+02  0.51100000000E-03 0.  1.
         12    1    3    3    0    0  0.98096652824E+01  0.41741225898E+02  0.10347278820E+02  0.44109246779E+02  0.00000000000E+00 0. -1.
</event>
<event>
 7    1  0.1501154E-015  0.9000773E+02  0.7816164E-02  0.1186339E+00
        -11   -1    0    0    0    0  0.00000000000E+00  0.00000000000E+00  0.45593999997E+02  0.45594000000E+02  0.51100000000E-03 0. -1.
         11   -1    0    0    0    0 -0.00000000000E+00 -0.00000000000E+00 -0.45593999997E+02  0.45594000000E+02  0.51100000000E-03 0.  1.
    9900012    2    1    2    0    0  0.22522241787E+00 -0.14340578908E+00 -0.11496742226E+01  0.90007728347E+02  0.89999989561E+02 0.  0.
         12    1    1    2    0    0 -0.22522241787E+00  0.14340578908E+00  0.11496742226E+01  0.11802716535E+01  0.00000000000E+00 0. -1.
         11    1    3    3    0    0 -0.18667229156E+02  0.14187595483E+02  0.25803011058E+02  0.34864719845E+02  0.51100000000E-03 0. -1.
        -11    1    3    3    0    0 -0.27614758015E+01 -0.29769351772E+01  0.10023182088E+02  0.10814438084E+02  0.51100000000E-03 0.  1.
        -12    1    3    3    0    0  0.21653927375E+02 -0.11354066095E+02 -0.36975867368E+02  0.44328570418E+02  0.00000000000E+00 0.  1.
</event>
<event>
 7    1  0.1501154E-015  0.9000745E+02  0.7816164E-02  0.1186340E+00
        -11   -1    0    0    0    0  0.00000000000E+00  0.00000000000E+00  0.45593999997E+02  0.45594000000E+02  0.51100000000E-03 0. -1.
         11   -1    0    0    0    0 -0.00000000000E+00 -0.00000000000E+00 -0.45593999997E+02  0.45594000000E+02  0.51100000000E-03 0.  1.
    9900012    2    1    2    0    0  0.98055209417E+00 -0.57100894939E+00 -0.32582896546E+00  0.90007450067E+02  0.89999707607E+02 0.  0.
         12    1    1    2    0    0 -0.98055209417E+00  0.57100894939E+00  0.32582896546E+00  0.11805499330E+01  0.00000000000E+00 0. -1.
         11    1    3    3    0    0  0.32576713170E+02  0.76000965830E+01 -0.14558686170E+02  0.36482311499E+02  0.51100000000E-03 0. -1.
        -11    1    3    3    0    0  0.93708920617E+01  0.74547244768E+00  0.52583152131E+00  0.94151923109E+01  0.51100000000E-03 0.  1.
        -12    1    3    3    0    0 -0.40967053138E+02 -0.89165779801E+01  0.13707025684E+02  0.44109946257E+02  0.00000000000E+00 0.  1.
</event>
<event>
 7    1  0.1501154E-015  0.9000792E+02  0.7816164E-02  0.1186339E+00
        -11   -1    0    0    0    0  0.00000000000E+00  0.00000000000E+00  0.45593999997E+02  0.45594000000E+02  0.51100000000E-03 0.  1.
         11   -1    0    0    0    0 -0.00000000000E+00 -0.00000000000E+00 -0.45593999997E+02  0.45594000000E+02  0.51100000000E-03 0. -1.
    9900012    2    1    2    0    0  0.13172160156E+00 -0.19093725280E+00  0.11570597293E+01  0.90007917447E+02  0.90000181157E+02 0.  0.
         12    1    1    2    0    0 -0.13172160156E+00  0.19093725280E+00 -0.11570597293E+01  0.11800825531E+01  0.00000000000E+00 0. -1.
         11    1    3    3    0    0  0.81718009164E+01 -0.35748191450E+02  0.74726400182E+01  0.37423947831E+02  0.51100000000E-03 0. -1.
        -11    1    3    3    0    0 -0.34579734430E+01 -0.70200011273E+01  0.36218090221E+01  0.86229633545E+01  0.51100000000E-03 0.  1.
        -12    1    3    3    0    0 -0.45821058718E+01  0.42577255324E+02 -0.99373893109E+01  0.43961006261E+02  0.00000000000E+00 0.  1.
</event>
<event>
 7    1  0.1501154E-015  0.9000775E+02  0.7816164E-02  0.1186339E+00
        -11   -1    0    0    0    0  0.00000000000E+00  0.00000000000E+00  0.45593999997E+02  0.45594000000E+02  0.51100000000E-03 0.  1.
         11   -1    0    0    0    0 -0.00000000000E+00 -0.00000000000E+00 -0.45593999997E+02  0.45594000000E+02  0.51100000000E-03 0. -1.
    9900012    2    1    2    0    0 -0.10668821657E+01 -0.50129251056E+00 -0.58876282268E-01  0.90007746572E+02  0.90000008027E+02 0.  0.
         12    1    1    2    0    0  0.10668821657E+01  0.50129251056E+00  0.58876282268E-01  0.11802534275E+01  0.00000000000E+00 0. -1.
         11    1    3    3    0    0 -0.83008445594E+01  0.42588947586E+01 -0.44788742945E+01  0.10349034746E+02  0.51100000000E-03 0. -1.
        -11    1    3    3    0    0 -0.17067987990E+02  0.15057164790E+02  0.31064133000E+02  0.38509930990E+02  0.51100000000E-03 0.  1.
         12    1    3    3    0    0  0.24301950384E+02 -0.19817352059E+02 -0.26644134988E+02  0.41148780837E+02  0.00000000000E+00 0. -1.
</event>
<event>
 7    1  0.1501154E-015  0.9000769E+02  0.7816164E-02  0.1186339E+00
        -11   -1    0    0    0    0  0.00000000000E+00  0.00000000000E+00  0.45593999997E+02  0.45594000000E+02  0.51100000000E-03 0. -1.
         11   -1    0    0    0    0 -0.00000000000E+00 -0.00000000000E+00 -0.45593999997E+02  0.45594000000E+02  0.51100000000E-03 0.  1.
    9900012    2    1    2    0    0 -0.62753479327E+00  0.51559978433E+00 -0.85644393501E+00  0.90007686792E+02  0.89999947458E+02 0.  0.
         12    1    1    2    0    0  0.62753479327E+00 -0.51559978433E+00  0.85644393501E+00  0.11803132077E+01  0.00000000000E+00 0. -1.
         11    1    3    3    0    0  0.14866994419E+02  0.27268898166E+02 -0.24303108181E+02  0.39436802581E+02  0.51100000000E-03 0. -1.
        -11    1    3    3    0    0  0.65245695273E+01  0.30062343602E+01  0.71073764652E+01  0.10105555552E+02  0.51100000000E-03 0.  1.
        -12    1    3    3    0    0 -0.22019098739E+02 -0.29759532742E+02  0.16339287781E+02  0.40465328659E+02  0.00000000000E+00 0.  1.
</event>
<event>
 7    1  0.1969244E-015  0.9000772E+02  0.7816164E-02  0.1186339E+00
        -11   -1    0    0    0    0  0.00000000000E+00  0.00000000000E+00  0.45593999997E+02  0.45594000000E+02  0.51100000000E-03 0.  1.
         11   -1    0    0    0    0 -0.00000000000E+00 -0.00000000000E+00 -0.45593999997E+02  0.45594000000E+02  0.51100000000E-03 0. -1.
    9900012    2    1    2    0    0  0.30836592929E-01  0.11541701832E+01  0.24496252261E+00  0.90007717684E+02  0.89999978758E+02 0.  0.
         12    1    1    2    0    0 -0.30836592929E-01 -0.11541701832E+01 -0.24496252261E+00  0.11802823157E+01  0.00000000000E+00 0. -1.
         11    1    3    3    0    0 -0.10285244294E+02 -0.10951385365E+02 -0.38548764406E+02  0.41373014504E+02  0.51100000000E-03 0. -1.
        -11    1    3    3    0    0  0.41897786312E+01 -0.66830940329E+01  0.45730103471E+01  0.91175882078E+01  0.51100000000E-03 0.  1.
        -12    1    3    3    0    0  0.61263022554E+01  0.18788649581E+02  0.34220716582E+02  0.39517114973E+02  0.00000000000E+00 0.  1.
</event>
<event>
 7    1  0.1501154E-015  0.9000772E+02  0.7816164E-02  0.1186339E+00
        -11   -1    0    0    0    0  0.00000000000E+00  0.00000000000E+00  0.45593999997E+02  0.45594000000E+02  0.51100000000E-03 0.  1.
         11   -1    0    0    0    0 -0.00000000000E+00 -0.00000000000E+00 -0.45593999997E+02  0.45594000000E+02  0.51100000000E-03 0. -1.
    9900012    2    1    2    0    0 -0.28220468652E+00  0.11109351850E+01  0.28148873292E+00  0.90007723601E+02  0.89999984753E+02 0.  0.
         12    1    1    2    0    0  0.28220468652E+00 -0.11109351850E+01 -0.28148873292E+00  0.11802763986E+01  0.00000000000E+00 0. -1.
         11    1    3    3    0    0  0.19312682755E+01  0.18660216406E+02 -0.36630045173E+02  0.41154509876E+02  0.51100000000E-03 0. -1.
        -11    1    3    3    0    0 -0.22057685597E+01  0.70525580761E+01  0.79823611209E+01  0.10877595308E+02  0.51100000000E-03 0.  1.
        -12    1    3    3    0    0 -0.77044022930E-02 -0.24601839297E+02  0.28929172785E+02  0.37975618418E+02  0.00000000000E+00 0.  1.
</event>
<event>
 7    1  0.1501154E-015  0.9000776E+02  0.7816164E-02  0.1186339E+00
        -11   -1    0    0    0    0  0.00000000000E+00  0.00000000000E+00  0.45593999997E+02  0.45594000000E+02  0.51100000000E-03 0.  1.
         11   -1    0    0    0    0 -0.00000000000E+00 -0.00000000000E+00 -0.45593999997E+02  0.45594000000E+02  0.51100000000E-03 0. -1.
    9900012    2    1    2    0    0 -0.30364511601E+00 -0.37352089388E+00  0.10776116514E+01  0.90007760581E+02  0.90000022221E+02 0.  0.
         12    1    1    2    0    0  0.30364511601E+00  0.37352089388E+00 -0.10776116514E+01  0.11802394189E+01  0.00000000000E+00 0. -1.
         11    1    3    3    0    0  0.32043379878E+01  0.85254339717E+01  0.21669690696E+01  0.93619742338E+01  0.51100000000E-03 0. -1.
        -11    1    3    3    0    0  0.31048744770E+02  0.86238634922E+01 -0.19588225958E+02  0.37710663874E+02  0.51100000000E-03 0.  1.
         12    1    3    3    0    0 -0.34556727874E+02 -0.17522818358E+02  0.18498868540E+02  0.42935122474E+02  0.00000000000E+00 0. -1.
</event>
<event>
 7    1  0.1501154E-015  0.9000775E+02  0.7816164E-02  0.1186339E+00
        -11   -1    0    0    0    0  0.00000000000E+00  0.00000000000E+00  0.45593999997E+02  0.45594000000E+02  0.51100000000E-03 0.  1.
         11   -1    0    0    0    0 -0.00000000000E+00 -0.00000000000E+00 -0.45593999997E+02  0.45594000000E+02  0.51100000000E-03 0. -1.
    9900012    2    1    2    0    0  0.91636930743E-02  0.11874286407E+00  0.11742285214E+01  0.90007747289E+02  0.90000008753E+02 0.  0.
         12    1    1    2    0    0 -0.91636930743E-02 -0.11874286407E+00 -0.11742285214E+01  0.11802527109E+01  0.00000000000E+00 0. -1.
         11    1    3    3    0    0 -0.22988709376E+02  0.17830220523E+02  0.29434678080E+02  0.41385961346E+02  0.51100000000E-03 0. -1.
        -11    1    3    3    0    0  0.67256080230E+01  0.58135745756E+01 -0.72792947068E+00  0.89197160381E+01  0.51100000000E-03 0.  1.
        -12    1    3    3    0    0  0.16272265046E+02 -0.23525052234E+02 -0.27532520088E+02  0.39702069905E+02  0.00000000000E+00 0.  1.
</event>
<event>
 7    1  0.1501154E-015  0.9000788E+02  0.7816164E-02  0.1186339E+00
        -11   -1    0    0    0    0  0.00000000000E+00  0.00000000000E+00  0.45593999997E+02  0.45594000000E+02  0.51100000000E-03 0.  1.
         11   -1    0    0    0    0 -0.00000000000E+00 -0.00000000000E+00 -0.45593999997E+02  0.45594000000E+02  0.51100000000E-03 0. -1.
    9900012    2    1    2    0    0  0.10399960066E+01 -0.41892003119E+00 -0.36824808995E+00  0.90007876133E+02  0.90000139298E+02 0.  0.
         12    1    1    2    0    0 -0.10399960066E+01  0.41892003119E+00  0.36824808995E+00  0.11801238672E+01  0.00000000000E+00 0. -1.
         11    1    3    3    0    0  0.53634653638E+01  0.36664833933E+02 -0.14397435027E+02  0.39753778986E+02  0.51100000000E-03 0. -1.
        -11    1    3    3    0    0 -0.48198454908E+01  0.31306671582E+01  0.75960681616E+01  0.95253471951E+01  0.51100000000E-03 0.  1.
        -12    1    3    3    0    0  0.49637613348E+00 -0.40214421122E+02  0.64331187758E+01  0.40728749952E+02  0.00000000000E+00 0.  1.
</event>
<event>
 7    1  0.1501154E-015  0.9000766E+02  0.7816164E-02  0.1186339E+00
        -11   -1    0    0    0    0  0.00000000000E+00  0.00000000000E+00  0.45593999997E+02  0.45594000000E+02  0.51100000000E-03 0.  1.
         11   -1    0    0    0    0 -0.00000000000E+00 -0.00000000000E+00 -0.45593999997E+02  0.45594000000E+02  0.51100000000E-03 0. -1.
    9900012    2    1    2    0    0 -0.11273427327E+01 -0.34898638376E+00 -0.22366239660E-01  0.90007663869E+02  0.89999924232E+02 0.  0.
         12    1    1    2    0    0  0.11273427327E+01  0.34898638376E+00  0.22366239660E-01  0.11803361308E+01  0.00000000000E+00 0. -1.
         11    1    3    3    0    0 -0.72119829596E+00 -0.15913999560E+02 -0.25656618960E+02  0.30199960359E+02  0.51100000000E-03 0. -1.
        -11    1    3    3    0    0  0.22919947907E+02  0.42458134236E+01 -0.53392247888E-01  0.23309950551E+02  0.51100000000E-03 0.  1.
        -12    1    3    3    0    0 -0.23326092344E+02  0.11319199753E+02  0.25687644968E+02  0.36497752959E+02  0.00000000000E+00 0.  1.
</event>
<event>
 7    1  0.1501154E-015  0.9000804E+02  0.7816164E-02  0.1186338E+00
        -11   -1    0    0    0    0  0.00000000000E+00  0.00000000000E+00  0.45593999997E+02  0.45594000000E+02  0.51100000000E-03 0.  1.
         11   -1    0    0    0    0 -0.00000000000E+00 -0.00000000000E+00 -0.45593999997E+02  0.45594000000E+02  0.51100000000E-03 0. -1.
    9900012    2    1    2    0    0 -0.77775277407E+00 -0.88669900241E+00  0.34091871390E-01  0.90008043749E+02  0.90000309126E+02 0.  0.
         12    1    1    2    0    0  0.77775277407E+00  0.88669900241E+00 -0.34091871390E-01  0.11799562509E+01  0.00000000000E+00 0. -1.
         11    1    3    3    0    0  0.42613359133E+01 -0.56371922433E+01  0.78313276896E+01  0.10548299095E+02  0.51100000000E-03 0. -1.
        -11    1    3    3    0    0 -0.22637788843E+02 -0.20518243330E+02  0.21180053113E+02  0.37176100430E+02  0.51100000000E-03 0.  1.
         12    1    3    3    0    0  0.17598700155E+02  0.25268736571E+02 -0.28977288932E+02  0.42283644224E+02  0.00000000000E+00 0. -1.
</event>
<event>
 7    1  0.1501154E-015  0.9000773E+02  0.7816164E-02  0.1186339E+00
        -11   -1    0    0    0    0  0.00000000000E+00  0.00000000000E+00  0.45593999997E+02  0.45594000000E+02  0.51100000000E-03 0.  1.
         11   -1    0    0    0    0 -0.00000000000E+00 -0.00000000000E+00 -0.45593999997E+02  0.45594000000E+02  0.51100000000E-03 0. -1.
    9900012    2    1    2    0    0 -0.11078124768E+00 -0.85450617291E+00  0.80659103283E+00  0.90007727837E+02  0.89999989045E+02 0.  0.
         12    1    1    2    0    0  0.11078124768E+00  0.85450617291E+00 -0.80659103283E+00  0.11802721629E+01  0.00000000000E+00 0. -1.
         11    1    3    3    0    0 -0.21683138128E+02  0.23789696287E+02 -0.21269157579E+02  0.38580891551E+02  0.51100000000E-03 0. -1.
        -11    1    3    3    0    0  0.57389735734E+01  0.55841111820E+01 -0.35431901334E+01  0.87562727203E+01  0.51100000000E-03 0.  1.
        -12    1    3    3    0    0  0.15833383307E+02 -0.30228313642E+02  0.25618938745E+02  0.42670563566E+02  0.00000000000E+00 0.  1.
</event>
<event>
 7    1  0.2261499E-015  0.9000771E+02  0.7816164E-02  0.1186339E+00
        -11   -1    0    0    0    0  0.00000000000E+00  0.00000000000E+00  0.45593999997E+02  0.45594000000E+02  0.51100000000E-03 0.  1.
         11   -1    0    0    0    0 -0.00000000000E+00 -0.00000000000E+00 -0.45593999997E+02  0.45594000000E+02  0.51100000000E-03 0. -1.
    9900012    2    1    2    0    0 -0.36970896758E+00 -0.11089785728E+01 -0.16298168095E+00  0.90007711381E+02  0.89999972371E+02 0.  0.
         12    1    1    2    0    0  0.36970896758E+00  0.11089785728E+01  0.16298168095E+00  0.11802886190E+01  0.00000000000E+00 0. -1.
         11    1    3    3    0    0  0.44074146401E+01 -0.74383489857E+01 -0.38049505494E+02  0.39019472165E+02  0.51100000000E-03 0. -1.
        -11    1    3    3    0    0 -0.66356268205E+01 -0.70345928192E+01 -0.11001625212E+01  0.97328000734E+01  0.51100000000E-03 0.  1.
        -12    1    3    3    0    0  0.18585032129E+01  0.13363963232E+02  0.38986686335E+02  0.41255439142E+02  0.00000000000E+00 0.  1.
</event>
<event>
 7    1  0.1501154E-015  0.9000876E+02  0.7816164E-02  0.1186337E+00
        -11   -1    0    0    0    0  0.00000000000E+00  0.00000000000E+00  0.45593999997E+02  0.45594000000E+02  0.51100000000E-03 0. -1.
         11   -1    0    0    0    0 -0.00000000000E+00 -0.00000000000E+00 -0.45593999997E+02  0.45594000000E+02  0.51100000000E-03 0.  1.
    9900012    2    1    2    0    0 -0.40914499297E+00 -0.22580801479E+00 -0.10826868460E+01  0.90008763089E+02  0.90001037956E+02 0.  0.
         12    1    1    2    0    0  0.40914499297E+00  0.22580801479E+00  0.10826868460E+01  0.11792369106E+01  0.00000000000E+00 0. -1.
         11    1    3    3    0    0 -0.13362151103E+02 -0.98411793988E+01  0.33651441802E+02  0.37520866590E+02  0.51100000000E-03 0. -1.
        -11    1    3    3    0    0 -0.10192405722E+02 -0.33826722526E+01 -0.30711587440E+01  0.11169584695E+02  0.51100000000E-03 0.  1.
        -12    1    3    3    0    0  0.23145411832E+02  0.12998043637E+02 -0.31662969904E+02  0.41318311805E+02  0.00000000000E+00 0.  1.
</event>
<event>
 7    1  0.1501154E-015  0.9000788E+02  0.7816164E-02  0.1186339E+00
        -11   -1    0    0    0    0  0.00000000000E+00  0.00000000000E+00  0.45593999997E+02  0.45594000000E+02  0.51100000000E-03 0.  1.
         11   -1    0    0    0    0 -0.00000000000E+00 -0.00000000000E+00 -0.45593999997E+02  0.45594000000E+02  0.51100000000E-03 0. -1.
    9900012    2    1    2    0    0  0.21059163888E+00 -0.24453533540E+00  0.11351418221E+01  0.90007875716E+02  0.90000138876E+02 0.  0.
         12    1    1    2    0    0 -0.21059163888E+00  0.24453533540E+00 -0.11351418221E+01  0.11801242836E+01  0.00000000000E+00 0. -1.
         11    1    3    3    0    0 -0.84666381523E+01  0.33585120005E+01  0.22172046287E+01  0.93744099060E+01  0.51100000000E-03 0. -1.
        -11    1    3    3    0    0  0.21017649319E+01 -0.20509489295E+02  0.34787432630E+02  0.40437878730E+02  0.51100000000E-03 0.  1.
         12    1    3    3    0    0  0.65754648593E+01  0.16906441959E+02 -0.35869495436E+02  0.40195587080E+02  0.00000000000E+00 0. -1.
</event>
<event>
 7    1  0.1501154E-015  0.9000765E+02  0.7816164E-02  0.1186339E+00
        -11   -1    0    0    0    0  0.00000000000E+00  0.00000000000E+00  0.45593999997E+02  0.45594000000E+02  0.51100000000E-03 0.  1.
         11   -1    0    0    0    0 -0.00000000000E+00 -0.00000000000E+00 -0.45593999997E+02  0.45594000000E+02  0.51100000000E-03 0. -1.
    9900012    2    1    2    0    0  0.18423713261E+00 -0.83975282023E+00 -0.80876450192E+00  0.90007649146E+02  0.89999909314E+02 0.  0.
         12    1    1    2    0    0 -0.18423713261E+00  0.83975282023E+00  0.80876450192E+00  0.11803508545E+01  0.00000000000E+00 0. -1.
         11    1    3    3    0    0 -0.22426543321E+00 -0.71199872586E+01 -0.50440893580E+01  0.87285366047E+01  0.51100000000E-03 0. -1.
        -11    1    3    3    0    0  0.30928721483E+02 -0.22689508943E+02  0.74532384479E+01  0.39076212614E+02  0.51100000000E-03 0.  1.
         12    1    3    3    0    0 -0.30520218917E+02  0.28969743381E+02 -0.32179135918E+01  0.42202899927E+02  0.00000000000E+00 0. -1.
</event>
<event>
 7    1  0.1501154E-015  0.9000774E+02  0.7816164E-02  0.1186339E+00
        -11   -1    0    0    0    0  0.00000000000E+00  0.00000000000E+00  0.45593999997E+02  0.45594000000E+02  0.51100000000E-03 0.  1.
         11   -1    0    0    0    0 -0.00000000000E+00 -0.00000000000E+00 -0.45593999997E+02  0.45594000000E+02  0.51100000000E-03 0. -1.
    9900012    2    1    2    0    0 -0.82783244513E+00 -0.35219605253E+00  0.76398631739E+00  0.90007735746E+02  0.89999997058E+02 0.  0.
         12    1    1    2    0    0  0.82783244513E+00  0.35219605253E+00 -0.76398631739E+00  0.11802642542E+01  0.00000000000E+00 0. -1.
         11    1    3    3    0    0  0.14724434593E+02 -0.24670889318E+02  0.23143439251E+02  0.36892824972E+02  0.51100000000E-03 0. -1.
        -11    1    3    3    0    0 -0.39488055831E+01 -0.63381500905E+01  0.61383676558E+01  0.96666834975E+01  0.51100000000E-03 0.  1.
        -12    1    3    3    0    0 -0.11603461455E+02  0.30656843356E+02 -0.28517820589E+02  0.43448227276E+02  0.00000000000E+00 0.  1.
</event>
<event>
 7    1  0.1501154E-015  0.9000771E+02  0.7816164E-02  0.1186339E+00
        -11   -1    0    0    0    0  0.00000000000E+00  0.00000000000E+00  0.45593999997E+02  0.45594000000E+02  0.51100000000E-03 0. -1.
         11   -1    0    0    0    0 -0.00000000000E+00 -0.00000000000E+00 -0.45593999997E+02  0.45594000000E+02  0.51100000000E-03 0.  1.
    9900012    2    1    2    0    0  0.11346493767E+01  0.30748500095E+00 -0.10534299499E+00  0.90007714704E+02  0.89999975738E+02 0.  0.
         12    1    1    2    0    0 -0.11346493767E+01 -0.30748500095E+00  0.10534299499E+00  0.11802852962E+01  0.00000000000E+00 0. -1.
         11    1    3    3    0    0 -0.32520651513E+02  0.13959319344E+02 -0.18411366105E+02  0.39892778463E+02  0.51100000000E-03 0. -1.
        -11    1    3    3    0    0  0.44416643271E+01  0.51026222566E+01 -0.49037828883E+01  0.83553708933E+01  0.51100000000E-03 0.  1.
        -12    1    3    3    0    0  0.29213636563E+02 -0.18754456600E+02  0.23209805998E+02  0.41759565348E+02  0.00000000000E+00 0.  1.
</event>
<event>
 7    1  0.1501154E-015  0.9000775E+02  0.7816164E-02  0.1186339E+00
        -11   -1    0    0    0    0  0.00000000000E+00  0.00000000000E+00  0.45593999997E+02  0.45594000000E+02  0.51100000000E-03 0. -1.
         11   -1    0    0    0    0 -0.00000000000E+00 -0.00000000000E+00 -0.45593999997E+02  0.45594000000E+02  0.51100000000E-03 0.  1.
    9900012    2    1    2    0    0 -0.89815988210E+00  0.33620648322E+00 -0.68793582724E+00  0.90007753553E+02  0.90000015100E+02 0.  0.
         12    1    1    2    0    0  0.89815988210E+00 -0.33620648322E+00  0.68793582724E+00  0.11802464470E+01  0.00000000000E+00 0. -1.
         11    1    3    3    0    0 -0.91149335853E+01 -0.66957656857E+00 -0.15683977465E+01  0.92730911134E+01  0.51100000000E-03 0. -1.
        -11    1    3    3    0    0  0.39127250223E+01  0.40491462331E+02  0.40926581195E+01  0.40885422702E+02  0.51100000000E-03 0.  1.
         12    1    3    3    0    0  0.43040486808E+01 -0.39485679279E+02 -0.32121962002E+01  0.39849239737E+02  0.00000000000E+00 0. -1.
</event>
<event>
 7    1  0.1501154E-015  0.9000784E+02  0.7816164E-02  0.1186339E+00
        -11   -1    0    0    0    0  0.00000000000E+00  0.00000000000E+00  0.45593999997E+02  0.45594000000E+02  0.51100000000E-03 0.  1.
         11   -1    0    0    0    0 -0.00000000000E+00 -0.00000000000E+00 -0.45593999997E+02  0.45594000000E+02  0.51100000000E-03 0. -1.
    9900012    2    1    2    0    0  0.11315782254E+01 -0.12812966172E+00  0.30967130591E+00  0.90007837804E+02  0.90000100463E+02 0.  0.
         12    1    1    2    0    0 -0.11315782254E+01  0.12812966172E+00 -0.30967130591E+00  0.11801621957E+01  0.00000000000E+00 0. -1.
         11    1    3    3    0    0  0.38358900659E+01 -0.16787459006E+02  0.12948207372E+02  0.21545043673E+02  0.51100000000E-03 0. -1.
        -11    1    3    3    0    0 -0.18994801430E+02 -0.10582560335E+02  0.14966618652E+02  0.26396831983E+02  0.51100000000E-03 0.  1.
         12    1    3    3    0    0  0.16290489590E+02  0.27241889679E+02 -0.27605154719E+02  0.42065962148E+02  0.00000000000E+00 0. -1.
</event>
<event>
 7    1  0.1501154E-015  0.9000774E+02  0.7816164E-02  0.1186339E+00
        -11   -1    0    0    0    0  0.00000000000E+00  0.00000000000E+00  0.45593999997E+02  0.45594000000E+02  0.51100000000E-03 0.  1.
         11   -1    0    0    0    0 -0.00000000000E+00 -0.00000000000E+00 -0.45593999997E+02  0.45594000000E+02  0.51100000000E-03 0. -1.
    9900012    2    1    2    0    0  0.10363348294E+01 -0.20498388993E+00  0.52630548411E+00  0.90007743360E+02  0.90000004772E+02 0.  0.
         12    1    1    2    0    0 -0.10363348294E+01  0.20498388993E+00 -0.52630548411E+00  0.11802566400E+01  0.00000000000E+00 0. -1.
         11    1    3    3    0    0  0.68659568343E+01 -0.46189116289E+01 -0.26293795642E+01  0.86827037862E+01  0.51100000000E-03 0. -1.
        -11    1    3    3    0    0  0.31492567321E+02  0.63545507202E-01 -0.19888160203E+02  0.37246808602E+02  0.51100000000E-03 0.  1.
         12    1    3    3    0    0 -0.37322189326E+02  0.43503822318E+01  0.23043845251E+02  0.44078230972E+02  0.00000000000E+00 0. -1.
</event>
<event>
 7    1  0.1501154E-015  0.9000805E+02  0.7816164E-02  0.1186338E+00
        -11   -1    0    0    0    0  0.00000000000E+00  0.00000000000E+00  0.45593999997E+02  0.45594000000E+02  0.51100000000E-03 0.  1.
         11   -1    0    0    0    0 -0.00000000000E+00 -0.00000000000E+00 -0.45593999997E+02  0.45594000000E+02  0.51100000000E-03 0. -1.
    9900012    2    1    2    0    0 -0.18331760888E+00  0.11167548415E+01 -0.33396710376E+00  0.90008050532E+02  0.90000315998E+02 0.  0.
         12    1    1    2    0    0  0.18331760888E+00 -0.11167548415E+01  0.33396710376E+00  0.11799494685E+01  0.00000000000E+00 0. -1.
         11    1    3    3    0    0  0.12966484258E+02  0.20973881089E+01 -0.52010378699E+01  0.14127262511E+02  0.51100000000E-03 0. -1.
        -11    1    3    3    0    0  0.18853475500E+02 -0.20551805411E+01  0.29782376622E+02  0.35308175583E+02  0.51100000000E-03 0.  1.
         12    1    3    3    0    0 -0.32003277366E+02  0.10745472737E+01 -0.24915305856E+02  0.40572612437E+02  0.00000000000E+00 0. -1.
</event>
<event>
 7    1  0.1501154E-015  0.9000769E+02  0.7816164E-02  0.1186339E+00
        -11   -1    0    0    0    0  0.00000000000E+00  0.00000000000E+00  0.45593999997E+02  0.45594000000E+02  0.51100000000E-03 0. -1.
         11   -1    0    0    0    0 -0.00000000000E+00 -0.00000000000E+00 -0.45593999997E+02  0.45594000000E+02  0.51100000000E-03 0.  1.
    9900012    2    1    2    0    0 -0.10783134423E+01 -0.46738309615E+00 -0.10924380027E+00  0.90007686039E+02  0.89999946695E+02 0.  0.
         12    1    1    2    0    0  0.10783134423E+01  0.46738309615E+00  0.10924380027E+00  0.11803139609E+01  0.00000000000E+00 0. -1.
         11    1    3    3    0    0  0.63232695128E+01  0.17523419315E+01  0.89666434737E+01  0.11111036631E+02  0.51100000000E-03 0. -1.
        -11    1    3    3    0    0  0.27314437759E+02  0.20246819770E+02  0.66708302385E+01  0.34648408293E+02  0.51100000000E-03 0.  1.
         12    1    3    3    0    0 -0.34716020714E+02 -0.22466544798E+02 -0.15746717512E+02  0.44248241115E+02  0.00000000000E+00 0. -1.
</event>
<event>
 7    1  0.1501154E-015  0.9000775E+02  0.7816164E-02  0.1186339E+00
        -11   -1    0    0    0    0  0.00000000000E+00  0.00000000000E+00  0.45593999997E+02  0.45594000000E+02  0.51100000000E-03 0. -1.
         11   -1    0    0    0    0 -0.00000000000E+00 -0.00000000000E+00 -0.45593999997E+02  0.45594000000E+02  0.51100000000E-03 0.  1.
    9900012    2    1    2    0    0 -0.79434685437E+00 -0.39636500455E+00 -0.77774833544E+00  0.90007752308E+02  0.90000013838E+02 0.  0.
         12    1    1    2    0    0  0.79434685437E+00  0.39636500455E+00  0.77774833544E+00  0.11802476923E+01  0.00000000000E+00 0. -1.
         11    1    3    3    0    0  0.46048468401E+01  0.35816462959E+00  0.10157915515E+02  0.11158680218E+02  0.51100000000E-03 0. -1.
        -11    1    3    3    0    0  0.29193019915E+02  0.22021732062E+02 -0.71423419723E+01  0.37258584835E+02  0.51100000000E-03 0.  1.
         12    1    3    3    0    0 -0.34592213610E+02 -0.22776261696E+02 -0.37933218783E+01  0.41590487255E+02  0.00000000000E+00 0. -1.
</event>
<event>
 7    1  0.1501154E-015  0.9000778E+02  0.7816164E-02  0.1186339E+00
        -11   -1    0    0    0    0  0.00000000000E+00  0.00000000000E+00  0.45593999997E+02  0.45594000000E+02  0.51100000000E-03 0.  1.
         11   -1    0    0    0    0 -0.00000000000E+00 -0.00000000000E+00 -0.45593999997E+02  0.45594000000E+02  0.51100000000E-03 0. -1.
    9900012    2    1    2    0    0  0.17579429200E+00 -0.11224100083E+01  0.31972346309E+00  0.90007775042E+02  0.90000036872E+02 0.  0.
         12    1    1    2    0    0 -0.17579429200E+00  0.11224100083E+01 -0.31972346309E+00  0.11802249585E+01  0.00000000000E+00 0. -1.
         11    1    3    3    0    0 -0.31133451857E+02 -0.59796401905E+01 -0.14447115688E+02  0.34839160055E+02  0.51100000000E-03 0. -1.
        -11    1    3    3    0    0 -0.92278564437E+01  0.73217927818E+01 -0.47854449311E+00  0.11789443972E+02  0.51100000000E-03 0.  1.
        -12    1    3    3    0    0  0.40537102593E+02 -0.24645625996E+01  0.15245383644E+02  0.43379171014E+02  0.00000000000E+00 0.  1.
</event>
<event>
 7    1  0.1501154E-015  0.9000773E+02  0.7816164E-02  0.1186339E+00
        -11   -1    0    0    0    0  0.00000000000E+00  0.00000000000E+00  0.45593999997E+02  0.45594000000E+02  0.51100000000E-03 0.  1.
         11   -1    0    0    0    0 -0.00000000000E+00 -0.00000000000E+00 -0.45593999997E+02  0.45594000000E+02  0.51100000000E-03 0. -1.
    9900012    2    1    2    0    0 -0.18721360212E+00  0.10542264680E+01  0.49658393825E+00  0.90007729698E+02  0.89999990930E+02 0.  0.
         12    1    1    2    0    0  0.18721360212E+00 -0.10542264680E+01 -0.49658393825E+00  0.11802703022E+01  0.00000000000E+00 0. -1.
         11    1    3    3    0    0  0.15232650522E+00  0.77452392450E+01 -0.29252003539E+01  0.82806238713E+01  0.51100000000E-03 0. -1.
        -11    1    3    3    0    0  0.34753615578E+02  0.68941645101E+01  0.19910806145E+02  0.40642139482E+02  0.51100000000E-03 0.  1.
         12    1    3    3    0    0 -0.35093155685E+02 -0.13585177287E+02 -0.16489021853E+02  0.41084966345E+02  0.00000000000E+00 0. -1.
</event>
<event>
 7    1  0.1501154E-015  0.9000766E+02  0.7816164E-02  0.1186339E+00
        -11   -1    0    0    0    0  0.00000000000E+00  0.00000000000E+00  0.45593999997E+02  0.45594000000E+02  0.51100000000E-03 0.  1.
         11   -1    0    0    0    0 -0.00000000000E+00 -0.00000000000E+00 -0.45593999997E+02  0.45594000000E+02  0.51100000000E-03 0. -1.
    9900012    2    1    2    0    0 -0.45178454834E+00 -0.64891300746E+00  0.87635411536E+00  0.90007663648E+02  0.89999924008E+02 0.  0.
         12    1    1    2    0    0  0.45178454834E+00  0.64891300746E+00 -0.87635411536E+00  0.11803363524E+01  0.00000000000E+00 0. -1.
         11    1    3    3    0    0 -0.25450405303E+02  0.30455942829E+02  0.13118362410E+02  0.41801662841E+02  0.51100000000E-03 0. -1.
        -11    1    3    3    0    0 -0.23248700142E+01 -0.55795428962E+01 -0.87734494360E+01  0.10654094742E+02  0.51100000000E-03 0.  1.
        -12    1    3    3    0    0  0.27323490769E+02 -0.25525312940E+02 -0.34685588591E+01  0.37551906064E+02  0.00000000000E+00 0.  1.
</event>
<event>
 7    1  0.1501154E-015  0.9000770E+02  0.7816164E-02  0.1186339E+00
        -11   -1    0    0    0    0  0.00000000000E+00  0.00000000000E+00  0.45593999997E+02  0.45594000000E+02  0.51100000000E-03 0.  1.
         11   -1    0    0    0    0 -0.00000000000E+00 -0.00000000000E+00 -0.45593999997E+02  0.45594000000E+02  0.51100000000E-03 0. -1.
    9900012    2    1    2    0    0  0.32549186560E+00 -0.82542700293E+00 -0.77834915214E+00  0.90007702540E+02  0.89999963413E+02 0.  0.
         12    1    1    2    0    0 -0.32549186560E+00  0.82542700293E+00  0.77834915214E+00  0.11802974601E+01  0.00000000000E+00 0. -1.
         11    1    3    3    0    0  0.24050810230E+01 -0.92796083271E+01  0.24462092343E+01  0.98934061532E+01  0.51100000000E-03 0. -1.
        -11    1    3    3    0    0 -0.34782798282E+02  0.25425384360E+02 -0.39244875877E+01  0.43263088531E+02  0.51100000000E-03 0.  1.
         12    1    3    3    0    0  0.32703209124E+02 -0.16971203036E+02  0.69992920134E+00  0.36851207855E+02  0.00000000000E+00 0. -1.
</event>
<event>
 7    1  0.1501154E-015  0.9000770E+02  0.7816164E-02  0.1186339E+00
        -11   -1    0    0    0    0  0.00000000000E+00  0.00000000000E+00  0.45593999997E+02  0.45594000000E+02  0.51100000000E-03 0. -1.
         11   -1    0    0    0    0 -0.00000000000E+00 -0.00000000000E+00 -0.45593999997E+02  0.45594000000E+02  0.51100000000E-03 0.  1.
    9900012    2    1    2    0    0 -0.39029153717E+00 -0.59275992903E+00 -0.94309005006E+00  0.90007698911E+02  0.89999959737E+02 0.  0.
         12    1    1    2    0    0  0.39029153717E+00  0.59275992903E+00  0.94309005006E+00  0.11803010887E+01  0.00000000000E+00 0. -1.
         11    1    3    3    0    0 -0.75810517853E+01  0.33323808629E+02  0.17279381601E+02  0.38295242478E+02  0.51100000000E-03 0. -1.
        -11    1    3    3    0    0  0.46741052343E+01  0.21024673810E+01  0.62581483340E+01  0.80890079528E+01  0.51100000000E-03 0.  1.
        -12    1    3    3    0    0  0.25166550139E+01 -0.36019035939E+02 -0.24480619985E+02  0.43623448480E+02  0.00000000000E+00 0.  1.
</event>
<event>
 7    1  0.1545128E-015  0.9000757E+02  0.7816164E-02  0.1186339E+00
        -11   -1    0    0    0    0  0.00000000000E+00  0.00000000000E+00  0.45593999997E+02  0.45594000000E+02  0.51100000000E-03 0. -1.
         11   -1    0    0    0    0 -0.00000000000E+00 -0.00000000000E+00 -0.45593999997E+02  0.45594000000E+02  0.51100000000E-03 0.  1.
    9900012    2    1    2    0    0  0.49699095506E+00 -0.44614115347E-02 -0.10707017232E+01  0.90007566989E+02  0.89999826073E+02 0.  0.
         12    1    1    2    0    0 -0.49699095506E+00  0.44614115347E-02  0.10707017232E+01  0.11804330111E+01  0.00000000000E+00 0. -1.
         11    1    3    3    0    0  0.26101423483E+02  0.21122358016E+02  0.16108168374E+02  0.37241259439E+02  0.51100000000E-03 0. -1.
        -11    1    3    3    0    0  0.94161911309E+01 -0.40086820982E+01 -0.16684010096E+00  0.10235332113E+02  0.51100000000E-03 0.  1.
        -12    1    3    3    0    0 -0.35020623659E+02 -0.17118137329E+02 -0.17012029996E+02  0.42530975437E+02  0.00000000000E+00 0.  1.
</event>
<event>
 7    1  0.1501154E-015  0.9000772E+02  0.7816164E-02  0.1186339E+00
        -11   -1    0    0    0    0  0.00000000000E+00  0.00000000000E+00  0.45593999997E+02  0.45594000000E+02  0.51100000000E-03 0. -1.
         11   -1    0    0    0    0 -0.00000000000E+00 -0.00000000000E+00 -0.45593999997E+02  0.45594000000E+02  0.51100000000E-03 0.  1.
    9900012    2    1    2    0    0 -0.44213069648E+00  0.39916538747E-01 -0.10936169069E+01  0.90007715788E+02  0.89999976836E+02 0.  0.
         12    1    1    2    0    0  0.44213069648E+00 -0.39916538747E-01  0.10936169069E+01  0.11802842124E+01  0.00000000000E+00 0. -1.
         11    1    3    3    0    0 -0.28994792487E+02  0.19405188942E+02  0.22391263491E+02  0.41456338842E+02  0.51100000000E-03 0. -1.
        -11    1    3    3    0    0 -0.40950854702E+01 -0.49219814448E+01 -0.61002872007E+01  0.88435926265E+01  0.51100000000E-03 0.  1.
        -12    1    3    3    0    0  0.32647747260E+02 -0.14443290959E+02 -0.17384593197E+02  0.39707784319E+02  0.00000000000E+00 0.  1.
</event>
<event>
 7    1  0.1501154E-015  0.9000773E+02  0.7816164E-02  0.1186339E+00
        -11   -1    0    0    0    0  0.00000000000E+00  0.00000000000E+00  0.45593999997E+02  0.45594000000E+02  0.51100000000E-03 0.  1.
         11   -1    0    0    0    0 -0.00000000000E+00 -0.00000000000E+00 -0.45593999997E+02  0.45594000000E+02  0.51100000000E-03 0. -1.
    9900012    2    1    2    0    0  0.21860698057E+00 -0.11584788604E+01 -0.56291757213E-01  0.90007732639E+02  0.89999993910E+02 0.  0.
         12    1    1    2    0    0 -0.21860698057E+00  0.11584788604E+01  0.56291757213E-01  0.11802673612E+01  0.00000000000E+00 0. -1.
         11    1    3    3    0    0  0.79747233473E+01 -0.12276220026E+01 -0.71976231589E+01  0.10812448735E+02  0.51100000000E-03 0. -1.
        -11    1    3    3    0    0 -0.37541078375E+02 -0.17263780711E+02 -0.70663188861E+01  0.41920204590E+02  0.51100000000E-03 0.  1.
         12    1    3    3    0    0  0.29784962009E+02  0.17332923853E+02  0.14207650288E+02  0.37275079314E+02  0.00000000000E+00 0. -1.
</event>
<event>
 7    1  0.1501154E-015  0.9000829E+02  0.7816164E-02  0.1186338E+00
        -11   -1    0    0    0    0  0.00000000000E+00  0.00000000000E+00  0.45593999997E+02  0.45594000000E+02  0.51100000000E-03 0. -1.
         11   -1    0    0    0    0 -0.00000000000E+00 -0.00000000000E+00 -0.45593999997E+02  0.45594000000E+02  0.51100000000E-03 0.  1.
    9900012    2    1    2    0    0 -0.11738614318E+00  0.97108872262E+00  0.65949176641E+00  0.90008287237E+02  0.90000555827E+02 0.  0.
         12    1    1    2    0    0  0.11738614318E+00 -0.97108872262E+00 -0.65949176641E+00  0.11797127633E+01  0.00000000000E+00 0. -1.
         11    1    3    3    0    0  0.23031541032E+02 -0.23601530341E+02  0.18554081951E+02  0.37838314895E+02  0.51100000000E-03 0. -1.
        -11    1    3    3    0    0 -0.82103981071E+00 -0.81005859037E+01  0.12008074893E+01  0.82301602197E+01  0.51100000000E-03 0.  1.
        -12    1    3    3    0    0 -0.22327887364E+02  0.32673204968E+02 -0.19095397674E+02  0.43939812122E+02  0.00000000000E+00 0.  1.
</event>
<event>
 7    1  0.1501154E-015  0.9000773E+02  0.7816164E-02  0.1186339E+00
        -11   -1    0    0    0    0  0.00000000000E+00  0.00000000000E+00  0.45593999997E+02  0.45594000000E+02  0.51100000000E-03 0.  1.
         11   -1    0    0    0    0 -0.00000000000E+00 -0.00000000000E+00 -0.45593999997E+02  0.45594000000E+02  0.51100000000E-03 0. -1.
    9900012    2    1    2    0    0  0.63190449113E+00  0.92775592975E+00  0.36469910465E+00  0.90007728935E+02  0.89999990156E+02 0.  0.
         12    1    1    2    0    0 -0.63190449113E+00 -0.92775592975E+00 -0.36469910465E+00  0.11802710655E+01  0.00000000000E+00 0. -1.
         11    1    3    3    0    0  0.42883146799E+01  0.10478177798E+01 -0.51666922349E+01  0.67957541012E+01  0.51100000000E-03 0. -1.
        -11    1    3    3    0    0  0.13472241666E+01  0.24872054566E+02  0.35818045232E+02  0.43627588471E+02  0.51100000000E-03 0.  1.
         12    1    3    3    0    0 -0.50036343554E+01 -0.24992116416E+02 -0.30286653892E+02  0.39584386363E+02  0.00000000000E+00 0. -1.
</event>
<event>
 7    1  0.1501154E-015  0.9000831E+02  0.7816164E-02  0.1186338E+00
        -11   -1    0    0    0    0  0.00000000000E+00  0.00000000000E+00  0.45593999997E+02  0.45594000000E+02  0.51100000000E-03 0. -1.
         11   -1    0    0    0    0 -0.00000000000E+00 -0.00000000000E+00 -0.45593999997E+02  0.45594000000E+02  0.51100000000E-03 0.  1.
    9900012    2    1    2    0    0  0.35997657222E+00  0.10934062508E+01 -0.25796109989E+00  0.90008311782E+02  0.90000580696E+02 0.  0.
         12    1    1    2    0    0 -0.35997657222E+00 -0.10934062508E+01  0.25796109989E+00  0.11796882177E+01  0.00000000000E+00 0. -1.
         11    1    3    3    0    0  0.73677968253E+01  0.10005278797E+02 -0.45062802797E+01  0.13217283991E+02  0.51100000000E-03 0. -1.
        -11    1    3    3    0    0 -0.40225125653E+02 -0.10604536338E+02 -0.59024621636E+01  0.42016139573E+02  0.51100000000E-03 0.  1.
         12    1    3    3    0    0  0.33217305400E+02  0.16926637917E+01  0.10150781343E+02  0.34774888219E+02  0.00000000000E+00 0. -1.
</event>
<event>
 7    1  0.1501154E-015  0.9000775E+02  0.7816164E-02  0.1186339E+00
        -11   -1    0    0    0    0  0.00000000000E+00  0.00000000000E+00  0.45593999997E+02  0.45594000000E+02  0.51100000000E-03 0. -1.
         11   -1    0    0    0    0 -0.00000000000E+00 -0.00000000000E+00 -0.45593999997E+02  0.45594000000E+02  0.51100000000E-03 0.  1.
    9900012    2    1    2    0    0 -0.98407043116E-01  0.74377895627E-01 -0.11737825117E+01  0.90007753669E+02  0.90000015217E+02 0.  0.
         12    1    1    2    0    0  0.98407043116E-01 -0.74377895627E-01  0.11737825117E+01  0.11802463311E+01  0.00000000000E+00 0. -1.
         11    1    3    3    0    0  0.36772243789E+01 -0.41006431471E+01 -0.72236760557E+01  0.90839831226E+01  0.51100000000E-03 0. -1.
        -11    1    3    3    0    0  0.20166431755E+02  0.17328724422E+02 -0.27101995877E+02  0.37966930882E+02  0.51100000000E-03 0.  1.
         12    1    3    3    0    0 -0.23942063177E+02 -0.13153703379E+02  0.33151889421E+02  0.42956839664E+02  0.00000000000E+00 0. -1.
</event>
<event>
 7    1  0.1501154E-015  0.9000776E+02  0.7816164E-02  0.1186339E+00
        -11   -1    0    0    0    0  0.00000000000E+00  0.00000000000E+00  0.45593999997E+02  0.45594000000E+02  0.51100000000E-03 0.  1.
         11   -1    0    0    0    0 -0.00000000000E+00 -0.00000000000E+00 -0.45593999997E+02  0.45594000000E+02  0.51100000000E-03 0. -1.
    9900012    2    1    2    0    0  0.23139216317E+00  0.38265345184E+00 -0.10922496526E+01  0.90007756254E+02  0.90000017836E+02 0.  0.
         12    1    1    2    0    0 -0.23139216317E+00 -0.38265345184E+00  0.10922496526E+01  0.11802437464E+01  0.00000000000E+00 0. -1.
         11    1    3    3    0    0  0.77010503997E+01  0.24960476654E+02 -0.27497010572E+02  0.37926470475E+02  0.51100000000E-03 0. -1.
        -11    1    3    3    0    0  0.55568782453E+01 -0.24844586148E+01 -0.74422556363E+01  0.96144994492E+01  0.51100000000E-03 0.  1.
        -12    1    3    3    0    0 -0.13026536482E+02 -0.22093364587E+02  0.33847016555E+02  0.42466786330E+02  0.00000000000E+00 0.  1.
</event>
<event>
 7    1  0.1501154E-015  0.9000788E+02  0.7816164E-02  0.1186339E+00
        -11   -1    0    0    0    0  0.00000000000E+00  0.00000000000E+00  0.45593999997E+02  0.45594000000E+02  0.51100000000E-03 0. -1.
         11   -1    0    0    0    0 -0.00000000000E+00 -0.00000000000E+00 -0.45593999997E+02  0.45594000000E+02  0.51100000000E-03 0.  1.
    9900012    2    1    2    0    0 -0.12352196578E+00 -0.11655172229E+01 -0.13786260999E+00  0.90007875357E+02  0.90000138512E+02 0.  0.
         12    1    1    2    0    0  0.12352196578E+00  0.11655172229E+01  0.13786260999E+00  0.11801246426E+01  0.00000000000E+00 0. -1.
         11    1    3    3    0    0  0.75063626870E+01  0.54036441910E+01  0.24615119949E+01  0.95709922628E+01  0.51100000000E-03 0. -1.
        -11    1    3    3    0    0  0.24681256809E+02 -0.42487023673E+01 -0.29236977158E+02  0.38496970570E+02  0.51100000000E-03 0.  1.
         12    1    3    3    0    0 -0.32311141462E+02 -0.23204590466E+01  0.26637602553E+02  0.41939912524E+02  0.00000000000E+00 0. -1.
</event>
<event>
 7    1  0.1501154E-015  0.9000776E+02  0.7816164E-02  0.1186339E+00
        -11   -1    0    0    0    0  0.00000000000E+00  0.00000000000E+00  0.45593999997E+02  0.45594000000E+02  0.51100000000E-03 0.  1.
         11   -1    0    0    0    0 -0.00000000000E+00 -0.00000000000E+00 -0.45593999997E+02  0.45594000000E+02  0.51100000000E-03 0. -1.
    9900012    2    1    2    0    0 -0.99682093187E+00  0.49532462674E+00  0.39237621060E+00  0.90007763775E+02  0.90000025457E+02 0.  0.
         12    1    1    2    0    0  0.99682093187E+00 -0.49532462674E+00 -0.39237621060E+00  0.11802362250E+01  0.00000000000E+00 0. -1.
         11    1    3    3    0    0  0.82359114627E+01 -0.26844158266E+01  0.67241213946E+01  0.10965862243E+02  0.51100000000E-03 0. -1.
        -11    1    3    3    0    0  0.27384962414E+02 -0.16329414961E+02  0.11482729188E+02  0.33888626842E+02  0.51100000000E-03 0.  1.
         12    1    3    3    0    0 -0.36617694808E+02  0.19509155414E+02 -0.17814474372E+02  0.45153274690E+02  0.00000000000E+00 0. -1.
</event>
<event>
 7    1  0.1501154E-015  0.9000738E+02  0.7816164E-02  0.1186340E+00
        -11   -1    0    0    0    0  0.00000000000E+00  0.00000000000E+00  0.45593999997E+02  0.45594000000E+02  0.51100000000E-03 0.  1.
         11   -1    0    0    0    0 -0.00000000000E+00 -0.00000000000E+00 -0.45593999997E+02  0.45594000000E+02  0.51100000000E-03 0. -1.
    9900012    2    1    2    0    0 -0.30359724391E+00 -0.97636260832E+00  0.59026417059E+00  0.90007378545E+02  0.89999635141E+02 0.  0.
         12    1    1    2    0    0  0.30359724391E+00  0.97636260832E+00 -0.59026417059E+00  0.11806214552E+01  0.00000000000E+00 0. -1.
         11    1    3    3    0    0 -0.14388423484E+01  0.98946404932E+01  0.33844400890E+01  0.10555975216E+02  0.51100000000E-03 0. -1.
        -11    1    3    3    0    0 -0.37348176886E+02 -0.13951010534E+02 -0.74709213136E+01  0.40562688238E+02  0.51100000000E-03 0.  1.
         12    1    3    3    0    0  0.38483421990E+02  0.30800074320E+01  0.46767453952E+01  0.38888715090E+02  0.00000000000E+00 0. -1.
</event>
<event>
 7    1  0.1501154E-015  0.9000778E+02  0.7816164E-02  0.1186339E+00
        -11   -1    0    0    0    0  0.00000000000E+00  0.00000000000E+00  0.45593999997E+02  0.45594000000E+02  0.51100000000E-03 0.  1.
         11   -1    0    0    0    0 -0.00000000000E+00 -0.00000000000E+00 -0.45593999997E+02  0.45594000000E+02  0.51100000000E-03 0. -1.
    9900012    2    1    2    0    0  0.10752042853E+01  0.47603029037E+00  0.10119387284E+00  0.90007784218E+02  0.90000046169E+02 0.  0.
         12    1    1    2    0    0 -0.10752042853E+01 -0.47603029037E+00 -0.10119387284E+00  0.11802157822E+01  0.00000000000E+00 0. -1.
         11    1    3    3    0    0  0.14713123552E+01 -0.72934125072E+01  0.81816323359E+01  0.11058830589E+02  0.51100000000E-03 0. -1.
        -11    1    3    3    0    0 -0.18175475680E+02  0.85961506929E+01  0.30459916565E+02  0.36497236064E+02  0.51100000000E-03 0.  1.
         12    1    3    3    0    0  0.17779367610E+02 -0.82670789527E+00 -0.38540355028E+02  0.42451717565E+02  0.00000000000E+00 0. -1.
</event>
<event>
 7    1  0.1501154E-015  0.9000775E+02  0.7816164E-02  0.1186339E+00
        -11   -1    0    0    0    0  0.00000000000E+00  0.00000000000E+00  0.45593999997E+02  0.45594000000E+02  0.51100000000E-03 0.  1.
         11   -1    0    0    0    0 -0.00000000000E+00 -0.00000000000E+00 -0.45593999997E+02  0.45594000000E+02  0.51100000000E-03 0. -1.
    9900012    2    1    2    0    0 -0.86015475510E+00  0.56001926141E+00  0.58267826698E+00  0.90007745054E+02  0.90000006488E+02 0.  0.
         12    1    1    2    0    0  0.86015475510E+00 -0.56001926141E+00 -0.58267826698E+00  0.11802549465E+01  0.00000000000E+00 0. -1.
         11    1    3    3    0    0 -0.41261003263E+01  0.33398379161E+02  0.17270776620E+02  0.37825337537E+02  0.51100000000E-03 0. -1.
        -11    1    3    3    0    0 -0.10467735493E+01  0.46310744602E+01  0.63933455565E+01  0.79635075932E+01  0.51100000000E-03 0.  1.
        -12    1    3    3    0    0  0.43127191205E+01 -0.37469434360E+02 -0.23081443910E+02  0.44218899923E+02  0.00000000000E+00 0.  1.
</event>
<event>
 7    1  0.1501154E-015  0.9000782E+02  0.7816164E-02  0.1186339E+00
        -11   -1    0    0    0    0  0.00000000000E+00  0.00000000000E+00  0.45593999997E+02  0.45594000000E+02  0.51100000000E-03 0.  1.
         11   -1    0    0    0    0 -0.00000000000E+00 -0.00000000000E+00 -0.45593999997E+02  0.45594000000E+02  0.51100000000E-03 0. -1.
    9900012    2    1    2    0    0 -0.67103808198E-01 -0.72886888620E+00  0.92577551158E+00  0.90007824982E+02  0.90000087472E+02 0.  0.
         12    1    1    2    0    0  0.67103808198E-01  0.72886888620E+00 -0.92577551158E+00  0.11801750176E+01  0.00000000000E+00 0. -1.
         11    1    3    3    0    0  0.18235460993E+02  0.33268605456E+02 -0.99062844190E+00  0.37951462311E+02  0.51100000000E-03 0. -1.
        -11    1    3    3    0    0  0.58371048971E+00  0.41911746500E+01 -0.73273723753E+01  0.84615039485E+01  0.51100000000E-03 0.  1.
        -12    1    3    3    0    0 -0.18886275290E+02 -0.38188648992E+02  0.92437763288E+01  0.43594858722E+02  0.00000000000E+00 0.  1.
</event>
<event>
 7    1  0.1501154E-015  0.9000777E+02  0.7816164E-02  0.1186339E+00
        -11   -1    0    0    0    0  0.00000000000E+00  0.00000000000E+00  0.45593999997E+02  0.45594000000E+02  0.51100000000E-03 0. -1.
         11   -1    0    0    0    0 -0.00000000000E+00 -0.00000000000E+00 -0.45593999997E+02  0.45594000000E+02  0.51100000000E-03 0.  1.
    9900012    2    1    2    0    0 -0.10860816505E+01  0.35826895842E+00 -0.29154973992E+00  0.90007774916E+02  0.90000036745E+02 0.  0.
         12    1    1    2    0    0  0.10860816505E+01 -0.35826895842E+00  0.29154973992E+00  0.11802250840E+01  0.00000000000E+00 0. -1.
         11    1    3    3    0    0 -0.11076795494E+02  0.22291565834E+01  0.22421550597E+02  0.25107577919E+02  0.51100000000E-03 0. -1.
        -11    1    3    3    0    0 -0.14675082045E+02 -0.16496796299E+02 -0.28085372450E+02  0.35725207726E+02  0.51100000000E-03 0.  1.
         12    1    3    3    0    0  0.24665795888E+02  0.14625908674E+02  0.53722721129E+01  0.29174989272E+02  0.00000000000E+00 0. -1.
</event>
<event>
 7    1  0.1501154E-015  0.9000773E+02  0.7816164E-02  0.1186339E+00
        -11   -1    0    0    0    0  0.00000000000E+00  0.00000000000E+00  0.45593999997E+02  0.45594000000E+02  0.51100000000E-03 0. -1.
         11   -1    0    0    0    0 -0.00000000000E+00 -0.00000000000E+00 -0.45593999997E+02  0.45594000000E+02  0.51100000000E-03 0.  1.
    9900012    2    1    2    0    0  0.37447019433E+00 -0.78423694798E+00 -0.79861810782E+00  0.90007726134E+02  0.89999987319E+02 0.  0.
         12    1    1    2    0    0 -0.37447019433E+00  0.78423694798E+00  0.79861810782E+00  0.11802738662E+01  0.00000000000E+00 0. -1.
         11    1    3    3    0    0  0.22269618598E+01 -0.10274403121E+02 -0.38956517150E+01  0.11211548562E+02  0.51100000000E-03 0. -1.
        -11    1    3    3    0    0  0.17920447058E+02 -0.24664541574E+02  0.19356008617E+02  0.36112838488E+02  0.51100000000E-03 0.  1.
         12    1    3    3    0    0 -0.19772938724E+02  0.34154707746E+02 -0.16258975010E+02  0.42683339084E+02  0.00000000000E+00 0. -1.
</event>
<event>
 7    1  0.1501154E-015  0.9000771E+02  0.7816164E-02  0.1186339E+00
        -11   -1    0    0    0    0  0.00000000000E+00  0.00000000000E+00  0.45593999997E+02  0.45594000000E+02  0.51100000000E-03 0.  1.
         11   -1    0    0    0    0 -0.00000000000E+00 -0.00000000000E+00 -0.45593999997E+02  0.45594000000E+02  0.51100000000E-03 0. -1.
    9900012    2    1    2    0    0 -0.22725374873E+00 -0.39106949329E+00  0.10901821677E+01  0.90007713266E+02  0.89999974281E+02 0.  0.
         12    1    1    2    0    0  0.22725374873E+00  0.39106949329E+00 -0.10901821677E+01  0.11802867337E+01  0.00000000000E+00 0. -1.
         11    1    3    3    0    0  0.77720098453E+00  0.89552838201E+01  0.20021209883E+01  0.92092148624E+01  0.51100000000E-03 0. -1.
        -11    1    3    3    0    0  0.13750765652E+02 -0.17356709877E+02  0.34850907181E+02  0.41290733408E+02  0.51100000000E-03 0.  1.
         12    1    3    3    0    0 -0.14755220385E+02  0.80103565631E+01 -0.35762846002E+02  0.39507764996E+02  0.00000000000E+00 0. -1.
</event>
<event>
 8    1  0.1501154E-015  0.9000783E+02  0.7816164E-02  0.1186339E+00
        -11   -1    0    0    0    0  0.00000000000E+00  0.00000000000E+00  0.45593999997E+02  0.45594000000E+02  0.51100000000E-03 0.  1.
         11   -1    0    0    0    0 -0.00000000000E+00 -0.00000000000E+00 -0.45593999997E+02  0.45594000000E+02  0.51100000000E-03 0. -1.
    9900012    2    1    2    0    0 -0.46573749845E+00  0.32255401035E+00  0.10353037843E+01  0.90007827795E+02  0.90000090322E+02 0.  0.
         23    2    3    3    0    0 -0.14942122282E+01 -0.89770173541E+01 -0.24819398567E+02  0.62512275037E+02  0.56647704934E+02 0.  0.
         12    1    1    2    0    0  0.46573749845E+00 -0.32255401035E+00 -0.10353037843E+01  0.11801722047E+01  0.00000000000E+00 0. -1.
         11    1    4    4    0    0  0.77852816927E+01 -0.30370137819E+02 -0.23452572539E+02  0.39153276251E+02  0.51100000000E-03 0. -1.
        -11    1    4    4    0    0 -0.92794939210E+01  0.21393120465E+02 -0.13668260273E+01  0.23358998786E+02  0.51100000000E-03 0.  1.
        -12    1    3    3    0    0  0.10284747298E+01  0.92995713644E+01  0.25854702351E+02  0.27495552758E+02  0.00000000000E+00 0.  1.
</event>
<event>
 7    1  0.1501154E-015  0.9000767E+02  0.7816164E-02  0.1186339E+00
        -11   -1    0    0    0    0  0.00000000000E+00  0.00000000000E+00  0.45593999997E+02  0.45594000000E+02  0.51100000000E-03 0. -1.
         11   -1    0    0    0    0 -0.00000000000E+00 -0.00000000000E+00 -0.45593999997E+02  0.45594000000E+02  0.51100000000E-03 0.  1.
    9900012    2    1    2    0    0 -0.11532456183E+01 -0.67480460789E-01  0.24218466181E+00  0.90007668488E+02  0.89999928912E+02 0.  0.
         12    1    1    2    0    0  0.11532456183E+01  0.67480460789E-01 -0.24218466181E+00  0.11803315124E+01  0.00000000000E+00 0. -1.
         11    1    3    3    0    0 -0.86449454627E+01 -0.35169933391E+01 -0.21494279444E+01  0.95772837981E+01  0.51100000000E-03 0. -1.
        -11    1    3    3    0    0  0.27655680504E+02 -0.30116085653E+02  0.49713248812E+01  0.41188946946E+02  0.51100000000E-03 0.  1.
         12    1    3    3    0    0 -0.20163980659E+02  0.33565598531E+02 -0.25797122750E+01  0.39241437744E+02  0.00000000000E+00 0. -1.
</event>
<event>
 7    1  0.1501154E-015  0.9000775E+02  0.7816164E-02  0.1186339E+00
        -11   -1    0    0    0    0  0.00000000000E+00  0.00000000000E+00  0.45593999997E+02  0.45594000000E+02  0.51100000000E-03 0.  1.
         11   -1    0    0    0    0 -0.00000000000E+00 -0.00000000000E+00 -0.45593999997E+02  0.45594000000E+02  0.51100000000E-03 0. -1.
    9900012    2    1    2    0    0 -0.11211440033E+01  0.23894628032E+00  0.28093805745E+00  0.90007751978E+02  0.90000013504E+02 0.  0.
         12    1    1    2    0    0  0.11211440033E+01 -0.23894628032E+00 -0.28093805745E+00  0.11802480219E+01  0.00000000000E+00 0. -1.
         11    1    3    3    0    0  0.11240439319E+02 -0.89393300927E+01 -0.31382503619E+02  0.34512615552E+02  0.51100000000E-03 0. -1.
        -11    1    3    3    0    0 -0.57780405296E+00 -0.23221227781E+01 -0.10217354245E+02  0.10493828651E+02  0.51100000000E-03 0.  1.
        -12    1    3    3    0    0 -0.11783779270E+02  0.11500399151E+02  0.41880795921E+02  0.45001307775E+02  0.00000000000E+00 0.  1.
</event>
<event>
 7    1  0.1501154E-015  0.9000727E+02  0.7816164E-02  0.1186340E+00
        -11   -1    0    0    0    0  0.00000000000E+00  0.00000000000E+00  0.45593999997E+02  0.45594000000E+02  0.51100000000E-03 0. -1.
         11   -1    0    0    0    0 -0.00000000000E+00 -0.00000000000E+00 -0.45593999997E+02  0.45594000000E+02  0.51100000000E-03 0.  1.
    9900012    2    1    2    0    0 -0.70711240773E+00 -0.23842442027E+00 -0.91502378513E+00  0.90007270273E+02  0.89999525439E+02 0.  0.
         12    1    1    2    0    0  0.70711240773E+00  0.23842442027E+00  0.91502378513E+00  0.11807297272E+01  0.00000000000E+00 0. -1.
         11    1    3    3    0    0  0.12833443896E+01 -0.10139356252E+02  0.34176561759E+01  0.10776543603E+02  0.51100000000E-03 0. -1.
        -11    1    3    3    0    0 -0.28759324767E+02  0.87928057288E+01 -0.29748802604E+02  0.42301340999E+02  0.51100000000E-03 0.  1.
         12    1    3    3    0    0  0.26768867970E+02  0.11081261031E+01  0.25416122643E+02  0.36929385671E+02  0.00000000000E+00 0. -1.
</event>
<event>
 7    1  0.1501154E-015  0.9000781E+02  0.7816164E-02  0.1186339E+00
        -11   -1    0    0    0    0  0.00000000000E+00  0.00000000000E+00  0.45593999997E+02  0.45594000000E+02  0.51100000000E-03 0.  1.
         11   -1    0    0    0    0 -0.00000000000E+00 -0.00000000000E+00 -0.45593999997E+02  0.45594000000E+02  0.51100000000E-03 0. -1.
    9900012    2    1    2    0    0  0.10928072665E+01 -0.14700289484E+00  0.42073939613E+00  0.90007805435E+02  0.90000067666E+02 0.  0.
         12    1    1    2    0    0 -0.10928072665E+01  0.14700289484E+00 -0.42073939613E+00  0.11801945654E+01  0.00000000000E+00 0. -1.
         11    1    3    3    0    0 -0.29852899793E+02 -0.61974433988E+01 -0.12040030052E+02  0.32780577399E+02  0.51100000000E-03 0. -1.
        -11    1    3    3    0    0  0.42511038512E+01 -0.10745091563E+02 -0.12487671321E+02  0.17013841774E+02  0.51100000000E-03 0.  1.
        -12    1    3    3    0    0  0.26694603208E+02  0.16795532067E+02  0.24948440769E+02  0.40213386261E+02  0.00000000000E+00 0.  1.
</event>
<event>
 7    1  0.1501154E-015  0.9000771E+02  0.7816164E-02  0.1186339E+00
        -11   -1    0    0    0    0  0.00000000000E+00  0.00000000000E+00  0.45593999997E+02  0.45594000000E+02  0.51100000000E-03 0.  1.
         11   -1    0    0    0    0 -0.00000000000E+00 -0.00000000000E+00 -0.45593999997E+02  0.45594000000E+02  0.51100000000E-03 0. -1.
    9900012    2    1    2    0    0  0.10531978189E+01  0.42069923357E+00  0.32692671300E+00  0.90007705729E+02  0.89999966644E+02 0.  0.
         12    1    1    2    0    0 -0.10531978189E+01 -0.42069923357E+00 -0.32692671300E+00  0.11802942712E+01  0.00000000000E+00 0. -1.
         11    1    3    3    0    0  0.21129020998E+02 -0.16248206290E+02 -0.28058194581E+02  0.38700155289E+02  0.51100000000E-03 0. -1.
        -11    1    3    3    0    0  0.83753345151E+01 -0.74278359166E+00  0.16711958144E+01  0.85726805268E+01  0.51100000000E-03 0.  1.
        -12    1    3    3    0    0 -0.28451157694E+02  0.17411689115E+02  0.26713925479E+02  0.42734869913E+02  0.00000000000E+00 0.  1.
</event>
<event>
 7    1  0.1501154E-015  0.9000779E+02  0.7816164E-02  0.1186339E+00
        -11   -1    0    0    0    0  0.00000000000E+00  0.00000000000E+00  0.45593999997E+02  0.45594000000E+02  0.51100000000E-03 0. -1.
         11   -1    0    0    0    0 -0.00000000000E+00 -0.00000000000E+00 -0.45593999997E+02  0.45594000000E+02  0.51100000000E-03 0.  1.
    9900012    2    1    2    0    0 -0.10864738086E+01  0.24963084074E+00  0.38749654349E+00  0.90007790500E+02  0.90000052534E+02 0.  0.
         12    1    1    2    0    0  0.10864738086E+01 -0.24963084074E+00 -0.38749654349E+00  0.11802095003E+01  0.00000000000E+00 0. -1.
         11    1    3    3    0    0  0.32940648096E+01 -0.71446914629E+01 -0.59053244098E+01  0.98371914547E+01  0.51100000000E-03 0. -1.
        -11    1    3    3    0    0  0.24561334516E+02 -0.19667117483E+02 -0.15363798234E+02  0.35015724464E+02  0.51100000000E-03 0.  1.
         12    1    3    3    0    0 -0.28941873134E+02  0.27061439786E+02  0.21656619188E+02  0.45154874581E+02  0.00000000000E+00 0. -1.
</event>
<event>
 7    1  0.1501154E-015  0.9000784E+02  0.7816164E-02  0.1186339E+00
        -11   -1    0    0    0    0  0.00000000000E+00  0.00000000000E+00  0.45593999997E+02  0.45594000000E+02  0.51100000000E-03 0.  1.
         11   -1    0    0    0    0 -0.00000000000E+00 -0.00000000000E+00 -0.45593999997E+02  0.45594000000E+02  0.51100000000E-03 0. -1.
    9900012    2    1    2    0    0  0.11528560187E+01 -0.23488587664E+00 -0.92414924000E-01  0.90007835226E+02  0.90000097851E+02 0.  0.
         12    1    1    2    0    0 -0.11528560187E+01  0.23488587664E+00  0.92414924000E-01  0.11801647737E+01  0.00000000000E+00 0. -1.
         11    1    3    3    0    0  0.66106208218E+01  0.28747267335E+01  0.52678379145E+01  0.89282964779E+01  0.51100000000E-03 0. -1.
        -11    1    3    3    0    0 -0.18118500128E+02 -0.52912684938E+01  0.34431162719E+02  0.39265538779E+02  0.51100000000E-03 0.  1.
         12    1    3    3    0    0  0.12660735325E+02  0.21816558836E+01 -0.39791415558E+02  0.41813999969E+02  0.00000000000E+00 0. -1.
</event>
<event>
 7    1  0.1501154E-015  0.9000784E+02  0.7816164E-02  0.1186339E+00
        -11   -1    0    0    0    0  0.00000000000E+00  0.00000000000E+00  0.45593999997E+02  0.45594000000E+02  0.51100000000E-03 0. -1.
         11   -1    0    0    0    0 -0.00000000000E+00 -0.00000000000E+00 -0.45593999997E+02  0.45594000000E+02  0.51100000000E-03 0.  1.
    9900012    2    1    2    0    0 -0.11468188921E+01  0.13380640755E+00 -0.24428382149E+00  0.90007842251E+02  0.90000104969E+02 0.  0.
         12    1    1    2    0    0  0.11468188921E+01 -0.13380640755E+00  0.24428382149E+00  0.11801577486E+01  0.00000000000E+00 0. -1.
         11    1    3    3    0    0 -0.29122145543E+02 -0.18584671309E+02 -0.77220666799E+01  0.35399430543E+02  0.51100000000E-03 0. -1.
        -11    1    3    3    0    0 -0.66047101480E+01 -0.77224681856E+01 -0.11651289790E+01  0.10228207899E+02  0.51100000000E-03 0.  1.
        -12    1    3    3    0    0  0.34580036799E+02  0.26440945902E+02  0.86429118374E+01  0.44380203810E+02  0.00000000000E+00 0.  1.
</event>
<event>
 7    1  0.1501154E-015  0.9000792E+02  0.7816164E-02  0.1186339E+00
        -11   -1    0    0    0    0  0.00000000000E+00  0.00000000000E+00  0.45593999997E+02  0.45594000000E+02  0.51100000000E-03 0.  1.
         11   -1    0    0    0    0 -0.00000000000E+00 -0.00000000000E+00 -0.45593999997E+02  0.45594000000E+02  0.51100000000E-03 0. -1.
    9900012    2    1    2    0    0  0.10514460288E+01  0.41025385936E+00  0.34458036190E+00  0.90007922627E+02  0.90000186405E+02 0.  0.
         12    1    1    2    0    0 -0.10514460288E+01 -0.41025385936E+00 -0.34458036190E+00  0.11800773731E+01  0.00000000000E+00 0. -1.
         11    1    3    3    0    0  0.69423494204E+01  0.45856936047E+01  0.36818355425E+01  0.90983907662E+01  0.51100000000E-03 0. -1.
        -11    1    3    3    0    0  0.25226484522E+02  0.15174347326E+02  0.21663250173E+02  0.36550413765E+02  0.51100000000E-03 0.  1.
         12    1    3    3    0    0 -0.31117387914E+02 -0.19349787071E+02 -0.25000505353E+02  0.44359118095E+02  0.00000000000E+00 0. -1.
</event>
<event>
 7    1  0.1501154E-015  0.9000773E+02  0.7816164E-02  0.1186339E+00
        -11   -1    0    0    0    0  0.00000000000E+00  0.00000000000E+00  0.45593999997E+02  0.45594000000E+02  0.51100000000E-03 0.  1.
         11   -1    0    0    0    0 -0.00000000000E+00 -0.00000000000E+00 -0.45593999997E+02  0.45594000000E+02  0.51100000000E-03 0. -1.
    9900012    2    1    2    0    0  0.60221769716E-01 -0.11461090223E+01  0.27539527576E+00  0.90007730916E+02  0.89999992164E+02 0.  0.
         12    1    1    2    0    0 -0.60221769716E-01  0.11461090223E+01 -0.27539527576E+00  0.11802690840E+01  0.00000000000E+00 0. -1.
         11    1    3    3    0    0  0.43649753076E+01  0.71039099255E+01  0.91274447595E+01  0.12362394338E+02  0.51100000000E-03 0. -1.
        -11    1    3    3    0    0 -0.30802372973E+02  0.40609675740E+01  0.19704028231E+02  0.36790302625E+02  0.51100000000E-03 0.  1.
         12    1    3    3    0    0  0.26497619435E+02 -0.12310986522E+02 -0.28556077715E+02  0.40855033954E+02  0.00000000000E+00 0. -1.
</event>
<event>
 7    1  0.1501154E-015  0.9000778E+02  0.7816164E-02  0.1186339E+00
        -11   -1    0    0    0    0  0.00000000000E+00  0.00000000000E+00  0.45593999997E+02  0.45594000000E+02  0.51100000000E-03 0. -1.
         11   -1    0    0    0    0 -0.00000000000E+00 -0.00000000000E+00 -0.45593999997E+02  0.45594000000E+02  0.51100000000E-03 0.  1.
    9900012    2    1    2    0    0 -0.74379649537E+00 -0.91113176055E+00  0.97592658308E-01  0.90007780258E+02  0.90000042158E+02 0.  0.
         12    1    1    2    0    0  0.74379649537E+00  0.91113176055E+00 -0.97592658308E-01  0.11802197416E+01  0.00000000000E+00 0. -1.
         11    1    3    3    0    0 -0.11624866091E+02 -0.29852148437E+02  0.16152582657E+02  0.35877488829E+02  0.51100000000E-03 0. -1.
        -11    1    3    3    0    0  0.17289693910E+01 -0.46779952900E+01 -0.18540214413E+02  0.19199284514E+02  0.51100000000E-03 0.  1.
        -12    1    3    3    0    0  0.91521002048E+01  0.33619011966E+02  0.24852244146E+01  0.34931006916E+02  0.00000000000E+00 0.  1.
</event>
<event>
 7    1  0.1501154E-015  0.9000772E+02  0.7816164E-02  0.1186339E+00
        -11   -1    0    0    0    0  0.00000000000E+00  0.00000000000E+00  0.45593999997E+02  0.45594000000E+02  0.51100000000E-03 0. -1.
         11   -1    0    0    0    0 -0.00000000000E+00 -0.00000000000E+00 -0.45593999997E+02  0.45594000000E+02  0.51100000000E-03 0.  1.
    9900012    2    1    2    0    0  0.99659089954E+00 -0.42235536584E+00 -0.47062716298E+00  0.90007717236E+02  0.89999978304E+02 0.  0.
         12    1    1    2    0    0 -0.99659089954E+00  0.42235536584E+00  0.47062716298E+00  0.11802827638E+01  0.00000000000E+00 0. -1.
         11    1    3    3    0    0 -0.27609667870E+01 -0.87514015886E+01 -0.22680001451E+01  0.94527134879E+01  0.51100000000E-03 0. -1.
        -11    1    3    3    0    0  0.37314787913E+02  0.14930110664E+01 -0.17504630820E+02  0.41243600467E+02  0.51100000000E-03 0.  1.
         12    1    3    3    0    0 -0.33557230227E+02  0.68360351564E+01  0.19302003803E+02  0.39311403281E+02  0.00000000000E+00 0. -1.
</event>
<event>
 7    1  0.1501154E-015  0.9000775E+02  0.7816164E-02  0.1186339E+00
        -11   -1    0    0    0    0  0.00000000000E+00  0.00000000000E+00  0.45593999997E+02  0.45594000000E+02  0.51100000000E-03 0. -1.
         11   -1    0    0    0    0 -0.00000000000E+00 -0.00000000000E+00 -0.45593999997E+02  0.45594000000E+02  0.51100000000E-03 0.  1.
    9900012    2    1    2    0    0 -0.36439697905E+00 -0.11173205803E+01 -0.10864126657E+00  0.90007748602E+02  0.90000010084E+02 0.  0.
         12    1    1    2    0    0  0.36439697905E+00  0.11173205803E+01  0.10864126657E+00  0.11802513980E+01  0.00000000000E+00 0. -1.
         11    1    3    3    0    0  0.30654462488E+02 -0.30656210253E+01  0.25495508770E+02  0.39988936850E+02  0.51100000000E-03 0. -1.
        -11    1    3    3    0    0 -0.65703842271E+01  0.78365344693E+01  0.41715288177E+01  0.11044585747E+02  0.51100000000E-03 0.  1.
        -12    1    3    3    0    0 -0.24448475240E+02 -0.58882340243E+01 -0.29775678854E+02  0.38974226005E+02  0.00000000000E+00 0.  1.
</event>
<event>
 7    1  0.1501154E-015  0.9000770E+02  0.7816164E-02  0.1186339E+00
        -11   -1    0    0    0    0  0.00000000000E+00  0.00000000000E+00  0.45593999997E+02  0.45594000000E+02  0.51100000000E-03 0.  1.
         11   -1    0    0    0    0 -0.00000000000E+00 -0.00000000000E+00 -0.45593999997E+02  0.45594000000E+02  0.51100000000E-03 0. -1.
    9900012    2    1    2    0    0 -0.10946795305E+01 -0.40803603099E+00 -0.16818962720E+00  0.90007701551E+02  0.89999962412E+02 0.  0.
         12    1    1    2    0    0  0.10946795305E+01  0.40803603099E+00  0.16818962720E+00  0.11802984486E+01  0.00000000000E+00 0. -1.
         11    1    3    3    0    0 -0.76271615863E+01 -0.18845970973E+02 -0.28011951820E+02  0.34612333941E+02  0.51100000000E-03 0. -1.
        -11    1    3    3    0    0 -0.61400984888E+01 -0.24852315421E+01 -0.89973674711E+01  0.11172726030E+02  0.51100000000E-03 0.  1.
        -12    1    3    3    0    0  0.12672580545E+02  0.20923166485E+02  0.36841129664E+02  0.44222641580E+02  0.00000000000E+00 0.  1.
</event>
<event>
 7    1  0.1501154E-015  0.9000767E+02  0.7816164E-02  0.1186339E+00
        -11   -1    0    0    0    0  0.00000000000E+00  0.00000000000E+00  0.45593999997E+02  0.45594000000E+02  0.51100000000E-03 0. -1.
         11   -1    0    0    0    0 -0.00000000000E+00 -0.00000000000E+00 -0.45593999997E+02  0.45594000000E+02  0.51100000000E-03 0.  1.
    9900012    2    1    2    0    0  0.44416194462E+00 -0.10545875839E+01  0.28938233253E+00  0.90007670834E+02  0.89999931289E+02 0.  0.
         12    1    1    2    0    0 -0.44416194462E+00  0.10545875839E+01 -0.28938233253E+00  0.11803291658E+01  0.00000000000E+00 0. -1.
         11    1    3    3    0    0  0.29434876864E+02 -0.13339405828E+02  0.15201632433E+02  0.35713321783E+02  0.51100000000E-03 0. -1.
        -11    1    3    3    0    0  0.85896272218E+01  0.82307382164E+01 -0.11157362506E+02  0.16309919857E+02  0.51100000000E-03 0.  1.
        -12    1    3    3    0    0 -0.37580342141E+02  0.40540800280E+01 -0.37548875945E+01  0.37984429194E+02  0.00000000000E+00 0.  1.
</event>
<event>
 7    1  0.1501154E-015  0.9000774E+02  0.7816164E-02  0.1186339E+00
        -11   -1    0    0    0    0  0.00000000000E+00  0.00000000000E+00  0.45593999997E+02  0.45594000000E+02  0.51100000000E-03 0. -1.
         11   -1    0    0    0    0 -0.00000000000E+00 -0.00000000000E+00 -0.45593999997E+02  0.45594000000E+02  0.51100000000E-03 0.  1.
    9900012    2    1    2    0    0 -0.36457663388E+00 -0.99770855989E+00 -0.51445449356E+00  0.90007744977E+02  0.90000006411E+02 0.  0.
         12    1    1    2    0    0  0.36457663388E+00  0.99770855989E+00  0.51445449356E+00  0.11802550226E+01  0.00000000000E+00 0. -1.
         11    1    3    3    0    0 -0.29407788701E+01  0.53594293675E+01  0.47965987980E+01  0.77703940568E+01  0.51100000000E-03 0. -1.
        -11    1    3    3    0    0  0.34210449952E+02  0.15111876627E+02 -0.18590636965E+02  0.41765242537E+02  0.51100000000E-03 0.  1.
         12    1    3    3    0    0 -0.31634247716E+02 -0.21469014555E+02  0.13279583673E+02  0.40472108384E+02  0.00000000000E+00 0. -1.
</event>
<event>
 7    1  0.1501154E-015  0.9000765E+02  0.7816164E-02  0.1186339E+00
        -11   -1    0    0    0    0  0.00000000000E+00  0.00000000000E+00  0.45593999997E+02  0.45594000000E+02  0.51100000000E-03 0. -1.
         11   -1    0    0    0    0 -0.00000000000E+00 -0.00000000000E+00 -0.45593999997E+02  0.45594000000E+02  0.51100000000E-03 0.  1.
    9900012    2    1    2    0    0  0.59677994515E+00  0.72413000075E+00 -0.71603502723E+00  0.90007653982E+02  0.89999914215E+02 0.  0.
         12    1    1    2    0    0 -0.59677994515E+00 -0.72413000075E+00  0.71603502723E+00  0.11803460175E+01  0.00000000000E+00 0. -1.
         11    1    3    3    0    0 -0.30896208361E+00  0.89566316595E+01 -0.17197215234E+01  0.91254671460E+01  0.51100000000E-03 0. -1.
        -11    1    3    3    0    0  0.19852650934E+02  0.53817635322E+01 -0.33452371812E+02  0.39270247109E+02  0.51100000000E-03 0.  1.
         12    1    3    3    0    0 -0.18946908906E+02 -0.13614265191E+02  0.34456058308E+02  0.41611939728E+02  0.00000000000E+00 0. -1.
</event>
<event>
 7    1  0.1501154E-015  0.9000767E+02  0.7816164E-02  0.1186339E+00
        -11   -1    0    0    0    0  0.00000000000E+00  0.00000000000E+00  0.45593999997E+02  0.45594000000E+02  0.51100000000E-03 0.  1.
         11   -1    0    0    0    0 -0.00000000000E+00 -0.00000000000E+00 -0.45593999997E+02  0.45594000000E+02  0.51100000000E-03 0. -1.
    9900012    2    1    2    0    0  0.18638778753E+00 -0.10669074413E+01  0.46920827211E+00  0.90007666023E+02  0.89999926414E+02 0.  0.
         12    1    1    2    0    0 -0.18638778753E+00  0.10669074413E+01 -0.46920827211E+00  0.11803339774E+01  0.00000000000E+00 0. -1.
         11    1    3    3    0    0 -0.18294020404E+02  0.29802542813E+02  0.21332091148E+01  0.35034459066E+02  0.51100000000E-03 0. -1.
        -11    1    3    3    0    0 -0.82991994092E+01  0.40992177724E+01  0.48486634200E+01  0.10449393973E+02  0.51100000000E-03 0.  1.
        -12    1    3    3    0    0  0.26779607601E+02 -0.34968668026E+02 -0.65126642628E+01  0.44523812984E+02  0.00000000000E+00 0.  1.
</event>
<event>
 7    1  0.1501154E-015  0.9000774E+02  0.7816164E-02  0.1186339E+00
        -11   -1    0    0    0    0  0.00000000000E+00  0.00000000000E+00  0.45593999997E+02  0.45594000000E+02  0.51100000000E-03 0.  1.
         11   -1    0    0    0    0 -0.00000000000E+00 -0.00000000000E+00 -0.45593999997E+02  0.45594000000E+02  0.51100000000E-03 0. -1.
    9900012    2    1    2    0    0 -0.90062628121E-01  0.11709696887E+01  0.11714221670E+00  0.90007744270E+02  0.90000005695E+02 0.  0.
         12    1    1    2    0    0  0.90062628121E-01 -0.11709696887E+01 -0.11714221670E+00  0.11802557298E+01  0.00000000000E+00 0. -1.
         11    1    3    3    0    0 -0.43367687728E+01 -0.15979820517E+02  0.98526513348E+01  0.19267510626E+02  0.51100000000E-03 0. -1.
        -11    1    3    3    0    0  0.29369418746E+02 -0.10736349877E+02 -0.11097105448E+02  0.33180984250E+02  0.51100000000E-03 0.  1.
         12    1    3    3    0    0 -0.25122712602E+02  0.27887140083E+02  0.13615963300E+01  0.37559249394E+02  0.00000000000E+00 0. -1.
</event>
<event>
 7    1  0.1501154E-015  0.9000753E+02  0.7816164E-02  0.1186339E+00
        -11   -1    0    0    0    0  0.00000000000E+00  0.00000000000E+00  0.45593999997E+02  0.45594000000E+02  0.51100000000E-03 0. -1.
         11   -1    0    0    0    0 -0.00000000000E+00 -0.00000000000E+00 -0.45593999997E+02  0.45594000000E+02  0.51100000000E-03 0.  1.
    9900012    2    1    2    0    0  0.55870196887E+00 -0.91547050949E+00 -0.49321808998E+00  0.90007534741E+02  0.89999793399E+02 0.  0.
         12    1    1    2    0    0 -0.55870196887E+00  0.91547050949E+00  0.49321808998E+00  0.11804652591E+01  0.00000000000E+00 0. -1.
         11    1    3    3    0    0  0.32341140559E+02  0.57403539047E+01 -0.17719929393E+02  0.37321534448E+02  0.51100000000E-03 0. -1.
        -11    1    3    3    0    0  0.57366792000E+01  0.77121235680E+01  0.31311219273E+01  0.10108919970E+02  0.51100000000E-03 0.  1.
        -12    1    3    3    0    0 -0.37519117790E+02 -0.14367947982E+02  0.14095589376E+02  0.42577080323E+02  0.00000000000E+00 0.  1.
</event>
<event>
 7    1  0.1501154E-015  0.9000766E+02  0.7816164E-02  0.1186339E+00
        -11   -1    0    0    0    0  0.00000000000E+00  0.00000000000E+00  0.45593999997E+02  0.45594000000E+02  0.51100000000E-03 0.  1.
         11   -1    0    0    0    0 -0.00000000000E+00 -0.00000000000E+00 -0.45593999997E+02  0.45594000000E+02  0.51100000000E-03 0. -1.
    9900012    2    1    2    0    0 -0.69506080228E+00 -0.74081911417E+00  0.60107464542E+00  0.90007655471E+02  0.89999915723E+02 0.  0.
         12    1    1    2    0    0  0.69506080228E+00  0.74081911417E+00 -0.60107464542E+00  0.11803445294E+01  0.00000000000E+00 0. -1.
         11    1    3    3    0    0  0.52495346124E+01  0.20816647354E+01  0.78083191774E+01  0.96364303741E+01  0.51100000000E-03 0. -1.
        -11    1    3    3    0    0  0.33640033169E+02 -0.17265314725E+02 -0.53976002841E+01  0.38195248569E+02  0.51100000000E-03 0.  1.
         12    1    3    3    0    0 -0.39584628583E+02  0.14442830875E+02 -0.18096442479E+01  0.42175976528E+02  0.00000000000E+00 0. -1.
</event>
<event>
 7    1  0.1501154E-015  0.9000771E+02  0.7816164E-02  0.1186339E+00
        -11   -1    0    0    0    0  0.00000000000E+00  0.00000000000E+00  0.45593999997E+02  0.45594000000E+02  0.51100000000E-03 0. -1.
         11   -1    0    0    0    0 -0.00000000000E+00 -0.00000000000E+00 -0.45593999997E+02  0.45594000000E+02  0.51100000000E-03 0.  1.
    9900012    2    1    2    0    0  0.95179646247E+00 -0.67454115839E+00  0.17931159703E+00  0.90007714048E+02  0.89999975073E+02 0.  0.
         12    1    1    2    0    0 -0.95179646247E+00  0.67454115839E+00 -0.17931159703E+00  0.11802859523E+01  0.00000000000E+00 0. -1.
         11    1    3    3    0    0 -0.62677754066E+01  0.73837197542E+01 -0.77762530618E+00  0.97164307919E+01  0.51100000000E-03 0. -1.
        -11    1    3    3    0    0  0.26853129087E+02 -0.42523129367E+01 -0.31845815224E+02  0.41872767458E+02  0.51100000000E-03 0.  1.
         12    1    3    3    0    0 -0.19633557218E+02 -0.38059479759E+01  0.32802752127E+02  0.38418515798E+02  0.00000000000E+00 0. -1.
</event>
<event>
 7    1  0.1501154E-015  0.9000774E+02  0.7816164E-02  0.1186339E+00
        -11   -1    0    0    0    0  0.00000000000E+00  0.00000000000E+00  0.45593999997E+02  0.45594000000E+02  0.51100000000E-03 0. -1.
         11   -1    0    0    0    0 -0.00000000000E+00 -0.00000000000E+00 -0.45593999997E+02  0.45594000000E+02  0.51100000000E-03 0.  1.
    9900012    2    1    2    0    0  0.61193510505E+00 -0.53338198620E+00 -0.85677488436E+00  0.90007735573E+02  0.89999996882E+02 0.  0.
         12    1    1    2    0    0 -0.61193510505E+00  0.53338198620E+00  0.85677488436E+00  0.11802644273E+01  0.00000000000E+00 0. -1.
         11    1    3    3    0    0  0.71632894361E+01  0.50737228165E+01 -0.62791526656E+00  0.88005486538E+01  0.51100000000E-03 0. -1.
        -11    1    3    3    0    0 -0.11585818444E+02  0.29192096402E+02 -0.23340265541E+02  0.39130265488E+02  0.51100000000E-03 0.  1.
         12    1    3    3    0    0  0.50344641132E+01 -0.34799201204E+02  0.23111405923E+02  0.42076921431E+02  0.00000000000E+00 0. -1.
</event>
<event>
 7    1  0.1501154E-015  0.9000774E+02  0.7816164E-02  0.1186339E+00
        -11   -1    0    0    0    0  0.00000000000E+00  0.00000000000E+00  0.45593999997E+02  0.45594000000E+02  0.51100000000E-03 0.  1.
         11   -1    0    0    0    0 -0.00000000000E+00 -0.00000000000E+00 -0.45593999997E+02  0.45594000000E+02  0.51100000000E-03 0. -1.
    9900012    2    1    2    0    0 -0.12085339212E-01  0.93243711857E+00 -0.72347625200E+00  0.90007744552E+02  0.90000005980E+02 0.  0.
         12    1    1    2    0    0  0.12085339212E-01 -0.93243711857E+00  0.72347625200E+00  0.11802554481E+01  0.00000000000E+00 0. -1.
         11    1    3    3    0    0  0.42661545186E+01  0.80150600641E+01 -0.20343327830E+01  0.93048252182E+01  0.51100000000E-03 0. -1.
        -11    1    3    3    0    0  0.44838999186E+01  0.32823234390E+02  0.16631272971E+02  0.37068440959E+02  0.51100000000E-03 0.  1.
         12    1    3    3    0    0 -0.87621397764E+01 -0.39905857335E+02 -0.15320416440E+02  0.43634478374E+02  0.00000000000E+00 0. -1.
</event>
<event>
 7    1  0.1501154E-015  0.9000781E+02  0.7816164E-02  0.1186339E+00
        -11   -1    0    0    0    0  0.00000000000E+00  0.00000000000E+00  0.45593999997E+02  0.45594000000E+02  0.51100000000E-03 0. -1.
         11   -1    0    0    0    0 -0.00000000000E+00 -0.00000000000E+00 -0.45593999997E+02  0.45594000000E+02  0.51100000000E-03 0.  1.
    9900012    2    1    2    0    0 -0.46758374972E+00 -0.70767367810E+00 -0.82061905998E+00  0.90007808389E+02  0.90000070659E+02 0.  0.
         12    1    1    2    0    0  0.46758374972E+00  0.70767367810E+00  0.82061905998E+00  0.11801916112E+01  0.00000000000E+00 0. -1.
         11    1    3    3    0    0 -0.16957913500E+02 -0.11505724003E+02  0.36443570851E+02  0.41810122838E+02  0.51100000000E-03 0. -1.
        -11    1    3    3    0    0 -0.42760374191E+01  0.52204393804E+01 -0.22596403821E+01  0.71164217309E+01  0.51100000000E-03 0.  1.
        -12    1    3    3    0    0  0.20766367170E+02  0.55776109448E+01 -0.35004549529E+02  0.41081263819E+02  0.00000000000E+00 0.  1.
</event>
<event>
 7    1  0.1501154E-015  0.9000776E+02  0.7816164E-02  0.1186339E+00
        -11   -1    0    0    0    0  0.00000000000E+00  0.00000000000E+00  0.45593999997E+02  0.45594000000E+02  0.51100000000E-03 0. -1.
         11   -1    0    0    0    0 -0.00000000000E+00 -0.00000000000E+00 -0.45593999997E+02  0.45594000000E+02  0.51100000000E-03 0.  1.
    9900012    2    1    2    0    0 -0.97962969638E+00 -0.20414124817E+00 -0.62579489181E+00  0.90007759669E+02  0.90000021297E+02 0.  0.
         12    1    1    2    0    0  0.97962969638E+00  0.20414124817E+00  0.62579489181E+00  0.11802403305E+01  0.00000000000E+00 0. -1.
         11    1    3    3    0    0  0.23927297424E+02  0.29644876479E+02  0.10431905523E+02  0.39498847028E+02  0.51100000000E-03 0. -1.
        -11    1    3    3    0    0  0.48232746938E+01 -0.10280214365E+01 -0.74643342931E+01  0.89463452620E+01  0.51100000000E-03 0.  1.
        -12    1    3    3    0    0 -0.29730201814E+02 -0.28820996291E+02 -0.35933661217E+01  0.41562567379E+02  0.00000000000E+00 0.  1.
</event>
<event>
 7    1  0.1501154E-015  0.9000742E+02  0.7816164E-02  0.1186340E+00
        -11   -1    0    0    0    0  0.00000000000E+00  0.00000000000E+00  0.45593999997E+02  0.45594000000E+02  0.51100000000E-03 0.  1.
         11   -1    0    0    0    0 -0.00000000000E+00 -0.00000000000E+00 -0.45593999997E+02  0.45594000000E+02  0.51100000000E-03 0. -1.
    9900012    2    1    2    0    0 -0.80949571704E+00  0.27055807388E+00  0.81565081265E+00  0.90007419111E+02  0.89999676243E+02 0.  0.
         12    1    1    2    0    0  0.80949571704E+00 -0.27055807388E+00 -0.81565081265E+00  0.11805808890E+01  0.00000000000E+00 0. -1.
         11    1    3    3    0    0  0.14730344900E+02  0.33781928273E+02  0.55502468828E+01  0.37269383942E+02  0.51100000000E-03 0. -1.
        -11    1    3    3    0    0  0.53749402493E+01  0.26466089880E+01  0.71315524727E+01  0.93141592616E+01  0.51100000000E-03 0.  1.
        -12    1    3    3    0    0 -0.20914780866E+02 -0.36157979187E+02 -0.11866148543E+02  0.43423875907E+02  0.00000000000E+00 0.  1.
</event>
<event>
 7    1  0.1501154E-015  0.9000779E+02  0.7816164E-02  0.1186339E+00
        -11   -1    0    0    0    0  0.00000000000E+00  0.00000000000E+00  0.45593999997E+02  0.45594000000E+02  0.51100000000E-03 0.  1.
         11   -1    0    0    0    0 -0.00000000000E+00 -0.00000000000E+00 -0.45593999997E+02  0.45594000000E+02  0.51100000000E-03 0. -1.
    9900012    2    1    2    0    0 -0.44164277220E+00  0.10129068167E+01  0.41458056787E+00  0.90007785780E+02  0.90000047752E+02 0.  0.
         12    1    1    2    0    0  0.44164277220E+00 -0.10129068167E+01 -0.41458056787E+00  0.11802142199E+01  0.00000000000E+00 0. -1.
         11    1    3    3    0    0 -0.26731878553E+02 -0.28113183495E+01 -0.22557785438E+02  0.35090604525E+02  0.51100000000E-03 0. -1.
        -11    1    3    3    0    0  0.49395393301E+01 -0.43610513266E+01 -0.11674146416E+02  0.13405353866E+02  0.51100000000E-03 0.  1.
        -12    1    3    3    0    0  0.21350696450E+02  0.81852764928E+01  0.34646512422E+02  0.41511827389E+02  0.00000000000E+00 0.  1.
</event>
<event>
 7    1  0.1501154E-015  0.9000761E+02  0.7816164E-02  0.1186339E+00
        -11   -1    0    0    0    0  0.00000000000E+00  0.00000000000E+00  0.45593999997E+02  0.45594000000E+02  0.51100000000E-03 0.  1.
         11   -1    0    0    0    0 -0.00000000000E+00 -0.00000000000E+00 -0.45593999997E+02  0.45594000000E+02  0.51100000000E-03 0. -1.
    9900012    2    1    2    0    0 -0.11620712130E+01 -0.18135288876E+00  0.10013786915E+00  0.90007607706E+02  0.89999867328E+02 0.  0.
         12    1    1    2    0    0  0.11620712130E+01  0.18135288876E+00 -0.10013786915E+00  0.11803922938E+01  0.00000000000E+00 0. -1.
         11    1    3    3    0    0  0.53531008775E+01  0.57526422458E+01  0.16935883444E-01  0.78580448521E+01  0.51100000000E-03 0. -1.
        -11    1    3    3    0    0  0.21104278180E+02 -0.35312096481E+01  0.32864684313E+02  0.39216673423E+02  0.51100000000E-03 0.  1.
         12    1    3    3    0    0 -0.27619450271E+02 -0.24027854864E+01 -0.32781482327E+02  0.42932889431E+02  0.00000000000E+00 0. -1.
</event>
<event>
 7    1  0.1501154E-015  0.9000776E+02  0.7816164E-02  0.1186339E+00
        -11   -1    0    0    0    0  0.00000000000E+00  0.00000000000E+00  0.45593999997E+02  0.45594000000E+02  0.51100000000E-03 0.  1.
         11   -1    0    0    0    0 -0.00000000000E+00 -0.00000000000E+00 -0.45593999997E+02  0.45594000000E+02  0.51100000000E-03 0. -1.
    9900012    2    1    2    0    0  0.71365563163E+00  0.66914056833E+00  0.66022924379E+00  0.90007764382E+02  0.90000026071E+02 0.  0.
         12    1    1    2    0    0 -0.71365563163E+00 -0.66914056833E+00 -0.66022924379E+00  0.11802356185E+01  0.00000000000E+00 0. -1.
         11    1    3    3    0    0 -0.49248583807E+01 -0.68546170411E+01  0.19689182064E+01  0.86669858667E+01  0.51100000000E-03 0. -1.
        -11    1    3    3    0    0  0.29620531459E+02 -0.20606794601E+01  0.29011307645E+02  0.41512386769E+02  0.51100000000E-03 0.  1.
         12    1    3    3    0    0 -0.23982017447E+02  0.95844370695E+01 -0.30319996608E+02  0.39828391746E+02  0.00000000000E+00 0. -1.
</event>
<event>
 7    1  0.1501154E-015  0.9000774E+02  0.7816164E-02  0.1186339E+00
        -11   -1    0    0    0    0  0.00000000000E+00  0.00000000000E+00  0.45593999997E+02  0.45594000000E+02  0.51100000000E-03 0.  1.
         11   -1    0    0    0    0 -0.00000000000E+00 -0.00000000000E+00 -0.45593999997E+02  0.45594000000E+02  0.51100000000E-03 0. -1.
    9900012    2    1    2    0    0  0.23628514270E+00 -0.42451120082E+00  0.10756279662E+01  0.90007739033E+02  0.90000000388E+02 0.  0.
         12    1    1    2    0    0 -0.23628514270E+00  0.42451120082E+00 -0.10756279662E+01  0.11802609669E+01  0.00000000000E+00 0. -1.
         11    1    3    3    0    0 -0.90542583628E+01 -0.11859969784E+02  0.24141745560E-01  0.14921094492E+02  0.51100000000E-03 0. -1.
        -11    1    3    3    0    0  0.22171651292E+02  0.14764693599E+02  0.31859649508E+02  0.41528491005E+02  0.51100000000E-03 0.  1.
         12    1    3    3    0    0 -0.12881107786E+02 -0.33292350159E+01 -0.30808163288E+02  0.33558153536E+02  0.00000000000E+00 0. -1.
</event>
<event>
 7    1  0.1501154E-015  0.9000772E+02  0.7816164E-02  0.1186339E+00
        -11   -1    0    0    0    0  0.00000000000E+00  0.00000000000E+00  0.45593999997E+02  0.45594000000E+02  0.51100000000E-03 0.  1.
         11   -1    0    0    0    0 -0.00000000000E+00 -0.00000000000E+00 -0.45593999997E+02  0.45594000000E+02  0.51100000000E-03 0. -1.
    9900012    2    1    2    0    0  0.62048507257E+00 -0.41405031300E+00  0.91467039412E+00  0.90007719814E+02  0.89999980916E+02 0.  0.
         12    1    1    2    0    0 -0.62048507257E+00  0.41405031300E+00 -0.91467039412E+00  0.11802801857E+01  0.00000000000E+00 0. -1.
         11    1    3    3    0    0 -0.77424424857E+01 -0.42438065934E+01 -0.44821002078E+01  0.99017439162E+01  0.51100000000E-03 0. -1.
        -11    1    3    3    0    0 -0.16935508890E+02  0.74359926086E+01  0.35856882509E+02  0.40346269604E+02  0.51100000000E-03 0.  1.
         12    1    3    3    0    0  0.25298436448E+02 -0.36062363282E+01 -0.30460111907E+02  0.39759706294E+02  0.00000000000E+00 0. -1.
</event>
<event>
 7    1  0.1501154E-015  0.9000768E+02  0.7816164E-02  0.1186339E+00
        -11   -1    0    0    0    0  0.00000000000E+00  0.00000000000E+00  0.45593999997E+02  0.45594000000E+02  0.51100000000E-03 0. -1.
         11   -1    0    0    0    0 -0.00000000000E+00 -0.00000000000E+00 -0.45593999997E+02  0.45594000000E+02  0.51100000000E-03 0.  1.
    9900012    2    1    2    0    0 -0.52138185702E+00  0.98867227203E+00 -0.37927584383E+00  0.90007677134E+02  0.89999937672E+02 0.  0.
         12    1    1    2    0    0  0.52138185702E+00 -0.98867227203E+00  0.37927584383E+00  0.11803228660E+01  0.00000000000E+00 0. -1.
         11    1    3    3    0    0 -0.37484453948E+01 -0.31646074328E+02 -0.14031747205E+02  0.34819747172E+02  0.51100000000E-03 0. -1.
        -11    1    3    3    0    0 -0.42022284663E+00 -0.58673173763E+01 -0.87125270777E+01  0.10512379786E+02  0.51100000000E-03 0.  1.
        -12    1    3    3    0    0  0.36472863844E+01  0.38502063976E+02  0.22364998438E+02  0.44675550176E+02  0.00000000000E+00 0.  1.
</event>
<event>
 7    1  0.1501154E-015  0.9000771E+02  0.7816164E-02  0.1186339E+00
        -11   -1    0    0    0    0  0.00000000000E+00  0.00000000000E+00  0.45593999997E+02  0.45594000000E+02  0.51100000000E-03 0. -1.
         11   -1    0    0    0    0 -0.00000000000E+00 -0.00000000000E+00 -0.45593999997E+02  0.45594000000E+02  0.51100000000E-03 0.  1.
    9900012    2    1    2    0    0 -0.33102136374E+00 -0.10137067327E+01 -0.50586688770E+00  0.90007712835E+02  0.89999973845E+02 0.  0.
         12    1    1    2    0    0  0.33102136374E+00  0.10137067327E+01  0.50586688770E+00  0.11802871647E+01  0.00000000000E+00 0. -1.
         11    1    3    3    0    0  0.48401982449E+01  0.75541284508E+01 -0.33409714089E+01  0.95736338930E+01  0.51100000000E-03 0. -1.
        -11    1    3    3    0    0 -0.35596211889E+02  0.39256137503E+00 -0.20480406733E+02  0.41069349465E+02  0.51100000000E-03 0.  1.
         12    1    3    3    0    0  0.30424992281E+02 -0.89603965586E+01  0.23315511254E+02  0.39364729477E+02  0.00000000000E+00 0. -1.
</event>
<event>
 7    1  0.1501154E-015  0.9000763E+02  0.7816164E-02  0.1186339E+00
        -11   -1    0    0    0    0  0.00000000000E+00  0.00000000000E+00  0.45593999997E+02  0.45594000000E+02  0.51100000000E-03 0.  1.
         11   -1    0    0    0    0 -0.00000000000E+00 -0.00000000000E+00 -0.45593999997E+02  0.45594000000E+02  0.51100000000E-03 0. -1.
    9900012    2    1    2    0    0  0.40343138830E+00 -0.57825758633E+00  0.94664313077E+00  0.90007630592E+02  0.89999890516E+02 0.  0.
         12    1    1    2    0    0 -0.40343138830E+00  0.57825758633E+00 -0.94664313077E+00  0.11803694075E+01  0.00000000000E+00 0. -1.
         11    1    3    3    0    0  0.13216220419E+02 -0.35485391333E+00 -0.43254711156E+01  0.13910575261E+02  0.51100000000E-03 0. -1.
        -11    1    3    3    0    0  0.12330895865E+02  0.29254086702E+02 -0.11652156436E+02  0.33817529943E+02  0.51100000000E-03 0.  1.
        -12    1    3    3    0    0 -0.25143684896E+02 -0.29477490375E+02  0.16924270682E+02  0.42279525388E+02  0.00000000000E+00 0.  1.
</event>
<event>
 7    1  0.1501154E-015  0.9000776E+02  0.7816164E-02  0.1186339E+00
        -11   -1    0    0    0    0  0.00000000000E+00  0.00000000000E+00  0.45593999997E+02  0.45594000000E+02  0.51100000000E-03 0.  1.
         11   -1    0    0    0    0 -0.00000000000E+00 -0.00000000000E+00 -0.45593999997E+02  0.45594000000E+02  0.51100000000E-03 0. -1.
    9900012    2    1    2    0    0 -0.27300797486E+00  0.68626651860E+00 -0.92058014958E+00  0.90007761507E+02  0.90000023159E+02 0.  0.
         12    1    1    2    0    0  0.27300797486E+00 -0.68626651860E+00  0.92058014958E+00  0.11802384931E+01  0.00000000000E+00 0. -1.
         11    1    3    3    0    0  0.17213667439E+01  0.87491693051E+01 -0.13092396882E-02  0.89168979456E+01  0.51100000000E-03 0. -1.
        -11    1    3    3    0    0  0.17225252801E+02  0.65567942117E+00  0.35236116229E+02  0.39226561622E+02  0.51100000000E-03 0.  1.
         12    1    3    3    0    0 -0.19219627520E+02 -0.87185822077E+01 -0.36155387139E+02  0.41864301939E+02  0.00000000000E+00 0. -1.
</event>
<event>
 7    1  0.1629552E-015  0.9000778E+02  0.7816164E-02  0.1186339E+00
        -11   -1    0    0    0    0  0.00000000000E+00  0.00000000000E+00  0.45593999997E+02  0.45594000000E+02  0.51100000000E-03 0. -1.
         11   -1    0    0    0    0 -0.00000000000E+00 -0.00000000000E+00 -0.45593999997E+02  0.45594000000E+02  0.51100000000E-03 0.  1.
    9900012    2    1    2    0    0 -0.10593119675E+01 -0.42583606651E+00  0.29904950771E+00  0.90007784423E+02  0.90000046377E+02 0.  0.
         12    1    1    2    0    0  0.10593119675E+01  0.42583606651E+00 -0.29904950771E+00  0.11802155769E+01  0.00000000000E+00 0. -1.
         11    1    3    3    0    0 -0.26267598142E+02 -0.22069996381E+02  0.24470480217E+02  0.42141142067E+02  0.51100000000E-03 0. -1.
        -11    1    3    3    0    0  0.88708832580E+01 -0.30744851186E+01  0.36612534366E+00  0.93956945752E+01  0.51100000000E-03 0.  1.
        -12    1    3    3    0    0  0.16337402916E+02  0.24718645433E+02 -0.24537556053E+02  0.38470947781E+02  0.00000000000E+00 0.  1.
</event>
<event>
 7    1  0.1501154E-015  0.9000765E+02  0.7816164E-02  0.1186339E+00
        -11   -1    0    0    0    0  0.00000000000E+00  0.00000000000E+00  0.45593999997E+02  0.45594000000E+02  0.51100000000E-03 0.  1.
         11   -1    0    0    0    0 -0.00000000000E+00 -0.00000000000E+00 -0.45593999997E+02  0.45594000000E+02  0.51100000000E-03 0. -1.
    9900012    2    1    2    0    0  0.59252890663E+00  0.84791954922E+00  0.56848290819E+00  0.90007647983E+02  0.89999908136E+02 0.  0.
         12    1    1    2    0    0 -0.59252890663E+00 -0.84791954922E+00 -0.56848290819E+00  0.11803520170E+01  0.00000000000E+00 0. -1.
         11    1    3    3    0    0 -0.10073579314E+02  0.28730086260E+02 -0.16083579936E+02  0.34432200053E+02  0.51100000000E-03 0. -1.
        -11    1    3    3    0    0  0.90026909409E+01  0.17422368954E+01 -0.11476813968E+02  0.14690169934E+02  0.51100000000E-03 0.  1.
        -12    1    3    3    0    0  0.16634172799E+01 -0.29624403606E+02  0.28128876812E+02  0.40885277996E+02  0.00000000000E+00 0.  1.
</event>
<event>
 7    1  0.1501154E-015  0.9000770E+02  0.7816164E-02  0.1186339E+00
        -11   -1    0    0    0    0  0.00000000000E+00  0.00000000000E+00  0.45593999997E+02  0.45594000000E+02  0.51100000000E-03 0. -1.
         11   -1    0    0    0    0 -0.00000000000E+00 -0.00000000000E+00 -0.45593999997E+02  0.45594000000E+02  0.51100000000E-03 0.  1.
    9900012    2    1    2    0    0 -0.14741332503E+00  0.10089407320E+01  0.59449204348E+00  0.90007697971E+02  0.89999958785E+02 0.  0.
         12    1    1    2    0    0  0.14741332503E+00 -0.10089407320E+01 -0.59449204348E+00  0.11803020287E+01  0.00000000000E+00 0. -1.
         11    1    3    3    0    0 -0.77860679135E+01 -0.38077213407E+02  0.12132649359E+02  0.40714840232E+02  0.51100000000E-03 0. -1.
        -11    1    3    3    0    0  0.36437329835E+01 -0.11632188890E+01 -0.77826179853E+01  0.86717363431E+01  0.51100000000E-03 0.  1.
        -12    1    3    3    0    0  0.39949216049E+01  0.40249373028E+02 -0.37555393300E+01  0.40621121396E+02  0.00000000000E+00 0.  1.
</event>
<event>
 7    1  0.1501154E-015  0.9000772E+02  0.7816164E-02  0.1186339E+00
        -11   -1    0    0    0    0  0.00000000000E+00  0.00000000000E+00  0.45593999997E+02  0.45594000000E+02  0.51100000000E-03 0.  1.
         11   -1    0    0    0    0 -0.00000000000E+00 -0.00000000000E+00 -0.45593999997E+02  0.45594000000E+02  0.51100000000E-03 0. -1.
    9900012    2    1    2    0    0 -0.29307291550E+00  0.11381029559E+01 -0.10906877322E+00  0.90007717801E+02  0.89999978876E+02 0.  0.
         12    1    1    2    0    0  0.29307291550E+00 -0.11381029559E+01  0.10906877322E+00  0.11802821990E+01  0.00000000000E+00 0. -1.
         11    1    3    3    0    0  0.54961266513E+01  0.28827967923E+02 -0.25420682767E+02  0.38826154269E+02  0.51100000000E-03 0. -1.
        -11    1    3    3    0    0 -0.29326913366E+01  0.80674900380E+01  0.56307853599E+01  0.10266003021E+02  0.51100000000E-03 0.  1.
        -12    1    3    3    0    0 -0.28565082303E+01 -0.35757355005E+02  0.19680828634E+02  0.40915560511E+02  0.00000000000E+00 0.  1.
</event>
<event>
 7    1  0.1501154E-015  0.9000767E+02  0.7816164E-02  0.1186339E+00
        -11   -1    0    0    0    0  0.00000000000E+00  0.00000000000E+00  0.45593999997E+02  0.45594000000E+02  0.51100000000E-03 0.  1.
         11   -1    0    0    0    0 -0.00000000000E+00 -0.00000000000E+00 -0.45593999997E+02  0.45594000000E+02  0.51100000000E-03 0. -1.
    9900012    2    1    2    0    0  0.17074351396E+00 -0.15640524057E+00  0.11573935096E+01  0.90007671367E+02  0.89999931829E+02 0.  0.
         12    1    1    2    0    0 -0.17074351396E+00  0.15640524057E+00 -0.11573935096E+01  0.11803286334E+01  0.00000000000E+00 0. -1.
         11    1    3    3    0    0  0.26682290524E+01 -0.13812166999E+01 -0.93332251704E+01  0.98049119421E+01  0.51100000000E-03 0. -1.
        -11    1    3    3    0    0 -0.27770469918E+02 -0.28792568751E+02  0.86045741754E+01  0.40917596602E+02  0.51100000000E-03 0.  1.
         12    1    3    3    0    0  0.25272984379E+02  0.30017380210E+02  0.18860445047E+01  0.39285162822E+02  0.00000000000E+00 0. -1.
</event>
<event>
 7    1  0.1984851E-015  0.9000766E+02  0.7816164E-02  0.1186339E+00
        -11   -1    0    0    0    0  0.00000000000E+00  0.00000000000E+00  0.45593999997E+02  0.45594000000E+02  0.51100000000E-03 0. -1.
         11   -1    0    0    0    0 -0.00000000000E+00 -0.00000000000E+00 -0.45593999997E+02  0.45594000000E+02  0.51100000000E-03 0.  1.
    9900012    2    1    2    0    0  0.71106319468E-01 -0.72936746412E+00 -0.92528791485E+00  0.90007664992E+02  0.89999925370E+02 0.  0.
         12    1    1    2    0    0 -0.71106319468E-01  0.72936746412E+00  0.92528791485E+00  0.11803350083E+01  0.00000000000E+00 0. -1.
         11    1    3    3    0    0 -0.19667373933E+02 -0.12400793007E+02  0.32720160983E+02  0.40139683602E+02  0.51100000000E-03 0. -1.
        -11    1    3    3    0    0 -0.36854534192E+01 -0.62591290887E+01 -0.56889079623E+01  0.92262092930E+01  0.51100000000E-03 0.  1.
        -12    1    3    3    0    0  0.23423933672E+02  0.17930554632E+02 -0.27956540936E+02  0.40641772097E+02  0.00000000000E+00 0.  1.
</event>
<event>
 7    1  0.1501154E-015  0.9000765E+02  0.7816164E-02  0.1186339E+00
        -11   -1    0    0    0    0  0.00000000000E+00  0.00000000000E+00  0.45593999997E+02  0.45594000000E+02  0.51100000000E-03 0. -1.
         11   -1    0    0    0    0 -0.00000000000E+00 -0.00000000000E+00 -0.45593999997E+02  0.45594000000E+02  0.51100000000E-03 0.  1.
    9900012    2    1    2    0    0 -0.30110665274E-01 -0.87619615658E-01 -0.11767093659E+01  0.90007648874E+02  0.89999909039E+02 0.  0.
         12    1    1    2    0    0  0.30110665274E-01  0.87619615658E-01  0.11767093659E+01  0.11803511262E+01  0.00000000000E+00 0. -1.
         11    1    3    3    0    0  0.12914453227E+01  0.14378034571E+02  0.20793783571E+02  0.25313576290E+02  0.51100000000E-03 0. -1.
        -11    1    3    3    0    0  0.12139927696E+02  0.34911683812E+01  0.16122475603E+02  0.20481706984E+02  0.51100000000E-03 0.  1.
        -12    1    3    3    0    0 -0.13461483684E+02 -0.17956822567E+02 -0.38092968540E+02  0.44212365600E+02  0.00000000000E+00 0.  1.
</event>
<event>
 7    1  0.1501154E-015  0.9000771E+02  0.7816164E-02  0.1186339E+00
        -11   -1    0    0    0    0  0.00000000000E+00  0.00000000000E+00  0.45593999997E+02  0.45594000000E+02  0.51100000000E-03 0. -1.
         11   -1    0    0    0    0 -0.00000000000E+00 -0.00000000000E+00 -0.45593999997E+02  0.45594000000E+02  0.51100000000E-03 0.  1.
    9900012    2    1    2    0    0 -0.83667858104E+00 -0.32071180199E+00 -0.76823678534E+00  0.90007714074E+02  0.89999975100E+02 0.  0.
         12    1    1    2    0    0  0.83667858104E+00  0.32071180199E+00  0.76823678534E+00  0.11802859256E+01  0.00000000000E+00 0. -1.
         11    1    3    3    0    0 -0.18348559534E+02  0.55151464523E+01  0.50508221059E+00  0.19166157301E+02  0.51100000000E-03 0. -1.
        -11    1    3    3    0    0  0.10555889170E+02  0.30681561537E+02 -0.70980702963E+01  0.33213967193E+02  0.51100000000E-03 0.  1.
         12    1    3    3    0    0  0.69559917835E+01 -0.36517419792E+02  0.58247513004E+01  0.37627589580E+02  0.00000000000E+00 0. -1.
</event>
<event>
 7    1  0.1501154E-015  0.9000762E+02  0.7816164E-02  0.1186339E+00
        -11   -1    0    0    0    0  0.00000000000E+00  0.00000000000E+00  0.45593999997E+02  0.45594000000E+02  0.51100000000E-03 0.  1.
         11   -1    0    0    0    0 -0.00000000000E+00 -0.00000000000E+00 -0.45593999997E+02  0.45594000000E+02  0.51100000000E-03 0. -1.
    9900012    2    1    2    0    0  0.59061098930E+00  0.68937798297E+00  0.75447421471E+00  0.90007620957E+02  0.89999880754E+02 0.  0.
         12    1    1    2    0    0 -0.59061098930E+00 -0.68937798297E+00 -0.75447421471E+00  0.11803790428E+01  0.00000000000E+00 0. -1.
         11    1    3    3    0    0  0.19093393224E+01  0.73196132599E+01  0.46303938090E+01  0.88692086462E+01  0.51100000000E-03 0. -1.
        -11    1    3    3    0    0 -0.16686151865E+02 -0.12787279581E+02  0.33902790478E+02  0.39891620493E+02  0.51100000000E-03 0.  1.
         12    1    3    3    0    0  0.15367423531E+02  0.61570443044E+01 -0.37778710072E+02  0.41246791818E+02  0.00000000000E+00 0. -1.
</event>
<event>
 7    1  0.1501154E-015  0.9000778E+02  0.7816164E-02  0.1186339E+00
        -11   -1    0    0    0    0  0.00000000000E+00  0.00000000000E+00  0.45593999997E+02  0.45594000000E+02  0.51100000000E-03 0.  1.
         11   -1    0    0    0    0 -0.00000000000E+00 -0.00000000000E+00 -0.45593999997E+02  0.45594000000E+02  0.51100000000E-03 0. -1.
    9900012    2    1    2    0    0 -0.10021519517E+01  0.17718514839E+00 -0.59767006161E+00  0.90007782811E+02  0.90000044744E+02 0.  0.
         12    1    1    2    0    0  0.10021519517E+01 -0.17718514839E+00  0.59767006161E+00  0.11802171892E+01  0.00000000000E+00 0. -1.
         11    1    3    3    0    0 -0.67979959346E+00 -0.19781793023E+01 -0.36478734347E+02  0.36538655978E+02  0.51100000000E-03 0. -1.
        -11    1    3    3    0    0  0.90780315059E+01 -0.83507744615E+00 -0.56882242039E+01  0.10745413218E+02  0.51100000000E-03 0.  1.
        -12    1    3    3    0    0 -0.94003838642E+01  0.29904418968E+01  0.41569288490E+02  0.42723713615E+02  0.00000000000E+00 0.  1.
</event>
<event>
 7    1  0.1501154E-015  0.9000797E+02  0.7816164E-02  0.1186339E+00
        -11   -1    0    0    0    0  0.00000000000E+00  0.00000000000E+00  0.45593999997E+02  0.45594000000E+02  0.51100000000E-03 0.  1.
         11   -1    0    0    0    0 -0.00000000000E+00 -0.00000000000E+00 -0.45593999997E+02  0.45594000000E+02  0.51100000000E-03 0. -1.
    9900012    2    1    2    0    0 -0.67364212669E+00 -0.29427697028E+00  0.92307742184E+00  0.90007972637E+02  0.90000237076E+02 0.  0.
         12    1    1    2    0    0  0.67364212669E+00  0.29427697028E+00 -0.92307742184E+00  0.11800273627E+01  0.00000000000E+00 0. -1.
         11    1    3    3    0    0  0.39794751246E+02 -0.13080181989E+02  0.59934242108E+01  0.42315889707E+02  0.51100000000E-03 0. -1.
        -11    1    3    3    0    0 -0.16017561156E+01  0.79456967543E+01 -0.23089991353E+01  0.84280007614E+01  0.51100000000E-03 0.  1.
        -12    1    3    3    0    0 -0.38866637257E+02  0.48402082647E+01 -0.27613476536E+01  0.39264082169E+02  0.00000000000E+00 0.  1.
</event>
<event>
 7    1  0.1501154E-015  0.9000756E+02  0.7816164E-02  0.1186339E+00
        -11   -1    0    0    0    0  0.00000000000E+00  0.00000000000E+00  0.45593999997E+02  0.45594000000E+02  0.51100000000E-03 0. -1.
         11   -1    0    0    0    0 -0.00000000000E+00 -0.00000000000E+00 -0.45593999997E+02  0.45594000000E+02  0.51100000000E-03 0.  1.
    9900012    2    1    2    0    0  0.67686521921E+00  0.62553113687E+00 -0.73756511941E+00  0.90007560237E+02  0.89999819232E+02 0.  0.
         12    1    1    2    0    0 -0.67686521921E+00 -0.62553113687E+00  0.73756511941E+00  0.11804397628E+01  0.00000000000E+00 0. -1.
         11    1    3    3    0    0  0.18023227396E+01  0.29286187363E+02  0.25126179153E+02  0.38629703812E+02  0.51100000000E-03 0. -1.
        -11    1    3    3    0    0  0.27290045242E+01 -0.56502484867E+01  0.80544598807E+01  0.10210146810E+02  0.51100000000E-03 0.  1.
        -12    1    3    3    0    0 -0.38544620446E+01 -0.23010407739E+02 -0.33918204153E+02  0.41167709615E+02  0.00000000000E+00 0.  1.
</event>
<event>
 7    1  0.1501154E-015  0.9000762E+02  0.7816164E-02  0.1186339E+00
        -11   -1    0    0    0    0  0.00000000000E+00  0.00000000000E+00  0.45593999997E+02  0.45594000000E+02  0.51100000000E-03 0. -1.
         11   -1    0    0    0    0 -0.00000000000E+00 -0.00000000000E+00 -0.45593999997E+02  0.45594000000E+02  0.51100000000E-03 0.  1.
    9900012    2    1    2    0    0  0.10511230949E+01  0.29580221593E+00 -0.44826226925E+00  0.90007619649E+02  0.89999879428E+02 0.  0.
         12    1    1    2    0    0 -0.10511230949E+01 -0.29580221593E+00  0.44826226925E+00  0.11803803512E+01  0.00000000000E+00 0. -1.
         11    1    3    3    0    0  0.89434131133E+01 -0.50936251488E+01 -0.57745608973E+00  0.10308400025E+02  0.51100000000E-03 0. -1.
        -11    1    3    3    0    0  0.23286514148E+02 -0.77115205582E+01 -0.26900350003E+02  0.36405468285E+02  0.51100000000E-03 0.  1.
         12    1    3    3    0    0 -0.31178804166E+02  0.13100947923E+02  0.27029543824E+02  0.43293751339E+02  0.00000000000E+00 0. -1.
</event>
<event>
 7    1  0.2165342E-015  0.9000771E+02  0.7816164E-02  0.1186339E+00
        -11   -1    0    0    0    0  0.00000000000E+00  0.00000000000E+00  0.45593999997E+02  0.45594000000E+02  0.51100000000E-03 0. -1.
         11   -1    0    0    0    0 -0.00000000000E+00 -0.00000000000E+00 -0.45593999997E+02  0.45594000000E+02  0.51100000000E-03 0.  1.
    9900012    2    1    2    0    0 -0.29388961111E+00  0.55067340885E+00 -0.10017318700E+01  0.90007712304E+02  0.89999973306E+02 0.  0.
         12    1    1    2    0    0  0.29388961111E+00 -0.55067340885E+00  0.10017318700E+01  0.11802876964E+01  0.00000000000E+00 0. -1.
         11    1    3    3    0    0 -0.36210879829E+02 -0.16907618613E+01  0.21198497094E+02  0.41993603953E+02  0.51100000000E-03 0. -1.
        -11    1    3    3    0    0  0.25681925788E+01 -0.74212390737E+01 -0.41123665435E+01  0.88646467138E+01  0.51100000000E-03 0.  1.
        -12    1    3    3    0    0  0.33348797640E+02  0.96626743439E+01 -0.18087862421E+02  0.39149461636E+02  0.00000000000E+00 0.  1.
</event>
<event>
 7    1  0.1501154E-015  0.9000801E+02  0.7816164E-02  0.1186339E+00
        -11   -1    0    0    0    0  0.00000000000E+00  0.00000000000E+00  0.45593999997E+02  0.45594000000E+02  0.51100000000E-03 0.  1.
         11   -1    0    0    0    0 -0.00000000000E+00 -0.00000000000E+00 -0.45593999997E+02  0.45594000000E+02  0.51100000000E-03 0. -1.
    9900012    2    1    2    0    0 -0.99211950404E+00 -0.57772458592E+00 -0.27261841101E+00  0.90008005252E+02  0.90000270121E+02 0.  0.
         12    1    1    2    0    0  0.99211950404E+00  0.57772458592E+00  0.27261841101E+00  0.11799947481E+01  0.00000000000E+00 0. -1.
         11    1    3    3    0    0 -0.11006417708E+02 -0.54130313715E+01 -0.43004312395E+01  0.12997532400E+02  0.51100000000E-03 0. -1.
        -11    1    3    3    0    0  0.15442013875E+02 -0.22899308678E+02  0.28455711262E+02  0.39655537245E+02  0.51100000000E-03 0.  1.
         12    1    3    3    0    0 -0.54277156715E+01  0.27734615464E+02 -0.24427898433E+02  0.37354935607E+02  0.00000000000E+00 0. -1.
</event>
<event>
 7    1  0.1501154E-015  0.9000767E+02  0.7816164E-02  0.1186339E+00
        -11   -1    0    0    0    0  0.00000000000E+00  0.00000000000E+00  0.45593999997E+02  0.45594000000E+02  0.51100000000E-03 0. -1.
         11   -1    0    0    0    0 -0.00000000000E+00 -0.00000000000E+00 -0.45593999997E+02  0.45594000000E+02  0.51100000000E-03 0.  1.
    9900012    2    1    2    0    0 -0.10308171820E+01  0.55416412967E+00  0.15330538928E+00  0.90007667637E+02  0.89999928050E+02 0.  0.
         12    1    1    2    0    0  0.10308171820E+01 -0.55416412967E+00 -0.15330538928E+00  0.11803323632E+01  0.00000000000E+00 0. -1.
         11    1    3    3    0    0  0.52444513417E+01  0.25316172771E+01  0.38463618750E+02  0.38901970690E+02  0.51100000000E-03 0. -1.
        -11    1    3    3    0    0 -0.53782065132E+01  0.90537931756E+01  0.70173745997E+00  0.10554085081E+02  0.51100000000E-03 0.  1.
        -12    1    3    3    0    0 -0.89706201048E+00 -0.11031246323E+02 -0.39012050821E+02  0.40551611866E+02  0.00000000000E+00 0.  1.
</event>
<event>
 7    1  0.1501154E-015  0.9000774E+02  0.7816164E-02  0.1186339E+00
        -11   -1    0    0    0    0  0.00000000000E+00  0.00000000000E+00  0.45593999997E+02  0.45594000000E+02  0.51100000000E-03 0.  1.
         11   -1    0    0    0    0 -0.00000000000E+00 -0.00000000000E+00 -0.45593999997E+02  0.45594000000E+02  0.51100000000E-03 0. -1.
    9900012    2    1    2    0    0 -0.90381487469E+00  0.42355661933E+00  0.62986439299E+00  0.90007741261E+02  0.90000002646E+02 0.  0.
         12    1    1    2    0    0  0.90381487469E+00 -0.42355661933E+00 -0.62986439299E+00  0.11802587390E+01  0.00000000000E+00 0. -1.
         11    1    3    3    0    0  0.10623365408E+02 -0.71698994617E+00  0.76308645514E+00  0.10674842780E+02  0.51100000000E-03 0. -1.
        -11    1    3    3    0    0  0.21016270901E+02  0.17181458719E+02  0.23606531312E+02  0.35974358746E+02  0.51100000000E-03 0.  1.
         12    1    3    3    0    0 -0.32543451184E+02 -0.16040912154E+02 -0.23739753375E+02  0.43358539735E+02  0.00000000000E+00 0. -1.
</event>
<event>
 7    1  0.1501154E-015  0.9000772E+02  0.7816164E-02  0.1186339E+00
        -11   -1    0    0    0    0  0.00000000000E+00  0.00000000000E+00  0.45593999997E+02  0.45594000000E+02  0.51100000000E-03 0. -1.
         11   -1    0    0    0    0 -0.00000000000E+00 -0.00000000000E+00 -0.45593999997E+02  0.45594000000E+02  0.51100000000E-03 0.  1.
    9900012    2    1    2    0    0 -0.32269077528E+00  0.11173033246E+01 -0.20143044189E+00  0.90007716018E+02  0.89999977069E+02 0.  0.
         12    1    1    2    0    0  0.32269077528E+00 -0.11173033246E+01  0.20143044189E+00  0.11802839822E+01  0.00000000000E+00 0. -1.
         11    1    3    3    0    0  0.60892322426E+01  0.29892814704E+01  0.35240585035E+02  0.35887510179E+02  0.51100000000E-03 0. -1.
        -11    1    3    3    0    0  0.96166868291E+01  0.10881945173E+02 -0.16649546905E+01  0.14617437214E+02  0.51100000000E-03 0.  1.
        -12    1    3    3    0    0 -0.16028609847E+02 -0.12753923319E+02 -0.33777060786E+02  0.39502768625E+02  0.00000000000E+00 0.  1.
</event>
<event>
 7    1  0.1501154E-015  0.9000777E+02  0.7816164E-02  0.1186339E+00
        -11   -1    0    0    0    0  0.00000000000E+00  0.00000000000E+00  0.45593999997E+02  0.45594000000E+02  0.51100000000E-03 0.  1.
         11   -1    0    0    0    0 -0.00000000000E+00 -0.00000000000E+00 -0.45593999997E+02  0.45594000000E+02  0.51100000000E-03 0. -1.
    9900012    2    1    2    0    0 -0.10738878985E+01 -0.35239109430E+00 -0.33987696738E+00  0.90007774998E+02  0.90000036828E+02 0.  0.
         12    1    1    2    0    0  0.10738878985E+01  0.35239109430E+00  0.33987696738E+00  0.11802250018E+01  0.00000000000E+00 0. -1.
         11    1    3    3    0    0  0.12891903773E+02  0.25780069433E+02 -0.23308353793E+02  0.37068753953E+02  0.51100000000E-03 0. -1.
        -11    1    3    3    0    0  0.38936515191E+01  0.16711739373E+01 -0.70953671148E+01  0.82642349456E+01  0.51100000000E-03 0.  1.
        -12    1    3    3    0    0 -0.17859443190E+02 -0.27803634464E+02  0.30063843941E+02  0.44674786099E+02  0.00000000000E+00 0.  1.
</event>
<event>
 7    1  0.1501154E-015  0.9000782E+02  0.7816164E-02  0.1186339E+00
        -11   -1    0    0    0    0  0.00000000000E+00  0.00000000000E+00  0.45593999997E+02  0.45594000000E+02  0.51100000000E-03 0.  1.
         11   -1    0    0    0    0 -0.00000000000E+00 -0.00000000000E+00 -0.45593999997E+02  0.45594000000E+02  0.51100000000E-03 0. -1.
    9900012    2    1    2    0    0 -0.98341114501E+00  0.64780074446E+00 -0.77979949092E-01  0.90007820286E+02  0.90000082714E+02 0.  0.
         12    1    1    2    0    0  0.98341114501E+00 -0.64780074446E+00  0.77979949092E-01  0.11801797139E+01  0.00000000000E+00 0. -1.
         11    1    3    3    0    0  0.21072413297E+02 -0.58661294289E+00 -0.15018801635E+02  0.25883491258E+02  0.51100000000E-03 0. -1.
        -11    1    3    3    0    0  0.12596233378E+02 -0.48719214850E+01 -0.13338978822E+02  0.18982335750E+02  0.51100000000E-03 0.  1.
        -12    1    3    3    0    0 -0.34652057819E+02  0.61063351724E+01  0.28279800508E+02  0.45141993278E+02  0.00000000000E+00 0.  1.
</event>
<event>
 7    1  0.1501154E-015  0.9000775E+02  0.7816164E-02  0.1186339E+00
        -11   -1    0    0    0    0  0.00000000000E+00  0.00000000000E+00  0.45593999997E+02  0.45594000000E+02  0.51100000000E-03 0. -1.
         11   -1    0    0    0    0 -0.00000000000E+00 -0.00000000000E+00 -0.45593999997E+02  0.45594000000E+02  0.51100000000E-03 0.  1.
    9900012    2    1    2    0    0 -0.79772436062E+00  0.17095576475E+00 -0.85287510780E+00  0.90007751730E+02  0.90000013253E+02 0.  0.
         12    1    1    2    0    0  0.79772436062E+00 -0.17095576475E+00  0.85287510780E+00  0.11802482699E+01  0.00000000000E+00 0. -1.
         11    1    3    3    0    0  0.67527154728E+01 -0.86842481006E+01  0.11421369358E+01  0.11059828587E+02  0.51100000000E-03 0. -1.
        -11    1    3    3    0    0 -0.30012185654E+02 -0.19010998080E+02  0.15910940405E+02  0.38926949027E+02  0.51100000000E-03 0.  1.
         12    1    3    3    0    0  0.22461745820E+02  0.27866201945E+02 -0.17905952448E+02  0.40020974116E+02  0.00000000000E+00 0. -1.
</event>
<event>
 7    1  0.1501154E-015  0.9000776E+02  0.7816164E-02  0.1186339E+00
        -11   -1    0    0    0    0  0.00000000000E+00  0.00000000000E+00  0.45593999997E+02  0.45594000000E+02  0.51100000000E-03 0.  1.
         11   -1    0    0    0    0 -0.00000000000E+00 -0.00000000000E+00 -0.45593999997E+02  0.45594000000E+02  0.51100000000E-03 0. -1.
    9900012    2    1    2    0    0  0.33714778238E+00  0.11035312892E+01  0.24802409378E+00  0.90007760243E+02  0.90000021878E+02 0.  0.
         12    1    1    2    0    0 -0.33714778238E+00 -0.11035312892E+01 -0.24802409378E+00  0.11802397572E+01  0.00000000000E+00 0. -1.
         11    1    3    3    0    0  0.81652064945E+01 -0.13407456840E+01 -0.47532624740E+01  0.95426254509E+01  0.51100000000E-03 0. -1.
        -11    1    3    3    0    0  0.33100064342E+01  0.36028304923E+02 -0.15735141035E+02  0.39453638132E+02  0.51100000000E-03 0.  1.
         12    1    3    3    0    0 -0.11138065146E+02 -0.33584027950E+02  0.20736427602E+02  0.41011496660E+02  0.00000000000E+00 0. -1.
</event>
<event>
 7    1  0.1501154E-015  0.9000823E+02  0.7816164E-02  0.1186338E+00
        -11   -1    0    0    0    0  0.00000000000E+00  0.00000000000E+00  0.45593999997E+02  0.45594000000E+02  0.51100000000E-03 0.  1.
         11   -1    0    0    0    0 -0.00000000000E+00 -0.00000000000E+00 -0.45593999997E+02  0.45594000000E+02  0.51100000000E-03 0. -1.
    9900012    2    1    2    0    0 -0.55750611905E+00 -0.10375259252E+01 -0.67776521171E-01  0.90008225964E+02  0.90000493746E+02 0.  0.
         12    1    1    2    0    0  0.55750611905E+00  0.10375259252E+01  0.67776521171E-01  0.11797740356E+01  0.00000000000E+00 0. -1.
         11    1    3    3    0    0  0.58221968547E+01  0.45373841146E+00 -0.73418972108E+01  0.93812211186E+01  0.51100000000E-03 0. -1.
        -11    1    3    3    0    0  0.12124392152E+02 -0.36695041314E+02 -0.50871855024E+01  0.38979563860E+02  0.51100000000E-03 0.  1.
         12    1    3    3    0    0 -0.18504095126E+02  0.35203776977E+02  0.12361306192E+02  0.41647440986E+02  0.00000000000E+00 0. -1.
</event>
<event>
 7    1  0.1501154E-015  0.9000758E+02  0.7816164E-02  0.1186339E+00
        -11   -1    0    0    0    0  0.00000000000E+00  0.00000000000E+00  0.45593999997E+02  0.45594000000E+02  0.51100000000E-03 0.  1.
         11   -1    0    0    0    0 -0.00000000000E+00 -0.00000000000E+00 -0.45593999997E+02  0.45594000000E+02  0.51100000000E-03 0. -1.
    9900012    2    1    2    0    0  0.10194469171E+01 -0.13259135990E+00  0.58011655152E+00  0.90007581558E+02  0.89999840834E+02 0.  0.
         12    1    1    2    0    0 -0.10194469171E+01  0.13259135990E+00 -0.58011655152E+00  0.11804184423E+01  0.00000000000E+00 0. -1.
         11    1    3    3    0    0  0.93008704377E+00  0.33578189294E+02  0.14606760828E+02  0.36629459732E+02  0.51100000000E-03 0. -1.
        -11    1    3    3    0    0  0.75788305090E+01  0.65576931760E+01  0.18452227149E+00  0.10023774758E+02  0.51100000000E-03 0.  1.
        -12    1    3    3    0    0 -0.74894706357E+01 -0.40268473830E+02 -0.14211166547E+02  0.43354347067E+02  0.00000000000E+00 0.  1.
</event>
<event>
 7    1  0.1501154E-015  0.9000774E+02  0.7816164E-02  0.1186339E+00
        -11   -1    0    0    0    0  0.00000000000E+00  0.00000000000E+00  0.45593999997E+02  0.45594000000E+02  0.51100000000E-03 0.  1.
         11   -1    0    0    0    0 -0.00000000000E+00 -0.00000000000E+00 -0.45593999997E+02  0.45594000000E+02  0.51100000000E-03 0. -1.
    9900012    2    1    2    0    0 -0.11150478686E+01 -0.37740907823E+00  0.85143304235E-01  0.90007737850E+02  0.89999999189E+02 0.  0.
         12    1    1    2    0    0  0.11150478686E+01  0.37740907823E+00 -0.85143304235E-01  0.11802621504E+01  0.00000000000E+00 0. -1.
         11    1    3    3    0    0 -0.40741013711E+02  0.10443899461E+02 -0.48458793281E+01  0.42336600961E+02  0.51100000000E-03 0. -1.
        -11    1    3    3    0    0  0.13468497000E+02  0.75400909554E+01  0.22768149052E+01  0.15602476388E+02  0.51100000000E-03 0.  1.
        -12    1    3    3    0    0  0.26157468843E+02 -0.18361399495E+02  0.26542077270E+01  0.32068660501E+02  0.00000000000E+00 0.  1.
</event>
<event>
 7    1  0.1501154E-015  0.9000768E+02  0.7816164E-02  0.1186339E+00
        -11   -1    0    0    0    0  0.00000000000E+00  0.00000000000E+00  0.45593999997E+02  0.45594000000E+02  0.51100000000E-03 0. -1.
         11   -1    0    0    0    0 -0.00000000000E+00 -0.00000000000E+00 -0.45593999997E+02  0.45594000000E+02  0.51100000000E-03 0.  1.
    9900012    2    1    2    0    0 -0.88971919733E+00 -0.74658151082E+00  0.21016933981E+00  0.90007679978E+02  0.89999940554E+02 0.  0.
         12    1    1    2    0    0  0.88971919733E+00  0.74658151082E+00 -0.21016933981E+00  0.11803200218E+01  0.00000000000E+00 0. -1.
         11    1    3    3    0    0  0.54947154881E+00  0.10729781873E+02  0.60578995270E+01  0.12334029551E+02  0.51100000000E-03 0. -1.
        -11    1    3    3    0    0 -0.38977684118E+02 -0.46474262945E+01 -0.16439905686E+01  0.39288180609E+02  0.51100000000E-03 0.  1.
         12    1    3    3    0    0  0.37538493372E+02 -0.68289370891E+01 -0.42037396185E+01  0.38385469818E+02  0.00000000000E+00 0. -1.
</event>
<event>
 7    1  0.1501154E-015  0.9000780E+02  0.7816164E-02  0.1186339E+00
        -11   -1    0    0    0    0  0.00000000000E+00  0.00000000000E+00  0.45593999997E+02  0.45594000000E+02  0.51100000000E-03 0. -1.
         11   -1    0    0    0    0 -0.00000000000E+00 -0.00000000000E+00 -0.45593999997E+02  0.45594000000E+02  0.51100000000E-03 0.  1.
    9900012    2    1    2    0    0 -0.75029820780E+00  0.79534006552E+00 -0.44423998150E+00  0.90007804092E+02  0.90000066306E+02 0.  0.
         12    1    1    2    0    0  0.75029820780E+00 -0.79534006552E+00  0.44423998150E+00  0.11801959082E+01  0.00000000000E+00 0. -1.
         11    1    3    3    0    0  0.35501152050E+02 -0.59077457545E+01  0.61208257794E+01  0.36506133256E+02  0.51100000000E-03 0. -1.
        -11    1    3    3    0    0  0.69577199191E+01  0.92576006340E+00 -0.69900024580E+01  0.99059089836E+01  0.51100000000E-03 0.  1.
        -12    1    3    3    0    0 -0.43209170177E+02  0.57773257567E+01  0.42493669707E+00  0.43595761853E+02  0.00000000000E+00 0.  1.
</event>
<event>
 7    1  0.1501154E-015  0.9000770E+02  0.7816164E-02  0.1186339E+00
        -11   -1    0    0    0    0  0.00000000000E+00  0.00000000000E+00  0.45593999997E+02  0.45594000000E+02  0.51100000000E-03 0. -1.
         11   -1    0    0    0    0 -0.00000000000E+00 -0.00000000000E+00 -0.45593999997E+02  0.45594000000E+02  0.51100000000E-03 0.  1.
    9900012    2    1    2    0    0  0.67250109144E+00 -0.45969409971E+00 -0.85413127672E+00  0.90007696386E+02  0.89999957178E+02 0.  0.
         12    1    1    2    0    0 -0.67250109144E+00  0.45969409971E+00  0.85413127672E+00  0.11803036140E+01  0.00000000000E+00 0. -1.
         11    1    3    3    0    0  0.21531569270E+02  0.26083857984E+01  0.22471528248E+01  0.21805087658E+02  0.51100000000E-03 0. -1.
        -11    1    3    3    0    0  0.11163908463E+01  0.41435213492E+01 -0.31378969286E+02  0.31671040580E+02  0.51100000000E-03 0.  1.
        -12    1    3    3    0    0 -0.21975459025E+02 -0.72116012473E+01  0.28277685185E+02  0.36531568148E+02  0.00000000000E+00 0.  1.
</event>
<event>
 7    1  0.1501154E-015  0.9000773E+02  0.7816164E-02  0.1186339E+00
        -11   -1    0    0    0    0  0.00000000000E+00  0.00000000000E+00  0.45593999997E+02  0.45594000000E+02  0.51100000000E-03 0. -1.
         11   -1    0    0    0    0 -0.00000000000E+00 -0.00000000000E+00 -0.45593999997E+02  0.45594000000E+02  0.51100000000E-03 0.  1.
    9900012    2    1    2    0    0  0.41722014769E+00  0.99956613528E+00 -0.46885195354E+00  0.90007734240E+02  0.89999995532E+02 0.  0.
         12    1    1    2    0    0 -0.41722014769E+00 -0.99956613528E+00  0.46885195354E+00  0.11802657602E+01  0.00000000000E+00 0. -1.
         11    1    3    3    0    0 -0.88983652354E+01  0.65175823984E+01  0.24512026019E+01  0.11299034412E+02  0.51100000000E-03 0. -1.
        -11    1    3    3    0    0 -0.43563565999E+01 -0.93126439435E+01  0.35917739910E+02  0.37360235820E+02  0.51100000000E-03 0.  1.
         12    1    3    3    0    0  0.13671941983E+02  0.37946276804E+01 -0.38837794466E+02  0.41348464007E+02  0.00000000000E+00 0. -1.
</event>
<event>
 7    1  0.1501154E-015  0.9000777E+02  0.7816164E-02  0.1186339E+00
        -11   -1    0    0    0    0  0.00000000000E+00  0.00000000000E+00  0.45593999997E+02  0.45594000000E+02  0.51100000000E-03 0.  1.
         11   -1    0    0    0    0 -0.00000000000E+00 -0.00000000000E+00 -0.45593999997E+02  0.45594000000E+02  0.51100000000E-03 0. -1.
    9900012    2    1    2    0    0 -0.15394629264E+00  0.37439044992E+00  0.11086400344E+01  0.90007766804E+02  0.90000028526E+02 0.  0.
         12    1    1    2    0    0  0.15394629264E+00 -0.37439044992E+00 -0.11086400344E+01  0.11802331955E+01  0.00000000000E+00 0. -1.
         11    1    3    3    0    0  0.18424894024E+02 -0.33139465258E+02 -0.17615460881E+02  0.41809153779E+02  0.51100000000E-03 0. -1.
        -11    1    3    3    0    0  0.51660541815E+01  0.64572481091E+01  0.20150936530E+01  0.85114494441E+01  0.51100000000E-03 0.  1.
        -12    1    3    3    0    0 -0.23744894498E+02  0.27056607598E+02  0.16709007263E+02  0.39687163582E+02  0.00000000000E+00 0.  1.
</event>
<event>
 7    1  0.1608138E-015  0.9000779E+02  0.7816164E-02  0.1186339E+00
        -11   -1    0    0    0    0  0.00000000000E+00  0.00000000000E+00  0.45593999997E+02  0.45594000000E+02  0.51100000000E-03 0. -1.
         11   -1    0    0    0    0 -0.00000000000E+00 -0.00000000000E+00 -0.45593999997E+02  0.45594000000E+02  0.51100000000E-03 0.  1.
    9900012    2    1    2    0    0  0.12843064977E+00 -0.86910769267E+00 -0.78806418923E+00  0.90007793332E+02  0.90000055404E+02 0.  0.
         12    1    1    2    0    0 -0.12843064977E+00  0.86910769267E+00  0.78806418923E+00  0.11802066682E+01  0.00000000000E+00 0. -1.
         11    1    3    3    0    0 -0.68601435271E+01  0.29956638732E+02  0.20839359780E+02  0.37131397626E+02  0.51100000000E-03 0. -1.
        -11    1    3    3    0    0  0.45020951521E-01  0.84014241660E+01 -0.42284355188E+01  0.94056165190E+01  0.51100000000E-03 0.  1.
        -12    1    3    3    0    0  0.69435532254E+01 -0.39227170591E+02 -0.17398988451E+02  0.43470779187E+02  0.00000000000E+00 0.  1.
</event>
<event>
 7    1  0.1501154E-015  0.9000777E+02  0.7816164E-02  0.1186339E+00
        -11   -1    0    0    0    0  0.00000000000E+00  0.00000000000E+00  0.45593999997E+02  0.45594000000E+02  0.51100000000E-03 0. -1.
         11   -1    0    0    0    0 -0.00000000000E+00 -0.00000000000E+00 -0.45593999997E+02  0.45594000000E+02  0.51100000000E-03 0.  1.
    9900012    2    1    2    0    0  0.94971036957E-01  0.16083632564E+00 -0.11653530780E+01  0.90007773065E+02  0.90000034870E+02 0.  0.
         12    1    1    2    0    0 -0.94971036957E-01 -0.16083632564E+00  0.11653530780E+01  0.11802269349E+01  0.00000000000E+00 0. -1.
         11    1    3    3    0    0  0.23573690773E+01 -0.79514804650E+01 -0.14863190406E-01  0.82935789456E+01  0.51100000000E-03 0. -1.
        -11    1    3    3    0    0  0.24836609226E+02  0.14585500604E+02 -0.30013216181E+02  0.41597922202E+02  0.51100000000E-03 0.  1.
         12    1    3    3    0    0 -0.27099007267E+02 -0.64731838133E+01  0.28862726293E+02  0.40116271918E+02  0.00000000000E+00 0. -1.
</event>
<event>
 7    1  0.1501154E-015  0.9000757E+02  0.7816164E-02  0.1186339E+00
        -11   -1    0    0    0    0  0.00000000000E+00  0.00000000000E+00  0.45593999997E+02  0.45594000000E+02  0.51100000000E-03 0. -1.
         11   -1    0    0    0    0 -0.00000000000E+00 -0.00000000000E+00 -0.45593999997E+02  0.45594000000E+02  0.51100000000E-03 0.  1.
    9900012    2    1    2    0    0 -0.37129262129E+00  0.73949344021E+00 -0.84185329882E+00  0.90007565446E+02  0.89999824510E+02 0.  0.
         12    1    1    2    0    0  0.37129262129E+00 -0.73949344021E+00  0.84185329882E+00  0.11804345537E+01  0.00000000000E+00 0. -1.
         11    1    3    3    0    0 -0.21065526324E+02 -0.30736854517E+02  0.17263033288E+02  0.41067297737E+02  0.51100000000E-03 0. -1.
        -11    1    3    3    0    0  0.38894909029E+01  0.45711323892E+01  0.64607636526E+01  0.88184385261E+01  0.51100000000E-03 0.  1.
        -12    1    3    3    0    0  0.16804742799E+02  0.26905215568E+02 -0.24565650240E+02  0.40121829183E+02  0.00000000000E+00 0.  1.
</event>
<event>
 7    1  0.1501154E-015  0.9000775E+02  0.7816164E-02  0.1186339E+00
        -11   -1    0    0    0    0  0.00000000000E+00  0.00000000000E+00  0.45593999997E+02  0.45594000000E+02  0.51100000000E-03 0. -1.
         11   -1    0    0    0    0 -0.00000000000E+00 -0.00000000000E+00 -0.45593999997E+02  0.45594000000E+02  0.51100000000E-03 0.  1.
    9900012    2    1    2    0    0  0.49006714351E+00 -0.76591543308E-01 -0.10709658804E+01  0.90007745796E+02  0.90000007240E+02 0.  0.
         12    1    1    2    0    0 -0.49006714351E+00  0.76591543308E-01  0.10709658804E+01  0.11802542042E+01  0.00000000000E+00 0. -1.
         11    1    3    3    0    0  0.41222942258E+01  0.14697906773E+01  0.86393996074E+01  0.96846693364E+01  0.51100000000E-03 0. -1.
        -11    1    3    3    0    0 -0.75002512447E+01  0.38623175338E+02 -0.59651435471E+01  0.39794300845E+02  0.51100000000E-03 0.  1.
         12    1    3    3    0    0  0.38680241623E+01 -0.40169557559E+02 -0.37452219406E+01  0.40528775614E+02  0.00000000000E+00 0. -1.
</event>
<event>
 7    1  0.1501154E-015  0.9000777E+02  0.7816164E-02  0.1186339E+00
        -11   -1    0    0    0    0  0.00000000000E+00  0.00000000000E+00  0.45593999997E+02  0.45594000000E+02  0.51100000000E-03 0.  1.
         11   -1    0    0    0    0 -0.00000000000E+00 -0.00000000000E+00 -0.45593999997E+02  0.45594000000E+02  0.51100000000E-03 0. -1.
    9900012    2    1    2    0    0  0.10456894119E+01 -0.50306396224E+00 -0.21542597970E+00  0.90007767799E+02  0.90000029534E+02 0.  0.
         12    1    1    2    0    0 -0.10456894119E+01  0.50306396224E+00  0.21542597970E+00  0.11802322013E+01  0.00000000000E+00 0. -1.
         11    1    3    3    0    0  0.77053441443E+01  0.17116157803E+01 -0.38843276351E+01  0.87971562678E+01  0.51100000000E-03 0. -1.
        -11    1    3    3    0    0  0.90361561366E+01 -0.39062832405E+02 -0.44619082006E+01  0.40341859380E+02  0.51100000000E-03 0.  1.
         12    1    3    3    0    0 -0.15695810869E+02  0.36848152662E+02  0.81308098560E+01  0.40868752151E+02  0.00000000000E+00 0. -1.
</event>
<event>
 7    1  0.1501154E-015  0.9000799E+02  0.7816164E-02  0.1186339E+00
        -11   -1    0    0    0    0  0.00000000000E+00  0.00000000000E+00  0.45593999997E+02  0.45594000000E+02  0.51100000000E-03 0. -1.
         11   -1    0    0    0    0 -0.00000000000E+00 -0.00000000000E+00 -0.45593999997E+02  0.45594000000E+02  0.51100000000E-03 0.  1.
    9900012    2    1    2    0    0  0.70400800489E+00  0.40744209272E+00 -0.85486346063E+00  0.90007988192E+02  0.90000252836E+02 0.  0.
         12    1    1    2    0    0 -0.70400800489E+00 -0.40744209272E+00  0.85486346063E+00  0.11800118077E+01  0.00000000000E+00 0. -1.
         11    1    3    3    0    0 -0.23236607655E+01 -0.13051362117E+02 -0.11819412679E+02  0.17760517132E+02  0.51100000000E-03 0. -1.
        -11    1    3    3    0    0 -0.22743775376E+02  0.29735065327E+02 -0.51175954208E+01  0.37784166148E+02  0.51100000000E-03 0.  1.
         12    1    3    3    0    0  0.25771444146E+02 -0.16276261117E+02  0.16082144639E+02  0.34463304913E+02  0.00000000000E+00 0. -1.
</event>
<event>
 7    1  0.1501154E-015  0.9000773E+02  0.7816164E-02  0.1186339E+00
        -11   -1    0    0    0    0  0.00000000000E+00  0.00000000000E+00  0.45593999997E+02  0.45594000000E+02  0.51100000000E-03 0.  1.
         11   -1    0    0    0    0 -0.00000000000E+00 -0.00000000000E+00 -0.45593999997E+02  0.45594000000E+02  0.51100000000E-03 0. -1.
    9900012    2    1    2    0    0  0.96810574020E+00 -0.66685796512E+00 -0.10544676259E+00  0.90007725757E+02  0.89999986937E+02 0.  0.
         12    1    1    2    0    0 -0.96810574020E+00  0.66685796512E+00  0.10544676259E+00  0.11802742434E+01  0.00000000000E+00 0. -1.
         11    1    3    3    0    0  0.64645689986E+01  0.20516853790E+01 -0.79001357081E+01  0.10412118406E+02  0.51100000000E-03 0. -1.
        -11    1    3    3    0    0 -0.16513685469E+02 -0.34216067035E+02 -0.13143253915E+02  0.40201818054E+02  0.51100000000E-03 0.  1.
         12    1    3    3    0    0  0.11017222211E+02  0.31497523691E+02  0.20937942861E+02  0.39393789297E+02  0.00000000000E+00 0. -1.
</event>
<event>
 7    1  0.1501154E-015  0.9000772E+02  0.7816164E-02  0.1186339E+00
        -11   -1    0    0    0    0  0.00000000000E+00  0.00000000000E+00  0.45593999997E+02  0.45594000000E+02  0.51100000000E-03 0.  1.
         11   -1    0    0    0    0 -0.00000000000E+00 -0.00000000000E+00 -0.45593999997E+02  0.45594000000E+02  0.51100000000E-03 0. -1.
    9900012    2    1    2    0    0 -0.13454556210E+00 -0.26536123369E+00  0.11421682790E+01  0.90007717208E+02  0.89999978275E+02 0.  0.
         12    1    1    2    0    0  0.13454556210E+00  0.26536123369E+00 -0.11421682790E+01  0.11802827925E+01  0.00000000000E+00 0. -1.
         11    1    3    3    0    0 -0.11678598605E+01 -0.26742249856E+02 -0.24749128119E+02  0.36455879731E+02  0.51100000000E-03 0. -1.
        -11    1    3    3    0    0 -0.44455381984E+01  0.30097615582E+00 -0.87318718997E+01  0.98030089081E+01  0.51100000000E-03 0.  1.
        -12    1    3    3    0    0  0.54788524967E+01  0.26175912467E+02  0.34623168298E+02  0.43748828569E+02  0.00000000000E+00 0.  1.
</event>
<event>
 7    1  0.1501154E-015  0.9000771E+02  0.7816164E-02  0.1186339E+00
        -11   -1    0    0    0    0  0.00000000000E+00  0.00000000000E+00  0.45593999997E+02  0.45594000000E+02  0.51100000000E-03 0. -1.
         11   -1    0    0    0    0 -0.00000000000E+00 -0.00000000000E+00 -0.45593999997E+02  0.45594000000E+02  0.51100000000E-03 0.  1.
    9900012    2    1    2    0    0 -0.76674729731E+00  0.65592090095E+00 -0.61232592025E+00  0.90007713307E+02  0.89999974322E+02 0.  0.
         12    1    1    2    0    0  0.76674729731E+00 -0.65592090095E+00  0.61232592025E+00  0.11802866935E+01  0.00000000000E+00 0. -1.
         11    1    3    3    0    0 -0.41207581731E+01  0.90376331398E+01  0.49898261940E+01  0.11115656814E+02  0.51100000000E-03 0. -1.
        -11    1    3    3    0    0  0.11758348551E+02  0.30752510085E+02  0.12165168165E+02  0.35099386803E+02  0.51100000000E-03 0.  1.
         12    1    3    3    0    0 -0.84043376756E+01 -0.39134222324E+02 -0.17767320279E+02  0.43792669690E+02  0.00000000000E+00 0. -1.
</event>
<event>
 7    1  0.1501154E-015  0.9000784E+02  0.7816164E-02  0.1186339E+00
        -11   -1    0    0    0    0  0.00000000000E+00  0.00000000000E+00  0.45593999997E+02  0.45594000000E+02  0.51100000000E-03 0.  1.
         11   -1    0    0    0    0 -0.00000000000E+00 -0.00000000000E+00 -0.45593999997E+02  0.45594000000E+02  0.51100000000E-03 0. -1.
    9900012    2    1    2    0    0 -0.83315903894E+00 -0.14271090744E+00  0.82356124092E+00  0.90007841746E+02  0.90000104457E+02 0.  0.
         12    1    1    2    0    0  0.83315903894E+00  0.14271090744E+00 -0.82356124092E+00  0.11801582541E+01  0.00000000000E+00 0. -1.
         11    1    3    3    0    0 -0.13996735413E+02  0.14143042411E+02  0.17803428378E+02  0.26700118223E+02  0.51100000000E-03 0. -1.
        -11    1    3    3    0    0 -0.52543447790E-01 -0.25315139914E+02  0.13210440617E+02  0.28554768625E+02  0.51100000000E-03 0.  1.
         12    1    3    3    0    0  0.13216119822E+02  0.11029386595E+02 -0.30190307754E+02  0.34752954897E+02  0.00000000000E+00 0. -1.
</event>
<event>
 7    1  0.1501154E-015  0.9000775E+02  0.7816164E-02  0.1186339E+00
        -11   -1    0    0    0    0  0.00000000000E+00  0.00000000000E+00  0.45593999997E+02  0.45594000000E+02  0.51100000000E-03 0.  1.
         11   -1    0    0    0    0 -0.00000000000E+00 -0.00000000000E+00 -0.45593999997E+02  0.45594000000E+02  0.51100000000E-03 0. -1.
    9900012    2    1    2    0    0 -0.26521203080E+00  0.19525695862E+00  0.11333723001E+01  0.90007747708E+02  0.90000009178E+02 0.  0.
         12    1    1    2    0    0  0.26521203080E+00 -0.19525695862E+00 -0.11333723001E+01  0.11802522915E+01  0.00000000000E+00 0. -1.
         11    1    3    3    0    0  0.30034077520E+01 -0.40777274952E+02 -0.17147751553E+01  0.40923673647E+02  0.51100000000E-03 0. -1.
        -11    1    3    3    0    0  0.87023867606E+01  0.30328273876E+01  0.71566673306E+00  0.92434710163E+01  0.51100000000E-03 0.  1.
        -12    1    3    3    0    0 -0.11971006543E+02  0.37939704523E+02  0.21324807223E+01  0.39840603045E+02  0.00000000000E+00 0.  1.
</event>
<event>
 7    1  0.1501154E-015  0.9000774E+02  0.7816164E-02  0.1186339E+00
        -11   -1    0    0    0    0  0.00000000000E+00  0.00000000000E+00  0.45593999997E+02  0.45594000000E+02  0.51100000000E-03 0.  1.
         11   -1    0    0    0    0 -0.00000000000E+00 -0.00000000000E+00 -0.45593999997E+02  0.45594000000E+02  0.51100000000E-03 0. -1.
    9900012    2    1    2    0    0  0.37785825168E+00 -0.11139771859E+01 -0.96431284399E-01  0.90007736885E+02  0.89999998211E+02 0.  0.
         12    1    1    2    0    0 -0.37785825168E+00  0.11139771859E+01  0.96431284399E-01  0.11802631155E+01  0.00000000000E+00 0. -1.
         11    1    3    3    0    0  0.17173550738E+01 -0.15595624463E+01  0.10214562548E+02  0.10474675737E+02  0.51100000000E-03 0. -1.
        -11    1    3    3    0    0  0.13975449783E+02 -0.14182335146E+02  0.28825519129E+02  0.35033732032E+02  0.51100000000E-03 0.  1.
         12    1    3    3    0    0 -0.15314946605E+02  0.14627920406E+02 -0.39136512962E+02  0.44499329115E+02  0.00000000000E+00 0. -1.
</event>
<event>
 7    1  0.1501154E-015  0.9000773E+02  0.7816164E-02  0.1186339E+00
        -11   -1    0    0    0    0  0.00000000000E+00  0.00000000000E+00  0.45593999997E+02  0.45594000000E+02  0.51100000000E-03 0. -1.
         11   -1    0    0    0    0 -0.00000000000E+00 -0.00000000000E+00 -0.45593999997E+02  0.45594000000E+02  0.51100000000E-03 0.  1.
    9900012    2    1    2    0    0  0.11225511634E+01  0.34340786212E+00  0.12244291575E+00  0.90007727853E+02  0.89999989060E+02 0.  0.
         12    1    1    2    0    0 -0.11225511634E+01 -0.34340786212E+00 -0.12244291575E+00  0.11802721474E+01  0.00000000000E+00 0. -1.
         11    1    3    3    0    0  0.21201594252E+01  0.37519382387E+02  0.76452015464E+01  0.38349031769E+02  0.51100000000E-03 0. -1.
        -11    1    3    3    0    0  0.21943897141E+01  0.47951072712E+01 -0.79787560201E+01  0.95639399752E+01  0.51100000000E-03 0.  1.
        -12    1    3    3    0    0 -0.31919979760E+01 -0.41971081796E+02  0.45599738954E+00  0.42094756108E+02  0.00000000000E+00 0.  1.
</event>
<event>
 7    1  0.1665056E-015  0.9000778E+02  0.7816164E-02  0.1186339E+00
        -11   -1    0    0    0    0  0.00000000000E+00  0.00000000000E+00  0.45593999997E+02  0.45594000000E+02  0.51100000000E-03 0. -1.
         11   -1    0    0    0    0 -0.00000000000E+00 -0.00000000000E+00 -0.45593999997E+02  0.45594000000E+02  0.51100000000E-03 0.  1.
    9900012    2    1    2    0    0 -0.89755712029E+00 -0.66131742596E+00  0.38725933751E+00  0.90007779971E+02  0.90000041867E+02 0.  0.
         12    1    1    2    0    0  0.89755712029E+00  0.66131742596E+00 -0.38725933751E+00  0.11802200289E+01  0.00000000000E+00 0. -1.
         11    1    3    3    0    0  0.23976822716E+02  0.26558168940E+02  0.15139357369E+02  0.38851312807E+02  0.51100000000E-03 0. -1.
        -11    1    3    3    0    0  0.78791993258E+01 -0.42016584624E+01 -0.32739661618E+01  0.95107607761E+01  0.51100000000E-03 0.  1.
        -12    1    3    3    0    0 -0.32753579162E+02 -0.23017827904E+02 -0.11478131870E+02  0.41645706388E+02  0.00000000000E+00 0.  1.
</event>
<event>
 7    1  0.1501154E-015  0.9000781E+02  0.7816164E-02  0.1186339E+00
        -11   -1    0    0    0    0  0.00000000000E+00  0.00000000000E+00  0.45593999997E+02  0.45594000000E+02  0.51100000000E-03 0.  1.
         11   -1    0    0    0    0 -0.00000000000E+00 -0.00000000000E+00 -0.45593999997E+02  0.45594000000E+02  0.51100000000E-03 0. -1.
    9900012    2    1    2    0    0  0.11767232878E+01  0.35255542840E-01  0.83232331566E-01  0.90007810070E+02  0.90000072363E+02 0.  0.
         12    1    1    2    0    0 -0.11767232878E+01 -0.35255542840E-01 -0.83232331566E-01  0.11801899298E+01  0.00000000000E+00 0. -1.
         11    1    3    3    0    0  0.35679413105E+02 -0.90624243873E+01 -0.20691378877E+02  0.42228914447E+02  0.51100000000E-03 0. -1.
        -11    1    3    3    0    0 -0.59434614454E+01  0.12769194874E+02  0.49933367803E+01  0.14943576685E+02  0.51100000000E-03 0.  1.
        -12    1    3    3    0    0 -0.28559228372E+02 -0.36715149441E+01  0.15781274428E+02  0.32835318938E+02  0.00000000000E+00 0.  1.
</event>
<event>
 7    1  0.1501154E-015  0.9000787E+02  0.7816164E-02  0.1186339E+00
        -11   -1    0    0    0    0  0.00000000000E+00  0.00000000000E+00  0.45593999997E+02  0.45594000000E+02  0.51100000000E-03 0.  1.
         11   -1    0    0    0    0 -0.00000000000E+00 -0.00000000000E+00 -0.45593999997E+02  0.45594000000E+02  0.51100000000E-03 0. -1.
    9900012    2    1    2    0    0  0.47607801423E+00  0.88410733223E+00  0.62001001076E+00  0.90007869302E+02  0.90000132377E+02 0.  0.
         12    1    1    2    0    0 -0.47607801423E+00 -0.88410733223E+00 -0.62001001076E+00  0.11801306978E+01  0.00000000000E+00 0. -1.
         11    1    3    3    0    0 -0.20535470650E+02  0.24316215534E+02 -0.98803226190E+01  0.33325735821E+02  0.51100000000E-03 0. -1.
        -11    1    3    3    0    0  0.45941801849E+01  0.13341941868E+02 -0.25679731423E+01  0.14342537805E+02  0.51100000000E-03 0.  1.
        -12    1    3    3    0    0  0.16417368479E+02 -0.36774050069E+02  0.13068305772E+02  0.42339595676E+02  0.00000000000E+00 0.  1.
</event>
<event>
 7    1  0.1501154E-015  0.9000782E+02  0.7816164E-02  0.1186339E+00
        -11   -1    0    0    0    0  0.00000000000E+00  0.00000000000E+00  0.45593999997E+02  0.45594000000E+02  0.51100000000E-03 0.  1.
         11   -1    0    0    0    0 -0.00000000000E+00 -0.00000000000E+00 -0.45593999997E+02  0.45594000000E+02  0.51100000000E-03 0. -1.
    9900012    2    1    2    0    0  0.72440265672E+00 -0.63084562927E+00  0.68564327138E+00  0.90007816916E+02  0.90000079299E+02 0.  0.
         12    1    1    2    0    0 -0.72440265672E+00  0.63084562927E+00 -0.68564327138E+00  0.11801830844E+01  0.00000000000E+00 0. -1.
         11    1    3    3    0    0  0.77081810352E+01 -0.54159409708E+00  0.30244967220E+01  0.82980093830E+01  0.51100000000E-03 0. -1.
        -11    1    3    3    0    0 -0.32242769426E+02 -0.97698981411E+01  0.25982461391E+02  0.42545685917E+02  0.51100000000E-03 0.  1.
         12    1    3    3    0    0  0.25258991048E+02  0.96806466089E+01 -0.28321314842E+02  0.39164121615E+02  0.00000000000E+00 0. -1.
</event>
<event>
 7    1  0.1501154E-015  0.9000773E+02  0.7816164E-02  0.1186339E+00
        -11   -1    0    0    0    0  0.00000000000E+00  0.00000000000E+00  0.45593999997E+02  0.45594000000E+02  0.51100000000E-03 0. -1.
         11   -1    0    0    0    0 -0.00000000000E+00 -0.00000000000E+00 -0.45593999997E+02  0.45594000000E+02  0.51100000000E-03 0.  1.
    9900012    2    1    2    0    0  0.21145144425E+00  0.11497611145E+01  0.16238021922E+00  0.90007733221E+02  0.89999994500E+02 0.  0.
         12    1    1    2    0    0 -0.21145144425E+00 -0.11497611145E+01 -0.16238021922E+00  0.11802667789E+01  0.00000000000E+00 0. -1.
         11    1    3    3    0    0  0.12146958602E+01  0.95662978819E+01  0.35920949573E+02  0.37192797148E+02  0.51100000000E-03 0. -1.
        -11    1    3    3    0    0 -0.70082710866E+01  0.35066199336E+01  0.54187508370E+01  0.95275971723E+01  0.51100000000E-03 0.  1.
        -12    1    3    3    0    0  0.60050266707E+01 -0.11923156701E+02 -0.41177320191E+02  0.43287338901E+02  0.00000000000E+00 0.  1.
</event>
<event>
 7    1  0.1501154E-015  0.9000771E+02  0.7816164E-02  0.1186339E+00
        -11   -1    0    0    0    0  0.00000000000E+00  0.00000000000E+00  0.45593999997E+02  0.45594000000E+02  0.51100000000E-03 0.  1.
         11   -1    0    0    0    0 -0.00000000000E+00 -0.00000000000E+00 -0.45593999997E+02  0.45594000000E+02  0.51100000000E-03 0. -1.
    9900012    2    1    2    0    0  0.11430288768E+00 -0.80699941721E-02  0.11747177688E+01  0.90007706769E+02  0.89999967698E+02 0.  0.
         12    1    1    2    0    0 -0.11430288768E+00  0.80699941721E-02 -0.11747177688E+01  0.11802932311E+01  0.00000000000E+00 0. -1.
         11    1    3    3    0    0  0.43701233023E+01 -0.10382754385E+02 -0.12040051036E+02  0.16488250226E+02  0.51100000000E-03 0. -1.
        -11    1    3    3    0    0  0.18512502593E+02  0.15627534523E+02 -0.21017367718E+02  0.32072766229E+02  0.51100000000E-03 0.  1.
         12    1    3    3    0    0 -0.22768323007E+02 -0.52528501329E+01  0.34232136523E+02  0.41446690314E+02  0.00000000000E+00 0. -1.
</event>
<event>
 7    1  0.1501154E-015  0.9000783E+02  0.7816164E-02  0.1186339E+00
        -11   -1    0    0    0    0  0.00000000000E+00  0.00000000000E+00  0.45593999997E+02  0.45594000000E+02  0.51100000000E-03 0. -1.
         11   -1    0    0    0    0 -0.00000000000E+00 -0.00000000000E+00 -0.45593999997E+02  0.45594000000E+02  0.51100000000E-03 0.  1.
    9900012    2    1    2    0    0  0.38138355219E+00 -0.84699441076E+00 -0.72797788578E+00  0.90007828509E+02  0.90000091045E+02 0.  0.
         12    1    1    2    0    0 -0.38138355219E+00  0.84699441076E+00  0.72797788578E+00  0.11801714909E+01  0.00000000000E+00 0. -1.
         11    1    3    3    0    0 -0.25966770621E+02 -0.25428126216E+02 -0.19205307013E+02  0.41106040883E+02  0.51100000000E-03 0. -1.
        -11    1    3    3    0    0  0.97120516111E+01 -0.27849350365E+01 -0.27605714860E+01  0.10473803743E+02  0.51100000000E-03 0.  1.
        -12    1    3    3    0    0  0.16636102563E+02  0.27366066842E+02  0.21237900613E+02  0.38427983883E+02  0.00000000000E+00 0.  1.
</event>
<event>
 7    1  0.1501154E-015  0.9000774E+02  0.7816164E-02  0.1186339E+00
        -11   -1    0    0    0    0  0.00000000000E+00  0.00000000000E+00  0.45593999997E+02  0.45594000000E+02  0.51100000000E-03 0.  1.
         11   -1    0    0    0    0 -0.00000000000E+00 -0.00000000000E+00 -0.45593999997E+02  0.45594000000E+02  0.51100000000E-03 0. -1.
    9900012    2    1    2    0    0  0.64459405392E+00  0.19714708319E+00  0.96884216026E+00  0.90007735793E+02  0.89999997105E+02 0.  0.
         12    1    1    2    0    0 -0.64459405392E+00 -0.19714708319E+00 -0.96884216026E+00  0.11802642070E+01  0.00000000000E+00 0. -1.
         11    1    3    3    0    0 -0.10453696656E+01 -0.71164456811E+01 -0.73250638902E+01  0.10266116994E+02  0.51100000000E-03 0. -1.
        -11    1    3    3    0    0 -0.35894875067E+02 -0.10410949605E+02  0.34466737156E-01  0.37374203884E+02  0.51100000000E-03 0.  1.
         12    1    3    3    0    0  0.37584838787E+02  0.17724542369E+02  0.82594393133E+01  0.42367414915E+02  0.00000000000E+00 0. -1.
</event>
<event>
 7    1  0.1501154E-015  0.9000766E+02  0.7816164E-02  0.1186339E+00
        -11   -1    0    0    0    0  0.00000000000E+00  0.00000000000E+00  0.45593999997E+02  0.45594000000E+02  0.51100000000E-03 0.  1.
         11   -1    0    0    0    0 -0.00000000000E+00 -0.00000000000E+00 -0.45593999997E+02  0.45594000000E+02  0.51100000000E-03 0. -1.
    9900012    2    1    2    0    0  0.33051410730E+00 -0.11255205254E+01  0.13102049337E+00  0.90007660050E+02  0.89999920362E+02 0.  0.
         12    1    1    2    0    0 -0.33051410730E+00  0.11255205254E+01 -0.13102049337E+00  0.11803399502E+01  0.00000000000E+00 0. -1.
         11    1    3    3    0    0  0.30935687206E+02 -0.14734319198E+02 -0.78753259568E+01  0.35158749471E+02  0.51100000000E-03 0. -1.
        -11    1    3    3    0    0 -0.50968833792E+01 -0.43388410428E+01 -0.14778228466E+02  0.16223433626E+02  0.51100000000E-03 0.  1.
        -12    1    3    3    0    0 -0.25508289719E+02  0.17947639716E+02  0.22784574916E+02  0.38625476953E+02  0.00000000000E+00 0.  1.
</event>
<event>
 7    1  0.1501154E-015  0.9000776E+02  0.7816164E-02  0.1186339E+00
        -11   -1    0    0    0    0  0.00000000000E+00  0.00000000000E+00  0.45593999997E+02  0.45594000000E+02  0.51100000000E-03 0.  1.
         11   -1    0    0    0    0 -0.00000000000E+00 -0.00000000000E+00 -0.45593999997E+02  0.45594000000E+02  0.51100000000E-03 0. -1.
    9900012    2    1    2    0    0 -0.39771962031E+00  0.95749735044E+00  0.56389709151E+00  0.90007761887E+02  0.90000023544E+02 0.  0.
         12    1    1    2    0    0  0.39771962031E+00 -0.95749735044E+00 -0.56389709151E+00  0.11802381125E+01  0.00000000000E+00 0. -1.
         11    1    3    3    0    0  0.33526292619E+01 -0.23552842669E+02 -0.20350461803E+02  0.31306833385E+02  0.51100000000E-03 0. -1.
        -11    1    3    3    0    0  0.16055489853E+01 -0.73551479467E+01 -0.10970749859E+02  0.13305387691E+02  0.51100000000E-03 0.  1.
        -12    1    3    3    0    0 -0.53558978675E+01  0.31865487966E+02  0.31885108754E+02  0.45395540811E+02  0.00000000000E+00 0.  1.
</event>
<event>
 7    1  0.1501154E-015  0.9000776E+02  0.7816164E-02  0.1186339E+00
        -11   -1    0    0    0    0  0.00000000000E+00  0.00000000000E+00  0.45593999997E+02  0.45594000000E+02  0.51100000000E-03 0. -1.
         11   -1    0    0    0    0 -0.00000000000E+00 -0.00000000000E+00 -0.45593999997E+02  0.45594000000E+02  0.51100000000E-03 0.  1.
    9900012    2    1    2    0    0 -0.75411216121E+00 -0.34007576760E+00 -0.84180031948E+00  0.90007760847E+02  0.90000022491E+02 0.  0.
         12    1    1    2    0    0  0.75411216121E+00  0.34007576760E+00  0.84180031948E+00  0.11802391526E+01  0.00000000000E+00 0. -1.
         11    1    3    3    0    0 -0.22656121306E+02 -0.69022133665E+01 -0.31797252376E+02  0.39648526339E+02  0.51100000000E-03 0. -1.
        -11    1    3    3    0    0  0.61323091626E+01  0.35417408333E+00 -0.66855136626E+01  0.90789177847E+01  0.51100000000E-03 0.  1.
        -12    1    3    3    0    0  0.15769699982E+02  0.62079635156E+01  0.37640965719E+02  0.41280316723E+02  0.00000000000E+00 0.  1.
</event>
<event>
 7    1  0.1501154E-015  0.9000773E+02  0.7816164E-02  0.1186339E+00
        -11   -1    0    0    0    0  0.00000000000E+00  0.00000000000E+00  0.45593999997E+02  0.45594000000E+02  0.51100000000E-03 0. -1.
         11   -1    0    0    0    0 -0.00000000000E+00 -0.00000000000E+00 -0.45593999997E+02  0.45594000000E+02  0.51100000000E-03 0.  1.
    9900012    2    1    2    0    0 -0.10319996756E+01 -0.36034352781E+00  0.44516589534E+00  0.90007727378E+02  0.89999988579E+02 0.  0.
         12    1    1    2    0    0  0.10319996756E+01  0.36034352781E+00 -0.44516589534E+00  0.11802726222E+01  0.00000000000E+00 0. -1.
         11    1    3    3    0    0  0.99004416038E+01 -0.80184679677E+00 -0.43385494751E+01  0.10839036583E+02  0.51100000000E-03 0. -1.
        -11    1    3    3    0    0 -0.16728669425E+02 -0.30424019560E+02 -0.19179718682E+02  0.39665236113E+02  0.51100000000E-03 0.  1.
         12    1    3    3    0    0  0.57962281458E+01  0.30865522829E+02  0.23963434052E+02  0.39503454682E+02  0.00000000000E+00 0. -1.
</event>
<event>
 7    1  0.1501154E-015  0.9000779E+02  0.7816164E-02  0.1186339E+00
        -11   -1    0    0    0    0  0.00000000000E+00  0.00000000000E+00  0.45593999997E+02  0.45594000000E+02  0.51100000000E-03 0.  1.
         11   -1    0    0    0    0 -0.00000000000E+00 -0.00000000000E+00 -0.45593999997E+02  0.45594000000E+02  0.51100000000E-03 0. -1.
    9900012    2    1    2    0    0  0.78631506852E+00  0.10701251254E+00  0.87358829628E+00  0.90007788334E+02  0.90000050340E+02 0.  0.
         12    1    1    2    0    0 -0.78631506852E+00 -0.10701251254E+00 -0.87358829628E+00  0.11802116659E+01  0.00000000000E+00 0. -1.
         11    1    3    3    0    0 -0.38856221125E+02 -0.95724068946E+01 -0.12975676657E+02  0.42069051319E+02  0.51100000000E-03 0. -1.
        -11    1    3    3    0    0  0.42054212473E+01  0.76864680057E+01  0.81972392386E+01  0.11998420299E+02  0.51100000000E-03 0.  1.
        -12    1    3    3    0    0  0.35437114946E+02  0.19929514014E+01  0.56520257145E+01  0.35940316717E+02  0.00000000000E+00 0.  1.
</event>
<event>
 7    1  0.1501154E-015  0.9000744E+02  0.7816164E-02  0.1186340E+00
        -11   -1    0    0    0    0  0.00000000000E+00  0.00000000000E+00  0.45593999997E+02  0.45594000000E+02  0.51100000000E-03 0. -1.
         11   -1    0    0    0    0 -0.00000000000E+00 -0.00000000000E+00 -0.45593999997E+02  0.45594000000E+02  0.51100000000E-03 0.  1.
    9900012    2    1    2    0    0  0.59320607537E+00  0.47203299711E+00 -0.90499296581E+00  0.90007440444E+02  0.89999697857E+02 0.  0.
         12    1    1    2    0    0 -0.59320607537E+00 -0.47203299711E+00  0.90499296581E+00  0.11805595565E+01  0.00000000000E+00 0. -1.
         11    1    3    3    0    0  0.78714673509E+01  0.11777822970E+01  0.44517813665E+01  0.91195135282E+01  0.51100000000E-03 0. -1.
        -11    1    3    3    0    0 -0.22237713985E+02 -0.14207850696E+02 -0.35741615210E+02  0.44427941690E+02  0.51100000000E-03 0.  1.
         12    1    3    3    0    0  0.14959452710E+02  0.13502101396E+02  0.30384840878E+02  0.36459985226E+02  0.00000000000E+00 0. -1.
</event>
<event>
 7    1  0.1501154E-015  0.9000776E+02  0.7816164E-02  0.1186339E+00
        -11   -1    0    0    0    0  0.00000000000E+00  0.00000000000E+00  0.45593999997E+02  0.45594000000E+02  0.51100000000E-03 0.  1.
         11   -1    0    0    0    0 -0.00000000000E+00 -0.00000000000E+00 -0.45593999997E+02  0.45594000000E+02  0.51100000000E-03 0. -1.
    9900012    2    1    2    0    0 -0.11055585774E+01  0.27034725826E+00  0.31244914446E+00  0.90007757705E+02  0.90000019306E+02 0.  0.
         12    1    1    2    0    0  0.11055585774E+01 -0.27034725826E+00 -0.31244914446E+00  0.11802422955E+01  0.00000000000E+00 0. -1.
         11    1    3    3    0    0 -0.65768642477E+01 -0.79964182806E+01  0.58627455489E-01  0.10353805392E+02  0.51100000000E-03 0. -1.
        -11    1    3    3    0    0  0.98995292329E+01  0.98687249895E+01  0.38582752244E+02  0.41036827155E+02  0.51100000000E-03 0.  1.
         12    1    3    3    0    0 -0.44282235627E+01 -0.16019594506E+01 -0.38328930555E+02  0.38617125158E+02  0.00000000000E+00 0. -1.
</event>
<event>
 7    1  0.1501154E-015  0.9000774E+02  0.7816164E-02  0.1186339E+00
        -11   -1    0    0    0    0  0.00000000000E+00  0.00000000000E+00  0.45593999997E+02  0.45594000000E+02  0.51100000000E-03 0.  1.
         11   -1    0    0    0    0 -0.00000000000E+00 -0.00000000000E+00 -0.45593999997E+02  0.45594000000E+02  0.51100000000E-03 0. -1.
    9900012    2    1    2    0    0 -0.38600361789E+00  0.11139062047E+01 -0.56760957269E-01  0.90007742557E+02  0.90000003959E+02 0.  0.
         12    1    1    2    0    0  0.38600361789E+00 -0.11139062047E+01  0.56760957269E-01  0.11802574432E+01  0.00000000000E+00 0. -1.
         11    1    3    3    0    0 -0.20082373883E+02  0.25692248249E+01  0.36517153806E+02  0.41754103742E+02  0.51100000000E-03 0. -1.
        -11    1    3    3    0    0  0.11162577006E+02  0.31838416835E+01 -0.13158666191E+01  0.11682100775E+02  0.51100000000E-03 0.  1.
        -12    1    3    3    0    0  0.85337932587E+01 -0.46391603037E+01 -0.35258048144E+02  0.36571538040E+02  0.00000000000E+00 0.  1.
</event>
<event>
 7    1  0.1501154E-015  0.9000771E+02  0.7816164E-02  0.1186339E+00
        -11   -1    0    0    0    0  0.00000000000E+00  0.00000000000E+00  0.45593999997E+02  0.45594000000E+02  0.51100000000E-03 0. -1.
         11   -1    0    0    0    0 -0.00000000000E+00 -0.00000000000E+00 -0.45593999997E+02  0.45594000000E+02  0.51100000000E-03 0.  1.
    9900012    2    1    2    0    0  0.47740912067E+00 -0.83667998452E+00 -0.68200777165E+00  0.90007708737E+02  0.89999969692E+02 0.  0.
         12    1    1    2    0    0 -0.47740912067E+00  0.83667998452E+00  0.68200777165E+00  0.11802912630E+01  0.00000000000E+00 0. -1.
         11    1    3    3    0    0  0.47757401216E+01  0.24465693096E+01 -0.72273834081E+01  0.90015813213E+01  0.51100000000E-03 0. -1.
        -11    1    3    3    0    0  0.30286624034E+02  0.21204411145E+02 -0.44172170097E+01  0.37234640508E+02  0.51100000000E-03 0.  1.
         12    1    3    3    0    0 -0.34584955035E+02 -0.24487660439E+02  0.10962592646E+02  0.43771486907E+02  0.00000000000E+00 0. -1.
</event>
<event>
 7    1  0.1501154E-015  0.9000761E+02  0.7816164E-02  0.1186339E+00
        -11   -1    0    0    0    0  0.00000000000E+00  0.00000000000E+00  0.45593999997E+02  0.45594000000E+02  0.51100000000E-03 0.  1.
         11   -1    0    0    0    0 -0.00000000000E+00 -0.00000000000E+00 -0.45593999997E+02  0.45594000000E+02  0.51100000000E-03 0. -1.
    9900012    2    1    2    0    0  0.67352263399E+00 -0.38516293137E+00 -0.88957768433E+00  0.90007605287E+02  0.89999864877E+02 0.  0.
         12    1    1    2    0    0 -0.67352263399E+00  0.38516293137E+00  0.88957768433E+00  0.11803947131E+01  0.00000000000E+00 0. -1.
         11    1    3    3    0    0  0.98783228818E+01 -0.33759027988E+02  0.13586348958E+02  0.37707321729E+02  0.51100000000E-03 0. -1.
        -11    1    3    3    0    0 -0.80927716758E+01 -0.55172924425E+01  0.20870622728E+01  0.10014454478E+02  0.51100000000E-03 0.  1.
        -12    1    3    3    0    0 -0.11120285720E+01  0.38891157500E+02 -0.16562988915E+02  0.42285829080E+02  0.00000000000E+00 0.  1.
</event>
<event>
 7    1  0.1501154E-015  0.9000761E+02  0.7816164E-02  0.1186339E+00
        -11   -1    0    0    0    0  0.00000000000E+00  0.00000000000E+00  0.45593999997E+02  0.45594000000E+02  0.51100000000E-03 0.  1.
         11   -1    0    0    0    0 -0.00000000000E+00 -0.00000000000E+00 -0.45593999997E+02  0.45594000000E+02  0.51100000000E-03 0. -1.
    9900012    2    1    2    0    0 -0.36206387200E+00  0.14195815595E+00  0.11144883698E+01  0.90007607399E+02  0.89999867017E+02 0.  0.
         12    1    1    2    0    0  0.36206387200E+00 -0.14195815595E+00 -0.11144883698E+01  0.11803926007E+01  0.00000000000E+00 0. -1.
         11    1    3    3    0    0  0.99301510454E+01 -0.10483416373E+01 -0.13523475261E+01  0.10076495624E+02  0.51100000000E-03 0. -1.
        -11    1    3    3    0    0  0.32359712285E+02  0.90185194102E-01 -0.12537339474E+02  0.34703659661E+02  0.51100000000E-03 0.  1.
         12    1    3    3    0    0 -0.42651927202E+02  0.11001145992E+01  0.15004175370E+02  0.45227452114E+02  0.00000000000E+00 0. -1.
</event>
<event>
 7    1  0.1501154E-015  0.9000808E+02  0.7816164E-02  0.1186338E+00
        -11   -1    0    0    0    0  0.00000000000E+00  0.00000000000E+00  0.45593999997E+02  0.45594000000E+02  0.51100000000E-03 0.  1.
         11   -1    0    0    0    0 -0.00000000000E+00 -0.00000000000E+00 -0.45593999997E+02  0.45594000000E+02  0.51100000000E-03 0. -1.
    9900012    2    1    2    0    0  0.42950677346E+00  0.22561097206E+00  0.10755602782E+01  0.90008082083E+02  0.90000347966E+02 0.  0.
         12    1    1    2    0    0 -0.42950677346E+00 -0.22561097206E+00 -0.10755602782E+01  0.11799179172E+01  0.00000000000E+00 0. -1.
         11    1    3    3    0    0  0.24776325872E+02  0.23360328989E+02 -0.74866209727E+01  0.34865753800E+02  0.51100000000E-03 0. -1.
        -11    1    3    3    0    0  0.63757939333E+01  0.76998494212E+01 -0.23465271932E+01  0.10268623059E+02  0.51100000000E-03 0.  1.
        -12    1    3    3    0    0 -0.30722613032E+02 -0.30834567438E+02  0.10908708444E+02  0.44873705224E+02  0.00000000000E+00 0.  1.
</event>
<event>
 7    1  0.1501154E-015  0.9000784E+02  0.7816164E-02  0.1186339E+00
        -11   -1    0    0    0    0  0.00000000000E+00  0.00000000000E+00  0.45593999997E+02  0.45594000000E+02  0.51100000000E-03 0. -1.
         11   -1    0    0    0    0 -0.00000000000E+00 -0.00000000000E+00 -0.45593999997E+02  0.45594000000E+02  0.51100000000E-03 0.  1.
    9900012    2    1    2    0    0 -0.53127041066E+00 -0.43467682085E+00 -0.95998761932E+00  0.90007843901E+02  0.90000106641E+02 0.  0.
         12    1    1    2    0    0  0.53127041066E+00  0.43467682085E+00  0.95998761932E+00  0.11801560986E+01  0.00000000000E+00 0. -1.
         11    1    3    3    0    0 -0.21675239721E+01  0.43995120039E+01  0.99442147798E+01  0.11087888613E+02  0.51100000000E-03 0. -1.
        -11    1    3    3    0    0 -0.24255308306E+02 -0.13434500615E+02  0.22558516932E+02  0.35744824439E+02  0.51100000000E-03 0.  1.
         12    1    3    3    0    0  0.25891561867E+02  0.86003117899E+01 -0.33462719331E+02  0.43175130849E+02  0.00000000000E+00 0. -1.
</event>
<event>
 7    1  0.1501154E-015  0.9000792E+02  0.7816164E-02  0.1186339E+00
        -11   -1    0    0    0    0  0.00000000000E+00  0.00000000000E+00  0.45593999997E+02  0.45594000000E+02  0.51100000000E-03 0.  1.
         11   -1    0    0    0    0 -0.00000000000E+00 -0.00000000000E+00 -0.45593999997E+02  0.45594000000E+02  0.51100000000E-03 0. -1.
    9900012    2    1    2    0    0  0.99129640901E+00 -0.50649450077E+00  0.39164865155E+00  0.90007917835E+02  0.90000181550E+02 0.  0.
         12    1    1    2    0    0 -0.99129640901E+00  0.50649450077E+00 -0.39164865155E+00  0.11800821650E+01  0.00000000000E+00 0. -1.
         11    1    3    3    0    0  0.32103947643E+01  0.19194877430E+01 -0.10597523967E+02  0.11238264200E+02  0.51100000000E-03 0. -1.
        -11    1    3    3    0    0 -0.40007145073E+02  0.12889110464E+01  0.58600202896E+01  0.40454576832E+02  0.51100000000E-03 0.  1.
         12    1    3    3    0    0  0.37788046717E+02 -0.37148932901E+01  0.51291523285E+01  0.38315076804E+02  0.00000000000E+00 0. -1.
</event>
<event>
 7    1  0.1501154E-015  0.9000777E+02  0.7816164E-02  0.1186339E+00
        -11   -1    0    0    0    0  0.00000000000E+00  0.00000000000E+00  0.45593999997E+02  0.45594000000E+02  0.51100000000E-03 0.  1.
         11   -1    0    0    0    0 -0.00000000000E+00 -0.00000000000E+00 -0.45593999997E+02  0.45594000000E+02  0.51100000000E-03 0. -1.
    9900012    2    1    2    0    0 -0.89173781882E+00  0.38507078927E+00 -0.67041944871E+00  0.90007772019E+02  0.90000033809E+02 0.  0.
         12    1    1    2    0    0  0.89173781882E+00 -0.38507078927E+00  0.67041944871E+00  0.11802279811E+01  0.00000000000E+00 0. -1.
         11    1    3    3    0    0  0.19851573357E+02 -0.33995541037E+02 -0.18309250954E+01  0.39409821899E+02  0.51100000000E-03 0. -1.
        -11    1    3    3    0    0 -0.75299262366E+01 -0.42348892924E+01 -0.38872629383E+01  0.94733779541E+01  0.51100000000E-03 0.  1.
        -12    1    3    3    0    0 -0.13213384939E+02  0.38615501118E+02  0.50477685850E+01  0.41124572166E+02  0.00000000000E+00 0.  1.
</event>
<event>
 7    1  0.1501154E-015  0.9000776E+02  0.7816164E-02  0.1186339E+00
        -11   -1    0    0    0    0  0.00000000000E+00  0.00000000000E+00  0.45593999997E+02  0.45594000000E+02  0.51100000000E-03 0.  1.
         11   -1    0    0    0    0 -0.00000000000E+00 -0.00000000000E+00 -0.45593999997E+02  0.45594000000E+02  0.51100000000E-03 0. -1.
    9900012    2    1    2    0    0  0.21739623594E+00  0.98014804437E+00 -0.62049772665E+00  0.90007759033E+02  0.90000020652E+02 0.  0.
         12    1    1    2    0    0 -0.21739623594E+00 -0.98014804437E+00  0.62049772665E+00  0.11802409674E+01  0.00000000000E+00 0. -1.
         11    1    3    3    0    0  0.76735989293E+01 -0.37188892203E+01 -0.55967422322E+01  0.10199891246E+02  0.51100000000E-03 0. -1.
        -11    1    3    3    0    0  0.10931919987E+02 -0.15468381299E+02  0.34651629719E+02  0.39490671520E+02  0.51100000000E-03 0.  1.
         12    1    3    3    0    0 -0.18388122681E+02  0.20167418564E+02 -0.29675385213E+02  0.40317196267E+02  0.00000000000E+00 0. -1.
</event>
<event>
 7    1  0.1501154E-015  0.9000746E+02  0.7816164E-02  0.1186340E+00
        -11   -1    0    0    0    0  0.00000000000E+00  0.00000000000E+00  0.45593999997E+02  0.45594000000E+02  0.51100000000E-03 0.  1.
         11   -1    0    0    0    0 -0.00000000000E+00 -0.00000000000E+00 -0.45593999997E+02  0.45594000000E+02  0.51100000000E-03 0. -1.
    9900012    2    1    2    0    0  0.36077698621E+00 -0.67437956846E+00  0.89929290260E+00  0.90007459632E+02  0.89999717299E+02 0.  0.
         12    1    1    2    0    0 -0.36077698621E+00  0.67437956846E+00 -0.89929290260E+00  0.11805403681E+01  0.00000000000E+00 0. -1.
         11    1    3    3    0    0  0.47604403531E+01  0.88645001740E+01  0.29152990745E+01  0.10475692084E+02  0.51100000000E-03 0. -1.
        -11    1    3    3    0    0  0.20475345064E+02 -0.36963939962E+02 -0.40539731048E+01  0.42450056669E+02  0.51100000000E-03 0.  1.
         12    1    3    3    0    0 -0.24875008431E+02  0.27425060219E+02  0.20379669329E+01  0.37081710879E+02  0.00000000000E+00 0. -1.
</event>
<event>
 7    1  0.1501154E-015  0.9000785E+02  0.7816164E-02  0.1186339E+00
        -11   -1    0    0    0    0  0.00000000000E+00  0.00000000000E+00  0.45593999997E+02  0.45594000000E+02  0.51100000000E-03 0.  1.
         11   -1    0    0    0    0 -0.00000000000E+00 -0.00000000000E+00 -0.45593999997E+02  0.45594000000E+02  0.51100000000E-03 0. -1.
    9900012    2    1    2    0    0 -0.78979774180E+00  0.28024153430E-01  0.87646107728E+00  0.90007851769E+02  0.90000114613E+02 0.  0.
         12    1    1    2    0    0  0.78979774180E+00 -0.28024153430E-01 -0.87646107728E+00  0.11801482306E+01  0.00000000000E+00 0. -1.
         11    1    3    3    0    0 -0.11771248149E+02 -0.74426658684E+01  0.22751213381E+02  0.26675330715E+02  0.51100000000E-03 0. -1.
        -11    1    3    3    0    0 -0.15231199363E+02 -0.17342485047E+02 -0.56707293429E+01  0.23767801606E+02  0.51100000000E-03 0.  1.
         12    1    3    3    0    0  0.26212649770E+02  0.24813175069E+02 -0.16204022961E+02  0.39564719449E+02  0.00000000000E+00 0. -1.
</event>
<event>
 7    1  0.1501154E-015  0.9000828E+02  0.7816164E-02  0.1186338E+00
        -11   -1    0    0    0    0  0.00000000000E+00  0.00000000000E+00  0.45593999997E+02  0.45594000000E+02  0.51100000000E-03 0. -1.
         11   -1    0    0    0    0 -0.00000000000E+00 -0.00000000000E+00 -0.45593999997E+02  0.45594000000E+02  0.51100000000E-03 0.  1.
    9900012    2    1    2    0    0 -0.22154596009E+00  0.63614608116E-03 -0.11587309330E+01  0.90008279528E+02  0.90000548016E+02 0.  0.
         12    1    1    2    0    0  0.22154596009E+00 -0.63614608116E-03  0.11587309330E+01  0.11797204721E+01  0.00000000000E+00 0. -1.
         11    1    3    3    0    0 -0.28135636960E+02  0.15176680604E+02  0.16536599559E+02  0.35991732753E+02  0.51100000000E-03 0. -1.
        -11    1    3    3    0    0 -0.52139070433E+01  0.28949852925E+00  0.78412916301E+01  0.94209601816E+01  0.51100000000E-03 0.  1.
        -12    1    3    3    0    0  0.33127998043E+02 -0.15465542988E+02 -0.25536622122E+02  0.44595586594E+02  0.00000000000E+00 0.  1.
</event>
<event>
 7    1  0.1501154E-015  0.9000768E+02  0.7816164E-02  0.1186339E+00
        -11   -1    0    0    0    0  0.00000000000E+00  0.00000000000E+00  0.45593999997E+02  0.45594000000E+02  0.51100000000E-03 0. -1.
         11   -1    0    0    0    0 -0.00000000000E+00 -0.00000000000E+00 -0.45593999997E+02  0.45594000000E+02  0.51100000000E-03 0.  1.
    9900012    2    1    2    0    0 -0.89162343105E+00  0.77201543887E+00 -0.46325421758E-01  0.90007683845E+02  0.89999944472E+02 0.  0.
         12    1    1    2    0    0  0.89162343105E+00 -0.77201543887E+00  0.46325421758E-01  0.11803161548E+01  0.00000000000E+00 0. -1.
         11    1    3    3    0    0  0.85127416909E+01  0.17333763997E+01  0.44027465468E+01  0.97393809996E+01  0.51100000000E-03 0. -1.
        -11    1    3    3    0    0  0.16034040615E+02  0.95424441271E+01 -0.34683265780E+02  0.39383722828E+02  0.51100000000E-03 0.  1.
         12    1    3    3    0    0 -0.25438405737E+02 -0.10503805088E+02  0.30234193812E+02  0.40884580017E+02  0.00000000000E+00 0. -1.
</event>
<event>
 7    1  0.1501154E-015  0.9000771E+02  0.7816164E-02  0.1186339E+00
        -11   -1    0    0    0    0  0.00000000000E+00  0.00000000000E+00  0.45593999997E+02  0.45594000000E+02  0.51100000000E-03 0.  1.
         11   -1    0    0    0    0 -0.00000000000E+00 -0.00000000000E+00 -0.45593999997E+02  0.45594000000E+02  0.51100000000E-03 0. -1.
    9900012    2    1    2    0    0 -0.71375568201E+00 -0.62731591594E+00  0.70007166054E+00  0.90007714966E+02  0.89999976003E+02 0.  0.
         12    1    1    2    0    0  0.71375568201E+00  0.62731591594E+00 -0.70007166054E+00  0.11802850342E+01  0.00000000000E+00 0. -1.
         11    1    3    3    0    0 -0.47139501260E+01 -0.10645067309E+01  0.86064814208E+01  0.98704621512E+01  0.51100000000E-03 0. -1.
        -11    1    3    3    0    0  0.25920089213E+02  0.31363370686E+02  0.26919043617E+01  0.40776934595E+02  0.51100000000E-03 0.  1.
         12    1    3    3    0    0 -0.21919894769E+02 -0.30926179871E+02 -0.10598314122E+02  0.39360318220E+02  0.00000000000E+00 0. -1.
</event>
<event>
 7    1  0.1501154E-015  0.9000777E+02  0.7816164E-02  0.1186339E+00
        -11   -1    0    0    0    0  0.00000000000E+00  0.00000000000E+00  0.45593999997E+02  0.45594000000E+02  0.51100000000E-03 0.  1.
         11   -1    0    0    0    0 -0.00000000000E+00 -0.00000000000E+00 -0.45593999997E+02  0.45594000000E+02  0.51100000000E-03 0. -1.
    9900012    2    1    2    0    0  0.10752714095E+01  0.39965053535E+00  0.27750229264E+00  0.90007772616E+02  0.90000034415E+02 0.  0.
         12    1    1    2    0    0 -0.10752714095E+01 -0.39965053535E+00 -0.27750229264E+00  0.11802273836E+01  0.00000000000E+00 0. -1.
         11    1    3    3    0    0 -0.54415730735E+01 -0.73875477658E+01 -0.30023298099E+01  0.96540439224E+01  0.51100000000E-03 0. -1.
        -11    1    3    3    0    0  0.23620339799E+02 -0.88044657326E+00  0.35624466971E+02  0.42752757637E+02  0.51100000000E-03 0.  1.
         12    1    3    3    0    0 -0.17103495316E+02  0.86676448744E+01 -0.32344634868E+02  0.37600971057E+02  0.00000000000E+00 0. -1.
</event>
<event>
 7    1  0.1501154E-015  0.9000795E+02  0.7816164E-02  0.1186339E+00
        -11   -1    0    0    0    0  0.00000000000E+00  0.00000000000E+00  0.45593999997E+02  0.45594000000E+02  0.51100000000E-03 0.  1.
         11   -1    0    0    0    0 -0.00000000000E+00 -0.00000000000E+00 -0.45593999997E+02  0.45594000000E+02  0.51100000000E-03 0. -1.
    9900012    2    1    2    0    0  0.87199787325E+00  0.68841744905E+00 -0.39777404482E+00  0.90007947855E+02  0.90000211966E+02 0.  0.
         12    1    1    2    0    0 -0.87199787325E+00 -0.68841744905E+00  0.39777404482E+00  0.11800521454E+01  0.00000000000E+00 0. -1.
         11    1    3    3    0    0  0.32384439440E+01  0.31618341083E+01  0.89390743523E+01  0.10019569085E+02  0.51100000000E-03 0. -1.
        -11    1    3    3    0    0  0.39856576472E+01 -0.40431058244E+02 -0.84288981483E+01  0.41492195193E+02  0.51100000000E-03 0.  1.
         12    1    3    3    0    0 -0.63521037180E+01  0.37957641585E+02 -0.90795024886E+00  0.38496183577E+02  0.00000000000E+00 0. -1.
</event>
<event>
 7    1  0.1501154E-015  0.9000742E+02  0.7816164E-02  0.1186340E+00
        -11   -1    0    0    0    0  0.00000000000E+00  0.00000000000E+00  0.45593999997E+02  0.45594000000E+02  0.51100000000E-03 0.  1.
         11   -1    0    0    0    0 -0.00000000000E+00 -0.00000000000E+00 -0.45593999997E+02  0.45594000000E+02  0.51100000000E-03 0. -1.
    9900012    2    1    2    0    0 -0.74210589477E+00 -0.28358451530E+00  0.87328594523E+00  0.90007419770E+02  0.89999676911E+02 0.  0.
         12    1    1    2    0    0  0.74210589477E+00  0.28358451530E+00 -0.87328594523E+00  0.11805802296E+01  0.00000000000E+00 0. -1.
         11    1    3    3    0    0  0.33410509986E+01 -0.19406951092E+02 -0.27453878212E+02  0.33786207269E+02  0.51100000000E-03 0. -1.
        -11    1    3    3    0    0  0.61783798644E+00 -0.45138017527E+01 -0.99759346378E+01  0.10967014279E+02  0.51100000000E-03 0.  1.
        -12    1    3    3    0    0 -0.47009948798E+01  0.23637168329E+02  0.38303098795E+02  0.45254198223E+02  0.00000000000E+00 0.  1.
</event>
<event>
 7    1  0.1501154E-015  0.9000770E+02  0.7816164E-02  0.1186339E+00
        -11   -1    0    0    0    0  0.00000000000E+00  0.00000000000E+00  0.45593999997E+02  0.45594000000E+02  0.51100000000E-03 0. -1.
         11   -1    0    0    0    0 -0.00000000000E+00 -0.00000000000E+00 -0.45593999997E+02  0.45594000000E+02  0.51100000000E-03 0.  1.
    9900012    2    1    2    0    0  0.71821267092E+00 -0.93661927461E+00  0.38565037113E-02  0.90007703436E+02  0.89999964321E+02 0.  0.
         12    1    1    2    0    0 -0.71821267092E+00  0.93661927461E+00 -0.38565037113E-02  0.11802965639E+01  0.00000000000E+00 0. -1.
         11    1    3    3    0    0 -0.71260622273E+01 -0.12533967483E+02  0.62050896732E+01  0.15696631545E+02  0.51100000000E-03 0. -1.
        -11    1    3    3    0    0 -0.23717674879E+02  0.69780181691E+01  0.20962752446E+02  0.32413852434E+02  0.51100000000E-03 0.  1.
         12    1    3    3    0    0  0.31561949777E+02  0.46193300396E+01 -0.27163985616E+02  0.41897219457E+02  0.00000000000E+00 0. -1.
</event>
<event>
 7    1  0.1501154E-015  0.9000771E+02  0.7816164E-02  0.1186339E+00
        -11   -1    0    0    0    0  0.00000000000E+00  0.00000000000E+00  0.45593999997E+02  0.45594000000E+02  0.51100000000E-03 0.  1.
         11   -1    0    0    0    0 -0.00000000000E+00 -0.00000000000E+00 -0.45593999997E+02  0.45594000000E+02  0.51100000000E-03 0. -1.
    9900012    2    1    2    0    0  0.83689001576E+00 -0.33628963914E+00  0.76132535663E+00  0.90007706851E+02  0.89999967781E+02 0.  0.
         12    1    1    2    0    0 -0.83689001576E+00  0.33628963914E+00 -0.76132535663E+00  0.11802931494E+01  0.00000000000E+00 0. -1.
         11    1    3    3    0    0  0.18855883011E+02  0.24272774910E+02 -0.11751032861E+02  0.32905906757E+02  0.51100000000E-03 0. -1.
        -11    1    3    3    0    0 -0.32826428165E+01  0.11056135660E+02  0.14420142478E+02  0.18464950282E+02  0.51100000000E-03 0.  1.
        -12    1    3    3    0    0 -0.14736350179E+02 -0.35665200209E+02 -0.19077842601E+01  0.38636849811E+02  0.00000000000E+00 0.  1.
</event>
<event>
 7    1  0.1501154E-015  0.9000787E+02  0.7816164E-02  0.1186339E+00
        -11   -1    0    0    0    0  0.00000000000E+00  0.00000000000E+00  0.45593999997E+02  0.45594000000E+02  0.51100000000E-03 0.  1.
         11   -1    0    0    0    0 -0.00000000000E+00 -0.00000000000E+00 -0.45593999997E+02  0.45594000000E+02  0.51100000000E-03 0. -1.
    9900012    2    1    2    0    0  0.84496664779E+00 -0.12885005872E+00  0.81371247188E+00  0.90007873329E+02  0.90000136456E+02 0.  0.
         12    1    1    2    0    0 -0.84496664779E+00  0.12885005872E+00 -0.81371247188E+00  0.11801266713E+01  0.00000000000E+00 0. -1.
         11    1    3    3    0    0 -0.47632375503E+01 -0.43027312306E+01 -0.74624188375E+01  0.98432526723E+01  0.51100000000E-03 0. -1.
        -11    1    3    3    0    0  0.16255006412E+01 -0.34218798339E+02  0.20195871476E+02  0.39767343851E+02  0.51100000000E-03 0.  1.
         12    1    3    3    0    0  0.39827035570E+01  0.38392679511E+02 -0.11919740166E+02  0.40397276805E+02  0.00000000000E+00 0. -1.
</event>
<event>
 7    1  0.1501154E-015  0.9000753E+02  0.7816164E-02  0.1186339E+00
        -11   -1    0    0    0    0  0.00000000000E+00  0.00000000000E+00  0.45593999997E+02  0.45594000000E+02  0.51100000000E-03 0. -1.
         11   -1    0    0    0    0 -0.00000000000E+00 -0.00000000000E+00 -0.45593999997E+02  0.45594000000E+02  0.51100000000E-03 0.  1.
    9900012    2    1    2    0    0 -0.50038345721E-01 -0.10230846237E+01 -0.58677652288E+00  0.90007528623E+02  0.89999787201E+02 0.  0.
         12    1    1    2    0    0  0.50038345721E-01  0.10230846237E+01  0.58677652288E+00  0.11804713767E+01  0.00000000000E+00 0. -1.
         11    1    3    3    0    0  0.50607657873E+01 -0.72063728189E+01  0.45598299066E+01  0.99164110744E+01  0.51100000000E-03 0. -1.
        -11    1    3    3    0    0  0.52620835617E+01  0.13581042941E+02 -0.40219676175E+02  0.42775654322E+02  0.51100000000E-03 0.  1.
         12    1    3    3    0    0 -0.10372887695E+02 -0.73977547461E+01  0.35073069746E+02  0.37315463227E+02  0.00000000000E+00 0. -1.
</event>
<event>
 7    1  0.1501154E-015  0.9000773E+02  0.7816164E-02  0.1186339E+00
        -11   -1    0    0    0    0  0.00000000000E+00  0.00000000000E+00  0.45593999997E+02  0.45594000000E+02  0.51100000000E-03 0.  1.
         11   -1    0    0    0    0 -0.00000000000E+00 -0.00000000000E+00 -0.45593999997E+02  0.45594000000E+02  0.51100000000E-03 0. -1.
    9900012    2    1    2    0    0 -0.32389624611E+00 -0.11306862766E+01 -0.98385633392E-01  0.90007728859E+02  0.89999990080E+02 0.  0.
         12    1    1    2    0    0  0.32389624611E+00  0.11306862766E+01  0.98385633392E-01  0.11802711414E+01  0.00000000000E+00 0. -1.
         11    1    3    3    0    0  0.64030306917E+01 -0.51322692824E+01 -0.34524895112E+01  0.89027340807E+01  0.51100000000E-03 0. -1.
        -11    1    3    3    0    0  0.21865368786E+02 -0.28020252258E+02 -0.85499958872E+01  0.36555865722E+02  0.51100000000E-03 0.  1.
         12    1    3    3    0    0 -0.28592295724E+02  0.32021835264E+02  0.11904099765E+02  0.44549129056E+02  0.00000000000E+00 0. -1.
</event>
<event>
 7    1  0.1501154E-015  0.9000771E+02  0.7816164E-02  0.1186339E+00
        -11   -1    0    0    0    0  0.00000000000E+00  0.00000000000E+00  0.45593999997E+02  0.45594000000E+02  0.51100000000E-03 0. -1.
         11   -1    0    0    0    0 -0.00000000000E+00 -0.00000000000E+00 -0.45593999997E+02  0.45594000000E+02  0.51100000000E-03 0.  1.
    9900012    2    1    2    0    0 -0.71599137395E+00 -0.65338711445E+00 -0.67344104390E+00  0.90007711388E+02  0.89999972378E+02 0.  0.
         12    1    1    2    0    0  0.71599137395E+00  0.65338711445E+00  0.67344104390E+00  0.11802886124E+01  0.00000000000E+00 0. -1.
         11    1    3    3    0    0  0.28040931572E+02  0.37439186358E+01  0.17062495878E+02  0.33036941990E+02  0.51100000000E-03 0. -1.
        -11    1    3    3    0    0  0.23278621235E+01  0.50154691132E+01  0.11824838375E+02  0.13053760966E+02  0.51100000000E-03 0.  1.
        -12    1    3    3    0    0 -0.31084785070E+02 -0.94127748635E+01 -0.29560775297E+02  0.43917008432E+02  0.00000000000E+00 0.  1.
</event>
<event>
 7    1  0.1501154E-015  0.9000772E+02  0.7816164E-02  0.1186339E+00
        -11   -1    0    0    0    0  0.00000000000E+00  0.00000000000E+00  0.45593999997E+02  0.45594000000E+02  0.51100000000E-03 0. -1.
         11   -1    0    0    0    0 -0.00000000000E+00 -0.00000000000E+00 -0.45593999997E+02  0.45594000000E+02  0.51100000000E-03 0.  1.
    9900012    2    1    2    0    0  0.18365183078E+00 -0.11568925006E+01  0.14467847804E+00  0.90007720323E+02  0.89999981432E+02 0.  0.
         12    1    1    2    0    0 -0.18365183078E+00  0.11568925006E+01 -0.14467847804E+00  0.11802796766E+01  0.00000000000E+00 0. -1.
         11    1    3    3    0    0 -0.29904699572E+02 -0.62770222925E+01  0.18662123674E+02  0.35804565710E+02  0.51100000000E-03 0. -1.
        -11    1    3    3    0    0 -0.73517176345E+01 -0.30679407537E+00  0.56798130981E+01  0.92952757825E+01  0.51100000000E-03 0.  1.
        -12    1    3    3    0    0  0.37440069037E+02  0.54269238672E+01 -0.24197258294E+02  0.44907878831E+02  0.00000000000E+00 0.  1.
</event>
<event>
 7    1  0.1501154E-015  0.9000767E+02  0.7816164E-02  0.1186339E+00
        -11   -1    0    0    0    0  0.00000000000E+00  0.00000000000E+00  0.45593999997E+02  0.45594000000E+02  0.51100000000E-03 0.  1.
         11   -1    0    0    0    0 -0.00000000000E+00 -0.00000000000E+00 -0.45593999997E+02  0.45594000000E+02  0.51100000000E-03 0. -1.
    9900012    2    1    2    0    0 -0.25853276185E+00 -0.81280848209E+00  0.81588786813E+00  0.90007673846E+02  0.89999934340E+02 0.  0.
         12    1    1    2    0    0  0.25853276185E+00  0.81280848209E+00 -0.81588786813E+00  0.11803261544E+01  0.00000000000E+00 0. -1.
         11    1    3    3    0    0 -0.18741036401E+01  0.74747753511E+01 -0.49722999731E+00  0.77221608980E+01  0.51100000000E-03 0. -1.
        -11    1    3    3    0    0 -0.81909781910E+01  0.20833717783E+02  0.31872462002E+02  0.38948552665E+02  0.51100000000E-03 0.  1.
         12    1    3    3    0    0  0.98065490692E+01 -0.29121301616E+02 -0.30559344136E+02  0.43336960282E+02  0.00000000000E+00 0. -1.
</event>
<event>
 7    1  0.1501154E-015  0.9000770E+02  0.7816164E-02  0.1186339E+00
        -11   -1    0    0    0    0  0.00000000000E+00  0.00000000000E+00  0.45593999997E+02  0.45594000000E+02  0.51100000000E-03 0.  1.
         11   -1    0    0    0    0 -0.00000000000E+00 -0.00000000000E+00 -0.45593999997E+02  0.45594000000E+02  0.51100000000E-03 0. -1.
    9900012    2    1    2    0    0  0.32871731929E-01 -0.11689611369E+01 -0.15987696943E+00  0.90007698625E+02  0.89999959447E+02 0.  0.
         12    1    1    2    0    0 -0.32871731929E-01  0.11689611369E+01  0.15987696943E+00  0.11803013749E+01  0.00000000000E+00 0. -1.
         11    1    3    3    0    0  0.10814978200E+02 -0.47935499325E+01  0.32324410788E+01  0.12263382487E+02  0.51100000000E-03 0. -1.
        -11    1    3    3    0    0  0.31685819172E+02 -0.96735257499E+01 -0.26728479012E+01  0.33237213379E+02  0.51100000000E-03 0.  1.
         12    1    3    3    0    0 -0.42467925641E+02  0.13298114546E+02 -0.71947014703E+00  0.44507102759E+02  0.00000000000E+00 0. -1.
</event>
<event>
 7    1  0.1501154E-015  0.9000771E+02  0.7816164E-02  0.1186339E+00
        -11   -1    0    0    0    0  0.00000000000E+00  0.00000000000E+00  0.45593999997E+02  0.45594000000E+02  0.51100000000E-03 0.  1.
         11   -1    0    0    0    0 -0.00000000000E+00 -0.00000000000E+00 -0.45593999997E+02  0.45594000000E+02  0.51100000000E-03 0. -1.
    9900012    2    1    2    0    0  0.10587179751E+01  0.45417446943E+00  0.25675106709E+00  0.90007712192E+02  0.89999973193E+02 0.  0.
         12    1    1    2    0    0 -0.10587179751E+01 -0.45417446943E+00 -0.25675106709E+00  0.11802878081E+01  0.00000000000E+00 0. -1.
         11    1    3    3    0    0 -0.59629474549E+00  0.41712155480E+01 -0.94997176309E+01  0.10392268371E+02  0.51100000000E-03 0. -1.
        -11    1    3    3    0    0 -0.11673695730E+02 -0.80981546664E+00  0.42532938090E+02  0.44113283668E+02  0.51100000000E-03 0.  1.
         12    1    3    3    0    0  0.13328708450E+02 -0.29072256119E+01 -0.32776469392E+02  0.35502160153E+02  0.00000000000E+00 0. -1.
</event>
<event>
 7    1  0.1501154E-015  0.9000769E+02  0.7816164E-02  0.1186339E+00
        -11   -1    0    0    0    0  0.00000000000E+00  0.00000000000E+00  0.45593999997E+02  0.45594000000E+02  0.51100000000E-03 0.  1.
         11   -1    0    0    0    0 -0.00000000000E+00 -0.00000000000E+00 -0.45593999997E+02  0.45594000000E+02  0.51100000000E-03 0. -1.
    9900012    2    1    2    0    0 -0.54901781057E+00  0.92300263281E+00  0.48967473384E+00  0.90007688278E+02  0.89999948963E+02 0.  0.
         12    1    1    2    0    0  0.54901781057E+00 -0.92300263281E+00 -0.48967473384E+00  0.11803117222E+01  0.00000000000E+00 0. -1.
         11    1    3    3    0    0 -0.53365123572E+01  0.26702532129E+01  0.74212959707E+01  0.95228278629E+01  0.51100000000E-03 0. -1.
        -11    1    3    3    0    0  0.76821071538E+01  0.32608343494E+02  0.17912147148E+02  0.37988996453E+02  0.51100000000E-03 0.  1.
         12    1    3    3    0    0 -0.28946126072E+01 -0.34355594074E+02 -0.24843768385E+02  0.42495863962E+02  0.00000000000E+00 0. -1.
</event>
<event>
 7    1  0.1501154E-015  0.9000769E+02  0.7816164E-02  0.1186339E+00
        -11   -1    0    0    0    0  0.00000000000E+00  0.00000000000E+00  0.45593999997E+02  0.45594000000E+02  0.51100000000E-03 0.  1.
         11   -1    0    0    0    0 -0.00000000000E+00 -0.00000000000E+00 -0.45593999997E+02  0.45594000000E+02  0.51100000000E-03 0. -1.
    9900012    2    1    2    0    0 -0.32211871398E+00  0.56042313215E+00  0.98757621768E+00  0.90007685915E+02  0.89999946569E+02 0.  0.
         12    1    1    2    0    0  0.32211871398E+00 -0.56042313215E+00 -0.98757621768E+00  0.11803140848E+01  0.00000000000E+00 0. -1.
         11    1    3    3    0    0 -0.47689559750E+00 -0.17236407426E+02 -0.59268128942E+01  0.18233164336E+02  0.51100000000E-03 0. -1.
        -11    1    3    3    0    0 -0.17808983141E+02 -0.21683368072E+02  0.31858778321E+01  0.28239655616E+02  0.51100000000E-03 0.  1.
         12    1    3    3    0    0  0.17963760025E+02  0.39480198630E+02  0.37285112798E+01  0.43534865963E+02  0.00000000000E+00 0. -1.
</event>
<event>
 7    1  0.1501154E-015  0.9000770E+02  0.7816164E-02  0.1186339E+00
        -11   -1    0    0    0    0  0.00000000000E+00  0.00000000000E+00  0.45593999997E+02  0.45594000000E+02  0.51100000000E-03 0.  1.
         11   -1    0    0    0    0 -0.00000000000E+00 -0.00000000000E+00 -0.45593999997E+02  0.45594000000E+02  0.51100000000E-03 0. -1.
    9900012    2    1    2    0    0  0.65885209659E+00 -0.50077295719E+00  0.84157807904E+00  0.90007697792E+02  0.89999958603E+02 0.  0.
         12    1    1    2    0    0 -0.65885209659E+00  0.50077295719E+00 -0.84157807904E+00  0.11803022083E+01  0.00000000000E+00 0. -1.
         11    1    3    3    0    0  0.26682617915E+01  0.11554199229E+02 -0.31334455083E+01  0.12265301538E+02  0.51100000000E-03 0. -1.
        -11    1    3    3    0    0 -0.38316675349E+01  0.32028962084E+02  0.85861841934E+01  0.33380512991E+02  0.51100000000E-03 0.  1.
         12    1    3    3    0    0  0.18222578400E+01 -0.44083934271E+02 -0.46111606060E+01  0.44361883262E+02  0.00000000000E+00 0. -1.
</event>
<event>
 7    1  0.1501154E-015  0.9000773E+02  0.7816164E-02  0.1186339E+00
        -11   -1    0    0    0    0  0.00000000000E+00  0.00000000000E+00  0.45593999997E+02  0.45594000000E+02  0.51100000000E-03 0. -1.
         11   -1    0    0    0    0 -0.00000000000E+00 -0.00000000000E+00 -0.45593999997E+02  0.45594000000E+02  0.51100000000E-03 0.  1.
    9900012    2    1    2    0    0 -0.81645421448E+00  0.83688551064E+00 -0.16145186953E+00  0.90007728189E+02  0.89999989401E+02 0.  0.
         12    1    1    2    0    0  0.81645421448E+00 -0.83688551064E+00  0.16145186953E+00  0.11802718112E+01  0.00000000000E+00 0. -1.
         11    1    3    3    0    0  0.22678958379E+02  0.10722347663E+02  0.28109486148E+02  0.37675550485E+02  0.51100000000E-03 0. -1.
        -11    1    3    3    0    0 -0.20813190577E+01 -0.45706243215E+01  0.82531527393E+01  0.96611089481E+01  0.51100000000E-03 0.  1.
        -12    1    3    3    0    0 -0.21414093536E+02 -0.53148378314E+01 -0.36524090757E+02  0.42671068756E+02  0.00000000000E+00 0.  1.
</event>
<event>
 7    1  0.1501154E-015  0.9000770E+02  0.7816164E-02  0.1186339E+00
        -11   -1    0    0    0    0  0.00000000000E+00  0.00000000000E+00  0.45593999997E+02  0.45594000000E+02  0.51100000000E-03 0.  1.
         11   -1    0    0    0    0 -0.00000000000E+00 -0.00000000000E+00 -0.45593999997E+02  0.45594000000E+02  0.51100000000E-03 0. -1.
    9900012    2    1    2    0    0  0.38319878238E-02  0.11251630958E+01 -0.35649748985E+00  0.90007704640E+02  0.89999965541E+02 0.  0.
         12    1    1    2    0    0 -0.38319878238E-02 -0.11251630958E+01  0.35649748985E+00  0.11802953599E+01  0.00000000000E+00 0. -1.
         11    1    3    3    0    0  0.25560555828E+01 -0.51784873986E+01  0.71018727718E+01  0.91535102014E+01  0.51100000000E-03 0. -1.
        -11    1    3    3    0    0 -0.98927844075E+01  0.27197003108E+02  0.27205634191E+02  0.39720154750E+02  0.51100000000E-03 0.  1.
         12    1    3    3    0    0  0.73405608125E+01 -0.20893352613E+02 -0.34664004452E+02  0.41134039689E+02  0.00000000000E+00 0. -1.
</event>
<event>
 7    1  0.1501154E-015  0.9000779E+02  0.7816164E-02  0.1186339E+00
        -11   -1    0    0    0    0  0.00000000000E+00  0.00000000000E+00  0.45593999997E+02  0.45594000000E+02  0.51100000000E-03 0. -1.
         11   -1    0    0    0    0 -0.00000000000E+00 -0.00000000000E+00 -0.45593999997E+02  0.45594000000E+02  0.51100000000E-03 0.  1.
    9900012    2    1    2    0    0  0.10471861965E+00  0.11717823143E+01  0.94135552383E-01  0.90007787611E+02  0.90000049607E+02 0.  0.
         12    1    1    2    0    0 -0.10471861965E+00 -0.11717823143E+01 -0.94135552383E-01  0.11802123892E+01  0.00000000000E+00 0. -1.
         11    1    3    3    0    0 -0.47848200328E+01  0.42076839232E+01 -0.71495477773E+01  0.95768022025E+01  0.51100000000E-03 0. -1.
        -11    1    3    3    0    0 -0.30943792674E+02  0.53079575073E+01 -0.17642178238E+02  0.36013041682E+02  0.51100000000E-03 0.  1.
         12    1    3    3    0    0  0.35833331326E+02 -0.83438591163E+01  0.24885861568E+02  0.44417943726E+02  0.00000000000E+00 0. -1.
</event>
<event>
 7    1  0.1501154E-015  0.9000747E+02  0.7816164E-02  0.1186340E+00
        -11   -1    0    0    0    0  0.00000000000E+00  0.00000000000E+00  0.45593999997E+02  0.45594000000E+02  0.51100000000E-03 0.  1.
         11   -1    0    0    0    0 -0.00000000000E+00 -0.00000000000E+00 -0.45593999997E+02  0.45594000000E+02  0.51100000000E-03 0. -1.
    9900012    2    1    2    0    0 -0.93266769826E+00 -0.15781861145E+00  0.70630753593E+00  0.90007472116E+02  0.89999729948E+02 0.  0.
         12    1    1    2    0    0  0.93266769826E+00  0.15781861145E+00 -0.70630753593E+00  0.11805278840E+01  0.00000000000E+00 0. -1.
         11    1    3    3    0    0  0.58294001364E+01 -0.12378779573E+02 -0.38851508865E+02  0.41190482287E+02  0.51100000000E-03 0. -1.
        -11    1    3    3    0    0  0.71501997572E+01  0.62268459967E+01  0.42378556453E+01  0.10385489318E+02  0.51100000000E-03 0.  1.
        -12    1    3    3    0    0 -0.13912267592E+02  0.59941149653E+01  0.35319960756E+02  0.38431500511E+02  0.00000000000E+00 0.  1.
</event>
<event>
 7    1  0.1501154E-015  0.9000775E+02  0.7816164E-02  0.1186339E+00
        -11   -1    0    0    0    0  0.00000000000E+00  0.00000000000E+00  0.45593999997E+02  0.45594000000E+02  0.51100000000E-03 0.  1.
         11   -1    0    0    0    0 -0.00000000000E+00 -0.00000000000E+00 -0.45593999997E+02  0.45594000000E+02  0.51100000000E-03 0. -1.
    9900012    2    1    2    0    0 -0.36014614667E-01  0.28279323581E+00  0.11453056138E+01  0.90007748325E+02  0.90000009803E+02 0.  0.
         12    1    1    2    0    0  0.36014614667E-01 -0.28279323581E+00 -0.11453056138E+01  0.11802516747E+01  0.00000000000E+00 0. -1.
         11    1    3    3    0    0 -0.38750497769E+02  0.27443415635E+01 -0.12511540357E+01  0.38867697059E+02  0.51100000000E-03 0. -1.
        -11    1    3    3    0    0 -0.18642769200E+01  0.55304891890E+00 -0.87394529847E+01  0.89531798973E+01  0.51100000000E-03 0.  1.
        -12    1    3    3    0    0  0.40578760074E+02 -0.30145972466E+01  0.11135912634E+02  0.42186871369E+02  0.00000000000E+00 0.  1.
</event>
<event>
 7    1  0.1501154E-015  0.9000765E+02  0.7816164E-02  0.1186339E+00
        -11   -1    0    0    0    0  0.00000000000E+00  0.00000000000E+00  0.45593999997E+02  0.45594000000E+02  0.51100000000E-03 0. -1.
         11   -1    0    0    0    0 -0.00000000000E+00 -0.00000000000E+00 -0.45593999997E+02  0.45594000000E+02  0.51100000000E-03 0.  1.
    9900012    2    1    2    0    0  0.62547386614E+00  0.99197184805E+00  0.13419566049E+00  0.90007646587E+02  0.89999906722E+02 0.  0.
         12    1    1    2    0    0 -0.62547386614E+00 -0.99197184805E+00 -0.13419566049E+00  0.11803534131E+01  0.00000000000E+00 0. -1.
         11    1    3    3    0    0 -0.73071725829E+01 -0.44683653026E+01  0.55238127152E+01  0.10191838245E+02  0.51100000000E-03 0. -1.
        -11    1    3    3    0    0 -0.35305651060E+02  0.54410759775E+01  0.27111867861E+01  0.35825198375E+02  0.51100000000E-03 0.  1.
         12    1    3    3    0    0  0.43238297509E+02  0.19261173185E-01 -0.81008038407E+01  0.43990609967E+02  0.00000000000E+00 0. -1.
</event>
<event>
 7    1  0.1501154E-015  0.9000745E+02  0.7816164E-02  0.1186340E+00
        -11   -1    0    0    0    0  0.00000000000E+00  0.00000000000E+00  0.45593999997E+02  0.45594000000E+02  0.51100000000E-03 0.  1.
         11   -1    0    0    0    0 -0.00000000000E+00 -0.00000000000E+00 -0.45593999997E+02  0.45594000000E+02  0.51100000000E-03 0. -1.
    9900012    2    1    2    0    0  0.61931029026E+00  0.70489325242E+00  0.71643090127E+00  0.90007452259E+02  0.89999709828E+02 0.  0.
         12    1    1    2    0    0 -0.61931029026E+00 -0.70489325242E+00 -0.71643090127E+00  0.11805477412E+01  0.00000000000E+00 0. -1.
         11    1    3    3    0    0  0.57934503407E+00  0.13822395331E+01  0.12076575346E+02  0.12169219331E+02  0.51100000000E-03 0. -1.
        -11    1    3    3    0    0  0.36890058917E+02  0.22941345625E+01 -0.16565680235E+02  0.40503842561E+02  0.51100000000E-03 0.  1.
         12    1    3    3    0    0 -0.36850093661E+02 -0.29714808432E+01  0.52055357906E+01  0.37334390367E+02  0.00000000000E+00 0. -1.
</event>
<event>
 7    1  0.1501154E-015  0.9000772E+02  0.7816164E-02  0.1186339E+00
        -11   -1    0    0    0    0  0.00000000000E+00  0.00000000000E+00  0.45593999997E+02  0.45594000000E+02  0.51100000000E-03 0.  1.
         11   -1    0    0    0    0 -0.00000000000E+00 -0.00000000000E+00 -0.45593999997E+02  0.45594000000E+02  0.51100000000E-03 0. -1.
    9900012    2    1    2    0    0 -0.58384203177E+00  0.99635897505E+00  0.24384793366E+00  0.90007718449E+02  0.89999979532E+02 0.  0.
         12    1    1    2    0    0  0.58384203177E+00 -0.99635897505E+00 -0.24384793366E+00  0.11802815511E+01  0.00000000000E+00 0. -1.
         11    1    3    3    0    0 -0.63984826102E+01  0.85716218648E+01  0.33836136675E+01  0.11218828941E+02  0.51100000000E-03 0. -1.
        -11    1    3    3    0    0  0.39690547321E+02  0.92507242558E+01 -0.40368829507E+01  0.40953777239E+02  0.51100000000E-03 0.  1.
         12    1    3    3    0    0 -0.33875906743E+02 -0.16825987146E+02  0.89711721687E+00  0.37835112268E+02  0.00000000000E+00 0. -1.
</event>
<event>
 7    1  0.1501154E-015  0.9000781E+02  0.7816164E-02  0.1186339E+00
        -11   -1    0    0    0    0  0.00000000000E+00  0.00000000000E+00  0.45593999997E+02  0.45594000000E+02  0.51100000000E-03 0. -1.
         11   -1    0    0    0    0 -0.00000000000E+00 -0.00000000000E+00 -0.45593999997E+02  0.45594000000E+02  0.51100000000E-03 0.  1.
    9900012    2    1    2    0    0  0.85308584607E+00  0.79773797871E+00 -0.16945319536E+00  0.90007806910E+02  0.90000069162E+02 0.  0.
         12    1    1    2    0    0 -0.85308584607E+00 -0.79773797871E+00  0.16945319536E+00  0.11801930897E+01  0.00000000000E+00 0. -1.
         11    1    3    3    0    0 -0.75959807108E+01  0.95768689049E+01 -0.63206973802E+00  0.12239887802E+02  0.51100000000E-03 0. -1.
        -11    1    3    3    0    0  0.19745917550E+02  0.11162898513E+02 -0.31265790900E+02  0.38627208597E+02  0.51100000000E-03 0.  1.
         12    1    3    3    0    0 -0.11296850993E+02 -0.19942029440E+02  0.31728407443E+02  0.39140710512E+02  0.00000000000E+00 0. -1.
</event>
<event>
 7    1  0.1501154E-015  0.9000765E+02  0.7816164E-02  0.1186339E+00
        -11   -1    0    0    0    0  0.00000000000E+00  0.00000000000E+00  0.45593999997E+02  0.45594000000E+02  0.51100000000E-03 0.  1.
         11   -1    0    0    0    0 -0.00000000000E+00 -0.00000000000E+00 -0.45593999997E+02  0.45594000000E+02  0.51100000000E-03 0. -1.
    9900012    2    1    2    0    0 -0.79266800354E+00 -0.59846193624E+00 -0.63776835536E+00  0.90007649320E+02  0.89999909491E+02 0.  0.
         12    1    1    2    0    0  0.79266800354E+00  0.59846193624E+00  0.63776835536E+00  0.11803506801E+01  0.00000000000E+00 0. -1.
         11    1    3    3    0    0  0.79332082296E+01  0.15956270430E+01  0.20009724964E+01  0.83358088789E+01  0.51100000000E-03 0. -1.
        -11    1    3    3    0    0 -0.43238663647E+02 -0.46048277311E+01  0.10382791316E+02  0.44705579386E+02  0.51100000000E-03 0.  1.
         12    1    3    3    0    0  0.34512787414E+02  0.24107387518E+01 -0.13021532168E+02  0.36966261055E+02  0.00000000000E+00 0. -1.
</event>
<event>
 7    1  0.2140635E-015  0.9000771E+02  0.7816164E-02  0.1186339E+00
        -11   -1    0    0    0    0  0.00000000000E+00  0.00000000000E+00  0.45593999997E+02  0.45594000000E+02  0.51100000000E-03 0. -1.
         11   -1    0    0    0    0 -0.00000000000E+00 -0.00000000000E+00 -0.45593999997E+02  0.45594000000E+02  0.51100000000E-03 0.  1.
    9900012    2    1    2    0    0 -0.43292427477E+00 -0.34688125209E+00 -0.10417888150E+01  0.90007714456E+02  0.89999975487E+02 0.  0.
         12    1    1    2    0    0  0.43292427477E+00  0.34688125209E+00  0.10417888150E+01  0.11802855442E+01  0.00000000000E+00 0. -1.
         11    1    3    3    0    0  0.11909872393E+02  0.30686865190E+02  0.24464738550E+02  0.41012829556E+02  0.51100000000E-03 0. -1.
        -11    1    3    3    0    0 -0.99725973004E+01  0.56196444479E+00 -0.43390315452E+01  0.10890165103E+02  0.51100000000E-03 0.  1.
        -12    1    3    3    0    0 -0.23701993672E+01 -0.31595710887E+02 -0.21167495820E+02  0.38104719797E+02  0.00000000000E+00 0.  1.
</event>
<event>
 7    1  0.2200906E-015  0.9000769E+02  0.7816164E-02  0.1186339E+00
        -11   -1    0    0    0    0  0.00000000000E+00  0.00000000000E+00  0.45593999997E+02  0.45594000000E+02  0.51100000000E-03 0. -1.
         11   -1    0    0    0    0 -0.00000000000E+00 -0.00000000000E+00 -0.45593999997E+02  0.45594000000E+02  0.51100000000E-03 0.  1.
    9900012    2    1    2    0    0 -0.10284819454E+01 -0.39609584917E+00 -0.42246236227E+00  0.90007685855E+02  0.89999946508E+02 0.  0.
         12    1    1    2    0    0  0.10284819454E+01  0.39609584917E+00  0.42246236227E+00  0.11803141452E+01  0.00000000000E+00 0. -1.
         11    1    3    3    0    0 -0.19812095099E+02  0.22172921272E+02  0.25838777536E+02  0.39392892440E+02  0.51100000000E-03 0. -1.
        -11    1    3    3    0    0 -0.83853479322E+01 -0.41260561723E+01 -0.14487909305E+01  0.94571346032E+01  0.51100000000E-03 0.  1.
        -12    1    3    3    0    0  0.27168961086E+02 -0.18442960949E+02 -0.24812448968E+02  0.41157658812E+02  0.00000000000E+00 0.  1.
</event>
<event>
 7    1  0.1855832E-015  0.9000804E+02  0.7816164E-02  0.1186338E+00
        -11   -1    0    0    0    0  0.00000000000E+00  0.00000000000E+00  0.45593999997E+02  0.45594000000E+02  0.51100000000E-03 0.  1.
         11   -1    0    0    0    0 -0.00000000000E+00 -0.00000000000E+00 -0.45593999997E+02  0.45594000000E+02  0.51100000000E-03 0. -1.
    9900012    2    1    2    0    0 -0.49425565550E+00  0.66464737541E+00 -0.84038806239E+00  0.90008043695E+02  0.90000309071E+02 0.  0.
         12    1    1    2    0    0  0.49425565550E+00 -0.66464737541E+00  0.84038806239E+00  0.11799563051E+01  0.00000000000E+00 0. -1.
         11    1    3    3    0    0 -0.98138473703E+01 -0.35772658079E+02  0.96827367422E+01  0.38337319381E+02  0.51100000000E-03 0. -1.
        -11    1    3    3    0    0 -0.90067671711E+00 -0.43441676037E+01 -0.84895950640E+01  0.95789475064E+01  0.51100000000E-03 0.  1.
        -12    1    3    3    0    0  0.10220268432E+02  0.40781473058E+02 -0.20335297406E+01  0.42091776808E+02  0.00000000000E+00 0.  1.
</event>
<event>
 7    1  0.1501154E-015  0.9000778E+02  0.7816164E-02  0.1186339E+00
        -11   -1    0    0    0    0  0.00000000000E+00  0.00000000000E+00  0.45593999997E+02  0.45594000000E+02  0.51100000000E-03 0. -1.
         11   -1    0    0    0    0 -0.00000000000E+00 -0.00000000000E+00 -0.45593999997E+02  0.45594000000E+02  0.51100000000E-03 0.  1.
    9900012    2    1    2    0    0 -0.36343945953E+00 -0.94205167340E+00  0.61104763181E+00  0.90007775952E+02  0.90000037794E+02 0.  0.
         12    1    1    2    0    0  0.36343945953E+00  0.94205167340E+00 -0.61104763181E+00  0.11802240484E+01  0.00000000000E+00 0. -1.
         11    1    3    3    0    0  0.78694239406E+01 -0.38653231520E+01 -0.35685361854E+01  0.94658864875E+01  0.51100000000E-03 0. -1.
        -11    1    3    3    0    0  0.30574949211E+02  0.17887313853E+02 -0.96435225367E+01  0.36712137547E+02  0.51100000000E-03 0.  1.
         12    1    3    3    0    0 -0.38807812611E+02 -0.14964042374E+02  0.13823106354E+02  0.43829751917E+02  0.00000000000E+00 0. -1.
</event>
<event>
 7    1  0.1501154E-015  0.9000772E+02  0.7816164E-02  0.1186339E+00
        -11   -1    0    0    0    0  0.00000000000E+00  0.00000000000E+00  0.45593999997E+02  0.45594000000E+02  0.51100000000E-03 0.  1.
         11   -1    0    0    0    0 -0.00000000000E+00 -0.00000000000E+00 -0.45593999997E+02  0.45594000000E+02  0.51100000000E-03 0. -1.
    9900012    2    1    2    0    0  0.11122050160E+00  0.19242131739E+00  0.11591672474E+01  0.90007718393E+02  0.89999979476E+02 0.  0.
         12    1    1    2    0    0 -0.11122050160E+00 -0.19242131739E+00 -0.11591672474E+01  0.11802816066E+01  0.00000000000E+00 0. -1.
         11    1    3    3    0    0  0.13157756062E+02  0.15720249000E+02  0.13632601315E+02  0.24619110302E+02  0.51100000000E-03 0. -1.
        -11    1    3    3    0    0  0.90815453054E+01  0.19993338026E+02 -0.94316385673E+00  0.21979481088E+02  0.51100000000E-03 0.  1.
        -12    1    3    3    0    0 -0.22128080865E+02 -0.35521165709E+02 -0.11530270211E+02  0.43409127004E+02  0.00000000000E+00 0.  1.
</event>
<event>
 7    1  0.1501154E-015  0.9000759E+02  0.7816164E-02  0.1186339E+00
        -11   -1    0    0    0    0  0.00000000000E+00  0.00000000000E+00  0.45593999997E+02  0.45594000000E+02  0.51100000000E-03 0.  1.
         11   -1    0    0    0    0 -0.00000000000E+00 -0.00000000000E+00 -0.45593999997E+02  0.45594000000E+02  0.51100000000E-03 0. -1.
    9900012    2    1    2    0    0  0.66696709222E+00 -0.17407767447E-01  0.97376613818E+00  0.90007589637E+02  0.89999849020E+02 0.  0.
         12    1    1    2    0    0 -0.66696709222E+00  0.17407767447E-01 -0.97376613818E+00  0.11804103627E+01  0.00000000000E+00 0. -1.
         11    1    3    3    0    0  0.36801349957E+02  0.14169598514E+02 -0.47929239842E+01  0.39725168361E+02  0.51100000000E-03 0. -1.
        -11    1    3    3    0    0  0.14139188980E+01 -0.53831024667E+01  0.10040301689E+02  0.11479748128E+02  0.51100000000E-03 0.  1.
        -12    1    3    3    0    0 -0.37548301763E+02 -0.88039038151E+01 -0.42736115668E+01  0.38802673148E+02  0.00000000000E+00 0.  1.
</event>
<event>
 7    1  0.1501154E-015  0.9000781E+02  0.7816164E-02  0.1186339E+00
        -11   -1    0    0    0    0  0.00000000000E+00  0.00000000000E+00  0.45593999997E+02  0.45594000000E+02  0.51100000000E-03 0.  1.
         11   -1    0    0    0    0 -0.00000000000E+00 -0.00000000000E+00 -0.45593999997E+02  0.45594000000E+02  0.51100000000E-03 0. -1.
    9900012    2    1    2    0    0 -0.26411990553E-01  0.53271179465E+00  0.10527879008E+01  0.90007812806E+02  0.90000075135E+02 0.  0.
         12    1    1    2    0    0  0.26411990553E-01 -0.53271179465E+00 -0.10527879008E+01  0.11801871943E+01  0.00000000000E+00 0. -1.
         11    1    3    3    0    0  0.87279619638E+01 -0.14932648117E+01 -0.37563654642E+01  0.96185987337E+01  0.51100000000E-03 0. -1.
        -11    1    3    3    0    0  0.29101239174E+02  0.27638756979E+01  0.24108789963E+02  0.37891356324E+02  0.51100000000E-03 0.  1.
         12    1    3    3    0    0 -0.37855613128E+02 -0.73789909152E+00 -0.19299636598E+02  0.42497857748E+02  0.00000000000E+00 0. -1.
</event>
<event>
 7    1  0.1501154E-015  0.9000804E+02  0.7816164E-02  0.1186338E+00
        -11   -1    0    0    0    0  0.00000000000E+00  0.00000000000E+00  0.45593999997E+02  0.45594000000E+02  0.51100000000E-03 0. -1.
         11   -1    0    0    0    0 -0.00000000000E+00 -0.00000000000E+00 -0.45593999997E+02  0.45594000000E+02  0.51100000000E-03 0.  1.
    9900012    2    1    2    0    0 -0.53064498339E+00  0.94471706671E+00  0.46714990745E+00  0.90008040903E+02  0.90000306242E+02 0.  0.
         12    1    1    2    0    0  0.53064498339E+00 -0.94471706671E+00 -0.46714990745E+00  0.11799590970E+01  0.00000000000E+00 0. -1.
         11    1    3    3    0    0 -0.63201789257E+01  0.77521600874E+01 -0.98962507843E+00  0.10050870894E+02  0.51100000000E-03 0. -1.
        -11    1    3    3    0    0  0.31535096926E+02  0.21777374062E+02  0.11839334977E+02  0.40110923850E+02  0.51100000000E-03 0.  1.
         12    1    3    3    0    0 -0.25745562984E+02 -0.28584817082E+02 -0.10382559991E+02  0.39846246159E+02  0.00000000000E+00 0. -1.
</event>
<event>
 7    1  0.1501154E-015  0.9000767E+02  0.7816164E-02  0.1186339E+00
        -11   -1    0    0    0    0  0.00000000000E+00  0.00000000000E+00  0.45593999997E+02  0.45594000000E+02  0.51100000000E-03 0.  1.
         11   -1    0    0    0    0 -0.00000000000E+00 -0.00000000000E+00 -0.45593999997E+02  0.45594000000E+02  0.51100000000E-03 0. -1.
    9900012    2    1    2    0    0 -0.89081003602E+00  0.75004645097E+00 -0.19252801663E+00  0.90007669861E+02  0.89999930304E+02 0.  0.
         12    1    1    2    0    0  0.89081003602E+00 -0.75004645097E+00  0.19252801663E+00  0.11803301386E+01  0.00000000000E+00 0. -1.
         11    1    3    3    0    0  0.53451629935E+01  0.17495743798E+02 -0.29870869325E+02  0.35027712642E+02  0.51100000000E-03 0. -1.
        -11    1    3    3    0    0  0.36833212129E+01  0.76006901564E+01 -0.62166863177E+01  0.10487351193E+02  0.51100000000E-03 0.  1.
        -12    1    3    3    0    0 -0.99192942424E+01 -0.24346387504E+02  0.35895027626E+02  0.44492606026E+02  0.00000000000E+00 0.  1.
</event>
<event>
 7    1  0.1501154E-015  0.9000776E+02  0.7816164E-02  0.1186339E+00
        -11   -1    0    0    0    0  0.00000000000E+00  0.00000000000E+00  0.45593999997E+02  0.45594000000E+02  0.51100000000E-03 0.  1.
         11   -1    0    0    0    0 -0.00000000000E+00 -0.00000000000E+00 -0.45593999997E+02  0.45594000000E+02  0.51100000000E-03 0. -1.
    9900012    2    1    2    0    0  0.11438578620E+01  0.60253369765E-02  0.29070359863E+00  0.90007764559E+02  0.90000026251E+02 0.  0.
         12    1    1    2    0    0 -0.11438578620E+01 -0.60253369765E-02 -0.29070359863E+00  0.11802354407E+01  0.00000000000E+00 0. -1.
         11    1    3    3    0    0  0.26658150438E+02 -0.53003674196E+01  0.88058950331E+00  0.27194233170E+02  0.51100000000E-03 0. -1.
        -11    1    3    3    0    0  0.99281354461E+01 -0.10383285158E+02 -0.15637915995E+02  0.21234992372E+02  0.51100000000E-03 0.  1.
        -12    1    3    3    0    0 -0.35442428022E+02  0.15689677915E+02  0.15048030091E+02  0.41578539017E+02  0.00000000000E+00 0.  1.
</event>
<event>
 7    1  0.1501154E-015  0.9000768E+02  0.7816164E-02  0.1186339E+00
        -11   -1    0    0    0    0  0.00000000000E+00  0.00000000000E+00  0.45593999997E+02  0.45594000000E+02  0.51100000000E-03 0. -1.
         11   -1    0    0    0    0 -0.00000000000E+00 -0.00000000000E+00 -0.45593999997E+02  0.45594000000E+02  0.51100000000E-03 0.  1.
    9900012    2    1    2    0    0 -0.31656017459E+00  0.11242932205E+01  0.17004557290E+00  0.90007677550E+02  0.89999938093E+02 0.  0.
         12    1    1    2    0    0  0.31656017459E+00 -0.11242932205E+01 -0.17004557290E+00  0.11803224503E+01  0.00000000000E+00 0. -1.
         11    1    3    3    0    0 -0.27565666456E+02  0.69353600950E+01  0.24336791534E+02  0.37419842453E+02  0.51100000000E-03 0. -1.
        -11    1    3    3    0    0 -0.30001539074E+01  0.90029866538E+01  0.22846476751E+01  0.97608558752E+01  0.51100000000E-03 0.  1.
        -12    1    3    3    0    0  0.30249260189E+02 -0.14814053528E+02 -0.26451393636E+02  0.42826979221E+02  0.00000000000E+00 0.  1.
</event>
<event>
 7    1  0.1501154E-015  0.9000724E+02  0.7816164E-02  0.1186340E+00
        -11   -1    0    0    0    0  0.00000000000E+00  0.00000000000E+00  0.45593999997E+02  0.45594000000E+02  0.51100000000E-03 0.  1.
         11   -1    0    0    0    0 -0.00000000000E+00 -0.00000000000E+00 -0.45593999997E+02  0.45594000000E+02  0.51100000000E-03 0. -1.
    9900012    2    1    2    0    0  0.86202318380E+00 -0.33606366522E+00  0.73360298157E+00  0.90007239190E+02  0.89999493946E+02 0.  0.
         12    1    1    2    0    0 -0.86202318380E+00  0.33606366522E+00 -0.73360298157E+00  0.11807608103E+01  0.00000000000E+00 0. -1.
         11    1    3    3    0    0  0.86273838386E+01  0.28595935185E+01 -0.22429334657E+01  0.93616119223E+01  0.51100000000E-03 0. -1.
        -11    1    3    3    0    0  0.15349220331E+02  0.33607096434E+02  0.40885503447E+01  0.37171921388E+02  0.51100000000E-03 0.  1.
         12    1    3    3    0    0 -0.23114580986E+02 -0.36802753617E+02 -0.11120138974E+01  0.43473705880E+02  0.00000000000E+00 0. -1.
</event>
<event>
 7    1  0.1501154E-015  0.9000781E+02  0.7816164E-02  0.1186339E+00
        -11   -1    0    0    0    0  0.00000000000E+00  0.00000000000E+00  0.45593999997E+02  0.45594000000E+02  0.51100000000E-03 0. -1.
         11   -1    0    0    0    0 -0.00000000000E+00 -0.00000000000E+00 -0.45593999997E+02  0.45594000000E+02  0.51100000000E-03 0.  1.
    9900012    2    1    2    0    0 -0.22299886379E+00  0.87192189487E+00 -0.76345751854E+00  0.90007812021E+02  0.90000074339E+02 0.  0.
         12    1    1    2    0    0  0.22299886379E+00 -0.87192189487E+00  0.76345751854E+00  0.11801879794E+01  0.00000000000E+00 0. -1.
         11    1    3    3    0    0 -0.67916156929E+01 -0.43205373471E+01 -0.32497780619E+01  0.86806764944E+01  0.51100000000E-03 0. -1.
        -11    1    3    3    0    0 -0.27720522823E+02  0.13538716238E+02 -0.22417163689E+02  0.38134675180E+02  0.51100000000E-03 0.  1.
         12    1    3    3    0    0  0.34289139652E+02 -0.83462569962E+01  0.24903484232E+02  0.43192460347E+02  0.00000000000E+00 0. -1.
</event>
<event>
 7    1  0.1501154E-015  0.9000741E+02  0.7816164E-02  0.1186340E+00
        -11   -1    0    0    0    0  0.00000000000E+00  0.00000000000E+00  0.45593999997E+02  0.45594000000E+02  0.51100000000E-03 0. -1.
         11   -1    0    0    0    0 -0.00000000000E+00 -0.00000000000E+00 -0.45593999997E+02  0.45594000000E+02  0.51100000000E-03 0.  1.
    9900012    2    1    2    0    0 -0.71234119517E+00 -0.53427592195E+00 -0.77519108802E+00  0.90007406098E+02  0.89999663058E+02 0.  0.
         12    1    1    2    0    0  0.71234119517E+00  0.53427592195E+00  0.77519108802E+00  0.11805939023E+01  0.00000000000E+00 0. -1.
         11    1    3    3    0    0  0.16096743238E+02  0.38039025665E+02 -0.74586035080E+01  0.41972650417E+02  0.51100000000E-03 0. -1.
        -11    1    3    3    0    0  0.53941756944E+01 -0.79394005499E+01 -0.90946237795E-01  0.95989313985E+01  0.51100000000E-03 0.  1.
        -12    1    3    3    0    0 -0.22203260128E+02 -0.30633901037E+02  0.67743586578E+01  0.38435824283E+02  0.00000000000E+00 0.  1.
</event>
<event>
 7    1  0.1771238E-015  0.9000785E+02  0.7816164E-02  0.1186339E+00
        -11   -1    0    0    0    0  0.00000000000E+00  0.00000000000E+00  0.45593999997E+02  0.45594000000E+02  0.51100000000E-03 0. -1.
         11   -1    0    0    0    0 -0.00000000000E+00 -0.00000000000E+00 -0.45593999997E+02  0.45594000000E+02  0.51100000000E-03 0.  1.
    9900012    2    1    2    0    0 -0.89042859579E+00  0.15163256058E+00 -0.75953437556E+00  0.90007852558E+02  0.90000115412E+02 0.  0.
         12    1    1    2    0    0  0.89042859579E+00 -0.15163256058E+00  0.75953437556E+00  0.11801474422E+01  0.00000000000E+00 0. -1.
         11    1    3    3    0    0  0.28116955908E+02  0.29276970591E+02 -0.68918829058E+01  0.41172834087E+02  0.51100000000E-03 0. -1.
        -11    1    3    3    0    0  0.38532898015E+01 -0.73483110665E+01  0.43611602719E+01  0.93736458757E+01  0.51100000000E-03 0.  1.
        -12    1    3    3    0    0 -0.32860674306E+02 -0.21777026964E+02  0.17711882584E+01  0.39461372595E+02  0.00000000000E+00 0.  1.
</event>
<event>
 7    1  0.1501154E-015  0.9000774E+02  0.7816164E-02  0.1186339E+00
        -11   -1    0    0    0    0  0.00000000000E+00  0.00000000000E+00  0.45593999997E+02  0.45594000000E+02  0.51100000000E-03 0.  1.
         11   -1    0    0    0    0 -0.00000000000E+00 -0.00000000000E+00 -0.45593999997E+02  0.45594000000E+02  0.51100000000E-03 0. -1.
    9900012    2    1    2    0    0  0.76695423362E+00  0.54895798046E+00  0.70954089986E+00  0.90007736492E+02  0.89999997813E+02 0.  0.
         12    1    1    2    0    0 -0.76695423362E+00 -0.54895798046E+00 -0.70954089986E+00  0.11802635084E+01  0.00000000000E+00 0. -1.
         11    1    3    3    0    0  0.73990435239E+01  0.46820011494E+01 -0.63255169019E+01  0.10801812078E+02  0.51100000000E-03 0. -1.
        -11    1    3    3    0    0  0.13337180950E+02 -0.32110550466E+02  0.22603459111E+02  0.41471486723E+02  0.51100000000E-03 0.  1.
         12    1    3    3    0    0 -0.19969270241E+02  0.27977507297E+02 -0.15568401309E+02  0.37734437691E+02  0.00000000000E+00 0. -1.
</event>
<event>
 7    1  0.1501154E-015  0.9000787E+02  0.7816164E-02  0.1186339E+00
        -11   -1    0    0    0    0  0.00000000000E+00  0.00000000000E+00  0.45593999997E+02  0.45594000000E+02  0.51100000000E-03 0.  1.
         11   -1    0    0    0    0 -0.00000000000E+00 -0.00000000000E+00 -0.45593999997E+02  0.45594000000E+02  0.51100000000E-03 0. -1.
    9900012    2    1    2    0    0  0.73213667908E+00 -0.45520661694E+00  0.80589976227E+00  0.90007867970E+02  0.90000131027E+02 0.  0.
         12    1    1    2    0    0 -0.73213667908E+00  0.45520661694E+00 -0.80589976227E+00  0.11801320298E+01  0.00000000000E+00 0. -1.
         11    1    3    3    0    0 -0.66450550640E+01  0.16332402672E+01  0.48921396267E+01  0.84117335289E+01  0.51100000000E-03 0. -1.
        -11    1    3    3    0    0 -0.16658118364E+00 -0.38235909577E+02 -0.17837805892E+02  0.42192414600E+02  0.51100000000E-03 0.  1.
         12    1    3    3    0    0  0.75437729267E+01  0.36147462693E+02  0.13751566028E+02  0.39403719841E+02  0.00000000000E+00 0. -1.
</event>
<event>
 7    1  0.1501154E-015  0.9000778E+02  0.7816164E-02  0.1186339E+00
        -11   -1    0    0    0    0  0.00000000000E+00  0.00000000000E+00  0.45593999997E+02  0.45594000000E+02  0.51100000000E-03 0. -1.
         11   -1    0    0    0    0 -0.00000000000E+00 -0.00000000000E+00 -0.45593999997E+02  0.45594000000E+02  0.51100000000E-03 0.  1.
    9900012    2    1    2    0    0 -0.31222781433E+00 -0.99350529351E+00 -0.55531946243E+00  0.90007780240E+02  0.90000042139E+02 0.  0.
         12    1    1    2    0    0  0.31222781433E+00  0.99350529351E+00  0.55531946243E+00  0.11802197599E+01  0.00000000000E+00 0. -1.
         11    1    3    3    0    0  0.68409277026E+01  0.22288949511E+01 -0.10963771108E+02  0.13113753913E+02  0.51100000000E-03 0. -1.
        -11    1    3    3    0    0  0.34260803605E+02 -0.52890770720E+01  0.32963217620E+01  0.34823020221E+02  0.51100000000E-03 0.  1.
         12    1    3    3    0    0 -0.41413959122E+02  0.20666768273E+01  0.71121298832E+01  0.42071006105E+02  0.00000000000E+00 0. -1.
</event>
<event>
 7    1  0.1501154E-015  0.9000775E+02  0.7816164E-02  0.1186339E+00
        -11   -1    0    0    0    0  0.00000000000E+00  0.00000000000E+00  0.45593999997E+02  0.45594000000E+02  0.51100000000E-03 0.  1.
         11   -1    0    0    0    0 -0.00000000000E+00 -0.00000000000E+00 -0.45593999997E+02  0.45594000000E+02  0.51100000000E-03 0. -1.
    9900012    2    1    2    0    0  0.18149230801E+00 -0.73016717698E+00  0.90934700155E+00  0.90007747682E+02  0.90000009152E+02 0.  0.
         12    1    1    2    0    0 -0.18149230801E+00  0.73016717698E+00 -0.90934700155E+00  0.11802523177E+01  0.00000000000E+00 0. -1.
         11    1    3    3    0    0  0.10549405666E+00  0.17267193443E+02 -0.27254188281E+02  0.32263878836E+02  0.51100000000E-03 0. -1.
        -11    1    3    3    0    0 -0.13656443783E+02  0.35863302791E+01 -0.57655591340E+01  0.15251291554E+02  0.51100000000E-03 0.  1.
        -12    1    3    3    0    0  0.13732442034E+02 -0.21583690899E+02  0.33929094417E+02  0.42492577293E+02  0.00000000000E+00 0.  1.
</event>
<event>
 7    1  0.1501154E-015  0.9000766E+02  0.7816164E-02  0.1186339E+00
        -11   -1    0    0    0    0  0.00000000000E+00  0.00000000000E+00  0.45593999997E+02  0.45594000000E+02  0.51100000000E-03 0. -1.
         11   -1    0    0    0    0 -0.00000000000E+00 -0.00000000000E+00 -0.45593999997E+02  0.45594000000E+02  0.51100000000E-03 0.  1.
    9900012    2    1    2    0    0  0.99576914985E+00  0.52571090701E+00  0.35394546688E+00  0.90007658714E+02  0.89999919009E+02 0.  0.
         12    1    1    2    0    0 -0.99576914985E+00 -0.52571090701E+00 -0.35394546688E+00  0.11803412858E+01  0.00000000000E+00 0. -1.
         11    1    3    3    0    0  0.72229583453E+01 -0.14509912564E+01  0.35017607965E+02  0.35784205604E+02  0.51100000000E-03 0. -1.
        -11    1    3    3    0    0  0.47572676206E+01 -0.22688735497E+01  0.82131275303E+01  0.97588342792E+01  0.51100000000E-03 0.  1.
        -12    1    3    3    0    0 -0.10984456816E+02  0.42455757132E+01 -0.42876790028E+02  0.44464618831E+02  0.00000000000E+00 0.  1.
</event>
<event>
 7    1  0.1501154E-015  0.9000799E+02  0.7816164E-02  0.1186339E+00
        -11   -1    0    0    0    0  0.00000000000E+00  0.00000000000E+00  0.45593999997E+02  0.45594000000E+02  0.51100000000E-03 0.  1.
         11   -1    0    0    0    0 -0.00000000000E+00 -0.00000000000E+00 -0.45593999997E+02  0.45594000000E+02  0.51100000000E-03 0. -1.
    9900012    2    1    2    0    0 -0.66529223030E-01 -0.57517490282E+00  0.10281884705E+01  0.90007989900E+02  0.90000254566E+02 0.  0.
         12    1    1    2    0    0  0.66529223030E-01  0.57517490282E+00 -0.10281884705E+01  0.11800101005E+01  0.00000000000E+00 0. -1.
         11    1    3    3    0    0  0.83327179451E+01 -0.37195618563E+01 -0.10042030371E+02  0.13568776768E+02  0.51100000000E-03 0. -1.
        -11    1    3    3    0    0  0.29579319006E+02 -0.15331653736E+02  0.31114479207E+01  0.33461572401E+02  0.51100000000E-03 0.  1.
         12    1    3    3    0    0 -0.37978566174E+02  0.18476040690E+02  0.79587709208E+01  0.42977640730E+02  0.00000000000E+00 0. -1.
</event>
<event>
 7    1  0.1501154E-015  0.9000764E+02  0.7816164E-02  0.1186339E+00
        -11   -1    0    0    0    0  0.00000000000E+00  0.00000000000E+00  0.45593999997E+02  0.45594000000E+02  0.51100000000E-03 0.  1.
         11   -1    0    0    0    0 -0.00000000000E+00 -0.00000000000E+00 -0.45593999997E+02  0.45594000000E+02  0.51100000000E-03 0. -1.
    9900012    2    1    2    0    0  0.80505436294E+00 -0.56283287794E+00  0.65449151731E+00  0.90007638817E+02  0.89999898849E+02 0.  0.
         12    1    1    2    0    0 -0.80505436294E+00  0.56283287794E+00 -0.65449151731E+00  0.11803611829E+01  0.00000000000E+00 0. -1.
         11    1    3    3    0    0  0.37421391637E+01 -0.82135410813E+01  0.51804593490E+01  0.10406873783E+02  0.51100000000E-03 0. -1.
        -11    1    3    3    0    0 -0.91065091044E+01 -0.91586473386E+01  0.34405056185E+02  0.36749383948E+02  0.51100000000E-03 0.  1.
         12    1    3    3    0    0  0.61694243037E+01  0.16809355542E+02 -0.38931024017E+02  0.42851381086E+02  0.00000000000E+00 0. -1.
</event>
<event>
 7    1  0.1501154E-015  0.9000773E+02  0.7816164E-02  0.1186339E+00
        -11   -1    0    0    0    0  0.00000000000E+00  0.00000000000E+00  0.45593999997E+02  0.45594000000E+02  0.51100000000E-03 0. -1.
         11   -1    0    0    0    0 -0.00000000000E+00 -0.00000000000E+00 -0.45593999997E+02  0.45594000000E+02  0.51100000000E-03 0.  1.
    9900012    2    1    2    0    0 -0.67402980680E+00 -0.91865626813E+00 -0.30789115397E+00  0.90007727793E+02  0.89999989000E+02 0.  0.
         12    1    1    2    0    0  0.67402980680E+00  0.91865626813E+00  0.30789115397E+00  0.11802722068E+01  0.00000000000E+00 0. -1.
         11    1    3    3    0    0  0.21913803822E+01 -0.46049384814E+01 -0.49453931664E+01  0.71038384151E+01  0.51100000000E-03 0. -1.
        -11    1    3    3    0    0 -0.77671003869E-02  0.41928907859E+02 -0.76770691091E+01  0.42625940048E+02  0.51100000000E-03 0.  1.
         12    1    3    3    0    0 -0.28576430886E+01 -0.38242625646E+02  0.12314571122E+02  0.40277949330E+02  0.00000000000E+00 0. -1.
</event>
<event>
 7    1  0.1501154E-015  0.9000774E+02  0.7816164E-02  0.1186339E+00
        -11   -1    0    0    0    0  0.00000000000E+00  0.00000000000E+00  0.45593999997E+02  0.45594000000E+02  0.51100000000E-03 0.  1.
         11   -1    0    0    0    0 -0.00000000000E+00 -0.00000000000E+00 -0.45593999997E+02  0.45594000000E+02  0.51100000000E-03 0. -1.
    9900012    2    1    2    0    0 -0.70153318365E+00 -0.79184549067E+00  0.52330342743E+00  0.90007739619E+02  0.90000000982E+02 0.  0.
         12    1    1    2    0    0  0.70153318365E+00  0.79184549067E+00 -0.52330342743E+00  0.11802603806E+01  0.00000000000E+00 0. -1.
         11    1    3    3    0    0  0.19883839079E+02  0.21664430159E+02  0.22146745990E+02  0.36812945397E+02  0.51100000000E-03 0. -1.
        -11    1    3    3    0    0  0.20432535646E+01  0.87583422460E+01 -0.52737901971E-02  0.89935238979E+01  0.51100000000E-03 0.  1.
        -12    1    3    3    0    0 -0.22628625827E+02 -0.31214617895E+02 -0.21618168773E+02  0.44201270324E+02  0.00000000000E+00 0.  1.
</event>
<event>
 7    1  0.1501154E-015  0.9000774E+02  0.7816164E-02  0.1186339E+00
        -11   -1    0    0    0    0  0.00000000000E+00  0.00000000000E+00  0.45593999997E+02  0.45594000000E+02  0.51100000000E-03 0.  1.
         11   -1    0    0    0    0 -0.00000000000E+00 -0.00000000000E+00 -0.45593999997E+02  0.45594000000E+02  0.51100000000E-03 0. -1.
    9900012    2    1    2    0    0  0.11173166375E+01  0.36401924800E+00  0.11004588142E+00  0.90007738767E+02  0.90000000119E+02 0.  0.
         12    1    1    2    0    0 -0.11173166375E+01 -0.36401924800E+00 -0.11004588142E+00  0.11802612327E+01  0.00000000000E+00 0. -1.
         11    1    3    3    0    0 -0.82344243019E+00  0.11577963580E+02 -0.64806892858E+01  0.13293856927E+02  0.51100000000E-03 0. -1.
        -11    1    3    3    0    0 -0.23390776427E+02  0.22603500529E+02 -0.49768709359E+01  0.32906168154E+02  0.51100000000E-03 0.  1.
         12    1    3    3    0    0  0.25331535495E+02 -0.33817444862E+02  0.11567606103E+02  0.43807713686E+02  0.00000000000E+00 0. -1.
</event>
<event>
 7    1  0.1501154E-015  0.9000767E+02  0.7816164E-02  0.1186339E+00
        -11   -1    0    0    0    0  0.00000000000E+00  0.00000000000E+00  0.45593999997E+02  0.45594000000E+02  0.51100000000E-03 0. -1.
         11   -1    0    0    0    0 -0.00000000000E+00 -0.00000000000E+00 -0.45593999997E+02  0.45594000000E+02  0.51100000000E-03 0.  1.
    9900012    2    1    2    0    0 -0.67036327429E+00  0.90964704413E+00 -0.34107393437E+00  0.90007671193E+02  0.89999931653E+02 0.  0.
         12    1    1    2    0    0  0.67036327429E+00 -0.90964704413E+00  0.34107393437E+00  0.11803288072E+01  0.00000000000E+00 0. -1.
         11    1    3    3    0    0 -0.13240855148E+02 -0.29275701820E+02  0.14966322111E+02  0.35445419449E+02  0.51100000000E-03 0. -1.
        -11    1    3    3    0    0  0.35064912770E+01 -0.94257704258E+01  0.22353199069E+01  0.10302295110E+02  0.51100000000E-03 0.  1.
        -12    1    3    3    0    0  0.90640005971E+01  0.39611119290E+02 -0.17542715952E+02  0.44259956634E+02  0.00000000000E+00 0.  1.
</event>
<event>
 7    1  0.2828352E-015  0.9000771E+02  0.7816164E-02  0.1186339E+00
        -11   -1    0    0    0    0  0.00000000000E+00  0.00000000000E+00  0.45593999997E+02  0.45594000000E+02  0.51100000000E-03 0. -1.
         11   -1    0    0    0    0 -0.00000000000E+00 -0.00000000000E+00 -0.45593999997E+02  0.45594000000E+02  0.51100000000E-03 0.  1.
    9900012    2    1    2    0    0  0.16875101590E+00 -0.50701340632E+00 -0.10523947484E+01  0.90007714354E+02  0.89999975384E+02 0.  0.
         12    1    1    2    0    0 -0.16875101590E+00  0.50701340632E+00  0.10523947484E+01  0.11802856460E+01  0.00000000000E+00 0. -1.
         11    1    3    3    0    0 -0.34802744856E+02 -0.80761399792E+01  0.20650564434E+02  0.41266219820E+02  0.51100000000E-03 0. -1.
        -11    1    3    3    0    0  0.67051453268E+01 -0.61405555035E+01  0.20943531016E+01  0.93301506376E+01  0.51100000000E-03 0.  1.
        -12    1    3    3    0    0  0.28266350545E+02  0.13709682076E+02 -0.23797312285E+02  0.39411343897E+02  0.00000000000E+00 0.  1.
</event>
<event>
 7    1  0.1501154E-015  0.9000771E+02  0.7816164E-02  0.1186339E+00
        -11   -1    0    0    0    0  0.00000000000E+00  0.00000000000E+00  0.45593999997E+02  0.45594000000E+02  0.51100000000E-03 0. -1.
         11   -1    0    0    0    0 -0.00000000000E+00 -0.00000000000E+00 -0.45593999997E+02  0.45594000000E+02  0.51100000000E-03 0.  1.
    9900012    2    1    2    0    0  0.96107670382E+00  0.62353944566E+00 -0.28392741906E+00  0.90007709930E+02  0.89999970901E+02 0.  0.
         12    1    1    2    0    0 -0.96107670382E+00 -0.62353944566E+00  0.28392741906E+00  0.11802900704E+01  0.00000000000E+00 0. -1.
         11    1    3    3    0    0 -0.77403940663E+00 -0.41266860166E+02  0.48303918451E+01  0.41555812717E+02  0.51100000000E-03 0. -1.
        -11    1    3    3    0    0 -0.44293796014E+01  0.23806696881E+01 -0.67660061426E+01  0.84300552312E+01  0.51100000000E-03 0.  1.
        -12    1    3    3    0    0  0.61644957119E+01  0.39509729924E+02  0.16516868785E+01  0.40021841981E+02  0.00000000000E+00 0.  1.
</event>
<event>
 7    1  0.1501154E-015  0.9000743E+02  0.7816164E-02  0.1186340E+00
        -11   -1    0    0    0    0  0.00000000000E+00  0.00000000000E+00  0.45593999997E+02  0.45594000000E+02  0.51100000000E-03 0. -1.
         11   -1    0    0    0    0 -0.00000000000E+00 -0.00000000000E+00 -0.45593999997E+02  0.45594000000E+02  0.51100000000E-03 0.  1.
    9900012    2    1    2    0    0  0.47016085541E+00 -0.99157123932E+00  0.43529503596E+00  0.90007429578E+02  0.89999686848E+02 0.  0.
         12    1    1    2    0    0 -0.47016085541E+00  0.99157123932E+00 -0.43529503596E+00  0.11805704218E+01  0.00000000000E+00 0. -1.
         11    1    3    3    0    0 -0.65480165392E+01 -0.73078560352E+00  0.94177268537E+01  0.11493656840E+02  0.51100000000E-03 0. -1.
        -11    1    3    3    0    0 -0.10640562486E+02 -0.33016561355E+02 -0.19564781232E+02  0.39825815229E+02  0.51100000000E-03 0.  1.
         12    1    3    3    0    0  0.17658739881E+02  0.32755775719E+02  0.10582349414E+02  0.38687957510E+02  0.00000000000E+00 0. -1.
</event>
<event>
 7    1  0.1501154E-015  0.9000772E+02  0.7816164E-02  0.1186339E+00
        -11   -1    0    0    0    0  0.00000000000E+00  0.00000000000E+00  0.45593999997E+02  0.45594000000E+02  0.51100000000E-03 0.  1.
         11   -1    0    0    0    0 -0.00000000000E+00 -0.00000000000E+00 -0.45593999997E+02  0.45594000000E+02  0.51100000000E-03 0. -1.
    9900012    2    1    2    0    0  0.76914774964E+00  0.69131501663E+00 -0.56882647893E+00  0.90007716866E+02  0.89999977929E+02 0.  0.
         12    1    1    2    0    0 -0.76914774964E+00 -0.69131501663E+00  0.56882647893E+00  0.11802831339E+01  0.00000000000E+00 0. -1.
         11    1    3    3    0    0  0.11944282799E+00 -0.64122343806E+01  0.66073568716E+01  0.92080498169E+01  0.51100000000E-03 0. -1.
        -11    1    3    3    0    0  0.35323402384E+02  0.22576391692E+02 -0.86366902878E+01  0.42802203649E+02  0.51100000000E-03 0.  1.
         12    1    3    3    0    0 -0.34673697462E+02 -0.15472842294E+02  0.14605069372E+01  0.37997463401E+02  0.00000000000E+00 0. -1.
</event>
<event>
 7    1  0.1501154E-015  0.9000774E+02  0.7816164E-02  0.1186339E+00
        -11   -1    0    0    0    0  0.00000000000E+00  0.00000000000E+00  0.45593999997E+02  0.45594000000E+02  0.51100000000E-03 0. -1.
         11   -1    0    0    0    0 -0.00000000000E+00 -0.00000000000E+00 -0.45593999997E+02  0.45594000000E+02  0.51100000000E-03 0.  1.
    9900012    2    1    2    0    0  0.58716214789E+00 -0.86527506418E+00 -0.54732196368E+00  0.90007736616E+02  0.89999997939E+02 0.  0.
         12    1    1    2    0    0 -0.58716214789E+00  0.86527506418E+00  0.54732196368E+00  0.11802633844E+01  0.00000000000E+00 0. -1.
         11    1    3    3    0    0 -0.14483922767E+02 -0.11430957645E+02 -0.29759012170E+02  0.35014991318E+02  0.51100000000E-03 0. -1.
        -11    1    3    3    0    0 -0.56523924469E+01 -0.26186855703E+01 -0.81637035062E+01  0.10269036454E+02  0.51100000000E-03 0.  1.
        -12    1    3    3    0    0  0.20723477362E+02  0.13184368152E+02  0.37375393713E+02  0.44723708843E+02  0.00000000000E+00 0.  1.
</event>
<event>
 7    1  0.1501154E-015  0.9000775E+02  0.7816164E-02  0.1186339E+00
        -11   -1    0    0    0    0  0.00000000000E+00  0.00000000000E+00  0.45593999997E+02  0.45594000000E+02  0.51100000000E-03 0.  1.
         11   -1    0    0    0    0 -0.00000000000E+00 -0.00000000000E+00 -0.45593999997E+02  0.45594000000E+02  0.51100000000E-03 0. -1.
    9900012    2    1    2    0    0  0.95959506711E+00 -0.57932933228E+00 -0.36951184952E+00  0.90007752494E+02  0.90000014027E+02 0.  0.
         12    1    1    2    0    0 -0.95959506711E+00  0.57932933228E+00  0.36951184952E+00  0.11802475058E+01  0.00000000000E+00 0. -1.
         11    1    3    3    0    0 -0.70105954345E+01 -0.26577455274E+01  0.10268855483E+01  0.75674668037E+01  0.51100000000E-03 0. -1.
        -11    1    3    3    0    0 -0.29218652941E+02 -0.23326162325E+02 -0.28473030207E+00  0.37388776392E+02  0.51100000000E-03 0.  1.
         12    1    3    3    0    0  0.37188843443E+02  0.25404578520E+02 -0.11116670958E+01  0.45051509299E+02  0.00000000000E+00 0. -1.
</event>
<event>
 7    1  0.1501154E-015  0.9000774E+02  0.7816164E-02  0.1186339E+00
        -11   -1    0    0    0    0  0.00000000000E+00  0.00000000000E+00  0.45593999997E+02  0.45594000000E+02  0.51100000000E-03 0.  1.
         11   -1    0    0    0    0 -0.00000000000E+00 -0.00000000000E+00 -0.45593999997E+02  0.45594000000E+02  0.51100000000E-03 0. -1.
    9900012    2    1    2    0    0 -0.80111421322E+00 -0.48887151271E+00  0.71570224347E+00  0.90007741960E+02  0.90000003354E+02 0.  0.
         12    1    1    2    0    0  0.80111421322E+00  0.48887151271E+00 -0.71570224347E+00  0.11802580395E+01  0.00000000000E+00 0. -1.
         11    1    3    3    0    0 -0.36637153335E+02  0.11790672159E+02 -0.79101268582E+01  0.39292124677E+02  0.51100000000E-03 0. -1.
        -11    1    3    3    0    0 -0.10225183291E+01  0.70545581173E+01  0.54499767401E+01  0.89729917359E+01  0.51100000000E-03 0.  1.
        -12    1    3    3    0    0  0.36858557451E+02 -0.19334101789E+02  0.31758523616E+01  0.41742625547E+02  0.00000000000E+00 0.  1.
</event>
<event>
 7    1  0.1501154E-015  0.9000776E+02  0.7816164E-02  0.1186339E+00
        -11   -1    0    0    0    0  0.00000000000E+00  0.00000000000E+00  0.45593999997E+02  0.45594000000E+02  0.51100000000E-03 0. -1.
         11   -1    0    0    0    0 -0.00000000000E+00 -0.00000000000E+00 -0.45593999997E+02  0.45594000000E+02  0.51100000000E-03 0.  1.
    9900012    2    1    2    0    0 -0.10007057177E+01  0.36851270266E+00 -0.50572366571E+00  0.90007758511E+02  0.90000020124E+02 0.  0.
         12    1    1    2    0    0  0.10007057177E+01 -0.36851270266E+00  0.50572366571E+00  0.11802414887E+01  0.00000000000E+00 0. -1.
         11    1    3    3    0    0  0.32716446693E+01 -0.49452451324E+01 -0.88820556633E+01  0.10679420458E+02  0.51100000000E-03 0. -1.
        -11    1    3    3    0    0  0.18372723050E+02  0.37720982579E+01 -0.29625844038E+02  0.35063889014E+02  0.51100000000E-03 0.  1.
         12    1    3    3    0    0 -0.22645073437E+02  0.15416595771E+01  0.38002176036E+02  0.44264449039E+02  0.00000000000E+00 0. -1.
</event>
<event>
 7    1  0.1501154E-015  0.9000777E+02  0.7816164E-02  0.1186339E+00
        -11   -1    0    0    0    0  0.00000000000E+00  0.00000000000E+00  0.45593999997E+02  0.45594000000E+02  0.51100000000E-03 0. -1.
         11   -1    0    0    0    0 -0.00000000000E+00 -0.00000000000E+00 -0.45593999997E+02  0.45594000000E+02  0.51100000000E-03 0.  1.
    9900012    2    1    2    0    0 -0.11420555651E+01 -0.52701940594E-01 -0.29304943980E+00  0.90007768505E+02  0.90000030249E+02 0.  0.
         12    1    1    2    0    0  0.11420555651E+01  0.52701940594E-01  0.29304943980E+00  0.11802314953E+01  0.00000000000E+00 0. -1.
         11    1    3    3    0    0 -0.28674406633E+01 -0.24471715758E+02  0.33906202732E+02  0.41913215960E+02  0.51100000000E-03 0. -1.
        -11    1    3    3    0    0  0.51975431503E+01 -0.30706864243E+01 -0.73568097386E+01  0.95166285893E+01  0.51100000000E-03 0.  1.
        -12    1    3    3    0    0 -0.34721580521E+01  0.27489700242E+02 -0.26842442434E+02  0.38577923956E+02  0.00000000000E+00 0.  1.
</event>
<event>
 7    1  0.1501154E-015  0.9000764E+02  0.7816164E-02  0.1186339E+00
        -11   -1    0    0    0    0  0.00000000000E+00  0.00000000000E+00  0.45593999997E+02  0.45594000000E+02  0.51100000000E-03 0. -1.
         11   -1    0    0    0    0 -0.00000000000E+00 -0.00000000000E+00 -0.45593999997E+02  0.45594000000E+02  0.51100000000E-03 0.  1.
    9900012    2    1    2    0    0 -0.14455188973E-01  0.11321230098E+01  0.33366303412E+00  0.90007643070E+02  0.89999903159E+02 0.  0.
         12    1    1    2    0    0  0.14455188973E-01 -0.11321230098E+01 -0.33366303412E+00  0.11803569300E+01  0.00000000000E+00 0. -1.
         11    1    3    3    0    0  0.62933610014E+00  0.35838030661E+02  0.13536975570E+02  0.38314621405E+02  0.51100000000E-03 0. -1.
        -11    1    3    3    0    0  0.46952383133E+01  0.94098778629E+00  0.84008935370E+01  0.96698362610E+01  0.51100000000E-03 0.  1.
        -12    1    3    3    0    0 -0.53390296024E+01 -0.35646895437E+02 -0.21604206073E+02  0.42023185404E+02  0.00000000000E+00 0.  1.
</event>
<event>
 7    1  0.1501154E-015  0.9000780E+02  0.7816164E-02  0.1186339E+00
        -11   -1    0    0    0    0  0.00000000000E+00  0.00000000000E+00  0.45593999997E+02  0.45594000000E+02  0.51100000000E-03 0.  1.
         11   -1    0    0    0    0 -0.00000000000E+00 -0.00000000000E+00 -0.45593999997E+02  0.45594000000E+02  0.51100000000E-03 0. -1.
    9900012    2    1    2    0    0 -0.22298463200E+00  0.47235827361E-01  0.11579821525E+01  0.90007798307E+02  0.90000060445E+02 0.  0.
         12    1    1    2    0    0  0.22298463200E+00 -0.47235827361E-01 -0.11579821525E+01  0.11802016925E+01  0.00000000000E+00 0. -1.
         11    1    3    3    0    0  0.18576471993E+01  0.83626661004E+00  0.91707780101E+01  0.93943261883E+01  0.51100000000E-03 0. -1.
        -11    1    3    3    0    0  0.32332371970E+02 -0.19747905934E+02  0.70475173717E+01  0.38536081370E+02  0.51100000000E-03 0.  1.
         12    1    3    3    0    0 -0.34413003802E+02  0.18958875152E+02 -0.15060313229E+02  0.42077390749E+02  0.00000000000E+00 0. -1.
</event>
<event>
 7    1  0.1501154E-015  0.9000752E+02  0.7816164E-02  0.1186339E+00
        -11   -1    0    0    0    0  0.00000000000E+00  0.00000000000E+00  0.45593999997E+02  0.45594000000E+02  0.51100000000E-03 0.  1.
         11   -1    0    0    0    0 -0.00000000000E+00 -0.00000000000E+00 -0.45593999997E+02  0.45594000000E+02  0.51100000000E-03 0. -1.
    9900012    2    1    2    0    0 -0.33276696377E+00 -0.77357663239E+00 -0.82727528898E+00  0.90007517445E+02  0.89999775875E+02 0.  0.
         12    1    1    2    0    0  0.33276696377E+00  0.77357663239E+00  0.82727528898E+00  0.11804825548E+01  0.00000000000E+00 0. -1.
         11    1    3    3    0    0 -0.41593311100E+01 -0.58396087868E+01 -0.37190131430E+01  0.80766407054E+01  0.51100000000E-03 0. -1.
        -11    1    3    3    0    0 -0.36703217560E+02  0.84923500854E+01 -0.10499819120E+02  0.39108725254E+02  0.51100000000E-03 0.  1.
         12    1    3    3    0    0  0.40529781706E+02 -0.34263179310E+01  0.13391556974E+02  0.42822151486E+02  0.00000000000E+00 0. -1.
</event>
<event>
 7    1  0.1501154E-015  0.9000775E+02  0.7816164E-02  0.1186339E+00
        -11   -1    0    0    0    0  0.00000000000E+00  0.00000000000E+00  0.45593999997E+02  0.45594000000E+02  0.51100000000E-03 0. -1.
         11   -1    0    0    0    0 -0.00000000000E+00 -0.00000000000E+00 -0.45593999997E+02  0.45594000000E+02  0.51100000000E-03 0.  1.
    9900012    2    1    2    0    0 -0.37945147440E+00  0.27408595613E-01 -0.11172483031E+01  0.90007754931E+02  0.90000016496E+02 0.  0.
         12    1    1    2    0    0  0.37945147440E+00 -0.27408595613E-01  0.11172483031E+01  0.11802450692E+01  0.00000000000E+00 0. -1.
         11    1    3    3    0    0 -0.12004601132E+02  0.32735485528E+02 -0.22039372530E+02  0.41248713954E+02  0.51100000000E-03 0. -1.
        -11    1    3    3    0    0  0.46042586129E+01 -0.41438536372E+01 -0.61889180167E+01  0.87563363812E+01  0.51100000000E-03 0.  1.
        -12    1    3    3    0    0  0.70208910445E+01 -0.28564223295E+02  0.27111042243E+02  0.40002704596E+02  0.00000000000E+00 0.  1.
</event>
<event>
 7    1  0.1501154E-015  0.9000771E+02  0.7816164E-02  0.1186339E+00
        -11   -1    0    0    0    0  0.00000000000E+00  0.00000000000E+00  0.45593999997E+02  0.45594000000E+02  0.51100000000E-03 0.  1.
         11   -1    0    0    0    0 -0.00000000000E+00 -0.00000000000E+00 -0.45593999997E+02  0.45594000000E+02  0.51100000000E-03 0. -1.
    9900012    2    1    2    0    0 -0.38310670557E+00 -0.10916370120E+01  0.23373382824E+00  0.90007714604E+02  0.89999975637E+02 0.  0.
         12    1    1    2    0    0  0.38310670557E+00  0.10916370120E+01 -0.23373382824E+00  0.11802853961E+01  0.00000000000E+00 0. -1.
         11    1    3    3    0    0  0.32454996995E+01 -0.46811358023E+01 -0.60480855467E+01  0.83081670506E+01  0.51100000000E-03 0. -1.
        -11    1    3    3    0    0  0.98263800770E+01 -0.34715894294E+01  0.41793599113E+02  0.43073363064E+02  0.51100000000E-03 0.  1.
         12    1    3    3    0    0 -0.13454986482E+02  0.70610882197E+01 -0.35511779738E+02  0.38626184489E+02  0.00000000000E+00 0. -1.
</event>
<event>
 7    1  0.1501154E-015  0.9000785E+02  0.7816164E-02  0.1186339E+00
        -11   -1    0    0    0    0  0.00000000000E+00  0.00000000000E+00  0.45593999997E+02  0.45594000000E+02  0.51100000000E-03 0.  1.
         11   -1    0    0    0    0 -0.00000000000E+00 -0.00000000000E+00 -0.45593999997E+02  0.45594000000E+02  0.51100000000E-03 0. -1.
    9900012    2    1    2    0    0  0.39464938742E+00  0.89324491883E+00  0.66265945490E+00  0.90007850782E+02  0.90000113612E+02 0.  0.
         12    1    1    2    0    0 -0.39464938742E+00 -0.89324491883E+00 -0.66265945490E+00  0.11801492182E+01  0.00000000000E+00 0. -1.
         11    1    3    3    0    0 -0.11303230987E+02  0.23087713129E+02 -0.78416603722E+01  0.26875586802E+02  0.51100000000E-03 0. -1.
        -11    1    3    3    0    0 -0.21652654513E+02 -0.14435527304E+02 -0.46791425184E+01  0.26440806927E+02  0.51100000000E-03 0.  1.
        -12    1    3    3    0    0  0.33350534887E+02 -0.77589409066E+01  0.13183462346E+02  0.36691457053E+02  0.00000000000E+00 0.  1.
</event>
<event>
 7    1  0.1501154E-015  0.9000769E+02  0.7816164E-02  0.1186339E+00
        -11   -1    0    0    0    0  0.00000000000E+00  0.00000000000E+00  0.45593999997E+02  0.45594000000E+02  0.51100000000E-03 0. -1.
         11   -1    0    0    0    0 -0.00000000000E+00 -0.00000000000E+00 -0.45593999997E+02  0.45594000000E+02  0.51100000000E-03 0.  1.
    9900012    2    1    2    0    0 -0.79819192954E+00  0.77237065671E+00 -0.39932083274E+00  0.90007693296E+02  0.89999954048E+02 0.  0.
         12    1    1    2    0    0  0.79819192954E+00 -0.77237065671E+00  0.39932083274E+00  0.11803067039E+01  0.00000000000E+00 0. -1.
         11    1    3    3    0    0 -0.28638155286E+02  0.17836501745E+02  0.25853717696E+02  0.42505287338E+02  0.51100000000E-03 0. -1.
        -11    1    3    3    0    0  0.17344932392E+01 -0.90756780622E+01  0.53366700118E+00  0.92553335875E+01  0.51100000000E-03 0.  1.
        -12    1    3    3    0    0  0.26105470117E+02 -0.79884530260E+01 -0.26786705530E+02  0.38247072371E+02  0.00000000000E+00 0.  1.
</event>
<event>
 7    1  0.1501154E-015  0.9000772E+02  0.7816164E-02  0.1186339E+00
        -11   -1    0    0    0    0  0.00000000000E+00  0.00000000000E+00  0.45593999997E+02  0.45594000000E+02  0.51100000000E-03 0. -1.
         11   -1    0    0    0    0 -0.00000000000E+00 -0.00000000000E+00 -0.45593999997E+02  0.45594000000E+02  0.51100000000E-03 0.  1.
    9900012    2    1    2    0    0 -0.66375829986E-01 -0.64540824421E+00 -0.98595527481E+00  0.90007718103E+02  0.89999979182E+02 0.  0.
         12    1    1    2    0    0  0.66375829986E-01  0.64540824421E+00  0.98595527481E+00  0.11802818970E+01  0.00000000000E+00 0. -1.
         11    1    3    3    0    0  0.45636145599E+01  0.14122447366E+01 -0.22655944049E+01  0.52871477486E+01  0.51100000000E-03 0. -1.
        -11    1    3    3    0    0  0.34836363706E+02 -0.24935197884E+01  0.20840136443E+02  0.40670642538E+02  0.51100000000E-03 0.  1.
         12    1    3    3    0    0 -0.39466354096E+02  0.43586680756E+00 -0.19560497313E+02  0.44049927817E+02  0.00000000000E+00 0. -1.
</event>
<event>
 7    1  0.1501154E-015  0.9000778E+02  0.7816164E-02  0.1186339E+00
        -11   -1    0    0    0    0  0.00000000000E+00  0.00000000000E+00  0.45593999997E+02  0.45594000000E+02  0.51100000000E-03 0.  1.
         11   -1    0    0    0    0 -0.00000000000E+00 -0.00000000000E+00 -0.45593999997E+02  0.45594000000E+02  0.51100000000E-03 0. -1.
    9900012    2    1    2    0    0 -0.14361166799E+00 -0.11331151089E+01 -0.29724499675E+00  0.90007775975E+02  0.90000037818E+02 0.  0.
         12    1    1    2    0    0  0.14361166799E+00  0.11331151089E+01  0.29724499675E+00  0.11802240251E+01  0.00000000000E+00 0. -1.
         11    1    3    3    0    0  0.26956407301E+02  0.22486854638E+02 -0.11441484448E+02  0.36921729275E+02  0.51100000000E-03 0. -1.
        -11    1    3    3    0    0  0.74490864286E+01  0.17185647747E+01  0.64173644161E+01  0.99812283721E+01  0.51100000000E-03 0.  1.
        -12    1    3    3    0    0 -0.34549105397E+02 -0.25338534521E+02  0.47268750349E+01  0.43104818327E+02  0.00000000000E+00 0.  1.
</event>
<event>
 7    1  0.1501154E-015  0.9000786E+02  0.7816164E-02  0.1186339E+00
        -11   -1    0    0    0    0  0.00000000000E+00  0.00000000000E+00  0.45593999997E+02  0.45594000000E+02  0.51100000000E-03 0.  1.
         11   -1    0    0    0    0 -0.00000000000E+00 -0.00000000000E+00 -0.45593999997E+02  0.45594000000E+02  0.51100000000E-03 0. -1.
    9900012    2    1    2    0    0 -0.32022241371E+00 -0.10788793721E+01  0.35524836731E+00  0.90007862510E+02  0.90000125495E+02 0.  0.
         12    1    1    2    0    0  0.32022241371E+00  0.10788793721E+01 -0.35524836731E+00  0.11801374904E+01  0.00000000000E+00 0. -1.
         11    1    3    3    0    0 -0.91417961798E+01 -0.27717184177E+02  0.23289322385E+02  0.37339085065E+02  0.51100000000E-03 0. -1.
        -11    1    3    3    0    0  0.78409776976E-01  0.28909496368E+01  0.10412928241E+02  0.10807072347E+02  0.51100000000E-03 0.  1.
        -12    1    3    3    0    0  0.87431639891E+01  0.23747355168E+02 -0.33347002259E+02  0.41861705097E+02  0.00000000000E+00 0.  1.
</event>
<event>
 7    1  0.1501154E-015  0.9000767E+02  0.7816164E-02  0.1186339E+00
        -11   -1    0    0    0    0  0.00000000000E+00  0.00000000000E+00  0.45593999997E+02  0.45594000000E+02  0.51100000000E-03 0.  1.
         11   -1    0    0    0    0 -0.00000000000E+00 -0.00000000000E+00 -0.45593999997E+02  0.45594000000E+02  0.51100000000E-03 0. -1.
    9900012    2    1    2    0    0 -0.72542906230E+00 -0.89394602910E+00 -0.26037691529E+00  0.90007668282E+02  0.89999928703E+02 0.  0.
         12    1    1    2    0    0  0.72542906230E+00  0.89394602910E+00  0.26037691529E+00  0.11803317184E+01  0.00000000000E+00 0. -1.
         11    1    3    3    0    0  0.72499084164E+01  0.49849118878E+01 -0.15250142688E+01  0.89295121567E+01  0.51100000000E-03 0. -1.
        -11    1    3    3    0    0 -0.11982290606E+02 -0.27308251239E+02  0.31776468775E+02  0.43578203749E+02  0.51100000000E-03 0.  1.
         12    1    3    3    0    0  0.40069531269E+01  0.21429393322E+02 -0.30511831422E+02  0.37499952376E+02  0.00000000000E+00 0. -1.
</event>
<event>
 7    1  0.1501154E-015  0.9000777E+02  0.7816164E-02  0.1186339E+00
        -11   -1    0    0    0    0  0.00000000000E+00  0.00000000000E+00  0.45593999997E+02  0.45594000000E+02  0.51100000000E-03 0. -1.
         11   -1    0    0    0    0 -0.00000000000E+00 -0.00000000000E+00 -0.45593999997E+02  0.45594000000E+02  0.51100000000E-03 0.  1.
    9900012    2    1    2    0    0  0.11592147694E+01  0.19960685670E+00  0.96490677828E-01  0.90007774500E+02  0.90000036324E+02 0.  0.
         12    1    1    2    0    0 -0.11592147694E+01 -0.19960685670E+00 -0.96490677828E-01  0.11802254996E+01  0.00000000000E+00 0. -1.
         11    1    3    3    0    0 -0.74988128578E+01 -0.34127027254E+02  0.19248072622E+02  0.39892035338E+02  0.51100000000E-03 0. -1.
        -11    1    3    3    0    0  0.11167334573E+02  0.37678536033E+01  0.31522201536E+01  0.12200105508E+02  0.51100000000E-03 0.  1.
        -12    1    3    3    0    0 -0.25093069462E+01  0.30558780507E+02 -0.22303802098E+02  0.37915633655E+02  0.00000000000E+00 0.  1.
</event>
<event>
 7    1  0.1501154E-015  0.9000773E+02  0.7816164E-02  0.1186339E+00
        -11   -1    0    0    0    0  0.00000000000E+00  0.00000000000E+00  0.45593999997E+02  0.45594000000E+02  0.51100000000E-03 0.  1.
         11   -1    0    0    0    0 -0.00000000000E+00 -0.00000000000E+00 -0.45593999997E+02  0.45594000000E+02  0.51100000000E-03 0. -1.
    9900012    2    1    2    0    0  0.84556835820E+00  0.79740392205E+00  0.20540624799E+00  0.90007732831E+02  0.89999994104E+02 0.  0.
         12    1    1    2    0    0 -0.84556835820E+00 -0.79740392205E+00 -0.20540624799E+00  0.11802671689E+01  0.00000000000E+00 0. -1.
         11    1    3    3    0    0 -0.22034928770E+02  0.25608556080E+02 -0.14040291118E+02  0.36585051665E+02  0.51100000000E-03 0. -1.
        -11    1    3    3    0    0 -0.29842170235E+01  0.17180862462E+01 -0.90319935169E+01  0.96661408402E+01  0.51100000000E-03 0.  1.
        -12    1    3    3    0    0  0.25864714151E+02 -0.26529238404E+02  0.23277690883E+02  0.43756540326E+02  0.00000000000E+00 0.  1.
</event>
<event>
 7    1  0.1501154E-015  0.9000779E+02  0.7816164E-02  0.1186339E+00
        -11   -1    0    0    0    0  0.00000000000E+00  0.00000000000E+00  0.45593999997E+02  0.45594000000E+02  0.51100000000E-03 0. -1.
         11   -1    0    0    0    0 -0.00000000000E+00 -0.00000000000E+00 -0.45593999997E+02  0.45594000000E+02  0.51100000000E-03 0.  1.
    9900012    2    1    2    0    0 -0.10054381733E+01 -0.58673233580E+00 -0.19426392998E+00  0.90007788481E+02  0.90000050489E+02 0.  0.
         12    1    1    2    0    0  0.10054381733E+01  0.58673233580E+00  0.19426392998E+00  0.11802115186E+01  0.00000000000E+00 0. -1.
         11    1    3    3    0    0 -0.30830249091E+02 -0.36110899507E+01 -0.18200109051E+02  0.35983165500E+02  0.51100000000E-03 0. -1.
        -11    1    3    3    0    0  0.84497116568E+00  0.43483105769E+01 -0.11695651206E+02  0.12506399903E+02  0.51100000000E-03 0.  1.
        -12    1    3    3    0    0  0.28979839752E+02 -0.13239529620E+01  0.29701496327E+02  0.41518223078E+02  0.00000000000E+00 0.  1.
</event>
<event>
 7    1  0.1501154E-015  0.9000775E+02  0.7816164E-02  0.1186339E+00
        -11   -1    0    0    0    0  0.00000000000E+00  0.00000000000E+00  0.45593999997E+02  0.45594000000E+02  0.51100000000E-03 0.  1.
         11   -1    0    0    0    0 -0.00000000000E+00 -0.00000000000E+00 -0.45593999997E+02  0.45594000000E+02  0.51100000000E-03 0. -1.
    9900012    2    1    2    0    0  0.68531949485E+00  0.76619236527E+00  0.57989011012E+00  0.90007751683E+02  0.90000013205E+02 0.  0.
         12    1    1    2    0    0 -0.68531949485E+00 -0.76619236527E+00 -0.57989011012E+00  0.11802483173E+01  0.00000000000E+00 0. -1.
         11    1    3    3    0    0 -0.30040320051E+02 -0.20180615201E+02 -0.40846437176E+01  0.36419258274E+02  0.51100000000E-03 0. -1.
        -11    1    3    3    0    0 -0.42828107643E+00  0.20246175817E+01  0.15440680837E+02  0.15578739551E+02  0.51100000000E-03 0.  1.
        -12    1    3    3    0    0  0.31153920622E+02  0.18922189985E+02 -0.10776147009E+02  0.38009753858E+02  0.00000000000E+00 0.  1.
</event>
<event>
 7    1  0.1501154E-015  0.9000672E+02  0.7816164E-02  0.1186341E+00
        -11   -1    0    0    0    0  0.00000000000E+00  0.00000000000E+00  0.45593999997E+02  0.45594000000E+02  0.51100000000E-03 0.  1.
         11   -1    0    0    0    0 -0.00000000000E+00 -0.00000000000E+00 -0.45593999997E+02  0.45594000000E+02  0.51100000000E-03 0. -1.
    9900012    2    1    2    0    0 -0.43868527634E+00  0.10230977639E+01  0.39528267831E+00  0.90006720100E+02  0.89998967999E+02 0.  0.
         12    1    1    2    0    0  0.43868527634E+00 -0.10230977639E+01 -0.39528267831E+00  0.11812798999E+01  0.00000000000E+00 0. -1.
         11    1    3    3    0    0 -0.71542784173E+01 -0.32883140551E+02 -0.14937949258E+02  0.36818839749E+02  0.51100000000E-03 0. -1.
        -11    1    3    3    0    0 -0.94004555846E+01 -0.10355508916E+00 -0.47464241613E+01  0.10531278718E+02  0.51100000000E-03 0.  1.
        -12    1    3    3    0    0  0.16116048726E+02  0.34009793404E+02  0.20079656098E+02  0.42656601633E+02  0.00000000000E+00 0.  1.
</event>
<event>
 7    1  0.1501154E-015  0.9000749E+02  0.7816164E-02  0.1186340E+00
        -11   -1    0    0    0    0  0.00000000000E+00  0.00000000000E+00  0.45593999997E+02  0.45594000000E+02  0.51100000000E-03 0. -1.
         11   -1    0    0    0    0 -0.00000000000E+00 -0.00000000000E+00 -0.45593999997E+02  0.45594000000E+02  0.51100000000E-03 0.  1.
    9900012    2    1    2    0    0  0.64945972726E+00  0.95205958121E+00 -0.25570910210E+00  0.90007490564E+02  0.89999748639E+02 0.  0.
         12    1    1    2    0    0 -0.64945972726E+00 -0.95205958121E+00  0.25570910210E+00  0.11805094360E+01  0.00000000000E+00 0. -1.
         11    1    3    3    0    0 -0.87312412844E+01  0.26054217525E+01  0.28890322518E+01  0.95587292297E+01  0.51100000000E-03 0. -1.
        -11    1    3    3    0    0  0.36488549631E+01  0.29333128757E+02 -0.27691809155E+02  0.40504109417E+02  0.51100000000E-03 0.  1.
         12    1    3    3    0    0  0.57318460486E+01 -0.30986490928E+02  0.24547067801E+02  0.39944651917E+02  0.00000000000E+00 0. -1.
</event>
<event>
 7    1  0.1501154E-015  0.9000773E+02  0.7816164E-02  0.1186339E+00
        -11   -1    0    0    0    0  0.00000000000E+00  0.00000000000E+00  0.45593999997E+02  0.45594000000E+02  0.51100000000E-03 0.  1.
         11   -1    0    0    0    0 -0.00000000000E+00 -0.00000000000E+00 -0.45593999997E+02  0.45594000000E+02  0.51100000000E-03 0. -1.
    9900012    2    1    2    0    0  0.98010869043E+00  0.54465508225E+00 -0.36846248918E+00  0.90007734433E+02  0.89999995727E+02 0.  0.
         12    1    1    2    0    0 -0.98010869043E+00 -0.54465508225E+00  0.36846248918E+00  0.11802655674E+01  0.00000000000E+00 0. -1.
         11    1    3    3    0    0  0.43680478961E+00 -0.33341192630E+02  0.99836036358E+01  0.34806583662E+02  0.51100000000E-03 0. -1.
        -11    1    3    3    0    0  0.43090982239E+01 -0.73184718777E+01  0.63262988595E+01  0.10590109331E+02  0.51100000000E-03 0.  1.
        -12    1    3    3    0    0 -0.37657943231E+01  0.41204319590E+02 -0.16678364985E+02  0.44611041439E+02  0.00000000000E+00 0.  1.
</event>
<event>
 7    1  0.1501154E-015  0.9000778E+02  0.7816164E-02  0.1186339E+00
        -11   -1    0    0    0    0  0.00000000000E+00  0.00000000000E+00  0.45593999997E+02  0.45594000000E+02  0.51100000000E-03 0.  1.
         11   -1    0    0    0    0 -0.00000000000E+00 -0.00000000000E+00 -0.45593999997E+02  0.45594000000E+02  0.51100000000E-03 0. -1.
    9900012    2    1    2    0    0  0.61103071610E-02 -0.11766006810E+01  0.92167229551E-01  0.90007779132E+02  0.90000041017E+02 0.  0.
         12    1    1    2    0    0 -0.61103071610E-02  0.11766006810E+01 -0.92167229551E-01  0.11802208677E+01  0.00000000000E+00 0. -1.
         11    1    3    3    0    0  0.94735214456E+01  0.18777962588E+02 -0.26437893530E+02  0.33783453081E+02  0.51100000000E-03 0. -1.
        -11    1    3    3    0    0  0.12425863625E+02  0.53588139895E+01  0.24631538168E-01  0.13532168384E+02  0.51100000000E-03 0.  1.
        -12    1    3    3    0    0 -0.21893274763E+02 -0.25313377259E+02  0.26505429221E+02  0.42692157667E+02  0.00000000000E+00 0.  1.
</event>
<event>
 7    1  0.1501154E-015  0.9000762E+02  0.7816164E-02  0.1186339E+00
        -11   -1    0    0    0    0  0.00000000000E+00  0.00000000000E+00  0.45593999997E+02  0.45594000000E+02  0.51100000000E-03 0.  1.
         11   -1    0    0    0    0 -0.00000000000E+00 -0.00000000000E+00 -0.45593999997E+02  0.45594000000E+02  0.51100000000E-03 0. -1.
    9900012    2    1    2    0    0  0.94354709689E+00  0.64201990339E+00 -0.30135600736E+00  0.90007624584E+02  0.89999884428E+02 0.  0.
         12    1    1    2    0    0 -0.94354709689E+00 -0.64201990339E+00  0.30135600736E+00  0.11803754164E+01  0.00000000000E+00 0. -1.
         11    1    3    3    0    0 -0.18218584932E+02 -0.29421318286E+02 -0.17421041674E+02  0.38743044536E+02  0.51100000000E-03 0. -1.
        -11    1    3    3    0    0 -0.35758705110E+01 -0.44605903866E+01 -0.15228922089E+01  0.59163263474E+01  0.51100000000E-03 0.  1.
        -12    1    3    3    0    0  0.22738002540E+02  0.34523928576E+02  0.18642577875E+02  0.45348253701E+02  0.00000000000E+00 0.  1.
</event>
<event>
 7    1  0.1501154E-015  0.9000772E+02  0.7816164E-02  0.1186339E+00
        -11   -1    0    0    0    0  0.00000000000E+00  0.00000000000E+00  0.45593999997E+02  0.45594000000E+02  0.51100000000E-03 0. -1.
         11   -1    0    0    0    0 -0.00000000000E+00 -0.00000000000E+00 -0.45593999997E+02  0.45594000000E+02  0.51100000000E-03 0.  1.
    9900012    2    1    2    0    0 -0.53819527968E+00  0.83692885986E+00 -0.63478036417E+00  0.90007724529E+02  0.89999985693E+02 0.  0.
         12    1    1    2    0    0  0.53819527968E+00 -0.83692885986E+00  0.63478036417E+00  0.11802754705E+01  0.00000000000E+00 0. -1.
         11    1    3    3    0    0  0.35898341566E+02 -0.34366324353E+01  0.90878660832E+01  0.37189927130E+02  0.51100000000E-03 0. -1.
        -11    1    3    3    0    0  0.49881020506E+01  0.55466242924E+01  0.48369213409E+01  0.88905574307E+01  0.51100000000E-03 0.  1.
        -12    1    3    3    0    0 -0.41424638897E+02 -0.12730629973E+01 -0.14559567788E+02  0.43927239969E+02  0.00000000000E+00 0.  1.
</event>
<event>
 7    1  0.1501154E-015  0.9000775E+02  0.7816164E-02  0.1186339E+00
        -11   -1    0    0    0    0  0.00000000000E+00  0.00000000000E+00  0.45593999997E+02  0.45594000000E+02  0.51100000000E-03 0.  1.
         11   -1    0    0    0    0 -0.00000000000E+00 -0.00000000000E+00 -0.45593999997E+02  0.45594000000E+02  0.51100000000E-03 0. -1.
    9900012    2    1    2    0    0  0.28574968033E+00 -0.85220505658E+00  0.76490893512E+00  0.90007749172E+02  0.90000010661E+02 0.  0.
         12    1    1    2    0    0 -0.28574968033E+00  0.85220505658E+00 -0.76490893512E+00  0.11802508281E+01  0.00000000000E+00 0. -1.
         11    1    3    3    0    0 -0.92068564774E+01 -0.25958964595E+01  0.35854432629E+01  0.10215688341E+02  0.51100000000E-03 0. -1.
        -11    1    3    3    0    0  0.41635810278E+02  0.19740362121E+01  0.13404953454E+02  0.43785046464E+02  0.51100000000E-03 0.  1.
         12    1    3    3    0    0 -0.32143204120E+02 -0.23034480922E+00 -0.16225487782E+02  0.36007014367E+02  0.00000000000E+00 0. -1.
</event>
<event>
 7    1  0.1501154E-015  0.9000772E+02  0.7816164E-02  0.1186339E+00
        -11   -1    0    0    0    0  0.00000000000E+00  0.00000000000E+00  0.45593999997E+02  0.45594000000E+02  0.51100000000E-03 0. -1.
         11   -1    0    0    0    0 -0.00000000000E+00 -0.00000000000E+00 -0.45593999997E+02  0.45594000000E+02  0.51100000000E-03 0.  1.
    9900012    2    1    2    0    0  0.63312808790E-01 -0.93323031151E+00 -0.71981024622E+00  0.90007722864E+02  0.89999984006E+02 0.  0.
         12    1    1    2    0    0 -0.63312808790E-01  0.93323031151E+00  0.71981024622E+00  0.11802771355E+01  0.00000000000E+00 0. -1.
         11    1    3    3    0    0 -0.29417251492E+02  0.24679894483E+02 -0.79512751900E+01  0.39213449918E+02  0.51100000000E-03 0. -1.
        -11    1    3    3    0    0  0.76438548996E+01  0.38112608618E+01 -0.74369619046E+01  0.11325309255E+02  0.51100000000E-03 0.  1.
        -12    1    3    3    0    0  0.21836709401E+02 -0.29424385657E+02  0.14668426848E+02  0.39468963692E+02  0.00000000000E+00 0.  1.
</event>
<event>
 7    1  0.1501154E-015  0.9000772E+02  0.7816164E-02  0.1186339E+00
        -11   -1    0    0    0    0  0.00000000000E+00  0.00000000000E+00  0.45593999997E+02  0.45594000000E+02  0.51100000000E-03 0.  1.
         11   -1    0    0    0    0 -0.00000000000E+00 -0.00000000000E+00 -0.45593999997E+02  0.45594000000E+02  0.51100000000E-03 0. -1.
    9900012    2    1    2    0    0  0.52712833179E+00 -0.10484577533E+01  0.12623802508E+00  0.90007718687E+02  0.89999979774E+02 0.  0.
         12    1    1    2    0    0 -0.52712833179E+00  0.10484577533E+01 -0.12623802508E+00  0.11802813129E+01  0.00000000000E+00 0. -1.
         11    1    3    3    0    0  0.38232081183E+02  0.11133910287E+02 -0.51331935342E+01  0.40149790361E+02  0.51100000000E-03 0. -1.
        -11    1    3    3    0    0 -0.26128371350E+01  0.84623147263E+01  0.57881766279E+00  0.88753996287E+01  0.51100000000E-03 0.  1.
        -12    1    3    3    0    0 -0.35092115717E+02 -0.20644682766E+02  0.46806138964E+01  0.40982528698E+02  0.00000000000E+00 0.  1.
</event>
<event>
 7    1  0.1501154E-015  0.9000766E+02  0.7816164E-02  0.1186339E+00
        -11   -1    0    0    0    0  0.00000000000E+00  0.00000000000E+00  0.45593999997E+02  0.45594000000E+02  0.51100000000E-03 0. -1.
         11   -1    0    0    0    0 -0.00000000000E+00 -0.00000000000E+00 -0.45593999997E+02  0.45594000000E+02  0.51100000000E-03 0.  1.
    9900012    2    1    2    0    0  0.17602903142E+00 -0.74847163152E-01 -0.11647331533E+01  0.90007664609E+02  0.89999924981E+02 0.  0.
         12    1    1    2    0    0 -0.17602903142E+00  0.74847163152E-01  0.11647331533E+01  0.11803353914E+01  0.00000000000E+00 0. -1.
         11    1    3    3    0    0  0.10073613012E+01 -0.27154889870E+02  0.16618318074E+02  0.31852336123E+02  0.51100000000E-03 0. -1.
        -11    1    3    3    0    0 -0.17618897721E+02 -0.57110498088E+01 -0.64665916777E+01  0.19617809638E+02  0.51100000000E-03 0.  1.
        -12    1    3    3    0    0  0.16787565451E+02  0.32791092516E+02 -0.11316459550E+02  0.38537518847E+02  0.00000000000E+00 0.  1.
</event>
<event>
 7    1  0.1501154E-015  0.9000784E+02  0.7816164E-02  0.1186339E+00
        -11   -1    0    0    0    0  0.00000000000E+00  0.00000000000E+00  0.45593999997E+02  0.45594000000E+02  0.51100000000E-03 0.  1.
         11   -1    0    0    0    0 -0.00000000000E+00 -0.00000000000E+00 -0.45593999997E+02  0.45594000000E+02  0.51100000000E-03 0. -1.
    9900012    2    1    2    0    0  0.48635577426E+00  0.69198824162E+00  0.82302909439E+00  0.90007844690E+02  0.90000107440E+02 0.  0.
         12    1    1    2    0    0 -0.48635577426E+00 -0.69198824162E+00 -0.82302909439E+00  0.11801553101E+01  0.00000000000E+00 0. -1.
         11    1    3    3    0    0 -0.96111333381E+01  0.21140807973E+02 -0.29543135581E+02  0.37577979004E+02  0.51100000000E-03 0. -1.
        -11    1    3    3    0    0  0.77945563287E+01  0.94317445291E+01  0.51968396831E+01  0.13293609599E+02  0.51100000000E-03 0.  1.
        -12    1    3    3    0    0  0.23029327837E+01 -0.29880564261E+02  0.25169324992E+02  0.39136256087E+02  0.00000000000E+00 0.  1.
</event>
<event>
 7    1  0.1501154E-015  0.9000802E+02  0.7816164E-02  0.1186338E+00
        -11   -1    0    0    0    0  0.00000000000E+00  0.00000000000E+00  0.45593999997E+02  0.45594000000E+02  0.51100000000E-03 0. -1.
         11   -1    0    0    0    0 -0.00000000000E+00 -0.00000000000E+00 -0.45593999997E+02  0.45594000000E+02  0.51100000000E-03 0.  1.
    9900012    2    1    2    0    0 -0.62504192849E+00 -0.69871651079E-01  0.99839417360E+00  0.90008021023E+02  0.90000286100E+02 0.  0.
         12    1    1    2    0    0  0.62504192849E+00  0.69871651079E-01 -0.99839417360E+00  0.11799789769E+01  0.00000000000E+00 0. -1.
         11    1    3    3    0    0  0.71308881871E+01 -0.11220230176E+02 -0.26828718424E+01  0.13562482558E+02  0.51100000000E-03 0. -1.
        -11    1    3    3    0    0  0.29969349741E+02  0.19965849365E+02 -0.60126376101E+01  0.36509572389E+02  0.51100000000E-03 0.  1.
         12    1    3    3    0    0 -0.37725279856E+02 -0.88154908396E+01  0.96939036261E+01  0.39935966077E+02  0.00000000000E+00 0. -1.
</event>
<event>
 7    1  0.1711987E-015  0.9000774E+02  0.7816164E-02  0.1186339E+00
        -11   -1    0    0    0    0  0.00000000000E+00  0.00000000000E+00  0.45593999997E+02  0.45594000000E+02  0.51100000000E-03 0.  1.
         11   -1    0    0    0    0 -0.00000000000E+00 -0.00000000000E+00 -0.45593999997E+02  0.45594000000E+02  0.51100000000E-03 0. -1.
    9900012    2    1    2    0    0 -0.89403572793E+00 -0.40607449977E+00  0.65483955773E+00  0.90007741033E+02  0.90000002415E+02 0.  0.
         12    1    1    2    0    0  0.89403572793E+00  0.40607449977E+00 -0.65483955773E+00  0.11802589667E+01  0.00000000000E+00 0. -1.
         11    1    3    3    0    0  0.89982957245E+01  0.20356009973E+01  0.18799972065E+00  0.92275858989E+01  0.51100000000E-03 0. -1.
        -11    1    3    3    0    0  0.43921426179E+00 -0.24533212260E+01  0.39919461660E+02  0.39997188823E+02  0.51100000000E-03 0.  1.
         12    1    3    3    0    0 -0.10331545714E+02  0.11645728913E-01 -0.39452621823E+02  0.40782966312E+02  0.00000000000E+00 0. -1.
</event>
<event>
 7    1  0.1501154E-015  0.9000769E+02  0.7816164E-02  0.1186339E+00
        -11   -1    0    0    0    0  0.00000000000E+00  0.00000000000E+00  0.45593999997E+02  0.45594000000E+02  0.51100000000E-03 0.  1.
         11   -1    0    0    0    0 -0.00000000000E+00 -0.00000000000E+00 -0.45593999997E+02  0.45594000000E+02  0.51100000000E-03 0. -1.
    9900012    2    1    2    0    0 -0.73597327545E+00  0.36961235046E+00  0.84549569400E+00  0.90007689481E+02  0.89999950183E+02 0.  0.
         12    1    1    2    0    0  0.73597327545E+00 -0.36961235046E+00 -0.84549569400E+00  0.11803105186E+01  0.00000000000E+00 0. -1.
         11    1    3    3    0    0  0.58416848692E+01 -0.61401630920E+00  0.58415589471E+01  0.82840877188E+01  0.51100000000E-03 0. -1.
        -11    1    3    3    0    0 -0.18361195836E+02 -0.18738775391E+02  0.30004386661E+02  0.39856472935E+02  0.51100000000E-03 0.  1.
         12    1    3    3    0    0  0.11783537692E+02  0.19722404051E+02 -0.35000449914E+02  0.41867128827E+02  0.00000000000E+00 0. -1.
</event>
<event>
 7    1  0.1501154E-015  0.9000767E+02  0.7816164E-02  0.1186339E+00
        -11   -1    0    0    0    0  0.00000000000E+00  0.00000000000E+00  0.45593999997E+02  0.45594000000E+02  0.51100000000E-03 0.  1.
         11   -1    0    0    0    0 -0.00000000000E+00 -0.00000000000E+00 -0.45593999997E+02  0.45594000000E+02  0.51100000000E-03 0. -1.
    9900012    2    1    2    0    0  0.37287257147E+00 -0.99216119041E+00  0.51938393990E+00  0.90007670614E+02  0.89999931066E+02 0.  0.
         12    1    1    2    0    0 -0.37287257147E+00  0.99216119041E+00 -0.51938393990E+00  0.11803293860E+01  0.00000000000E+00 0. -1.
         11    1    3    3    0    0 -0.18133633778E+02  0.12224562735E+02 -0.18057750799E+02  0.28361082000E+02  0.51100000000E-03 0. -1.
        -11    1    3    3    0    0 -0.37316909959E+01  0.10042070038E+02 -0.12806982717E+02  0.16696930703E+02  0.51100000000E-03 0.  1.
        -12    1    3    3    0    0  0.22238197345E+02 -0.23258793964E+02  0.31384117455E+02  0.44949657910E+02  0.00000000000E+00 0.  1.
</event>
<event>
 7    1  0.1501154E-015  0.9000766E+02  0.7816164E-02  0.1186339E+00
        -11   -1    0    0    0    0  0.00000000000E+00  0.00000000000E+00  0.45593999997E+02  0.45594000000E+02  0.51100000000E-03 0.  1.
         11   -1    0    0    0    0 -0.00000000000E+00 -0.00000000000E+00 -0.45593999997E+02  0.45594000000E+02  0.51100000000E-03 0. -1.
    9900012    2    1    2    0    0 -0.11778390239E+01  0.52346515849E-01 -0.56172520137E-01  0.90007660949E+02  0.89999921273E+02 0.  0.
         12    1    1    2    0    0  0.11778390239E+01 -0.52346515849E-01  0.56172520137E-01  0.11803390513E+01  0.00000000000E+00 0. -1.
         11    1    3    3    0    0 -0.36049850921E+01  0.91721174258E+01  0.98688656263E+00  0.99044233016E+01  0.51100000000E-03 0. -1.
        -11    1    3    3    0    0  0.16728337118E+02  0.23039115392E+02 -0.24702893966E+02  0.37694443508E+02  0.51100000000E-03 0.  1.
         12    1    3    3    0    0 -0.14301191050E+02 -0.32158886302E+02  0.23659834883E+02  0.42408794139E+02  0.00000000000E+00 0. -1.
</event>
<event>
 7    1  0.1501154E-015  0.9000777E+02  0.7816164E-02  0.1186339E+00
        -11   -1    0    0    0    0  0.00000000000E+00  0.00000000000E+00  0.45593999997E+02  0.45594000000E+02  0.51100000000E-03 0.  1.
         11   -1    0    0    0    0 -0.00000000000E+00 -0.00000000000E+00 -0.45593999997E+02  0.45594000000E+02  0.51100000000E-03 0. -1.
    9900012    2    1    2    0    0  0.26206537115E+00 -0.11431981616E+01 -0.13176243319E+00  0.90007770516E+02  0.90000032287E+02 0.  0.
         12    1    1    2    0    0 -0.26206537115E+00  0.11431981616E+01  0.13176243319E+00  0.11802294837E+01  0.00000000000E+00 0. -1.
         11    1    3    3    0    0 -0.10839772557E+00  0.83342595199E+01 -0.61218065084E+01  0.10341573720E+02  0.51100000000E-03 0. -1.
        -11    1    3    3    0    0  0.21812254841E+02  0.20632909041E+02  0.24102799491E+02  0.38502419928E+02  0.51100000000E-03 0.  1.
         12    1    3    3    0    0 -0.21441791744E+02 -0.30110366722E+02 -0.18112755416E+02  0.41163776869E+02  0.00000000000E+00 0. -1.
</event>
<event>
 7    1  0.1501154E-015  0.9000779E+02  0.7816164E-02  0.1186339E+00
        -11   -1    0    0    0    0  0.00000000000E+00  0.00000000000E+00  0.45593999997E+02  0.45594000000E+02  0.51100000000E-03 0.  1.
         11   -1    0    0    0    0 -0.00000000000E+00 -0.00000000000E+00 -0.45593999997E+02  0.45594000000E+02  0.51100000000E-03 0. -1.
    9900012    2    1    2    0    0 -0.19792452786E+00  0.11082374909E+01  0.35428816992E+00  0.90007794695E+02  0.90000056785E+02 0.  0.
         12    1    1    2    0    0  0.19792452786E+00 -0.11082374909E+01 -0.35428816992E+00  0.11802053051E+01  0.00000000000E+00 0. -1.
         11    1    3    3    0    0  0.29921153478E+01 -0.96259318954E+01  0.23779386325E+01  0.10356925775E+02  0.51100000000E-03 0. -1.
        -11    1    3    3    0    0 -0.55930436704E+01  0.30335693403E+01  0.38149164962E+02  0.38676135639E+02  0.51100000000E-03 0.  1.
         12    1    3    3    0    0  0.24030037947E+01  0.77006000460E+01 -0.40172815424E+02  0.40974733281E+02  0.00000000000E+00 0. -1.
</event>
<event>
 7    1  0.2001350E-015  0.9000774E+02  0.7816164E-02  0.1186339E+00
        -11   -1    0    0    0    0  0.00000000000E+00  0.00000000000E+00  0.45593999997E+02  0.45594000000E+02  0.51100000000E-03 0.  1.
         11   -1    0    0    0    0 -0.00000000000E+00 -0.00000000000E+00 -0.45593999997E+02  0.45594000000E+02  0.51100000000E-03 0. -1.
    9900012    2    1    2    0    0 -0.41377778049E+00 -0.10318923724E+01  0.39623257630E+00  0.90007739785E+02  0.90000001150E+02 0.  0.
         12    1    1    2    0    0  0.41377778049E+00  0.10318923724E+01 -0.39623257630E+00  0.11802602147E+01  0.00000000000E+00 0. -1.
         11    1    3    3    0    0 -0.47474785634E+01  0.11751661539E+01 -0.36804401718E+02  0.37127934959E+02  0.51100000000E-03 0. -1.
        -11    1    3    3    0    0  0.76729810995E+01 -0.12499415607E+01 -0.58249184639E+01  0.97142507808E+01  0.51100000000E-03 0.  1.
        -12    1    3    3    0    0 -0.33392803167E+01 -0.95711696569E+00  0.43025552758E+02  0.43165554046E+02  0.00000000000E+00 0.  1.
</event>
<event>
 7    1  0.1501154E-015  0.9000774E+02  0.7816164E-02  0.1186339E+00
        -11   -1    0    0    0    0  0.00000000000E+00  0.00000000000E+00  0.45593999997E+02  0.45594000000E+02  0.51100000000E-03 0.  1.
         11   -1    0    0    0    0 -0.00000000000E+00 -0.00000000000E+00 -0.45593999997E+02  0.45594000000E+02  0.51100000000E-03 0. -1.
    9900012    2    1    2    0    0 -0.64156184729E+00  0.93543627512E+00  0.32614457986E+00  0.90007740319E+02  0.90000001691E+02 0.  0.
         12    1    1    2    0    0  0.64156184729E+00 -0.93543627512E+00 -0.32614457986E+00  0.11802596815E+01  0.00000000000E+00 0. -1.
         11    1    3    3    0    0 -0.53584230827E+01  0.95106095830E+00  0.65811624174E+01  0.85398427330E+01  0.51100000000E-03 0. -1.
        -11    1    3    3    0    0 -0.25180903027E+02 -0.64295395980E+01  0.26181716004E+02  0.36890366085E+02  0.51100000000E-03 0.  1.
         12    1    3    3    0    0  0.29897764263E+02  0.64139149149E+01 -0.32436733841E+02  0.44577531501E+02  0.00000000000E+00 0. -1.
</event>
<event>
 7    1  0.1501154E-015  0.9000778E+02  0.7816164E-02  0.1186339E+00
        -11   -1    0    0    0    0  0.00000000000E+00  0.00000000000E+00  0.45593999997E+02  0.45594000000E+02  0.51100000000E-03 0. -1.
         11   -1    0    0    0    0 -0.00000000000E+00 -0.00000000000E+00 -0.45593999997E+02  0.45594000000E+02  0.51100000000E-03 0.  1.
    9900012    2    1    2    0    0 -0.11405885408E+01 -0.30121951316E+00 -0.35402861756E-01  0.90007775963E+02  0.90000037806E+02 0.  0.
         12    1    1    2    0    0  0.11405885408E+01  0.30121951316E+00  0.35402861756E-01  0.11802240368E+01  0.00000000000E+00 0. -1.
         11    1    3    3    0    0  0.14572814942E+00  0.77979485653E+01  0.87084369836E+00  0.78477772349E+01  0.51100000000E-03 0. -1.
        -11    1    3    3    0    0 -0.33066121882E+02 -0.18091806255E+01 -0.25244132059E+02  0.41640217994E+02  0.51100000000E-03 0.  1.
         12    1    3    3    0    0  0.31779805192E+02 -0.62899874529E+01  0.24337885499E+02  0.40519780735E+02  0.00000000000E+00 0. -1.
</event>
<event>
 7    1  0.1501154E-015  0.9000782E+02  0.7816164E-02  0.1186339E+00
        -11   -1    0    0    0    0  0.00000000000E+00  0.00000000000E+00  0.45593999997E+02  0.45594000000E+02  0.51100000000E-03 0. -1.
         11   -1    0    0    0    0 -0.00000000000E+00 -0.00000000000E+00 -0.45593999997E+02  0.45594000000E+02  0.51100000000E-03 0.  1.
    9900012    2    1    2    0    0  0.44601544254E+00 -0.97939222538E+00  0.48444018045E+00  0.90007821541E+02  0.90000083986E+02 0.  0.
         12    1    1    2    0    0 -0.44601544254E+00  0.97939222538E+00 -0.48444018045E+00  0.11801784588E+01  0.00000000000E+00 0. -1.
         11    1    3    3    0    0  0.44805234956E+01  0.80009573860E+01 -0.36720778771E+01  0.98779839078E+01  0.51100000000E-03 0. -1.
        -11    1    3    3    0    0 -0.47645601006E+01  0.21763997110E+02 -0.27902082990E+02  0.35705725572E+02  0.51100000000E-03 0.  1.
         12    1    3    3    0    0  0.73005204754E+00 -0.30744346721E+02  0.32058601048E+02  0.44424112062E+02  0.00000000000E+00 0. -1.
</event>
<event>
 7    1  0.1501154E-015  0.9000737E+02  0.7816164E-02  0.1186340E+00
        -11   -1    0    0    0    0  0.00000000000E+00  0.00000000000E+00  0.45593999997E+02  0.45594000000E+02  0.51100000000E-03 0. -1.
         11   -1    0    0    0    0 -0.00000000000E+00 -0.00000000000E+00 -0.45593999997E+02  0.45594000000E+02  0.51100000000E-03 0.  1.
    9900012    2    1    2    0    0 -0.78511635231E+00  0.25110731498E+00 -0.84523251588E+00  0.90007372804E+02  0.89999629324E+02 0.  0.
         12    1    1    2    0    0  0.78511635231E+00 -0.25110731498E+00  0.84523251588E+00  0.11806271961E+01  0.00000000000E+00 0. -1.
         11    1    3    3    0    0 -0.11683359531E+02  0.93860443763E+00  0.60875789750E+00  0.11736799166E+02  0.51100000000E-03 0. -1.
        -11    1    3    3    0    0 -0.56432877941E+01 -0.28813906087E+02 -0.24567397390E+02  0.38283741927E+02  0.51100000000E-03 0.  1.
         12    1    3    3    0    0  0.16541530973E+02  0.28126408965E+02  0.23113406977E+02  0.39986831711E+02  0.00000000000E+00 0. -1.
</event>
<event>
 7    1  0.1501154E-015  0.9000814E+02  0.7816164E-02  0.1186338E+00
        -11   -1    0    0    0    0  0.00000000000E+00  0.00000000000E+00  0.45593999997E+02  0.45594000000E+02  0.51100000000E-03 0.  1.
         11   -1    0    0    0    0 -0.00000000000E+00 -0.00000000000E+00 -0.45593999997E+02  0.45594000000E+02  0.51100000000E-03 0. -1.
    9900012    2    1    2    0    0  0.10816099622E+01 -0.17106194668E+00  0.43922417003E+00  0.90008144004E+02  0.90000410704E+02 0.  0.
         12    1    1    2    0    0 -0.10816099622E+01  0.17106194668E+00 -0.43922417003E+00  0.11798559961E+01  0.00000000000E+00 0. -1.
         11    1    3    3    0    0  0.32957682148E+01  0.36766184697E+01  0.83868941976E+01  0.97323998089E+01  0.51100000000E-03 0. -1.
        -11    1    3    3    0    0 -0.22020474521E+02  0.83263781719E+01  0.28548737505E+02  0.37003517197E+02  0.51100000000E-03 0.  1.
         12    1    3    3    0    0  0.19806316268E+02 -0.12174058588E+02 -0.36496407532E+02  0.43272226998E+02  0.00000000000E+00 0. -1.
</event>
<event>
 7    1  0.1501154E-015  0.9000786E+02  0.7816164E-02  0.1186339E+00
        -11   -1    0    0    0    0  0.00000000000E+00  0.00000000000E+00  0.45593999997E+02  0.45594000000E+02  0.51100000000E-03 0.  1.
         11   -1    0    0    0    0 -0.00000000000E+00 -0.00000000000E+00 -0.45593999997E+02  0.45594000000E+02  0.51100000000E-03 0. -1.
    9900012    2    1    2    0    0  0.10864979494E+01  0.45407984987E+00 -0.77931006059E-01  0.90007856133E+02  0.90000119034E+02 0.  0.
         12    1    1    2    0    0 -0.10864979494E+01 -0.45407984987E+00  0.77931006059E-01  0.11801438665E+01  0.00000000000E+00 0. -1.
         11    1    3    3    0    0 -0.14039252367E+02 -0.10746857389E+02 -0.35430274161E+02  0.39596715497E+02  0.51100000000E-03 0. -1.
        -11    1    3    3    0    0  0.98162260163E+00  0.80462370620E+01 -0.35858926252E+01  0.88636414621E+01  0.51100000000E-03 0.  1.
        -12    1    3    3    0    0  0.14144127715E+02  0.31547001769E+01  0.38938235780E+02  0.41547499175E+02  0.00000000000E+00 0.  1.
</event>
<event>
 7    1  0.1501154E-015  0.9000768E+02  0.7816164E-02  0.1186339E+00
        -11   -1    0    0    0    0  0.00000000000E+00  0.00000000000E+00  0.45593999997E+02  0.45594000000E+02  0.51100000000E-03 0.  1.
         11   -1    0    0    0    0 -0.00000000000E+00 -0.00000000000E+00 -0.45593999997E+02  0.45594000000E+02  0.51100000000E-03 0. -1.
    9900012    2    1    2    0    0 -0.11234533024E+01 -0.14269509121E+00  0.33264045115E+00  0.90007678484E+02  0.89999939040E+02 0.  0.
         12    1    1    2    0    0  0.11234533024E+01  0.14269509121E+00 -0.33264045115E+00  0.11803215161E+01  0.00000000000E+00 0. -1.
         11    1    3    3    0    0 -0.22467496080E+02 -0.27807404724E+02  0.10734247755E+02  0.37326454596E+02  0.51100000000E-03 0. -1.
        -11    1    3    3    0    0 -0.10437565714E+02  0.20713580108E+01 -0.30659352631E+00  0.10645529667E+02  0.51100000000E-03 0.  1.
        -12    1    3    3    0    0  0.31781608491E+02  0.25593351622E+02 -0.10095013777E+02  0.42035694221E+02  0.00000000000E+00 0.  1.
</event>
<event>
 7    1  0.1501154E-015  0.9000790E+02  0.7816164E-02  0.1186339E+00
        -11   -1    0    0    0    0  0.00000000000E+00  0.00000000000E+00  0.45593999997E+02  0.45594000000E+02  0.51100000000E-03 0. -1.
         11   -1    0    0    0    0 -0.00000000000E+00 -0.00000000000E+00 -0.45593999997E+02  0.45594000000E+02  0.51100000000E-03 0.  1.
    9900012    2    1    2    0    0 -0.28909417264E+00 -0.11560959596E-01 -0.11440876607E+01  0.90007895906E+02  0.90000159332E+02 0.  0.
         12    1    1    2    0    0  0.28909417264E+00  0.11560959596E-01  0.11440876607E+01  0.11801040936E+01  0.00000000000E+00 0. -1.
         11    1    3    3    0    0  0.15490180097E+02  0.14681849486E+02  0.25476991510E+02  0.33235214463E+02  0.51100000000E-03 0. -1.
        -11    1    3    3    0    0 -0.88378963203E+01  0.15305975532E+02 -0.29166008141E+01  0.17913343041E+02  0.51100000000E-03 0.  1.
         12    1    3    3    0    0 -0.69413779492E+01 -0.29999385978E+02 -0.23704478356E+02  0.38859338402E+02  0.00000000000E+00 0. -1.
</event>
<event>
 7    1  0.1501154E-015  0.9000786E+02  0.7816164E-02  0.1186339E+00
        -11   -1    0    0    0    0  0.00000000000E+00  0.00000000000E+00  0.45593999997E+02  0.45594000000E+02  0.51100000000E-03 0.  1.
         11   -1    0    0    0    0 -0.00000000000E+00 -0.00000000000E+00 -0.45593999997E+02  0.45594000000E+02  0.51100000000E-03 0. -1.
    9900012    2    1    2    0    0  0.22872582050E+00 -0.85578991732E+00  0.77976890929E+00  0.90007859570E+02  0.90000122516E+02 0.  0.
         12    1    1    2    0    0 -0.22872582050E+00  0.85578991732E+00 -0.77976890929E+00  0.11801404304E+01  0.00000000000E+00 0. -1.
         11    1    3    3    0    0  0.11743031299E+02  0.76812035189E+01  0.40407476578E+01  0.14602305074E+02  0.51100000000E-03 0. -1.
        -11    1    3    3    0    0 -0.92595434199E+01 -0.18416779955E+02  0.32361858308E+02  0.38369347163E+02  0.51100000000E-03 0.  1.
         12    1    3    3    0    0 -0.22547620587E+01  0.98797865191E+01 -0.35622837057E+02  0.37036207333E+02  0.00000000000E+00 0. -1.
</event>
<event>
 7    1  0.1501154E-015  0.9000775E+02  0.7816164E-02  0.1186339E+00
        -11   -1    0    0    0    0  0.00000000000E+00  0.00000000000E+00  0.45593999997E+02  0.45594000000E+02  0.51100000000E-03 0. -1.
         11   -1    0    0    0    0 -0.00000000000E+00 -0.00000000000E+00 -0.45593999997E+02  0.45594000000E+02  0.51100000000E-03 0.  1.
    9900012    2    1    2    0    0  0.54507064979E+00 -0.80187282495E+00 -0.67297809112E+00  0.90007745133E+02  0.90000006568E+02 0.  0.
         12    1    1    2    0    0 -0.54507064979E+00  0.80187282495E+00  0.67297809112E+00  0.11802548673E+01  0.00000000000E+00 0. -1.
         11    1    3    3    0    0 -0.55785327752E+01  0.56374923082E+01  0.48129151487E+01  0.92771493434E+01  0.51100000000E-03 0. -1.
        -11    1    3    3    0    0  0.14012194615E+02 -0.21442997755E+02 -0.36967835162E+02  0.44975155224E+02  0.51100000000E-03 0.  1.
         12    1    3    3    0    0 -0.78885911900E+01  0.15003632621E+02  0.31481941922E+02  0.35755440565E+02  0.00000000000E+00 0. -1.
</event>
<event>
 7    1  0.1501154E-015  0.9000770E+02  0.7816164E-02  0.1186339E+00
        -11   -1    0    0    0    0  0.00000000000E+00  0.00000000000E+00  0.45593999997E+02  0.45594000000E+02  0.51100000000E-03 0. -1.
         11   -1    0    0    0    0 -0.00000000000E+00 -0.00000000000E+00 -0.45593999997E+02  0.45594000000E+02  0.51100000000E-03 0.  1.
    9900012    2    1    2    0    0  0.20547197143E+00  0.80396213989E+00 -0.83935885192E+00  0.90007704640E+02  0.89999965542E+02 0.  0.
         12    1    1    2    0    0 -0.20547197143E+00 -0.80396213989E+00  0.83935885192E+00  0.11802953595E+01  0.00000000000E+00 0. -1.
         11    1    3    3    0    0  0.83925140901E+01  0.30976827167E+01 -0.98275166867E-01  0.89464847418E+01  0.51100000000E-03 0. -1.
        -11    1    3    3    0    0  0.32519682614E+02  0.15838875898E+02 -0.39297438661E+01  0.36384648330E+02  0.51100000000E-03 0.  1.
         12    1    3    3    0    0 -0.40706724732E+02 -0.18132596475E+02  0.31886601811E+01  0.44676571568E+02  0.00000000000E+00 0. -1.
</event>
<event>
 7    1  0.1501154E-015  0.9000772E+02  0.7816164E-02  0.1186339E+00
        -11   -1    0    0    0    0  0.00000000000E+00  0.00000000000E+00  0.45593999997E+02  0.45594000000E+02  0.51100000000E-03 0. -1.
         11   -1    0    0    0    0 -0.00000000000E+00 -0.00000000000E+00 -0.45593999997E+02  0.45594000000E+02  0.51100000000E-03 0.  1.
    9900012    2    1    2    0    0 -0.10746523380E+01 -0.41980093310E+00  0.24888672655E+00  0.90007722459E+02  0.89999983596E+02 0.  0.
         12    1    1    2    0    0  0.10746523380E+01  0.41980093310E+00 -0.24888672655E+00  0.11802775409E+01  0.00000000000E+00 0. -1.
         11    1    3    3    0    0 -0.38782340850E+02  0.87649085744E+00  0.64141494264E+01  0.39318945957E+02  0.51100000000E-03 0. -1.
        -11    1    3    3    0    0  0.77598179993E+01  0.12471606363E+02  0.55579913751E+01  0.15704999492E+02  0.51100000000E-03 0.  1.
        -12    1    3    3    0    0  0.29947870513E+02 -0.13767898153E+02 -0.11723254075E+02  0.34983777010E+02  0.00000000000E+00 0.  1.
</event>
<event>
 7    1  0.1501154E-015  0.9000770E+02  0.7816164E-02  0.1186339E+00
        -11   -1    0    0    0    0  0.00000000000E+00  0.00000000000E+00  0.45593999997E+02  0.45594000000E+02  0.51100000000E-03 0. -1.
         11   -1    0    0    0    0 -0.00000000000E+00 -0.00000000000E+00 -0.45593999997E+02  0.45594000000E+02  0.51100000000E-03 0.  1.
    9900012    2    1    2    0    0  0.54692663156E+00 -0.66827773053E+00 -0.80460707803E+00  0.90007696473E+02  0.89999957267E+02 0.  0.
         12    1    1    2    0    0 -0.54692663156E+00  0.66827773053E+00  0.80460707803E+00  0.11803035268E+01  0.00000000000E+00 0. -1.
         11    1    3    3    0    0  0.19196603138E+01  0.86058707849E+01 -0.20557033537E+01  0.90538403027E+01  0.51100000000E-03 0. -1.
        -11    1    3    3    0    0 -0.21850858801E+02  0.28474956039E+02 -0.85649835521E+01  0.36900434893E+02  0.51100000000E-03 0.  1.
         12    1    3    3    0    0  0.20478125119E+02 -0.37749104555E+02  0.98160798278E+01  0.44053421278E+02  0.00000000000E+00 0. -1.
</event>
<event>
 7    1  0.1501154E-015  0.9000771E+02  0.7816164E-02  0.1186339E+00
        -11   -1    0    0    0    0  0.00000000000E+00  0.00000000000E+00  0.45593999997E+02  0.45594000000E+02  0.51100000000E-03 0.  1.
         11   -1    0    0    0    0 -0.00000000000E+00 -0.00000000000E+00 -0.45593999997E+02  0.45594000000E+02  0.51100000000E-03 0. -1.
    9900012    2    1    2    0    0 -0.74262965248E+00 -0.63459742421E+00  0.66247539628E+00  0.90007709213E+02  0.89999970174E+02 0.  0.
         12    1    1    2    0    0  0.74262965248E+00  0.63459742421E+00 -0.66247539628E+00  0.11802907872E+01  0.00000000000E+00 0. -1.
         11    1    3    3    0    0 -0.22103802023E+02  0.26309115321E+02 -0.14315803114E+02  0.37224855028E+02  0.51100000000E-03 0. -1.
        -11    1    3    3    0    0 -0.64769402409E+01 -0.10131381120E+02 -0.66359296506E+01  0.13734307441E+02  0.51100000000E-03 0.  1.
        -12    1    3    3    0    0  0.27838112611E+02 -0.16812331625E+02  0.21614208161E+02  0.39048546744E+02  0.00000000000E+00 0.  1.
</event>
<event>
 7    1  0.1501154E-015  0.9000666E+02  0.7816164E-02  0.1186341E+00
        -11   -1    0    0    0    0  0.00000000000E+00  0.00000000000E+00  0.45593999997E+02  0.45594000000E+02  0.51100000000E-03 0.  1.
         11   -1    0    0    0    0 -0.00000000000E+00 -0.00000000000E+00 -0.45593999997E+02  0.45594000000E+02  0.51100000000E-03 0. -1.
    9900012    2    1    2    0    0  0.26898677513E+00 -0.76790853598E+00  0.85645643046E+00  0.90006663883E+02  0.89998911039E+02 0.  0.
         12    1    1    2    0    0 -0.26898677513E+00  0.76790853598E+00 -0.85645643046E+00  0.11813361173E+01  0.00000000000E+00 0. -1.
         11    1    3    3    0    0 -0.38591994838E+01 -0.12980202729E+01  0.80829513696E+01  0.90505458614E+01  0.51100000000E-03 0. -1.
        -11    1    3    3    0    0 -0.16550669269E+02 -0.34359526193E+02  0.53089835192E+01  0.38505674903E+02  0.51100000000E-03 0.  1.
         12    1    3    3    0    0  0.20678855528E+02  0.34889637930E+02 -0.12535478458E+02  0.42450443119E+02  0.00000000000E+00 0. -1.
</event>
<event>
 7    1  0.1501154E-015  0.9000765E+02  0.7816164E-02  0.1186339E+00
        -11   -1    0    0    0    0  0.00000000000E+00  0.00000000000E+00  0.45593999997E+02  0.45594000000E+02  0.51100000000E-03 0. -1.
         11   -1    0    0    0    0 -0.00000000000E+00 -0.00000000000E+00 -0.45593999997E+02  0.45594000000E+02  0.51100000000E-03 0.  1.
    9900012    2    1    2    0    0 -0.79417459921E+00  0.29732278425E+00 -0.82103858285E+00  0.90007653235E+02  0.89999913457E+02 0.  0.
         12    1    1    2    0    0  0.79417459921E+00 -0.29732278425E+00  0.82103858285E+00  0.11803467654E+01  0.00000000000E+00 0. -1.
         11    1    3    3    0    0 -0.73720259816E+00  0.18582742318E+01 -0.57447708067E+01  0.60826838381E+01  0.51100000000E-03 0. -1.
        -11    1    3    3    0    0 -0.11281237344E+02 -0.39614198749E+02 -0.84699576757E+01  0.42051055181E+02  0.51100000000E-03 0.  1.
         12    1    3    3    0    0  0.11224265343E+02  0.38053247301E+02  0.13393689900E+02  0.41873914216E+02  0.00000000000E+00 0. -1.
</event>
<event>
 7    1  0.1501154E-015  0.9000765E+02  0.7816164E-02  0.1186339E+00
        -11   -1    0    0    0    0  0.00000000000E+00  0.00000000000E+00  0.45593999997E+02  0.45594000000E+02  0.51100000000E-03 0.  1.
         11   -1    0    0    0    0 -0.00000000000E+00 -0.00000000000E+00 -0.45593999997E+02  0.45594000000E+02  0.51100000000E-03 0. -1.
    9900012    2    1    2    0    0 -0.13987106116E+00 -0.67882766701E+00  0.95543318846E+00  0.90007651114E+02  0.89999911309E+02 0.  0.
         12    1    1    2    0    0  0.13987106116E+00  0.67882766701E+00 -0.95543318846E+00  0.11803488861E+01  0.00000000000E+00 0. -1.
         11    1    3    3    0    0 -0.91987200768E+01 -0.23409982647E+02 -0.13582283201E+02  0.28585348621E+02  0.51100000000E-03 0. -1.
        -11    1    3    3    0    0  0.23170668858E+02 -0.84265767846E+01  0.11121460245E+02  0.27047624108E+02  0.51100000000E-03 0.  1.
         12    1    3    3    0    0 -0.14111819842E+02  0.31157731765E+02  0.34162561437E+01  0.34374678385E+02  0.00000000000E+00 0. -1.
</event>
<event>
 7    1  0.1501154E-015  0.9000776E+02  0.7816164E-02  0.1186339E+00
        -11   -1    0    0    0    0  0.00000000000E+00  0.00000000000E+00  0.45593999997E+02  0.45594000000E+02  0.51100000000E-03 0. -1.
         11   -1    0    0    0    0 -0.00000000000E+00 -0.00000000000E+00 -0.45593999997E+02  0.45594000000E+02  0.51100000000E-03 0.  1.
    9900012    2    1    2    0    0  0.31549013984E+00 -0.65957227052E+00 -0.92650128809E+00  0.90007756701E+02  0.90000018289E+02 0.  0.
         12    1    1    2    0    0 -0.31549013984E+00  0.65957227052E+00  0.92650128809E+00  0.11802432992E+01  0.00000000000E+00 0. -1.
         11    1    3    3    0    0 -0.20756233334E+02  0.36318347530E+02  0.36888068956E+01  0.41993462420E+02  0.51100000000E-03 0. -1.
        -11    1    3    3    0    0  0.42313941082E+01 -0.44301638909E+01  0.72529888616E+01  0.94940452857E+01  0.51100000000E-03 0.  1.
        -12    1    3    3    0    0  0.16840329365E+02 -0.32547755909E+02 -0.11868297045E+02  0.38520248995E+02  0.00000000000E+00 0.  1.
</event>
<event>
 7    1  0.1501154E-015  0.9000777E+02  0.7816164E-02  0.1186339E+00
        -11   -1    0    0    0    0  0.00000000000E+00  0.00000000000E+00  0.45593999997E+02  0.45594000000E+02  0.51100000000E-03 0.  1.
         11   -1    0    0    0    0 -0.00000000000E+00 -0.00000000000E+00 -0.45593999997E+02  0.45594000000E+02  0.51100000000E-03 0. -1.
    9900012    2    1    2    0    0 -0.44676856128E+00  0.17849237418E-01  0.10922589639E+01  0.90007766808E+02  0.90000028530E+02 0.  0.
         12    1    1    2    0    0  0.44676856128E+00 -0.17849237418E-01 -0.10922589639E+01  0.11802331917E+01  0.00000000000E+00 0. -1.
         11    1    3    3    0    0  0.30523137566E+02  0.46332416190E+01 -0.17879242008E+02  0.35676268720E+02  0.51100000000E-03 0. -1.
        -11    1    3    3    0    0  0.41170490920E+01  0.77499928455E+01 -0.49758233976E+01  0.10088176301E+02  0.51100000000E-03 0.  1.
        -12    1    3    3    0    0 -0.35086955219E+02 -0.12365385227E+02  0.23947324369E+02  0.44243321787E+02  0.00000000000E+00 0.  1.
</event>
<event>
 7    1  0.1501154E-015  0.9000772E+02  0.7816164E-02  0.1186339E+00
        -11   -1    0    0    0    0  0.00000000000E+00  0.00000000000E+00  0.45593999997E+02  0.45594000000E+02  0.51100000000E-03 0.  1.
         11   -1    0    0    0    0 -0.00000000000E+00 -0.00000000000E+00 -0.45593999997E+02  0.45594000000E+02  0.51100000000E-03 0. -1.
    9900012    2    1    2    0    0  0.81696741001E+00 -0.77899032798E+00 -0.34467122812E+00  0.90007720399E+02  0.89999981509E+02 0.  0.
         12    1    1    2    0    0 -0.81696741001E+00  0.77899032798E+00  0.34467122812E+00  0.11802796006E+01  0.00000000000E+00 0. -1.
         11    1    3    3    0    0 -0.45441417791E+01  0.34450773512E+01  0.84222483733E+01  0.10171138107E+02  0.51100000000E-03 0. -1.
        -11    1    3    3    0    0  0.14605684636E+02 -0.30002241140E+02  0.20969932631E+02  0.39410640339E+02  0.51100000000E-03 0.  1.
         12    1    3    3    0    0 -0.92445754466E+01  0.25778173460E+02 -0.29736852233E+02  0.40425941954E+02  0.00000000000E+00 0. -1.
</event>
<event>
 7    1  0.1501154E-015  0.9000756E+02  0.7816164E-02  0.1186339E+00
        -11   -1    0    0    0    0  0.00000000000E+00  0.00000000000E+00  0.45593999997E+02  0.45594000000E+02  0.51100000000E-03 0.  1.
         11   -1    0    0    0    0 -0.00000000000E+00 -0.00000000000E+00 -0.45593999997E+02  0.45594000000E+02  0.51100000000E-03 0. -1.
    9900012    2    1    2    0    0 -0.29770303389E+00  0.72011155776E+00  0.88670121443E+00  0.90007564997E+02  0.89999824055E+02 0.  0.
         12    1    1    2    0    0  0.29770303389E+00 -0.72011155776E+00 -0.88670121443E+00  0.11804350027E+01  0.00000000000E+00 0. -1.
         11    1    3    3    0    0  0.91168790290E+01 -0.27972789260E+00 -0.60138328490E+00  0.91409733092E+01  0.51100000000E-03 0. -1.
        -11    1    3    3    0    0 -0.15990230524E+02  0.13925604284E+02  0.36923290632E+02  0.42578625133E+02  0.51100000000E-03 0.  1.
         12    1    3    3    0    0  0.65756484615E+01 -0.12925764833E+02 -0.35435206133E+02  0.38287966555E+02  0.00000000000E+00 0. -1.
</event>
<event>
 7    1  0.1501154E-015  0.9000790E+02  0.7816164E-02  0.1186339E+00
        -11   -1    0    0    0    0  0.00000000000E+00  0.00000000000E+00  0.45593999997E+02  0.45594000000E+02  0.51100000000E-03 0. -1.
         11   -1    0    0    0    0 -0.00000000000E+00 -0.00000000000E+00 -0.45593999997E+02  0.45594000000E+02  0.51100000000E-03 0.  1.
    9900012    2    1    2    0    0 -0.11490451252E+01 -0.35475964840E-01 -0.26659316639E+00  0.90007900360E+02  0.90000163845E+02 0.  0.
         12    1    1    2    0    0  0.11490451252E+01  0.35475964840E-01  0.26659316639E+00  0.11800996399E+01  0.00000000000E+00 0. -1.
         11    1    3    3    0    0 -0.39919667367E+01 -0.75047332191E+01  0.27320205600E+01  0.89286480342E+01  0.51100000000E-03 0. -1.
        -11    1    3    3    0    0  0.22068813495E+02 -0.21860045526E+02 -0.24832527684E+02  0.39768688071E+02  0.51100000000E-03 0.  1.
         12    1    3    3    0    0 -0.19225891883E+02  0.29329302781E+02  0.21833913958E+02  0.41310564254E+02  0.00000000000E+00 0. -1.
</event>
<event>
 7    1  0.1501154E-015  0.9000763E+02  0.7816164E-02  0.1186339E+00
        -11   -1    0    0    0    0  0.00000000000E+00  0.00000000000E+00  0.45593999997E+02  0.45594000000E+02  0.51100000000E-03 0. -1.
         11   -1    0    0    0    0 -0.00000000000E+00 -0.00000000000E+00 -0.45593999997E+02  0.45594000000E+02  0.51100000000E-03 0.  1.
    9900012    2    1    2    0    0 -0.11617307982E+01 -0.72280823807E-01  0.19604244339E+00  0.90007629039E+02  0.89999888943E+02 0.  0.
         12    1    1    2    0    0  0.11617307982E+01  0.72280823807E-01 -0.19604244339E+00  0.11803709606E+01  0.00000000000E+00 0. -1.
         11    1    3    3    0    0 -0.50468937076E+01 -0.26180963308E+01 -0.78521111765E+01  0.96943908877E+01  0.51100000000E-03 0. -1.
        -11    1    3    3    0    0  0.18792591644E+02  0.30640841282E+02 -0.17063915008E+02  0.39789443962E+02  0.51100000000E-03 0.  1.
         12    1    3    3    0    0 -0.14907428734E+02 -0.28095025775E+02  0.25112068628E+02  0.40523794190E+02  0.00000000000E+00 0. -1.
</event>
