<event>
 7    1  0.4673733E-013  0.5930195E+02  0.7816164E-02  0.1266605E+00
        -11   -1    0    0    0    0  0.00000000000E+00  0.00000000000E+00  0.45593999997E+02  0.45594000000E+02  0.51100000000E-03 0. -1.
         11   -1    0    0    0    0 -0.00000000000E+00 -0.00000000000E+00 -0.45593999997E+02  0.45594000000E+02  0.51100000000E-03 0.  1.
    9900012    2    1    2    0    0  0.26496572633E+02  0.35446094405E+00 -0.17734894493E+02  0.59301945265E+02  0.50000002257E+02 0.  0.
         12    1    1    2    0    0 -0.26496572633E+02 -0.35446094405E+00  0.17734894493E+02  0.31886054735E+02  0.00000000000E+00 0. -1.
         11    1    3    3    0    0  0.11540572754E+02 -0.16539669465E+02  0.40842838854E+01  0.20577338522E+02  0.51100000000E-03 0. -1.
        -11    1    3    3    0    0  0.75883133040E+01  0.11743866383E+02 -0.25443404975E+02  0.29032184785E+02  0.51100000000E-03 0.  1.
        -12    1    3    3    0    0  0.73676865748E+01  0.51502640265E+01  0.36242265966E+01  0.96924219589E+01  0.00000000000E+00 0.  1.
</event>
<event>
 7    1  0.4673733E-013  0.5930194E+02  0.7816164E-02  0.1266605E+00
        -11   -1    0    0    0    0  0.00000000000E+00  0.00000000000E+00  0.45593999997E+02  0.45594000000E+02  0.51100000000E-03 0. -1.
         11   -1    0    0    0    0 -0.00000000000E+00 -0.00000000000E+00 -0.45593999997E+02  0.45594000000E+02  0.51100000000E-03 0.  1.
    9900012    2    1    2    0    0  0.10559205184E+02  0.25162006974E+02 -0.16495382329E+02  0.59301936473E+02  0.49999986221E+02 0.  0.
         12    1    1    2    0    0 -0.10559205184E+02 -0.25162006974E+02  0.16495382329E+02  0.31886063527E+02  0.00000000000E+00 0. -1.
         11    1    3    3    0    0  0.16748535386E+02 -0.26922146963E+01  0.75353868509E+01  0.18561883331E+02  0.51100000000E-03 0. -1.
        -11    1    3    3    0    0 -0.11367942165E+02  0.22839032007E+02 -0.16910139958E+02  0.30607259364E+02  0.51100000000E-03 0.  1.
        -12    1    3    3    0    0  0.51786119635E+01  0.50151896632E+01 -0.71206292219E+01  0.10132793778E+02  0.00000000000E+00 0.  1.
</event>
<event>
 7    1  0.4673733E-013  0.5930186E+02  0.7816164E-02  0.1266605E+00
        -11   -1    0    0    0    0  0.00000000000E+00  0.00000000000E+00  0.45593999997E+02  0.45594000000E+02  0.51100000000E-03 0. -1.
         11   -1    0    0    0    0 -0.00000000000E+00 -0.00000000000E+00 -0.45593999997E+02  0.45594000000E+02  0.51100000000E-03 0.  1.
    9900012    2    1    2    0    0  0.44932148406E+01 -0.30476611976E+02  0.82287814832E+01  0.59301863485E+02  0.49999853109E+02 0.  0.
         12    1    1    2    0    0 -0.44932148406E+01  0.30476611976E+02 -0.82287814832E+01  0.31886136515E+02  0.00000000000E+00 0. -1.
         11    1    3    3    0    0 -0.13139887301E+02 -0.15142402836E+02  0.20079627665E+02  0.28374996905E+02  0.51100000000E-03 0. -1.
        -11    1    3    3    0    0  0.15205632205E+01 -0.85703036381E+01  0.16314129421E+01  0.88557171029E+01  0.51100000000E-03 0.  1.
         12    1    3    3    0    0  0.16112538922E+02 -0.67639055018E+01 -0.13482259124E+02  0.22071149477E+02  0.00000000000E+00 0. -1.
</event>
<event>
 7    1  0.4673733E-013  0.5930201E+02  0.7816164E-02  0.1266605E+00
        -11   -1    0    0    0    0  0.00000000000E+00  0.00000000000E+00  0.45593999997E+02  0.45594000000E+02  0.51100000000E-03 0.  1.
         11   -1    0    0    0    0 -0.00000000000E+00 -0.00000000000E+00 -0.45593999997E+02  0.45594000000E+02  0.51100000000E-03 0. -1.
    9900012    2    1    2    0    0  0.52896289778E+01  0.25240511439E+02  0.18752415373E+02  0.59302005038E+02  0.50000111268E+02 0.  0.
         12    1    1    2    0    0 -0.52896289778E+01 -0.25240511439E+02 -0.18752415373E+02  0.31885994962E+02  0.00000000000E+00 0. -1.
         11    1    3    3    0    0 -0.17476399565E+02  0.17789791194E+02 -0.39235303344E+01  0.25244708416E+02  0.51100000000E-03 0. -1.
        -11    1    3    3    0    0  0.77292165637E+00  0.23756038399E+01  0.79613442604E+00  0.26219709717E+01  0.51100000000E-03 0.  1.
         12    1    3    3    0    0  0.21993106886E+02  0.50751164050E+01  0.21879811281E+02  0.31435325650E+02  0.00000000000E+00 0. -1.
</event>
<event>
 7    1  0.4673733E-013  0.5930194E+02  0.7816164E-02  0.1266605E+00
        -11   -1    0    0    0    0  0.00000000000E+00  0.00000000000E+00  0.45593999997E+02  0.45594000000E+02  0.51100000000E-03 0.  1.
         11   -1    0    0    0    0 -0.00000000000E+00 -0.00000000000E+00 -0.45593999997E+02  0.45594000000E+02  0.51100000000E-03 0. -1.
    9900012    2    1    2    0    0  0.14466382817E+02 -0.52264441523E+01  0.27930784725E+02  0.59301942143E+02  0.49999996563E+02 0.  0.
         12    1    1    2    0    0 -0.14466382817E+02  0.52264441523E+01 -0.27930784725E+02  0.31886057857E+02  0.00000000000E+00 0. -1.
         11    1    3    3    0    0  0.32331303678E+01  0.12549053196E+01  0.26118378243E+02  0.26347629905E+02  0.51100000000E-03 0. -1.
        -11    1    3    3    0    0  0.19592888664E+02  0.26957368900E+01  0.44299961405E+01  0.20267539309E+02  0.51100000000E-03 0.  1.
         12    1    3    3    0    0 -0.83596362146E+01 -0.91770863619E+01 -0.26175896583E+01  0.12686772929E+02  0.00000000000E+00 0. -1.
</event>
<event>
 7    1  0.4673733E-013  0.5930192E+02  0.7816164E-02  0.1266605E+00
        -11   -1    0    0    0    0  0.00000000000E+00  0.00000000000E+00  0.45593999997E+02  0.45594000000E+02  0.51100000000E-03 0.  1.
         11   -1    0    0    0    0 -0.00000000000E+00 -0.00000000000E+00 -0.45593999997E+02  0.45594000000E+02  0.51100000000E-03 0. -1.
    9900012    2    1    2    0    0  0.16276583379E+02  0.27325075236E+02  0.22661026717E+01  0.59301919581E+02  0.49999955415E+02 0.  0.
         12    1    1    2    0    0 -0.16276583379E+02 -0.27325075236E+02 -0.22661026717E+01  0.31886080419E+02  0.00000000000E+00 0. -1.
         11    1    3    3    0    0 -0.11846485808E+02  0.22856844418E+02 -0.33922347466E+01  0.25966937047E+02  0.51100000000E-03 0. -1.
        -11    1    3    3    0    0  0.11654475450E+02  0.97514143275E+01  0.51061368558E+01  0.16030892466E+02  0.51100000000E-03 0.  1.
         12    1    3    3    0    0  0.16468593736E+02 -0.52831835091E+01  0.55220056242E+00  0.17304090069E+02  0.00000000000E+00 0. -1.
</event>
<event>
 7    1  0.4673733E-013  0.5930193E+02  0.7816164E-02  0.1266605E+00
        -11   -1    0    0    0    0  0.00000000000E+00  0.00000000000E+00  0.45593999997E+02  0.45594000000E+02  0.51100000000E-03 0.  1.
         11   -1    0    0    0    0 -0.00000000000E+00 -0.00000000000E+00 -0.45593999997E+02  0.45594000000E+02  0.51100000000E-03 0. -1.
    9900012    2    1    2    0    0  0.31520099704E+02  0.48128888561E+01  0.20204019549E+00  0.59301930867E+02  0.49999975998E+02 0.  0.
         12    1    1    2    0    0 -0.31520099704E+02 -0.48128888561E+01 -0.20204019549E+00  0.31886069133E+02  0.00000000000E+00 0. -1.
         11    1    3    3    0    0  0.51841334624E+01 -0.16180254932E+02  0.30921790882E+01  0.17269553011E+02  0.51100000000E-03 0. -1.
        -11    1    3    3    0    0  0.21139370107E+02  0.14576370315E+02 -0.13160953384E+02  0.28854015913E+02  0.51100000000E-03 0.  1.
        -12    1    3    3    0    0  0.51965961345E+01  0.64167734733E+01  0.10270814491E+02  0.13178361943E+02  0.00000000000E+00 0.  1.
</event>
<event>
 7    1  0.4673733E-013  0.5930196E+02  0.7816164E-02  0.1266605E+00
        -11   -1    0    0    0    0  0.00000000000E+00  0.00000000000E+00  0.45593999997E+02  0.45594000000E+02  0.51100000000E-03 0. -1.
         11   -1    0    0    0    0 -0.00000000000E+00 -0.00000000000E+00 -0.45593999997E+02  0.45594000000E+02  0.51100000000E-03 0.  1.
    9900012    2    1    2    0    0 -0.10961594113E+02 -0.29875044230E+02 -0.20111853454E+01  0.59301957917E+02  0.50000025331E+02 0.  0.
         12    1    1    2    0    0  0.10961594113E+02  0.29875044230E+02  0.20111853454E+01  0.31886042083E+02  0.00000000000E+00 0. -1.
         11    1    3    3    0    0 -0.18731267536E+02 -0.20674033884E+02 -0.46510604316E+01  0.28282652350E+02  0.51100000000E-03 0. -1.
        -11    1    3    3    0    0  0.13632601560E+02 -0.31962844963E+01 -0.90179258256E+01  0.16654940598E+02  0.51100000000E-03 0.  1.
         12    1    3    3    0    0 -0.58629281365E+01 -0.60047258496E+01  0.11657800912E+02  0.14364364969E+02  0.00000000000E+00 0. -1.
</event>
<event>
 7    1  0.4673733E-013  0.5930194E+02  0.7816164E-02  0.1266605E+00
        -11   -1    0    0    0    0  0.00000000000E+00  0.00000000000E+00  0.45593999997E+02  0.45594000000E+02  0.51100000000E-03 0.  1.
         11   -1    0    0    0    0 -0.00000000000E+00 -0.00000000000E+00 -0.45593999997E+02  0.45594000000E+02  0.51100000000E-03 0. -1.
    9900012    2    1    2    0    0 -0.68826322552E+01  0.18805726937E+02  0.24813194695E+02  0.59301943120E+02  0.49999998345E+02 0.  0.
         12    1    1    2    0    0  0.68826322552E+01 -0.18805726937E+02 -0.24813194695E+02  0.31886056880E+02  0.00000000000E+00 0. -1.
         11    1    3    3    0    0 -0.27885028238E+00 -0.16821101604E+01 -0.12052705685E+01  0.20880444143E+01  0.51100000000E-03 0. -1.
        -11    1    3    3    0    0 -0.20836625385E+02  0.15130340160E+02  0.31822596309E+02  0.40936167223E+02  0.51100000000E-03 0.  1.
        -12    1    3    3    0    0  0.14232843412E+02  0.53574969375E+01 -0.58041310455E+01  0.16277731483E+02  0.00000000000E+00 0.  1.
</event>
<event>
 7    1  0.4673733E-013  0.5930193E+02  0.7816164E-02  0.1266605E+00
        -11   -1    0    0    0    0  0.00000000000E+00  0.00000000000E+00  0.45593999997E+02  0.45594000000E+02  0.51100000000E-03 0.  1.
         11   -1    0    0    0    0 -0.00000000000E+00 -0.00000000000E+00 -0.45593999997E+02  0.45594000000E+02  0.51100000000E-03 0. -1.
    9900012    2    1    2    0    0 -0.17688776084E+02 -0.23647121251E+02  0.12026740573E+02  0.59301927309E+02  0.49999969510E+02 0.  0.
         12    1    1    2    0    0  0.17688776084E+02  0.23647121251E+02 -0.12026740573E+02  0.31886072691E+02  0.00000000000E+00 0. -1.
         11    1    3    3    0    0  0.25243695200E+00 -0.47769383275E+01 -0.15629852948E+02  0.16345493802E+02  0.51100000000E-03 0. -1.
        -11    1    3    3    0    0 -0.21367043088E+02 -0.11369422516E+02  0.17466544289E+02  0.29847855339E+02  0.51100000000E-03 0.  1.
         12    1    3    3    0    0  0.34258300519E+01 -0.75007604078E+01  0.10190049232E+02  0.13108578168E+02  0.00000000000E+00 0. -1.
</event>
<event>
 7    1  0.4673733E-013  0.5930188E+02  0.7816164E-02  0.1266605E+00
        -11   -1    0    0    0    0  0.00000000000E+00  0.00000000000E+00  0.45593999997E+02  0.45594000000E+02  0.51100000000E-03 0.  1.
         11   -1    0    0    0    0 -0.00000000000E+00 -0.00000000000E+00 -0.45593999997E+02  0.45594000000E+02  0.51100000000E-03 0. -1.
    9900012    2    1    2    0    0 -0.12157096708E+02  0.26792674397E+02  0.12291564026E+02  0.59301875307E+02  0.49999874670E+02 0.  0.
         12    1    1    2    0    0  0.12157096708E+02 -0.26792674397E+02 -0.12291564026E+02  0.31886124693E+02  0.00000000000E+00 0. -1.
         11    1    3    3    0    0  0.82589309419E+01  0.15796270741E+02 -0.18579174705E+00  0.17826009886E+02  0.51100000000E-03 0. -1.
        -11    1    3    3    0    0 -0.27737752403E+02  0.21386360184E+01  0.10886174015E+02  0.29874160362E+02  0.51100000000E-03 0.  1.
        -12    1    3    3    0    0  0.73217247532E+01  0.88577676375E+01  0.15911817589E+01  0.11601705059E+02  0.00000000000E+00 0.  1.
</event>
<event>
 7    1  0.4673733E-013  0.5930192E+02  0.7816164E-02  0.1266605E+00
        -11   -1    0    0    0    0  0.00000000000E+00  0.00000000000E+00  0.45593999997E+02  0.45594000000E+02  0.51100000000E-03 0. -1.
         11   -1    0    0    0    0 -0.00000000000E+00 -0.00000000000E+00 -0.45593999997E+02  0.45594000000E+02  0.51100000000E-03 0.  1.
    9900012    2    1    2    0    0 -0.15334422579E+02 -0.16140008929E+02  0.22827120334E+02  0.59301924249E+02  0.49999963928E+02 0.  0.
         12    1    1    2    0    0  0.15334422579E+02  0.16140008929E+02 -0.22827120334E+02  0.31886075751E+02  0.00000000000E+00 0. -1.
         11    1    3    3    0    0 -0.13167616624E+02 -0.99111270613E+01  0.27733244262E+02  0.32260647928E+02  0.51100000000E-03 0. -1.
        -11    1    3    3    0    0  0.98727513879E+01 -0.98115323336E+01 -0.13385120870E+01  0.13983168510E+02  0.51100000000E-03 0.  1.
         12    1    3    3    0    0 -0.12039557343E+02  0.35826504658E+01 -0.35676118409E+01  0.13058107812E+02  0.00000000000E+00 0. -1.
</event>
<event>
 7    1  0.4673733E-013  0.5930191E+02  0.7816164E-02  0.1266605E+00
        -11   -1    0    0    0    0  0.00000000000E+00  0.00000000000E+00  0.45593999997E+02  0.45594000000E+02  0.51100000000E-03 0. -1.
         11   -1    0    0    0    0 -0.00000000000E+00 -0.00000000000E+00 -0.45593999997E+02  0.45594000000E+02  0.51100000000E-03 0.  1.
    9900012    2    1    2    0    0 -0.21868903614E+01  0.20520710292E+02 -0.24307216060E+02  0.59301909099E+02  0.49999936298E+02 0.  0.
         12    1    1    2    0    0  0.21868903614E+01 -0.20520710292E+02  0.24307216060E+02  0.31886090901E+02  0.00000000000E+00 0. -1.
         11    1    3    3    0    0  0.57917969171E+01 -0.43456716674E+01 -0.30249553395E+02  0.31104103501E+02  0.51100000000E-03 0. -1.
        -11    1    3    3    0    0 -0.85246235355E+01  0.16766639526E+02  0.13190120333E+01  0.18855481973E+02  0.51100000000E-03 0.  1.
         12    1    3    3    0    0  0.54593625699E+00  0.80997424333E+01  0.46233253010E+01  0.93423236254E+01  0.00000000000E+00 0. -1.
</event>
<event>
 7    1  0.4673733E-013  0.5930184E+02  0.7816164E-02  0.1266605E+00
        -11   -1    0    0    0    0  0.00000000000E+00  0.00000000000E+00  0.45593999997E+02  0.45594000000E+02  0.51100000000E-03 0. -1.
         11   -1    0    0    0    0 -0.00000000000E+00 -0.00000000000E+00 -0.45593999997E+02  0.45594000000E+02  0.51100000000E-03 0.  1.
    9900012    2    1    2    0    0 -0.12773419222E+02  0.29215865870E+02 -0.17990889835E-01  0.59301837157E+02  0.49999805093E+02 0.  0.
         12    1    1    2    0    0  0.12773419222E+02 -0.29215865870E+02  0.17990889835E-01  0.31886162843E+02  0.00000000000E+00 0. -1.
         11    1    3    3    0    0  0.70162288976E+01  0.18338854936E+01 -0.54526004214E+01  0.90731171911E+01  0.51100000000E-03 0. -1.
        -11    1    3    3    0    0 -0.24051811500E+02  0.25077414921E+02  0.16263739595E+02  0.38365030972E+02  0.51100000000E-03 0.  1.
        -12    1    3    3    0    0  0.42621633812E+01  0.23045654556E+01 -0.10829130063E+02  0.11863688994E+02  0.00000000000E+00 0.  1.
</event>
<event>
 7    1  0.4673733E-013  0.5930192E+02  0.7816164E-02  0.1266605E+00
        -11   -1    0    0    0    0  0.00000000000E+00  0.00000000000E+00  0.45593999997E+02  0.45594000000E+02  0.51100000000E-03 0. -1.
         11   -1    0    0    0    0 -0.00000000000E+00 -0.00000000000E+00 -0.45593999997E+02  0.45594000000E+02  0.51100000000E-03 0.  1.
    9900012    2    1    2    0    0  0.29880733094E+02 -0.40769946467E+01 -0.10355758293E+02  0.59301924271E+02  0.49999963969E+02 0.  0.
         12    1    1    2    0    0 -0.29880733094E+02  0.40769946467E+01  0.10355758293E+02  0.31886075729E+02  0.00000000000E+00 0. -1.
         11    1    3    3    0    0  0.82698567413E+01  0.19170925006E+02 -0.48889102291E+01  0.21443328557E+02  0.51100000000E-03 0. -1.
        -11    1    3    3    0    0  0.22312452970E+02 -0.10810399261E+02 -0.55235306264E+01  0.25401174787E+02  0.51100000000E-03 0.  1.
         12    1    3    3    0    0 -0.70157661772E+00 -0.12437520391E+02  0.56682562641E-01  0.12457420927E+02  0.00000000000E+00 0. -1.
</event>
<event>
 7    1  0.4673733E-013  0.5930190E+02  0.7816164E-02  0.1266605E+00
        -11   -1    0    0    0    0  0.00000000000E+00  0.00000000000E+00  0.45593999997E+02  0.45594000000E+02  0.51100000000E-03 0.  1.
         11   -1    0    0    0    0 -0.00000000000E+00 -0.00000000000E+00 -0.45593999997E+02  0.45594000000E+02  0.51100000000E-03 0. -1.
    9900012    2    1    2    0    0 -0.10836338793E+02  0.22359306340E+02  0.19983962059E+02  0.59301897103E+02  0.49999914420E+02 0.  0.
         12    1    1    2    0    0  0.10836338793E+02 -0.22359306340E+02 -0.19983962059E+02  0.31886102897E+02  0.00000000000E+00 0. -1.
         11    1    3    3    0    0 -0.15910783864E+02  0.18013338040E+02  0.10001933516E+02  0.26032135233E+02  0.51100000000E-03 0.  1.
        -11    1    3    3    0    0  0.12069471654E+02  0.85042120445E+01 -0.55191059474E+01  0.15762433163E+02  0.51100000000E-03 0. -1.
        -12    1    3    3    0    0 -0.69950265833E+01 -0.41582437446E+01  0.15501134490E+02  0.17507328706E+02  0.00000000000E+00 0.  1.
</event>
<event>
 7    1  0.4673733E-013  0.5930194E+02  0.7816164E-02  0.1266605E+00
        -11   -1    0    0    0    0  0.00000000000E+00  0.00000000000E+00  0.45593999997E+02  0.45594000000E+02  0.51100000000E-03 0.  1.
         11   -1    0    0    0    0 -0.00000000000E+00 -0.00000000000E+00 -0.45593999997E+02  0.45594000000E+02  0.51100000000E-03 0. -1.
    9900012    2    1    2    0    0 -0.30178865296E+02  0.64532278248E+01  0.80195063050E+01  0.59301944407E+02  0.50000000691E+02 0.  0.
         12    1    1    2    0    0  0.30178865296E+02 -0.64532278248E+01 -0.80195063050E+01  0.31886055593E+02  0.00000000000E+00 0. -1.
         11    1    3    3    0    0 -0.11804824710E+02  0.22663118354E+02  0.55438072466E+01  0.26147745964E+02  0.51100000000E-03 0. -1.
        -11    1    3    3    0    0 -0.17730613292E+02 -0.10872133599E+01 -0.29488403807E+00  0.17766362527E+02  0.51100000000E-03 0.  1.
         12    1    3    3    0    0 -0.64342729468E+00 -0.15122677170E+02  0.27705830965E+01  0.15387835915E+02  0.00000000000E+00 0. -1.
</event>
<event>
 7    1  0.4673733E-013  0.5930192E+02  0.7816164E-02  0.1266605E+00
        -11   -1    0    0    0    0  0.00000000000E+00  0.00000000000E+00  0.45593999997E+02  0.45594000000E+02  0.51100000000E-03 0.  1.
         11   -1    0    0    0    0 -0.00000000000E+00 -0.00000000000E+00 -0.45593999997E+02  0.45594000000E+02  0.51100000000E-03 0. -1.
    9900012    2    1    2    0    0  0.22055334544E+02 -0.11456176390E+02  0.19975998501E+02  0.59301917214E+02  0.49999951098E+02 0.  0.
         12    1    1    2    0    0 -0.22055334544E+02  0.11456176390E+02 -0.19975998501E+02  0.31886082786E+02  0.00000000000E+00 0. -1.
         11    1    3    3    0    0  0.14513209126E+02  0.12038838382E+02 -0.57351700542E+00  0.18865200522E+02  0.51100000000E-03 0. -1.
        -11    1    3    3    0    0  0.40202264242E+01 -0.27544701247E+02  0.11935191641E+02  0.30287317264E+02  0.51100000000E-03 0.  1.
        -12    1    3    3    0    0  0.35218989943E+01  0.40496864761E+01  0.86143238655E+01  0.10149399428E+02  0.00000000000E+00 0.  1.
</event>
<event>
 7    1  0.4673733E-013  0.5930193E+02  0.7816164E-02  0.1266605E+00
        -11   -1    0    0    0    0  0.00000000000E+00  0.00000000000E+00  0.45593999997E+02  0.45594000000E+02  0.51100000000E-03 0.  1.
         11   -1    0    0    0    0 -0.00000000000E+00 -0.00000000000E+00 -0.45593999997E+02  0.45594000000E+02  0.51100000000E-03 0. -1.
    9900012    2    1    2    0    0 -0.21536964571E+02 -0.88578713223E+00  0.23496727977E+02  0.59301926435E+02  0.49999967915E+02 0.  0.
         12    1    1    2    0    0  0.21536964571E+02  0.88578713223E+00 -0.23496727977E+02  0.31886073565E+02  0.00000000000E+00 0. -1.
         11    1    3    3    0    0 -0.16284298791E+02 -0.15179632930E+02 -0.65382475756E+01  0.23202334465E+02  0.51100000000E-03 0. -1.
        -11    1    3    3    0    0  0.33052554881E+01  0.92524674397E+01  0.17888875393E+02  0.20409427495E+02  0.51100000000E-03 0.  1.
        -12    1    3    3    0    0 -0.85579212687E+01  0.50413783578E+01  0.12146100159E+02  0.15690164476E+02  0.00000000000E+00 0.  1.
</event>
<event>
 7    1  0.4673733E-013  0.5930187E+02  0.7816164E-02  0.1266605E+00
        -11   -1    0    0    0    0  0.00000000000E+00  0.00000000000E+00  0.45593999997E+02  0.45594000000E+02  0.51100000000E-03 0.  1.
         11   -1    0    0    0    0 -0.00000000000E+00 -0.00000000000E+00 -0.45593999997E+02  0.45594000000E+02  0.51100000000E-03 0. -1.
    9900012    2    1    2    0    0 -0.62173033151E+01 -0.14568023655E+02  0.27673867565E+02  0.59301872613E+02  0.49999869757E+02 0.  0.
         12    1    1    2    0    0  0.62173033151E+01  0.14568023655E+02 -0.27673867565E+02  0.31886127387E+02  0.00000000000E+00 0. -1.
         11    1    3    3    0    0 -0.97991210817E+01  0.12888699443E+02  0.27808230880E+01  0.16427852100E+02  0.51100000000E-03 0. -1.
        -11    1    3    3    0    0  0.83735356860E+01 -0.28134736103E+02  0.17939256751E+02  0.34401982625E+02  0.51100000000E-03 0.  1.
        -12    1    3    3    0    0 -0.47917179195E+01  0.67801300539E+00  0.69537877261E+01  0.84720378891E+01  0.00000000000E+00 0.  1.
</event>
<event>
 7    1  0.4673733E-013  0.5930192E+02  0.7816164E-02  0.1266605E+00
        -11   -1    0    0    0    0  0.00000000000E+00  0.00000000000E+00  0.45593999997E+02  0.45594000000E+02  0.51100000000E-03 0.  1.
         11   -1    0    0    0    0 -0.00000000000E+00 -0.00000000000E+00 -0.45593999997E+02  0.45594000000E+02  0.51100000000E-03 0. -1.
    9900012    2    1    2    0    0 -0.25015898295E+02 -0.54470816184E+01  0.19006746073E+02  0.59301917426E+02  0.49999951485E+02 0.  0.
         12    1    1    2    0    0  0.25015898295E+02  0.54470816184E+01 -0.19006746073E+02  0.31886082574E+02  0.00000000000E+00 0. -1.
         11    1    3    3    0    0 -0.36923298959E+01 -0.26346169797E+01  0.22703402555E+02  0.23152084021E+02  0.51100000000E-03 0. -1.
        -11    1    3    3    0    0 -0.28443051807E+02 -0.53602286304E+00 -0.35969338539E+01  0.28674595900E+02  0.51100000000E-03 0.  1.
         12    1    3    3    0    0  0.71194834079E+01 -0.22764417756E+01 -0.99722628425E-01  0.74752375050E+01  0.00000000000E+00 0. -1.
</event>
<event>
 7    1  0.4673733E-013  0.5930195E+02  0.7816164E-02  0.1266605E+00
        -11   -1    0    0    0    0  0.00000000000E+00  0.00000000000E+00  0.45593999997E+02  0.45594000000E+02  0.51100000000E-03 0. -1.
         11   -1    0    0    0    0 -0.00000000000E+00 -0.00000000000E+00 -0.45593999997E+02  0.45594000000E+02  0.51100000000E-03 0.  1.
    9900012    2    1    2    0    0  0.28991499316E+02  0.12534114532E+02 -0.43714031454E+01  0.59301949364E+02  0.50000009732E+02 0.  0.
         12    1    1    2    0    0 -0.28991499316E+02 -0.12534114532E+02  0.43714031454E+01  0.31886050636E+02  0.00000000000E+00 0. -1.
         11    1    3    3    0    0  0.24692587476E+02 -0.16698311787E+01  0.18641661090E+00  0.24749686136E+02  0.51100000000E-03 0. -1.
        -11    1    3    3    0    0 -0.36740928062E+00  0.15608274904E+02  0.10440713761E+02  0.18781952485E+02  0.51100000000E-03 0.  1.
        -12    1    3    3    0    0  0.46663211208E+01 -0.14043291929E+01 -0.14998533517E+02  0.15770310743E+02  0.00000000000E+00 0.  1.
</event>
<event>
 7    1  0.4673733E-013  0.5930178E+02  0.7816164E-02  0.1266605E+00
        -11   -1    0    0    0    0  0.00000000000E+00  0.00000000000E+00  0.45593999997E+02  0.45594000000E+02  0.51100000000E-03 0.  1.
         11   -1    0    0    0    0 -0.00000000000E+00 -0.00000000000E+00 -0.45593999997E+02  0.45594000000E+02  0.51100000000E-03 0. -1.
    9900012    2    1    2    0    0 -0.41600286323E+00 -0.30650827436E+02 -0.87797978887E+01  0.59301778338E+02  0.49999697822E+02 0.  0.
         12    1    1    2    0    0  0.41600286323E+00  0.30650827436E+02  0.87797978887E+01  0.31886221662E+02  0.00000000000E+00 0. -1.
         11    1    3    3    0    0  0.20700536404E+02 -0.16590199181E+02 -0.16939524327E+02  0.31475298266E+02  0.51100000000E-03 0. -1.
        -11    1    3    3    0    0 -0.17936728231E+02 -0.99325305867E+01  0.92656203480E+01  0.22499624534E+02  0.51100000000E-03 0.  1.
        -12    1    3    3    0    0 -0.31798110357E+01 -0.41280976684E+01 -0.11058939102E+01  0.53268555381E+01  0.00000000000E+00 0.  1.
</event>
<event>
 7    1  0.4673733E-013  0.5930198E+02  0.7816164E-02  0.1266605E+00
        -11   -1    0    0    0    0  0.00000000000E+00  0.00000000000E+00  0.45593999997E+02  0.45594000000E+02  0.51100000000E-03 0.  1.
         11   -1    0    0    0    0 -0.00000000000E+00 -0.00000000000E+00 -0.45593999997E+02  0.45594000000E+02  0.51100000000E-03 0. -1.
    9900012    2    1    2    0    0  0.49503615879E+01  0.13303994082E-01  0.31499396007E+02  0.59301981032E+02  0.50000067487E+02 0.  0.
         12    1    1    2    0    0 -0.49503615879E+01 -0.13303994082E-01 -0.31499396007E+02  0.31886018968E+02  0.00000000000E+00 0. -1.
         11    1    3    3    0    0 -0.61039831157E+01 -0.10152806763E+02 -0.64808132133E+01  0.13503297198E+02  0.51100000000E-03 0. -1.
        -11    1    3    3    0    0 -0.34992728973E+01  0.99504367780E+01  0.20479870643E+02  0.23036518936E+02  0.51100000000E-03 0.  1.
         12    1    3    3    0    0  0.14553617601E+02  0.21567397899E+00  0.17500338577E+02  0.22762164898E+02  0.00000000000E+00 0. -1.
</event>
<event>
 7    1  0.4673733E-013  0.5930194E+02  0.7816164E-02  0.1266605E+00
        -11   -1    0    0    0    0  0.00000000000E+00  0.00000000000E+00  0.45593999997E+02  0.45594000000E+02  0.51100000000E-03 0. -1.
         11   -1    0    0    0    0 -0.00000000000E+00 -0.00000000000E+00 -0.45593999997E+02  0.45594000000E+02  0.51100000000E-03 0.  1.
    9900012    2    1    2    0    0  0.24478025013E+02  0.81878270637E+01 -0.18721819492E+02  0.59301941202E+02  0.49999994847E+02 0.  0.
         12    1    1    2    0    0 -0.24478025013E+02 -0.81878270637E+01  0.18721819492E+02  0.31886058798E+02  0.00000000000E+00 0. -1.
         11    1    3    3    0    0  0.11442625907E+02 -0.13643651058E+02  0.89821801956E+01  0.19943983132E+02  0.51100000000E-03 0. -1.
        -11    1    3    3    0    0  0.49257395453E+01  0.44409132877E+01 -0.14845279593E+02  0.16259364912E+02  0.51100000000E-03 0.  1.
         12    1    3    3    0    0  0.81096595607E+01  0.17390564834E+02 -0.12858720095E+02  0.23098593159E+02  0.00000000000E+00 0. -1.
</event>
<event>
 7    1  0.4673733E-013  0.5930209E+02  0.7816164E-02  0.1266604E+00
        -11   -1    0    0    0    0  0.00000000000E+00  0.00000000000E+00  0.45593999997E+02  0.45594000000E+02  0.51100000000E-03 0. -1.
         11   -1    0    0    0    0 -0.00000000000E+00 -0.00000000000E+00 -0.45593999997E+02  0.45594000000E+02  0.51100000000E-03 0.  1.
    9900012    2    1    2    0    0  0.96124901080E+01  0.27197616650E+02 -0.13586796407E+02  0.59302088469E+02  0.50000263426E+02 0.  0.
         12    1    1    2    0    0 -0.96124901080E+01 -0.27197616650E+02  0.13586796407E+02  0.31885911531E+02  0.00000000000E+00 0. -1.
         11    1    3    3    0    0 -0.62390708361E+01 -0.78282564723E+01  0.35359160976E+01  0.10616511066E+02  0.51100000000E-03 0. -1.
        -11    1    3    3    0    0 -0.51137252693E+01  0.16705424614E+02 -0.40837502768E+01  0.17941527645E+02  0.51100000000E-03 0.  1.
        -12    1    3    3    0    0  0.20965286213E+02  0.18320448509E+02 -0.13038962228E+02  0.30744049759E+02  0.00000000000E+00 0.  1.
</event>
<event>
 7    1  0.4673733E-013  0.5930193E+02  0.7816164E-02  0.1266605E+00
        -11   -1    0    0    0    0  0.00000000000E+00  0.00000000000E+00  0.45593999997E+02  0.45594000000E+02  0.51100000000E-03 0.  1.
         11   -1    0    0    0    0 -0.00000000000E+00 -0.00000000000E+00 -0.45593999997E+02  0.45594000000E+02  0.51100000000E-03 0. -1.
    9900012    2    1    2    0    0 -0.18914219307E+02  0.24850995282E+02  0.64344045041E+01  0.59301933767E+02  0.49999981286E+02 0.  0.
         12    1    1    2    0    0  0.18914219307E+02 -0.24850995282E+02 -0.64344045041E+01  0.31886066233E+02  0.00000000000E+00 0. -1.
         11    1    3    3    0    0 -0.67180145876E+01 -0.89344949668E+01 -0.12186264671E+02  0.16536685496E+02  0.51100000000E-03 0. -1.
        -11    1    3    3    0    0 -0.10528997159E+02  0.33417788444E+02  0.13810065934E+02  0.37660672950E+02  0.51100000000E-03 0.  1.
         12    1    3    3    0    0 -0.16672075608E+01  0.36770180510E+00  0.48106032406E+01  0.51045753209E+01  0.00000000000E+00 0. -1.
</event>
<event>
 7    1  0.4673733E-013  0.5930191E+02  0.7816164E-02  0.1266605E+00
        -11   -1    0    0    0    0  0.00000000000E+00  0.00000000000E+00  0.45593999997E+02  0.45594000000E+02  0.51100000000E-03 0. -1.
         11   -1    0    0    0    0 -0.00000000000E+00 -0.00000000000E+00 -0.45593999997E+02  0.45594000000E+02  0.51100000000E-03 0.  1.
    9900012    2    1    2    0    0 -0.11812796124E+02  0.25875635949E+02 -0.14409439171E+02  0.59301911728E+02  0.49999941093E+02 0.  0.
         12    1    1    2    0    0  0.11812796124E+02 -0.25875635949E+02  0.14409439171E+02  0.31886088272E+02  0.00000000000E+00 0. -1.
         11    1    3    3    0    0 -0.12989746569E+02 -0.77265527840E+01  0.81990997413E+01  0.17194719268E+02  0.51100000000E-03 0. -1.
        -11    1    3    3    0    0  0.59597504320E+01  0.24566772524E+02 -0.15448826304E+02  0.29626190641E+02  0.51100000000E-03 0.  1.
         12    1    3    3    0    0 -0.47827999864E+01  0.90354162089E+01 -0.71597126083E+01  0.12481001819E+02  0.00000000000E+00 0. -1.
</event>
<event>
 7    1  0.4673733E-013  0.5930194E+02  0.7816164E-02  0.1266605E+00
        -11   -1    0    0    0    0  0.00000000000E+00  0.00000000000E+00  0.45593999997E+02  0.45594000000E+02  0.51100000000E-03 0.  1.
         11   -1    0    0    0    0 -0.00000000000E+00 -0.00000000000E+00 -0.45593999997E+02  0.45594000000E+02  0.51100000000E-03 0. -1.
    9900012    2    1    2    0    0  0.14719632604E+02  0.24851060233E+02  0.13508454704E+02  0.59301935220E+02  0.49999983936E+02 0.  0.
         12    1    1    2    0    0 -0.14719632604E+02 -0.24851060233E+02 -0.13508454704E+02  0.31886064780E+02  0.00000000000E+00 0. -1.
         11    1    3    3    0    0  0.37685096712E+01  0.60562777869E+00  0.41789291405E+01  0.56596730622E+01  0.51100000000E-03 0. -1.
        -11    1    3    3    0    0  0.40035341175E+01  0.14361338580E+02 -0.18230431520E+02  0.23550476958E+02  0.51100000000E-03 0.  1.
        -12    1    3    3    0    0  0.69475888150E+01  0.98840938737E+01  0.27559957084E+02  0.30091785200E+02  0.00000000000E+00 0.  1.
</event>
<event>
 7    1  0.4673733E-013  0.5930195E+02  0.7816164E-02  0.1266605E+00
        -11   -1    0    0    0    0  0.00000000000E+00  0.00000000000E+00  0.45593999997E+02  0.45594000000E+02  0.51100000000E-03 0.  1.
         11   -1    0    0    0    0 -0.00000000000E+00 -0.00000000000E+00 -0.45593999997E+02  0.45594000000E+02  0.51100000000E-03 0. -1.
    9900012    2    1    2    0    0  0.63398367007E+01 -0.18785338488E+02  0.24972734806E+02  0.59301953597E+02  0.50000017452E+02 0.  0.
         12    1    1    2    0    0 -0.63398367007E+01  0.18785338488E+02 -0.24972734806E+02  0.31886046403E+02  0.00000000000E+00 0. -1.
         11    1    3    3    0    0 -0.46298351673E+00  0.69223394399E+01 -0.79503907693E+00  0.69832101825E+01  0.51100000000E-03 0. -1.
        -11    1    3    3    0    0  0.29205739139E+01 -0.34341562982E+02  0.13961745334E+02  0.37186059660E+02  0.51100000000E-03 0.  1.
        -12    1    3    3    0    0  0.38822463035E+01  0.86338850543E+01  0.11806028550E+02  0.15132683754E+02  0.00000000000E+00 0.  1.
</event>
<event>
 7    1  0.4673733E-013  0.5930195E+02  0.7816164E-02  0.1266605E+00
        -11   -1    0    0    0    0  0.00000000000E+00  0.00000000000E+00  0.45593999997E+02  0.45594000000E+02  0.51100000000E-03 0.  1.
         11   -1    0    0    0    0 -0.00000000000E+00 -0.00000000000E+00 -0.45593999997E+02  0.45594000000E+02  0.51100000000E-03 0. -1.
    9900012    2    1    2    0    0 -0.24882571229E+02 -0.11379066573E+01 -0.19906858858E+02  0.59301949569E+02  0.50000010105E+02 0.  0.
         12    1    1    2    0    0  0.24882571229E+02  0.11379066573E+01  0.19906858858E+02  0.31886050431E+02  0.00000000000E+00 0. -1.
         11    1    3    3    0    0  0.63967493369E+01 -0.17553473060E+02 -0.68877981813E+01  0.19911920615E+02  0.51100000000E-03 0. -1.
        -11    1    3    3    0    0 -0.30973827951E+02  0.12746153489E+02 -0.11682918044E+02  0.35472990020E+02  0.51100000000E-03 0.  1.
        -12    1    3    3    0    0 -0.30549261503E+00  0.36694129139E+01 -0.13361426330E+01  0.39170389335E+01  0.00000000000E+00 0.  1.
</event>
<event>
 7    1  0.4673733E-013  0.5930194E+02  0.7816164E-02  0.1266605E+00
        -11   -1    0    0    0    0  0.00000000000E+00  0.00000000000E+00  0.45593999997E+02  0.45594000000E+02  0.51100000000E-03 0.  1.
         11   -1    0    0    0    0 -0.00000000000E+00 -0.00000000000E+00 -0.45593999997E+02  0.45594000000E+02  0.51100000000E-03 0. -1.
    9900012    2    1    2    0    0  0.94678848847E+01  0.21385948167E+02  0.21673057301E+02  0.59301936650E+02  0.49999986544E+02 0.  0.
         12    1    1    2    0    0 -0.94678848847E+01 -0.21385948167E+02 -0.21673057301E+02  0.31886063350E+02  0.00000000000E+00 0. -1.
         11    1    3    3    0    0  0.24903821989E+01  0.93108679352E+01  0.26774809134E+02  0.28456715721E+02  0.51100000000E-03 0.  1.
        -11    1    3    3    0    0  0.63161783157E+01  0.44546772591E+01 -0.15861083684E+02  0.17644042448E+02  0.51100000000E-03 0. -1.
         12    1    3    3    0    0  0.66132437013E+00  0.76204029729E+01  0.10759331851E+02  0.13201178481E+02  0.00000000000E+00 0. -1.
</event>
<event>
 7    1  0.4673733E-013  0.5930190E+02  0.7816164E-02  0.1266605E+00
        -11   -1    0    0    0    0  0.00000000000E+00  0.00000000000E+00  0.45593999997E+02  0.45594000000E+02  0.51100000000E-03 0.  1.
         11   -1    0    0    0    0 -0.00000000000E+00 -0.00000000000E+00 -0.45593999997E+02  0.45594000000E+02  0.51100000000E-03 0. -1.
    9900012    2    1    2    0    0  0.11951630218E+02 -0.24203744565E+02  0.16972345979E+02  0.59301902028E+02  0.49999923403E+02 0.  0.
         12    1    1    2    0    0 -0.11951630218E+02  0.24203744565E+02 -0.16972345979E+02  0.31886097972E+02  0.00000000000E+00 0. -1.
         11    1    3    3    0    0  0.43918573833E+01  0.72564305189E+01 -0.97196569801E+01  0.12900229735E+02  0.51100000000E-03 0. -1.
        -11    1    3    3    0    0 -0.31876579195E+01 -0.24055760008E+02  0.21272167066E+02  0.32269890681E+02  0.51100000000E-03 0.  1.
        -12    1    3    3    0    0  0.10747430754E+02 -0.74044150756E+01  0.54198358931E+01  0.14131781612E+02  0.00000000000E+00 0.  1.
</event>
<event>
 7    1  0.4673733E-013  0.5930196E+02  0.7816164E-02  0.1266605E+00
        -11   -1    0    0    0    0  0.00000000000E+00  0.00000000000E+00  0.45593999997E+02  0.45594000000E+02  0.51100000000E-03 0. -1.
         11   -1    0    0    0    0 -0.00000000000E+00 -0.00000000000E+00 -0.45593999997E+02  0.45594000000E+02  0.51100000000E-03 0.  1.
    9900012    2    1    2    0    0 -0.25625706993E+02  0.11019885268E+02 -0.15446840610E+02  0.59301958931E+02  0.50000027180E+02 0.  0.
         12    1    1    2    0    0  0.25625706993E+02 -0.11019885268E+02  0.15446840610E+02  0.31886041069E+02  0.00000000000E+00 0. -1.
         11    1    3    3    0    0  0.73755615625E+01  0.12305722074E+02 -0.34149869378E+01  0.14747604557E+02  0.51100000000E-03 0.  1.
        -11    1    3    3    0    0 -0.34448876904E+02 -0.29839949199E+01 -0.23930020379E+01  0.34660579982E+02  0.51100000000E-03 0. -1.
         12    1    3    3    0    0  0.14476083486E+01  0.16981581145E+01 -0.96388516341E+01  0.98937743928E+01  0.00000000000E+00 0. -1.
</event>
<event>
 7    1  0.4673733E-013  0.5930186E+02  0.7816164E-02  0.1266605E+00
        -11   -1    0    0    0    0  0.00000000000E+00  0.00000000000E+00  0.45593999997E+02  0.45594000000E+02  0.51100000000E-03 0.  1.
         11   -1    0    0    0    0 -0.00000000000E+00 -0.00000000000E+00 -0.45593999997E+02  0.45594000000E+02  0.51100000000E-03 0. -1.
    9900012    2    1    2    0    0 -0.19766484584E+01 -0.31821594368E+02  0.45302708719E+00  0.59301855034E+02  0.49999837696E+02 0.  0.
         12    1    1    2    0    0  0.19766484584E+01  0.31821594368E+02 -0.45302708719E+00  0.31886144966E+02  0.00000000000E+00 0. -1.
         11    1    3    3    0    0  0.75292635802E+00 -0.15522973287E+02 -0.47953102911E+01  0.16264212210E+02  0.51100000000E-03 0. -1.
        -11    1    3    3    0    0 -0.84383848875E+01  0.60718838013E+01  0.14771717839E+02  0.18063160316E+02  0.51100000000E-03 0.  1.
        -12    1    3    3    0    0  0.57088100711E+01 -0.22370504883E+02 -0.95233804611E+01  0.24974482508E+02  0.00000000000E+00 0.  1.
</event>
<event>
 7    1  0.4673733E-013  0.5930193E+02  0.7816164E-02  0.1266605E+00
        -11   -1    0    0    0    0  0.00000000000E+00  0.00000000000E+00  0.45593999997E+02  0.45594000000E+02  0.51100000000E-03 0.  1.
         11   -1    0    0    0    0 -0.00000000000E+00 -0.00000000000E+00 -0.45593999997E+02  0.45594000000E+02  0.51100000000E-03 0. -1.
    9900012    2    1    2    0    0  0.56643144350E+01  0.92931378147E+01  0.29971232910E+02  0.59301926698E+02  0.49999968394E+02 0.  0.
         12    1    1    2    0    0 -0.56643144350E+01 -0.92931378147E+01 -0.29971232910E+02  0.31886073302E+02  0.00000000000E+00 0. -1.
         11    1    3    3    0    0  0.81749602156E+01  0.11769997453E+01  0.20825702407E+02  0.22403686838E+02  0.51100000000E-03 0. -1.
        -11    1    3    3    0    0 -0.48548297468E+01  0.21282527019E+02  0.25220217995E+01  0.21974437932E+02  0.51100000000E-03 0.  1.
         12    1    3    3    0    0  0.23441839662E+01 -0.13166388950E+02  0.66235087043E+01  0.14923801929E+02  0.00000000000E+00 0. -1.
</event>
<event>
 7    1  0.4673733E-013  0.5930193E+02  0.7816164E-02  0.1266605E+00
        -11   -1    0    0    0    0  0.00000000000E+00  0.00000000000E+00  0.45593999997E+02  0.45594000000E+02  0.51100000000E-03 0.  1.
         11   -1    0    0    0    0 -0.00000000000E+00 -0.00000000000E+00 -0.45593999997E+02  0.45594000000E+02  0.51100000000E-03 0. -1.
    9900012    2    1    2    0    0 -0.10134566682E+02  0.28224505967E+02 -0.10834631886E+02  0.59301930518E+02  0.49999975361E+02 0.  0.
         12    1    1    2    0    0  0.10134566682E+02 -0.28224505967E+02  0.10834631886E+02  0.31886069482E+02  0.00000000000E+00 0. -1.
         11    1    3    3    0    0  0.78791681964E+01  0.22554386285E+02 -0.15899415979E+02  0.28697962661E+02  0.51100000000E-03 0. -1.
        -11    1    3    3    0    0 -0.20231563467E+02  0.90084480424E+01 -0.22526862156E+01  0.22260792706E+02  0.51100000000E-03 0.  1.
        -12    1    3    3    0    0  0.22178285883E+01 -0.33383283602E+01  0.73174703086E+01  0.83431751513E+01  0.00000000000E+00 0.  1.
</event>
<event>
 7    1  0.4673733E-013  0.5930194E+02  0.7816164E-02  0.1266605E+00
        -11   -1    0    0    0    0  0.00000000000E+00  0.00000000000E+00  0.45593999997E+02  0.45594000000E+02  0.51100000000E-03 0.  1.
         11   -1    0    0    0    0 -0.00000000000E+00 -0.00000000000E+00 -0.45593999997E+02  0.45594000000E+02  0.51100000000E-03 0. -1.
    9900012    2    1    2    0    0  0.31128509853E+02 -0.57267451927E+01 -0.38654007583E+01  0.59301936286E+02  0.49999985881E+02 0.  0.
         12    1    1    2    0    0 -0.31128509853E+02  0.57267451927E+01  0.38654007583E+01  0.31886063714E+02  0.00000000000E+00 0. -1.
         11    1    3    3    0    0 -0.11138595515E+01 -0.84478451708E+01 -0.15733345405E+02  0.17892594251E+02  0.51100000000E-03 0. -1.
        -11    1    3    3    0    0  0.31038790944E+02  0.23634385179E+01  0.17115828856E+01  0.31175662000E+02  0.51100000000E-03 0.  1.
        -12    1    3    3    0    0  0.12035784602E+01  0.35766146017E+00  0.10156361761E+02  0.10233680035E+02  0.00000000000E+00 0.  1.
</event>
<event>
 7    1  0.4673733E-013  0.5930192E+02  0.7816164E-02  0.1266605E+00
        -11   -1    0    0    0    0  0.00000000000E+00  0.00000000000E+00  0.45593999997E+02  0.45594000000E+02  0.51100000000E-03 0. -1.
         11   -1    0    0    0    0 -0.00000000000E+00 -0.00000000000E+00 -0.45593999997E+02  0.45594000000E+02  0.51100000000E-03 0.  1.
    9900012    2    1    2    0    0  0.25364258818E+02 -0.19217656964E+02  0.20145079190E+01  0.59301918292E+02  0.49999953064E+02 0.  0.
         12    1    1    2    0    0 -0.25364258818E+02  0.19217656964E+02 -0.20145079190E+01  0.31886081708E+02  0.00000000000E+00 0. -1.
         11    1    3    3    0    0  0.17137247719E+01  0.13847776134E+02  0.89308502611E+01  0.16566769242E+02  0.51100000000E-03 0. -1.
        -11    1    3    3    0    0  0.10356837258E+02 -0.16048441591E+02 -0.88576257690E+01  0.21054075378E+02  0.51100000000E-03 0.  1.
         12    1    3    3    0    0  0.13293696788E+02 -0.17016991507E+02  0.19412834269E+01  0.21681073672E+02  0.00000000000E+00 0. -1.
</event>
<event>
 7    1  0.4673733E-013  0.5930193E+02  0.7816164E-02  0.1266605E+00
        -11   -1    0    0    0    0  0.00000000000E+00  0.00000000000E+00  0.45593999997E+02  0.45594000000E+02  0.51100000000E-03 0.  1.
         11   -1    0    0    0    0 -0.00000000000E+00 -0.00000000000E+00 -0.45593999997E+02  0.45594000000E+02  0.51100000000E-03 0. -1.
    9900012    2    1    2    0    0  0.18393603387E+02 -0.10135243274E+01  0.26026326093E+02  0.59301928949E+02  0.49999972501E+02 0.  0.
         12    1    1    2    0    0 -0.18393603387E+02  0.10135243274E+01 -0.26026326093E+02  0.31886071051E+02  0.00000000000E+00 0. -1.
         11    1    3    3    0    0 -0.21951673744E+01 -0.83016756903E+01 -0.10020161530E+02  0.13196219777E+02  0.51100000000E-03 0. -1.
        -11    1    3    3    0    0  0.19950237069E+02 -0.13132759889E+01  0.23119603035E+02  0.30565547560E+02  0.51100000000E-03 0.  1.
        -12    1    3    3    0    0  0.63853369285E+00  0.86014273518E+01  0.12926884588E+02  0.15540161612E+02  0.00000000000E+00 0.  1.
</event>
<event>
 7    1  0.4673733E-013  0.5930193E+02  0.7816164E-02  0.1266605E+00
        -11   -1    0    0    0    0  0.00000000000E+00  0.00000000000E+00  0.45593999997E+02  0.45594000000E+02  0.51100000000E-03 0.  1.
         11   -1    0    0    0    0 -0.00000000000E+00 -0.00000000000E+00 -0.45593999997E+02  0.45594000000E+02  0.51100000000E-03 0. -1.
    9900012    2    1    2    0    0 -0.23498620664E+02  0.97714562735E+01  0.19210794947E+02  0.59301934496E+02  0.49999982617E+02 0.  0.
         12    1    1    2    0    0  0.23498620664E+02 -0.97714562735E+01 -0.19210794947E+02  0.31886065504E+02  0.00000000000E+00 0. -1.
         11    1    3    3    0    0 -0.17099169206E+02  0.10941129138E+02  0.13991706463E+02  0.24654771229E+02  0.51100000000E-03 0. -1.
        -11    1    3    3    0    0  0.72718711885E+01  0.11288366877E+02  0.84579039562E+01  0.15869577087E+02  0.51100000000E-03 0.  1.
        -12    1    3    3    0    0 -0.13671322646E+02 -0.12458039741E+02 -0.32388154726E+01  0.18777586180E+02  0.00000000000E+00 0.  1.
</event>
<event>
 7    1  0.4673733E-013  0.5930193E+02  0.7816164E-02  0.1266605E+00
        -11   -1    0    0    0    0  0.00000000000E+00  0.00000000000E+00  0.45593999997E+02  0.45594000000E+02  0.51100000000E-03 0.  1.
         11   -1    0    0    0    0 -0.00000000000E+00 -0.00000000000E+00 -0.45593999997E+02  0.45594000000E+02  0.51100000000E-03 0. -1.
    9900012    2    1    2    0    0 -0.13083925086E+02  0.19509721038E+02  0.21561619302E+02  0.59301925648E+02  0.49999966481E+02 0.  0.
         12    1    1    2    0    0  0.13083925086E+02 -0.19509721038E+02 -0.21561619302E+02  0.31886074352E+02  0.00000000000E+00 0. -1.
         11    1    3    3    0    0 -0.64233825804E+01 -0.16436327971E+02  0.96150713478E+01  0.20096325988E+02  0.51100000000E-03 0. -1.
        -11    1    3    3    0    0 -0.78417631000E+01  0.27868662493E+02  0.74858988929E+01  0.29903081449E+02  0.51100000000E-03 0.  1.
         12    1    3    3    0    0  0.11812205946E+01  0.80773865161E+01  0.44606490614E+01  0.93025182113E+01  0.00000000000E+00 0. -1.
</event>
<event>
 7    1  0.4673733E-013  0.5930196E+02  0.7816164E-02  0.1266605E+00
        -11   -1    0    0    0    0  0.00000000000E+00  0.00000000000E+00  0.45593999997E+02  0.45594000000E+02  0.51100000000E-03 0. -1.
         11   -1    0    0    0    0 -0.00000000000E+00 -0.00000000000E+00 -0.45593999997E+02  0.45594000000E+02  0.51100000000E-03 0.  1.
    9900012    2    1    2    0    0 -0.21276202457E+00 -0.20093077960E+02 -0.24757676208E+02  0.59301959469E+02  0.50000028160E+02 0.  0.
         12    1    1    2    0    0  0.21276202457E+00  0.20093077960E+02  0.24757676208E+02  0.31886040531E+02  0.00000000000E+00 0. -1.
         11    1    3    3    0    0  0.10590878435E+02 -0.10464019619E+02  0.40055599640E+01  0.15417747031E+02  0.51100000000E-03 0. -1.
        -11    1    3    3    0    0 -0.77753998866E+01 -0.16926903229E+02 -0.30552347517E+02  0.35782996456E+02  0.51100000000E-03 0.  1.
        -12    1    3    3    0    0 -0.30282405727E+01  0.72978448884E+01  0.17891113452E+01  0.81012159820E+01  0.00000000000E+00 0.  1.
</event>
<event>
 7    1  0.4673733E-013  0.5930190E+02  0.7816164E-02  0.1266605E+00
        -11   -1    0    0    0    0  0.00000000000E+00  0.00000000000E+00  0.45593999997E+02  0.45594000000E+02  0.51100000000E-03 0.  1.
         11   -1    0    0    0    0 -0.00000000000E+00 -0.00000000000E+00 -0.45593999997E+02  0.45594000000E+02  0.51100000000E-03 0. -1.
    9900012    2    1    2    0    0 -0.12430809583E+02  0.97469050259E+01  0.27698310722E+02  0.59301896423E+02  0.49999913181E+02 0.  0.
         12    1    1    2    0    0  0.12430809583E+02 -0.97469050259E+01 -0.27698310722E+02  0.31886103577E+02  0.00000000000E+00 0. -1.
         11    1    3    3    0    0 -0.36476958541E+01 -0.61439001427E+01 -0.10166403172E+02  0.12426139695E+02  0.51100000000E-03 0. -1.
        -11    1    3    3    0    0 -0.76010050116E+00  0.17133110812E+02  0.33556121405E+02  0.37684672254E+02  0.51100000000E-03 0.  1.
         12    1    3    3    0    0 -0.80230132282E+01 -0.12423056432E+01  0.43085924892E+01  0.91910844740E+01  0.00000000000E+00 0. -1.
</event>
<event>
 7    1  0.4673733E-013  0.5930194E+02  0.7816164E-02  0.1266605E+00
        -11   -1    0    0    0    0  0.00000000000E+00  0.00000000000E+00  0.45593999997E+02  0.45594000000E+02  0.51100000000E-03 0.  1.
         11   -1    0    0    0    0 -0.00000000000E+00 -0.00000000000E+00 -0.45593999997E+02  0.45594000000E+02  0.51100000000E-03 0. -1.
    9900012    2    1    2    0    0 -0.29401270892E+02  0.12064401259E+02  0.25953930917E+01  0.59301943908E+02  0.49999999781E+02 0.  0.
         12    1    1    2    0    0  0.29401270892E+02 -0.12064401259E+02 -0.25953930917E+01  0.31886056092E+02  0.00000000000E+00 0. -1.
         11    1    3    3    0    0 -0.12797897760E+02 -0.17893604879E+02 -0.75014657737E+01  0.23243047813E+02  0.51100000000E-03 0. -1.
        -11    1    3    3    0    0 -0.10620901336E+02  0.19897908638E+02  0.90666240634E+01  0.24309133787E+02  0.51100000000E-03 0.  1.
         12    1    3    3    0    0 -0.59824717969E+01  0.10060097501E+02  0.10302348020E+01  0.11749762307E+02  0.00000000000E+00 0. -1.
</event>
<event>
 7    1  0.4673733E-013  0.5930195E+02  0.7816164E-02  0.1266605E+00
        -11   -1    0    0    0    0  0.00000000000E+00  0.00000000000E+00  0.45593999997E+02  0.45594000000E+02  0.51100000000E-03 0. -1.
         11   -1    0    0    0    0 -0.00000000000E+00 -0.00000000000E+00 -0.45593999997E+02  0.45594000000E+02  0.51100000000E-03 0.  1.
    9900012    2    1    2    0    0 -0.28866692859E+02  0.13427199039E+02  0.17733452649E+01  0.59301946872E+02  0.50000005187E+02 0.  0.
         12    1    1    2    0    0  0.28866692859E+02 -0.13427199039E+02 -0.17733452649E+01  0.31886053128E+02  0.00000000000E+00 0. -1.
         11    1    3    3    0    0 -0.26381290702E+02 -0.44371120927E+01  0.19838830185E+02  0.33305249529E+02  0.51100000000E-03 0. -1.
        -11    1    3    3    0    0 -0.17558689143E+01  0.24529481639E+01 -0.46956549261E+01  0.55811473539E+01  0.51100000000E-03 0.  1.
         12    1    3    3    0    0 -0.72953324265E+00  0.15411362968E+02 -0.13369829994E+02  0.20415549989E+02  0.00000000000E+00 0. -1.
</event>
<event>
 7    1  0.4673733E-013  0.5930195E+02  0.7816164E-02  0.1266605E+00
        -11   -1    0    0    0    0  0.00000000000E+00  0.00000000000E+00  0.45593999997E+02  0.45594000000E+02  0.51100000000E-03 0. -1.
         11   -1    0    0    0    0 -0.00000000000E+00 -0.00000000000E+00 -0.45593999997E+02  0.45594000000E+02  0.51100000000E-03 0.  1.
    9900012    2    1    2    0    0  0.30226672206E+02  0.18741776963E+01 -0.99777641683E+01  0.59301952386E+02  0.50000015243E+02 0.  0.
         12    1    1    2    0    0 -0.30226672206E+02 -0.18741776963E+01  0.99777641683E+01  0.31886047614E+02  0.00000000000E+00 0. -1.
         11    1    3    3    0    0  0.96338287594E+01 -0.41367554735E+01  0.33382640697E+01  0.11003063649E+02  0.51100000000E-03 0. -1.
        -11    1    3    3    0    0  0.13614031800E+02  0.12182673617E+02 -0.26480684633E+02  0.32171199188E+02  0.51100000000E-03 0.  1.
        -12    1    3    3    0    0  0.69788116468E+01 -0.61717404477E+01  0.13164656395E+02  0.16127689548E+02  0.00000000000E+00 0.  1.
</event>
<event>
 7    1  0.4673733E-013  0.5930195E+02  0.7816164E-02  0.1266605E+00
        -11   -1    0    0    0    0  0.00000000000E+00  0.00000000000E+00  0.45593999997E+02  0.45594000000E+02  0.51100000000E-03 0. -1.
         11   -1    0    0    0    0 -0.00000000000E+00 -0.00000000000E+00 -0.45593999997E+02  0.45594000000E+02  0.51100000000E-03 0.  1.
    9900012    2    1    2    0    0  0.26779937863E+02  0.88004937430E+01 -0.14903238951E+02  0.59301948296E+02  0.50000007784E+02 0.  0.
         12    1    1    2    0    0 -0.26779937863E+02 -0.88004937430E+01  0.14903238951E+02  0.31886051704E+02  0.00000000000E+00 0. -1.
         11    1    3    3    0    0 -0.42877667048E+01 -0.26171812316E+01  0.11327724681E+02  0.12391607145E+02  0.51100000000E-03 0. -1.
        -11    1    3    3    0    0  0.21401342015E+02  0.53690772835E+01 -0.27699483827E+02  0.35413356738E+02  0.51100000000E-03 0.  1.
         12    1    3    3    0    0  0.96663625530E+01  0.60485976911E+01  0.14685201944E+01  0.11496984413E+02  0.00000000000E+00 0. -1.
</event>
<event>
 7    1  0.4673733E-013  0.5930198E+02  0.7816164E-02  0.1266605E+00
        -11   -1    0    0    0    0  0.00000000000E+00  0.00000000000E+00  0.45593999997E+02  0.45594000000E+02  0.51100000000E-03 0. -1.
         11   -1    0    0    0    0 -0.00000000000E+00 -0.00000000000E+00 -0.45593999997E+02  0.45594000000E+02  0.51100000000E-03 0.  1.
    9900012    2    1    2    0    0 -0.51754493954E+01  0.21781220889E+02 -0.22704876542E+02  0.59301979887E+02  0.50000065398E+02 0.  0.
         12    1    1    2    0    0  0.51754493954E+01 -0.21781220889E+02  0.22704876542E+02  0.31886020113E+02  0.00000000000E+00 0. -1.
         11    1    3    3    0    0 -0.19289827356E+01  0.11606824849E+02  0.13087601424E+02  0.17598996243E+02  0.51100000000E-03 0. -1.
        -11    1    3    3    0    0  0.55312268747E+01  0.69531175999E+01 -0.28477834794E+02  0.29831650808E+02  0.51100000000E-03 0.  1.
        -12    1    3    3    0    0 -0.87776935344E+01  0.32212784409E+01 -0.73146431716E+01  0.11871332836E+02  0.00000000000E+00 0.  1.
</event>
<event>
 7    1  0.4673733E-013  0.5930195E+02  0.7816164E-02  0.1266605E+00
        -11   -1    0    0    0    0  0.00000000000E+00  0.00000000000E+00  0.45593999997E+02  0.45594000000E+02  0.51100000000E-03 0. -1.
         11   -1    0    0    0    0 -0.00000000000E+00 -0.00000000000E+00 -0.45593999997E+02  0.45594000000E+02  0.51100000000E-03 0.  1.
    9900012    2    1    2    0    0 -0.20504336064E+02  0.74086167110E+01 -0.23268100527E+02  0.59301954445E+02  0.50000018999E+02 0.  0.
         12    1    1    2    0    0  0.20504336064E+02 -0.74086167110E+01  0.23268100527E+02  0.31886045555E+02  0.00000000000E+00 0. -1.
         11    1    3    3    0    0 -0.76052316085E+00 -0.31016665294E+01  0.14114750523E+02  0.14471520768E+02  0.51100000000E-03 0. -1.
        -11    1    3    3    0    0 -0.68332300712E+01  0.92188374677E+00 -0.19973197369E+02  0.21129872604E+02  0.51100000000E-03 0.  1.
         12    1    3    3    0    0 -0.12910582832E+02  0.95883994936E+01 -0.17409653681E+02  0.23700561074E+02  0.00000000000E+00 0. -1.
</event>
<event>
 7    1  0.4673733E-013  0.5930196E+02  0.7816164E-02  0.1266605E+00
        -11   -1    0    0    0    0  0.00000000000E+00  0.00000000000E+00  0.45593999997E+02  0.45594000000E+02  0.51100000000E-03 0.  1.
         11   -1    0    0    0    0 -0.00000000000E+00 -0.00000000000E+00 -0.45593999997E+02  0.45594000000E+02  0.51100000000E-03 0. -1.
    9900012    2    1    2    0    0  0.10605706377E+01 -0.31787818745E+02  0.22648334277E+01  0.59301957582E+02  0.50000024719E+02 0.  0.
         12    1    1    2    0    0 -0.10605706377E+01  0.31787818745E+02 -0.22648334277E+01  0.31886042418E+02  0.00000000000E+00 0. -1.
         11    1    3    3    0    0 -0.99113141431E+00  0.59486678030E+01  0.54891531808E+01  0.81547405240E+01  0.51100000000E-03 0. -1.
        -11    1    3    3    0    0 -0.10346678393E+02 -0.25780202530E+02 -0.13714509990E+02  0.30979999690E+02  0.51100000000E-03 0.  1.
        -12    1    3    3    0    0  0.12398380445E+02 -0.11956284018E+02  0.10490190237E+02  0.20167217368E+02  0.00000000000E+00 0.  1.
</event>
<event>
 7    1  0.4673733E-013  0.5930194E+02  0.7816164E-02  0.1266605E+00
        -11   -1    0    0    0    0  0.00000000000E+00  0.00000000000E+00  0.45593999997E+02  0.45594000000E+02  0.51100000000E-03 0.  1.
         11   -1    0    0    0    0 -0.00000000000E+00 -0.00000000000E+00 -0.45593999997E+02  0.45594000000E+02  0.51100000000E-03 0. -1.
    9900012    2    1    2    0    0 -0.19550523725E+02 -0.24327171447E+02 -0.65334837868E+01  0.59301942562E+02  0.49999997327E+02 0.  0.
         12    1    1    2    0    0  0.19550523725E+02  0.24327171447E+02  0.65334837868E+01  0.31886057438E+02  0.00000000000E+00 0. -1.
         11    1    3    3    0    0 -0.15444216590E+02 -0.32314870416E+02 -0.18378262196E+02  0.40255871593E+02  0.51100000000E-03 0. -1.
        -11    1    3    3    0    0 -0.24074648654E+01 -0.29603799519E+01  0.34734725086E+01  0.51599174477E+01  0.51100000000E-03 0.  1.
         12    1    3    3    0    0 -0.16988422695E+01  0.10948078921E+02  0.83713059008E+01  0.13886153521E+02  0.00000000000E+00 0. -1.
</event>
<event>
 7    1  0.4673733E-013  0.5930229E+02  0.7816164E-02  0.1266604E+00
        -11   -1    0    0    0    0  0.00000000000E+00  0.00000000000E+00  0.45593999997E+02  0.45594000000E+02  0.51100000000E-03 0.  1.
         11   -1    0    0    0    0 -0.00000000000E+00 -0.00000000000E+00 -0.45593999997E+02  0.45594000000E+02  0.51100000000E-03 0. -1.
    9900012    2    1    2    0    0  0.15358494419E+02 -0.24440479045E+02  0.13545410826E+02  0.59302289702E+02  0.50000630424E+02 0.  0.
         12    1    1    2    0    0 -0.15358494419E+02  0.24440479045E+02 -0.13545410826E+02  0.31885710298E+02  0.00000000000E+00 0. -1.
         11    1    3    3    0    0  0.14630604485E+02  0.10974678824E+01  0.47077114496E+01  0.15408490215E+02  0.51100000000E-03 0. -1.
        -11    1    3    3    0    0 -0.15970110488E+02 -0.19546025246E+02  0.46441163979E+01  0.25664359515E+02  0.51100000000E-03 0.  1.
        -12    1    3    3    0    0  0.16698000422E+02 -0.59919216813E+01  0.41935829785E+01  0.18229439973E+02  0.00000000000E+00 0.  1.
</event>
<event>
 7    1  0.4673733E-013  0.5930194E+02  0.7816164E-02  0.1266605E+00
        -11   -1    0    0    0    0  0.00000000000E+00  0.00000000000E+00  0.45593999997E+02  0.45594000000E+02  0.51100000000E-03 0.  1.
         11   -1    0    0    0    0 -0.00000000000E+00 -0.00000000000E+00 -0.45593999997E+02  0.45594000000E+02  0.51100000000E-03 0. -1.
    9900012    2    1    2    0    0  0.86051046728E+01  0.27227418331E+02  0.14189466947E+02  0.59301935526E+02  0.49999984495E+02 0.  0.
         12    1    1    2    0    0 -0.86051046728E+01 -0.27227418331E+02 -0.14189466947E+02  0.31886064474E+02  0.00000000000E+00 0. -1.
         11    1    3    3    0    0 -0.35924704326E+01  0.10741364407E+02 -0.15851318875E+02  0.19481967649E+02  0.51100000000E-03 0. -1.
        -11    1    3    3    0    0  0.58141371438E+01  0.17615214071E+02  0.16580365750E+02  0.24879881152E+02  0.51100000000E-03 0.  1.
         12    1    3    3    0    0  0.63834379616E+01 -0.11291601465E+01  0.13460420072E+02  0.14940086725E+02  0.00000000000E+00 0. -1.
</event>
<event>
 7    1  0.4673733E-013  0.5930223E+02  0.7816164E-02  0.1266604E+00
        -11   -1    0    0    0    0  0.00000000000E+00  0.00000000000E+00  0.45593999997E+02  0.45594000000E+02  0.51100000000E-03 0. -1.
         11   -1    0    0    0    0 -0.00000000000E+00 -0.00000000000E+00 -0.45593999997E+02  0.45594000000E+02  0.51100000000E-03 0.  1.
    9900012    2    1    2    0    0 -0.13708611027E+02 -0.27242769673E+02 -0.93063486159E+01  0.59302225110E+02  0.50000512625E+02 0.  0.
         12    1    1    2    0    0  0.13708611027E+02  0.27242769673E+02  0.93063486159E+01  0.31885774890E+02  0.00000000000E+00 0. -1.
         11    1    3    3    0    0  0.63350028776E+00  0.48871870115E+01 -0.20845178216E+02  0.21419789323E+02  0.51100000000E-03 0. -1.
        -11    1    3    3    0    0 -0.19725359399E+01 -0.97482314353E+01  0.30271127229E+00  0.99504044403E+01  0.51100000000E-03 0.  1.
         12    1    3    3    0    0 -0.12369575375E+02 -0.22381725249E+02  0.11236118328E+02  0.27932031347E+02  0.00000000000E+00 0. -1.
</event>
<event>
 7    1  0.4673733E-013  0.5930193E+02  0.7816164E-02  0.1266605E+00
        -11   -1    0    0    0    0  0.00000000000E+00  0.00000000000E+00  0.45593999997E+02  0.45594000000E+02  0.51100000000E-03 0.  1.
         11   -1    0    0    0    0 -0.00000000000E+00 -0.00000000000E+00 -0.45593999997E+02  0.45594000000E+02  0.51100000000E-03 0. -1.
    9900012    2    1    2    0    0 -0.12667972004E+02 -0.15085018221E+02  0.25073617983E+02  0.59301927677E+02  0.49999970180E+02 0.  0.
         12    1    1    2    0    0  0.12667972004E+02  0.15085018221E+02 -0.25073617983E+02  0.31886072323E+02  0.00000000000E+00 0. -1.
         11    1    3    3    0    0  0.79177305588E+01 -0.18000773825E+02  0.30636908043E+02  0.36405198121E+02  0.51100000000E-03 0. -1.
        -11    1    3    3    0    0 -0.48708265003E+01 -0.15686870771E+01  0.11240629120E+01  0.52392029578E+01  0.51100000000E-03 0.  1.
         12    1    3    3    0    0 -0.15714876062E+02  0.44844426803E+01 -0.66873529725E+01  0.17657526599E+02  0.00000000000E+00 0. -1.
</event>
<event>
 7    1  0.4673733E-013  0.5930199E+02  0.7816164E-02  0.1266605E+00
        -11   -1    0    0    0    0  0.00000000000E+00  0.00000000000E+00  0.45593999997E+02  0.45594000000E+02  0.51100000000E-03 0.  1.
         11   -1    0    0    0    0 -0.00000000000E+00 -0.00000000000E+00 -0.45593999997E+02  0.45594000000E+02  0.51100000000E-03 0. -1.
    9900012    2    1    2    0    0 -0.14776042042E+02 -0.23050731210E+02 -0.16341657015E+02  0.59301993952E+02  0.50000091049E+02 0.  0.
         12    1    1    2    0    0  0.14776042042E+02  0.23050731210E+02  0.16341657015E+02  0.31886006048E+02  0.00000000000E+00 0. -1.
         11    1    3    3    0    0  0.15552135282E+02 -0.96046619844E+01 -0.15226875901E+01  0.18342219643E+02  0.51100000000E-03 0. -1.
        -11    1    3    3    0    0 -0.32714111264E+02 -0.13338163338E+02 -0.15339737928E+02  0.38515285757E+02  0.51100000000E-03 0.  1.
        -12    1    3    3    0    0  0.23859339402E+01 -0.10790588746E+00  0.52076850294E+00  0.24444885521E+01  0.00000000000E+00 0.  1.
</event>
<event>
 7    1  0.4673733E-013  0.5930193E+02  0.7816164E-02  0.1266605E+00
        -11   -1    0    0    0    0  0.00000000000E+00  0.00000000000E+00  0.45593999997E+02  0.45594000000E+02  0.51100000000E-03 0.  1.
         11   -1    0    0    0    0 -0.00000000000E+00 -0.00000000000E+00 -0.45593999997E+02  0.45594000000E+02  0.51100000000E-03 0. -1.
    9900012    2    1    2    0    0 -0.73374581883E+01  0.16507185871E+01  0.30986421827E+02  0.59301929340E+02  0.49999973213E+02 0.  0.
         12    1    1    2    0    0  0.73374581883E+01 -0.16507185871E+01 -0.30986421827E+02  0.31886070660E+02  0.00000000000E+00 0. -1.
         11    1    3    3    0    0  0.19704766513E+02  0.69355429036E+01  0.63118508638E+01  0.21822443499E+02  0.51100000000E-03 0. -1.
        -11    1    3    3    0    0 -0.16594075498E+02 -0.26387550197E+00  0.15271005499E+02  0.22552972778E+02  0.51100000000E-03 0.  1.
         12    1    3    3    0    0 -0.10448149203E+02 -0.50209488145E+01  0.94035654640E+01  0.14926513062E+02  0.00000000000E+00 0. -1.
</event>
<event>
 7    1  0.4673733E-013  0.5930192E+02  0.7816164E-02  0.1266605E+00
        -11   -1    0    0    0    0  0.00000000000E+00  0.00000000000E+00  0.45593999997E+02  0.45594000000E+02  0.51100000000E-03 0. -1.
         11   -1    0    0    0    0 -0.00000000000E+00 -0.00000000000E+00 -0.45593999997E+02  0.45594000000E+02  0.51100000000E-03 0.  1.
    9900012    2    1    2    0    0 -0.81070683813E+01  0.84019117422E-02 -0.30838242739E+02  0.59301923986E+02  0.49999963448E+02 0.  0.
         12    1    1    2    0    0  0.81070683813E+01 -0.84019117422E-02  0.30838242739E+02  0.31886076014E+02  0.00000000000E+00 0. -1.
         11    1    3    3    0    0 -0.53285558429E+00  0.72735131610E+01 -0.73299079679E+01  0.10339994190E+02  0.51100000000E-03 0. -1.
        -11    1    3    3    0    0  0.13237627809E+02 -0.13734742280E+02 -0.35362622904E+01  0.19400595010E+02  0.51100000000E-03 0.  1.
        -12    1    3    3    0    0 -0.20811840606E+02  0.64696310310E+01 -0.19972072481E+02  0.29561334785E+02  0.00000000000E+00 0.  1.
</event>
<event>
 7    1  0.4673733E-013  0.5930195E+02  0.7816164E-02  0.1266605E+00
        -11   -1    0    0    0    0  0.00000000000E+00  0.00000000000E+00  0.45593999997E+02  0.45594000000E+02  0.51100000000E-03 0. -1.
         11   -1    0    0    0    0 -0.00000000000E+00 -0.00000000000E+00 -0.45593999997E+02  0.45594000000E+02  0.51100000000E-03 0.  1.
    9900012    2    1    2    0    0  0.10957622859E+02 -0.23372900018E+01 -0.29852768112E+02  0.59301949959E+02  0.50000010817E+02 0.  0.
         12    1    1    2    0    0 -0.10957622859E+02  0.23372900018E+01  0.29852768112E+02  0.31886050041E+02  0.00000000000E+00 0. -1.
         11    1    3    3    0    0  0.37770172055E+01  0.18130838361E+02 -0.16691459393E+02  0.24931866668E+02  0.51100000000E-03 0. -1.
        -11    1    3    3    0    0  0.13373690823E+02 -0.43562257790E+01 -0.31426535561E+01  0.14412098421E+02  0.51100000000E-03 0.  1.
         12    1    3    3    0    0 -0.61930851689E+01 -0.16111902583E+02 -0.10018655163E+02  0.19957984869E+02  0.00000000000E+00 0. -1.
</event>
<event>
 7    1  0.4673733E-013  0.5930200E+02  0.7816164E-02  0.1266605E+00
        -11   -1    0    0    0    0  0.00000000000E+00  0.00000000000E+00  0.45593999997E+02  0.45594000000E+02  0.51100000000E-03 0. -1.
         11   -1    0    0    0    0 -0.00000000000E+00 -0.00000000000E+00 -0.45593999997E+02  0.45594000000E+02  0.51100000000E-03 0.  1.
    9900012    2    1    2    0    0 -0.84478248353E+01  0.26552087725E+02 -0.15502827437E+02  0.59302003614E+02  0.50000108670E+02 0.  0.
         12    1    1    2    0    0  0.84478248353E+01 -0.26552087725E+02  0.15502827437E+02  0.31885996386E+02  0.00000000000E+00 0. -1.
         11    1    3    3    0    0 -0.23514813253E+02  0.17827328304E+02 -0.25242867068E+02  0.38832491742E+02  0.51100000000E-03 0.  1.
        -11    1    3    3    0    0  0.13257119776E+02  0.59924800970E+01  0.67700535375E+01  0.16046640385E+02  0.51100000000E-03 0. -1.
        -12    1    3    3    0    0  0.18098686412E+01  0.27322793234E+01  0.29699860931E+01  0.44228714872E+01  0.00000000000E+00 0.  1.
</event>
<event>
 7    1  0.4673733E-013  0.5930210E+02  0.7816164E-02  0.1266604E+00
        -11   -1    0    0    0    0  0.00000000000E+00  0.00000000000E+00  0.45593999997E+02  0.45594000000E+02  0.51100000000E-03 0.  1.
         11   -1    0    0    0    0 -0.00000000000E+00 -0.00000000000E+00 -0.45593999997E+02  0.45594000000E+02  0.51100000000E-03 0. -1.
    9900012    2    1    2    0    0 -0.12414229988E+02  0.25209658424E+02  0.15068866959E+02  0.59302098170E+02  0.50000281119E+02 0.  0.
         12    1    1    2    0    0  0.12414229988E+02 -0.25209658424E+02 -0.15068866959E+02  0.31885901830E+02  0.00000000000E+00 0. -1.
         11    1    3    3    0    0  0.14224890193E+02  0.12263032830E+02 -0.15639625687E+01  0.18846099182E+02  0.51100000000E-03 0. -1.
        -11    1    3    3    0    0 -0.14731225423E+02 -0.47953785469E+01  0.76320186415E+01  0.17269984559E+02  0.51100000000E-03 0.  1.
        -12    1    3    3    0    0 -0.11907894759E+02  0.17742004141E+02  0.90008108866E+01  0.23186014430E+02  0.00000000000E+00 0.  1.
</event>
<event>
 7    1  0.4673733E-013  0.5930195E+02  0.7816164E-02  0.1266605E+00
        -11   -1    0    0    0    0  0.00000000000E+00  0.00000000000E+00  0.45593999997E+02  0.45594000000E+02  0.51100000000E-03 0.  1.
         11   -1    0    0    0    0 -0.00000000000E+00 -0.00000000000E+00 -0.45593999997E+02  0.45594000000E+02  0.51100000000E-03 0. -1.
    9900012    2    1    2    0    0  0.53320263368E+01  0.14763411358E+02  0.27754848483E+02  0.59301946088E+02  0.50000003757E+02 0.  0.
         12    1    1    2    0    0 -0.53320263368E+01 -0.14763411358E+02 -0.27754848483E+02  0.31886053912E+02  0.00000000000E+00 0. -1.
         11    1    3    3    0    0  0.67802028891E+01  0.31808590145E+01 -0.11541674733E+02  0.13758607167E+02  0.51100000000E-03 0. -1.
        -11    1    3    3    0    0 -0.62232215008E+01  0.15076317018E+02  0.33504263576E+02  0.37263380129E+02  0.51100000000E-03 0.  1.
        -12    1    3    3    0    0  0.47750449484E+01 -0.34937646737E+01  0.57922596395E+01  0.82799587913E+01  0.00000000000E+00 0.  1.
</event>
<event>
 7    1  0.4673733E-013  0.5930200E+02  0.7816164E-02  0.1266605E+00
        -11   -1    0    0    0    0  0.00000000000E+00  0.00000000000E+00  0.45593999997E+02  0.45594000000E+02  0.51100000000E-03 0.  1.
         11   -1    0    0    0    0 -0.00000000000E+00 -0.00000000000E+00 -0.45593999997E+02  0.45594000000E+02  0.51100000000E-03 0. -1.
    9900012    2    1    2    0    0  0.22347887285E+02 -0.22642016556E+02  0.21512848403E+01  0.59301999838E+02  0.50000101785E+02 0.  0.
         12    1    1    2    0    0 -0.22347887285E+02  0.22642016556E+02 -0.21512848403E+01  0.31886000162E+02  0.00000000000E+00 0. -1.
         11    1    3    3    0    0  0.10163603731E+02 -0.91138082471E+01 -0.12599491996E+02  0.18577070286E+02  0.51100000000E-03 0. -1.
        -11    1    3    3    0    0  0.17639143890E+02 -0.97880838445E+01  0.22710347997E+02  0.30376074285E+02  0.51100000000E-03 0.  1.
        -12    1    3    3    0    0 -0.54548603361E+01 -0.37401244644E+01 -0.79595711609E+01  0.10348855268E+02  0.00000000000E+00 0.  1.
</event>
<event>
 7    1  0.4673733E-013  0.5930196E+02  0.7816164E-02  0.1266605E+00
        -11   -1    0    0    0    0  0.00000000000E+00  0.00000000000E+00  0.45593999997E+02  0.45594000000E+02  0.51100000000E-03 0.  1.
         11   -1    0    0    0    0 -0.00000000000E+00 -0.00000000000E+00 -0.45593999997E+02  0.45594000000E+02  0.51100000000E-03 0. -1.
    9900012    2    1    2    0    0  0.13809811346E+02 -0.16961514637E+02  0.23201634666E+02  0.59301957295E+02  0.50000024197E+02 0.  0.
         12    1    1    2    0    0 -0.13809811346E+02  0.16961514637E+02 -0.23201634666E+02  0.31886042705E+02  0.00000000000E+00 0. -1.
         11    1    3    3    0    0  0.15739688277E+02  0.10481020575E+02  0.10664350882E+02  0.21709858575E+02  0.51100000000E-03 0.  1.
        -11    1    3    3    0    0  0.78954939711E+01 -0.23372318585E+02  0.72373521891E+01  0.25709596809E+02  0.51100000000E-03 0. -1.
        -12    1    3    3    0    0 -0.98253709026E+01 -0.40702166270E+01  0.52999315944E+01  0.11882501911E+02  0.00000000000E+00 0.  1.
</event>
<event>
 7    1  0.4673733E-013  0.5930195E+02  0.7816164E-02  0.1266605E+00
        -11   -1    0    0    0    0  0.00000000000E+00  0.00000000000E+00  0.45593999997E+02  0.45594000000E+02  0.51100000000E-03 0. -1.
         11   -1    0    0    0    0 -0.00000000000E+00 -0.00000000000E+00 -0.45593999997E+02  0.45594000000E+02  0.51100000000E-03 0.  1.
    9900012    2    1    2    0    0 -0.24313097779E+02  0.46101703241E+01 -0.20108206911E+02  0.59301946948E+02  0.50000005326E+02 0.  0.
         12    1    1    2    0    0  0.24313097779E+02 -0.46101703241E+01  0.20108206911E+02  0.31886053052E+02  0.00000000000E+00 0. -1.
         11    1    3    3    0    0  0.90120519693E+01 -0.91460848961E+00 -0.23262966342E+02  0.24964358447E+02  0.51100000000E-03 0. -1.
        -11    1    3    3    0    0 -0.17947802092E+02  0.24577996680E+01 -0.91311057221E+00  0.18138306159E+02  0.51100000000E-03 0.  1.
         12    1    3    3    0    0 -0.15377347656E+02  0.30669791457E+01  0.40678700032E+01  0.16199282342E+02  0.00000000000E+00 0. -1.
</event>
<event>
 7    1  0.4673733E-013  0.5930192E+02  0.7816164E-02  0.1266605E+00
        -11   -1    0    0    0    0  0.00000000000E+00  0.00000000000E+00  0.45593999997E+02  0.45594000000E+02  0.51100000000E-03 0.  1.
         11   -1    0    0    0    0 -0.00000000000E+00 -0.00000000000E+00 -0.45593999997E+02  0.45594000000E+02  0.51100000000E-03 0. -1.
    9900012    2    1    2    0    0  0.24553419321E+02  0.38902421123E-01  0.20343313000E+02  0.59301916867E+02  0.49999950465E+02 0.  0.
         12    1    1    2    0    0 -0.24553419321E+02 -0.38902421123E-01 -0.20343313000E+02  0.31886083133E+02  0.00000000000E+00 0. -1.
         11    1    3    3    0    0 -0.18640977966E+00  0.88049616019E+01 -0.49761256916E+01  0.10115528883E+02  0.51100000000E-03 0. -1.
        -11    1    3    3    0    0  0.20492570370E+02 -0.98053365000E+01 -0.77235950561E+00  0.22730741381E+02  0.51100000000E-03 0.  1.
         12    1    3    3    0    0  0.42472587308E+01  0.10392773193E+01  0.26091798197E+02  0.26455646604E+02  0.00000000000E+00 0. -1.
</event>
<event>
 7    1  0.4673733E-013  0.5930196E+02  0.7816164E-02  0.1266605E+00
        -11   -1    0    0    0    0  0.00000000000E+00  0.00000000000E+00  0.45593999997E+02  0.45594000000E+02  0.51100000000E-03 0.  1.
         11   -1    0    0    0    0 -0.00000000000E+00 -0.00000000000E+00 -0.45593999997E+02  0.45594000000E+02  0.51100000000E-03 0. -1.
    9900012    2    1    2    0    0  0.17903696302E+02  0.12373459147E+02 -0.23303960633E+02  0.59301962088E+02  0.50000032938E+02 0.  0.
         12    1    1    2    0    0 -0.17903696302E+02 -0.12373459147E+02  0.23303960633E+02  0.31886037912E+02  0.00000000000E+00 0. -1.
         11    1    3    3    0    0 -0.74187642411E+01  0.13983752636E+02 -0.90839347664E+01  0.18251062208E+02  0.51100000000E-03 0. -1.
        -11    1    3    3    0    0  0.16861330349E+02 -0.10084226477E+02 -0.19752629130E+02  0.27859692076E+02  0.51100000000E-03 0.  1.
        -12    1    3    3    0    0  0.84611301935E+01  0.84739329887E+01  0.55326032632E+01  0.13191207804E+02  0.00000000000E+00 0.  1.
</event>
<event>
 7    1  0.4673733E-013  0.5930193E+02  0.7816164E-02  0.1266605E+00
        -11   -1    0    0    0    0  0.00000000000E+00  0.00000000000E+00  0.45593999997E+02  0.45594000000E+02  0.51100000000E-03 0.  1.
         11   -1    0    0    0    0 -0.00000000000E+00 -0.00000000000E+00 -0.45593999997E+02  0.45594000000E+02  0.51100000000E-03 0. -1.
    9900012    2    1    2    0    0 -0.27033068893E+02 -0.89601548881E+01  0.14340501114E+02  0.59301934679E+02  0.49999982951E+02 0.  0.
         12    1    1    2    0    0  0.27033068893E+02  0.89601548881E+01 -0.14340501114E+02  0.31886065321E+02  0.00000000000E+00 0. -1.
         11    1    3    3    0    0 -0.34818522468E+01 -0.81191012576E+01 -0.39283888020E+01  0.96682645361E+01  0.51100000000E-03 0. -1.
        -11    1    3    3    0    0 -0.30103766755E+02  0.10126200739E+02  0.18687771033E+02  0.36851180452E+02  0.51100000000E-03 0.  1.
        -12    1    3    3    0    0  0.65525501088E+01 -0.10967254369E+02 -0.41888111660E+00  0.12782489691E+02  0.00000000000E+00 0.  1.
</event>
<event>
 7    1  0.4673733E-013  0.5930196E+02  0.7816164E-02  0.1266605E+00
        -11   -1    0    0    0    0  0.00000000000E+00  0.00000000000E+00  0.45593999997E+02  0.45594000000E+02  0.51100000000E-03 0.  1.
         11   -1    0    0    0    0 -0.00000000000E+00 -0.00000000000E+00 -0.45593999997E+02  0.45594000000E+02  0.51100000000E-03 0. -1.
    9900012    2    1    2    0    0  0.15007401397E+02 -0.20695455814E+02  0.19057696114E+02  0.59301956514E+02  0.50000022771E+02 0.  0.
         12    1    1    2    0    0 -0.15007401397E+02  0.20695455814E+02 -0.19057696114E+02  0.31886043486E+02  0.00000000000E+00 0. -1.
         11    1    3    3    0    0 -0.11128228664E+02  0.51986474695E+01  0.63224058315E+01  0.13814348500E+02  0.51100000000E-03 0. -1.
        -11    1    3    3    0    0  0.29462074099E+02 -0.19427999788E+02  0.64490334291E+01  0.35875493284E+02  0.51100000000E-03 0.  1.
         12    1    3    3    0    0 -0.33264440373E+01 -0.64661034953E+01  0.62862568537E+01  0.96121147297E+01  0.00000000000E+00 0. -1.
</event>
<event>
 7    1  0.4673733E-013  0.5930194E+02  0.7816164E-02  0.1266605E+00
        -11   -1    0    0    0    0  0.00000000000E+00  0.00000000000E+00  0.45593999997E+02  0.45594000000E+02  0.51100000000E-03 0.  1.
         11   -1    0    0    0    0 -0.00000000000E+00 -0.00000000000E+00 -0.45593999997E+02  0.45594000000E+02  0.51100000000E-03 0. -1.
    9900012    2    1    2    0    0  0.75202189540E+00 -0.28981522152E+02 -0.13275032557E+02  0.59301942662E+02  0.49999997509E+02 0.  0.
         12    1    1    2    0    0 -0.75202189540E+00  0.28981522152E+02  0.13275032557E+02  0.31886057338E+02  0.00000000000E+00 0. -1.
         11    1    3    3    0    0 -0.12941247628E+01  0.89527536183E+01 -0.29836230627E+01  0.95251542294E+01  0.51100000000E-03 0. -1.
        -11    1    3    3    0    0  0.33314176193E+01 -0.41472559732E+02 -0.31763398801E+01  0.41727217609E+02  0.51100000000E-03 0.  1.
        -12    1    3    3    0    0 -0.12852709611E+01  0.35382839615E+01 -0.71150696139E+01  0.80495708238E+01  0.00000000000E+00 0.  1.
</event>
<event>
 7    1  0.4673733E-013  0.5930195E+02  0.7816164E-02  0.1266605E+00
        -11   -1    0    0    0    0  0.00000000000E+00  0.00000000000E+00  0.45593999997E+02  0.45594000000E+02  0.51100000000E-03 0.  1.
         11   -1    0    0    0    0 -0.00000000000E+00 -0.00000000000E+00 -0.45593999997E+02  0.45594000000E+02  0.51100000000E-03 0. -1.
    9900012    2    1    2    0    0  0.47294985226E+01 -0.10414410898E+02  0.29763938357E+02  0.59301950744E+02  0.50000012249E+02 0.  0.
         12    1    1    2    0    0 -0.47294985226E+01  0.10414410898E+02 -0.29763938357E+02  0.31886049256E+02  0.00000000000E+00 0. -1.
         11    1    3    3    0    0 -0.18311611911E+02  0.17645989034E+01  0.15654094204E+01  0.18462920869E+02  0.51100000000E-03 0. -1.
        -11    1    3    3    0    0  0.17792879011E+02 -0.11277226431E+02  0.13046512704E+02  0.24778496191E+02  0.51100000000E-03 0.  1.
        -12    1    3    3    0    0  0.52482314231E+01 -0.90178337014E+00  0.15152016233E+02  0.16060533685E+02  0.00000000000E+00 0.  1.
</event>
<event>
 7    1  0.4673733E-013  0.5930194E+02  0.7816164E-02  0.1266605E+00
        -11   -1    0    0    0    0  0.00000000000E+00  0.00000000000E+00  0.45593999997E+02  0.45594000000E+02  0.51100000000E-03 0.  1.
         11   -1    0    0    0    0 -0.00000000000E+00 -0.00000000000E+00 -0.45593999997E+02  0.45594000000E+02  0.51100000000E-03 0. -1.
    9900012    2    1    2    0    0  0.50652199041E+01  0.33778465413E+00  0.31479361662E+02  0.59301940950E+02  0.49999994386E+02 0.  0.
         12    1    1    2    0    0 -0.50652199041E+01 -0.33778465413E+00 -0.31479361662E+02  0.31886059050E+02  0.00000000000E+00 0. -1.
         11    1    3    3    0    0  0.40839392594E+01  0.76127738839E+01 -0.84070015405E+01  0.12054483035E+02  0.51100000000E-03 0. -1.
        -11    1    3    3    0    0 -0.91728946871E+01 -0.10235089407E+02  0.28875411777E+02  0.31979500585E+02  0.51100000000E-03 0.  1.
         12    1    3    3    0    0  0.10154175332E+02  0.29601001770E+01  0.11010951425E+02  0.15267957329E+02  0.00000000000E+00 0. -1.
</event>
<event>
 7    1  0.4673733E-013  0.5930193E+02  0.7816164E-02  0.1266605E+00
        -11   -1    0    0    0    0  0.00000000000E+00  0.00000000000E+00  0.45593999997E+02  0.45594000000E+02  0.51100000000E-03 0. -1.
         11   -1    0    0    0    0 -0.00000000000E+00 -0.00000000000E+00 -0.45593999997E+02  0.45594000000E+02  0.51100000000E-03 0.  1.
    9900012    2    1    2    0    0 -0.14058322992E+02 -0.28352162988E+02 -0.39038335378E+01  0.59301929252E+02  0.49999973053E+02 0.  0.
         12    1    1    2    0    0  0.14058322992E+02  0.28352162988E+02  0.39038335378E+01  0.31886070748E+02  0.00000000000E+00 0. -1.
         11    1    3    3    0    0 -0.45215700452E+01  0.10424702713E+02 -0.13196750682E+02  0.17414742351E+02  0.51100000000E-03 0. -1.
        -11    1    3    3    0    0 -0.88595184731E+01 -0.31326281215E+02  0.10712861651E+02  0.34272326553E+02  0.51100000000E-03 0.  1.
         12    1    3    3    0    0 -0.67723447316E+00 -0.74505844867E+01 -0.14199445064E+01  0.76148603484E+01  0.00000000000E+00 0. -1.
</event>
<event>
 7    1  0.4673733E-013  0.5930194E+02  0.7816164E-02  0.1266605E+00
        -11   -1    0    0    0    0  0.00000000000E+00  0.00000000000E+00  0.45593999997E+02  0.45594000000E+02  0.51100000000E-03 0.  1.
         11   -1    0    0    0    0 -0.00000000000E+00 -0.00000000000E+00 -0.45593999997E+02  0.45594000000E+02  0.51100000000E-03 0. -1.
    9900012    2    1    2    0    0  0.48326956020E+01  0.12712689200E+02  0.28840138515E+02  0.59301937166E+02  0.49999987487E+02 0.  0.
         12    1    1    2    0    0 -0.48326956020E+01 -0.12712689200E+02 -0.28840138515E+02  0.31886062834E+02  0.00000000000E+00 0. -1.
         11    1    3    3    0    0  0.90179414013E+01  0.18700683533E+02  0.30457570145E+02  0.36860580721E+02  0.51100000000E-03 0. -1.
        -11    1    3    3    0    0  0.85644779188E+01 -0.21927779520E+01  0.95550721740E+00  0.88922185911E+01  0.51100000000E-03 0.  1.
         12    1    3    3    0    0 -0.12749723718E+02 -0.37952163815E+01 -0.25729388475E+01  0.13549137854E+02  0.00000000000E+00 0. -1.
</event>
<event>
 7    1  0.4673733E-013  0.5930193E+02  0.7816164E-02  0.1266605E+00
        -11   -1    0    0    0    0  0.00000000000E+00  0.00000000000E+00  0.45593999997E+02  0.45594000000E+02  0.51100000000E-03 0.  1.
         11   -1    0    0    0    0 -0.00000000000E+00 -0.00000000000E+00 -0.45593999997E+02  0.45594000000E+02  0.51100000000E-03 0. -1.
    9900012    2    1    2    0    0 -0.25260970663E+02 -0.60059468099E+01  0.18507653883E+02  0.59301932695E+02  0.49999979331E+02 0.  0.
         12    1    1    2    0    0  0.25260970663E+02  0.60059468099E+01 -0.18507653883E+02  0.31886067305E+02  0.00000000000E+00 0. -1.
         11    1    3    3    0    0  0.74754773318E+01 -0.11390825349E+01 -0.51009844359E+01  0.91214205492E+01  0.51100000000E-03 0. -1.
        -11    1    3    3    0    0 -0.86937393896E+01 -0.10956046927E+01  0.24302487700E+02  0.25833938200E+02  0.51100000000E-03 0.  1.
        -12    1    3    3    0    0 -0.24042708606E+02 -0.37712595823E+01 -0.69384938106E+00  0.24346573946E+02  0.00000000000E+00 0.  1.
</event>
<event>
 7    1  0.4673733E-013  0.5930193E+02  0.7816164E-02  0.1266605E+00
        -11   -1    0    0    0    0  0.00000000000E+00  0.00000000000E+00  0.45593999997E+02  0.45594000000E+02  0.51100000000E-03 0.  1.
         11   -1    0    0    0    0 -0.00000000000E+00 -0.00000000000E+00 -0.45593999997E+02  0.45594000000E+02  0.51100000000E-03 0. -1.
    9900012    2    1    2    0    0 -0.55629251625E+01 -0.30208238292E+02  0.85578842570E+01  0.59301934391E+02  0.49999982424E+02 0.  0.
         12    1    1    2    0    0  0.55629251625E+01  0.30208238292E+02 -0.85578842570E+01  0.31886065609E+02  0.00000000000E+00 0. -1.
         11    1    3    3    0    0  0.11521457873E+02 -0.34525527781E+01  0.15801452893E+01  0.12130992194E+02  0.51100000000E-03 0. -1.
        -11    1    3    3    0    0 -0.13350856980E+02 -0.34425422189E+02  0.13436580121E+01  0.36948078328E+02  0.51100000000E-03 0.  1.
        -12    1    3    3    0    0 -0.37335260560E+01  0.76697366747E+01  0.56340809555E+01  0.10222863869E+02  0.00000000000E+00 0.  1.
</event>
<event>
 7    1  0.4673733E-013  0.5930200E+02  0.7816164E-02  0.1266605E+00
        -11   -1    0    0    0    0  0.00000000000E+00  0.00000000000E+00  0.45593999997E+02  0.45594000000E+02  0.51100000000E-03 0.  1.
         11   -1    0    0    0    0 -0.00000000000E+00 -0.00000000000E+00 -0.45593999997E+02  0.45594000000E+02  0.51100000000E-03 0. -1.
    9900012    2    1    2    0    0 -0.16293576789E+02 -0.19606378763E+02  0.19152703022E+02  0.59302003609E+02  0.50000108662E+02 0.  0.
         12    1    1    2    0    0  0.16293576789E+02  0.19606378763E+02 -0.19152703022E+02  0.31885996391E+02  0.00000000000E+00 0. -1.
         11    1    3    3    0    0 -0.18774798450E+02  0.63763204516E+01 -0.81472637588E+01  0.21436614154E+02  0.51100000000E-03 0. -1.
        -11    1    3    3    0    0  0.86214926058E+00 -0.20430524554E+02  0.21643165344E+02  0.29775430161E+02  0.51100000000E-03 0.  1.
         12    1    3    3    0    0  0.16190724002E+01 -0.55521746604E+01  0.56568014370E+01  0.80899592950E+01  0.00000000000E+00 0. -1.
</event>
<event>
 7    1  0.4673733E-013  0.5930199E+02  0.7816164E-02  0.1266605E+00
        -11   -1    0    0    0    0  0.00000000000E+00  0.00000000000E+00  0.45593999997E+02  0.45594000000E+02  0.51100000000E-03 0. -1.
         11   -1    0    0    0    0 -0.00000000000E+00 -0.00000000000E+00 -0.45593999997E+02  0.45594000000E+02  0.51100000000E-03 0.  1.
    9900012    2    1    2    0    0 -0.10464231236E+02  0.29042976713E+02 -0.79826786077E+01  0.59301987558E+02  0.50000079388E+02 0.  0.
         12    1    1    2    0    0  0.10464231236E+02 -0.29042976713E+02  0.79826786077E+01  0.31886012442E+02  0.00000000000E+00 0. -1.
         11    1    3    3    0    0 -0.56833912758E+01 -0.97557378158E+01  0.11839136465E+01  0.11352401002E+02  0.51100000000E-03 0. -1.
        -11    1    3    3    0    0 -0.35459996520E+01  0.27966993235E+02  0.64354049276E+01  0.28916107293E+02  0.51100000000E-03 0.  1.
        -12    1    3    3    0    0 -0.12348403085E+01  0.10831721294E+02 -0.15601997182E+02  0.19033479262E+02  0.00000000000E+00 0.  1.
</event>
<event>
 7    1  0.4673733E-013  0.5930194E+02  0.7816164E-02  0.1266605E+00
        -11   -1    0    0    0    0  0.00000000000E+00  0.00000000000E+00  0.45593999997E+02  0.45594000000E+02  0.51100000000E-03 0.  1.
         11   -1    0    0    0    0 -0.00000000000E+00 -0.00000000000E+00 -0.45593999997E+02  0.45594000000E+02  0.51100000000E-03 0. -1.
    9900012    2    1    2    0    0 -0.82031960921E+00 -0.10316630717E+02  0.30159826694E+02  0.59301938157E+02  0.49999989294E+02 0.  0.
         12    1    1    2    0    0  0.82031960921E+00  0.10316630717E+02 -0.30159826694E+02  0.31886061843E+02  0.00000000000E+00 0. -1.
         11    1    3    3    0    0 -0.85754481666E+01 -0.36279321305E+01 -0.32057071771E+01  0.98476779785E+01  0.51100000000E-03 0. -1.
        -11    1    3    3    0    0  0.55152451798E+01 -0.53405801535E+01  0.40829859602E+02  0.41545362691E+02  0.51100000000E-03 0.  1.
        -12    1    3    3    0    0  0.22398833776E+01 -0.13481184328E+01 -0.74643257307E+01  0.79088974875E+01  0.00000000000E+00 0.  1.
</event>
<event>
 7    1  0.4673733E-013  0.5930194E+02  0.7816164E-02  0.1266605E+00
        -11   -1    0    0    0    0  0.00000000000E+00  0.00000000000E+00  0.45593999997E+02  0.45594000000E+02  0.51100000000E-03 0.  1.
         11   -1    0    0    0    0 -0.00000000000E+00 -0.00000000000E+00 -0.45593999997E+02  0.45594000000E+02  0.51100000000E-03 0. -1.
    9900012    2    1    2    0    0  0.18701577037E+02  0.20017907138E+02  0.16317336662E+02  0.59301936186E+02  0.49999985698E+02 0.  0.
         12    1    1    2    0    0 -0.18701577037E+02 -0.20017907138E+02 -0.16317336662E+02  0.31886063814E+02  0.00000000000E+00 0. -1.
         11    1    3    3    0    0  0.28552801210E+02  0.89350219641E+01  0.11018610440E+02  0.31882704570E+02  0.51100000000E-03 0. -1.
        -11    1    3    3    0    0 -0.27814815202E+00  0.88837077741E+01  0.12430192393E+02  0.15280946090E+02  0.51100000000E-03 0.  1.
         12    1    3    3    0    0 -0.95730760211E+01  0.21991773996E+01 -0.71314661717E+01  0.12138285525E+02  0.00000000000E+00 0. -1.
</event>
<event>
 7    1  0.4673733E-013  0.5930198E+02  0.7816164E-02  0.1266605E+00
        -11   -1    0    0    0    0  0.00000000000E+00  0.00000000000E+00  0.45593999997E+02  0.45594000000E+02  0.51100000000E-03 0.  1.
         11   -1    0    0    0    0 -0.00000000000E+00 -0.00000000000E+00 -0.45593999997E+02  0.45594000000E+02  0.51100000000E-03 0. -1.
    9900012    2    1    2    0    0 -0.14521399008E+02 -0.27584636713E+02 -0.67033709474E+01  0.59301978081E+02  0.50000062106E+02 0.  0.
         12    1    1    2    0    0  0.14521399008E+02  0.27584636713E+02  0.67033709474E+01  0.31886021919E+02  0.00000000000E+00 0. -1.
         11    1    3    3    0    0 -0.27898019913E+02 -0.37915248537E+01  0.14835198098E+01  0.28193545485E+02  0.51100000000E-03 0. -1.
        -11    1    3    3    0    0  0.92946250543E+01 -0.16902734562E+02  0.49595620311E+00  0.19296073782E+02  0.51100000000E-03 0.  1.
        -12    1    3    3    0    0  0.40819958502E+01 -0.68903772968E+01 -0.86828469603E+01  0.11812358814E+02  0.00000000000E+00 0.  1.
</event>
<event>
 7    1  0.4673733E-013  0.5930195E+02  0.7816164E-02  0.1266605E+00
        -11   -1    0    0    0    0  0.00000000000E+00  0.00000000000E+00  0.45593999997E+02  0.45594000000E+02  0.51100000000E-03 0.  1.
         11   -1    0    0    0    0 -0.00000000000E+00 -0.00000000000E+00 -0.45593999997E+02  0.45594000000E+02  0.51100000000E-03 0. -1.
    9900012    2    1    2    0    0  0.18540560455E+02 -0.12017605989E+01  0.25913769697E+02  0.59301951790E+02  0.50000014157E+02 0.  0.
         12    1    1    2    0    0 -0.18540560455E+02  0.12017605989E+01 -0.25913769697E+02  0.31886048210E+02  0.00000000000E+00 0. -1.
         11    1    3    3    0    0  0.20667832963E+02 -0.11782557897E+02 -0.45360987152E+01  0.24219087138E+02  0.51100000000E-03 0. -1.
        -11    1    3    3    0    0  0.19437156974E+01  0.79851482209E+01  0.28848296993E+02  0.29996080785E+02  0.51100000000E-03 0.  1.
        -12    1    3    3    0    0 -0.40709882056E+01  0.25956490768E+01  0.16015714199E+01  0.50867838673E+01  0.00000000000E+00 0.  1.
</event>
<event>
 7    1  0.4673733E-013  0.5930194E+02  0.7816164E-02  0.1266605E+00
        -11   -1    0    0    0    0  0.00000000000E+00  0.00000000000E+00  0.45593999997E+02  0.45594000000E+02  0.51100000000E-03 0.  1.
         11   -1    0    0    0    0 -0.00000000000E+00 -0.00000000000E+00 -0.45593999997E+02  0.45594000000E+02  0.51100000000E-03 0. -1.
    9900012    2    1    2    0    0 -0.14917375673E+02 -0.21048110494E+02  0.18739530132E+02  0.59301936557E+02  0.49999986375E+02 0.  0.
         12    1    1    2    0    0  0.14917375673E+02  0.21048110494E+02 -0.18739530132E+02  0.31886063443E+02  0.00000000000E+00 0. -1.
         11    1    3    3    0    0  0.59568685532E+01  0.46801306144E+01  0.25132277566E+01  0.79814923132E+01  0.51100000000E-03 0. -1.
        -11    1    3    3    0    0 -0.99956856235E+01 -0.33417981854E+02  0.14908841046E+02  0.37933478405E+02  0.51100000000E-03 0.  1.
        -12    1    3    3    0    0 -0.10878558603E+02  0.76897407461E+01  0.13174613301E+01  0.13386965839E+02  0.00000000000E+00 0.  1.
</event>
<event>
 7    1  0.4673733E-013  0.5930194E+02  0.7816164E-02  0.1266605E+00
        -11   -1    0    0    0    0  0.00000000000E+00  0.00000000000E+00  0.45593999997E+02  0.45594000000E+02  0.51100000000E-03 0.  1.
         11   -1    0    0    0    0 -0.00000000000E+00 -0.00000000000E+00 -0.45593999997E+02  0.45594000000E+02  0.51100000000E-03 0. -1.
    9900012    2    1    2    0    0  0.27510683520E+02 -0.11477987745E+02  0.11319852893E+02  0.59301937529E+02  0.49999988148E+02 0.  0.
         12    1    1    2    0    0 -0.27510683520E+02  0.11477987745E+02 -0.11319852893E+02  0.31886062471E+02  0.00000000000E+00 0. -1.
         11    1    3    3    0    0 -0.12981239578E+02 -0.79493595576E+01  0.10529527069E+02  0.18508804362E+02  0.51100000000E-03 0. -1.
        -11    1    3    3    0    0  0.18941552979E+02  0.16498946043E-01  0.64837798815E+00  0.18952654055E+02  0.51100000000E-03 0.  1.
         12    1    3    3    0    0  0.21550370118E+02 -0.35451271336E+01  0.14194783570E+00  0.21840479112E+02  0.00000000000E+00 0. -1.
</event>
<event>
 7    1  0.4673733E-013  0.5930198E+02  0.7816164E-02  0.1266605E+00
        -11   -1    0    0    0    0  0.00000000000E+00  0.00000000000E+00  0.45593999997E+02  0.45594000000E+02  0.51100000000E-03 0.  1.
         11   -1    0    0    0    0 -0.00000000000E+00 -0.00000000000E+00 -0.45593999997E+02  0.45594000000E+02  0.51100000000E-03 0. -1.
    9900012    2    1    2    0    0  0.94879002051E+01  0.14523715665E+02  0.26753689462E+02  0.59301976936E+02  0.50000060017E+02 0.  0.
         12    1    1    2    0    0 -0.94879002051E+01 -0.14523715665E+02 -0.26753689462E+02  0.31886023064E+02  0.00000000000E+00 0. -1.
         11    1    3    3    0    0 -0.82426031722E+01  0.53530015709E+00  0.14147679656E+02  0.16382426354E+02  0.51100000000E-03 0. -1.
        -11    1    3    3    0    0  0.14009156840E+02  0.25276170388E+02  0.11020806332E+02  0.30928941743E+02  0.51100000000E-03 0.  1.
         12    1    3    3    0    0  0.37213465377E+01 -0.11287754881E+02  0.15852034736E+01  0.11990608840E+02  0.00000000000E+00 0. -1.
</event>
<event>
 7    1  0.4673733E-013  0.5930196E+02  0.7816164E-02  0.1266605E+00
        -11   -1    0    0    0    0  0.00000000000E+00  0.00000000000E+00  0.45593999997E+02  0.45594000000E+02  0.51100000000E-03 0.  1.
         11   -1    0    0    0    0 -0.00000000000E+00 -0.00000000000E+00 -0.45593999997E+02  0.45594000000E+02  0.51100000000E-03 0. -1.
    9900012    2    1    2    0    0  0.44568905811E+01  0.22533370076E+02  0.22115670406E+02  0.59301960451E+02  0.50000029951E+02 0.  0.
         12    1    1    2    0    0 -0.44568905811E+01 -0.22533370076E+02 -0.22115670406E+02  0.31886039549E+02  0.00000000000E+00 0. -1.
         11    1    3    3    0    0 -0.90648371719E+01  0.29483544291E+02  0.58372715790E+00  0.30851116586E+02  0.51100000000E-03 0. -1.
        -11    1    3    3    0    0  0.69454389714E+01 -0.92270545925E+01  0.14751301180E+02  0.18734421414E+02  0.51100000000E-03 0.  1.
        -12    1    3    3    0    0  0.65762887816E+01  0.22768803778E+01  0.67806420679E+01  0.97164224510E+01  0.00000000000E+00 0.  1.
</event>
<event>
 7    1  0.4673733E-013  0.5930195E+02  0.7816164E-02  0.1266605E+00
        -11   -1    0    0    0    0  0.00000000000E+00  0.00000000000E+00  0.45593999997E+02  0.45594000000E+02  0.51100000000E-03 0. -1.
         11   -1    0    0    0    0 -0.00000000000E+00 -0.00000000000E+00 -0.45593999997E+02  0.45594000000E+02  0.51100000000E-03 0.  1.
    9900012    2    1    2    0    0  0.13973035509E+02 -0.28533516958E+02  0.27042552739E+01  0.59301948066E+02  0.50000007366E+02 0.  0.
         12    1    1    2    0    0 -0.13973035509E+02  0.28533516958E+02 -0.27042552739E+01  0.31886051934E+02  0.00000000000E+00 0. -1.
         11    1    3    3    0    0  0.84838439378E+00  0.99549349463E+01 -0.52659572355E+01  0.11293838662E+02  0.51100000000E-03 0. -1.
        -11    1    3    3    0    0  0.15660712686E+02 -0.25837140511E+02 -0.39149900382E+01  0.30465437775E+02  0.51100000000E-03 0.  1.
        -12    1    3    3    0    0 -0.25360615708E+01 -0.12651311394E+02  0.11885202548E+02  0.17542671629E+02  0.00000000000E+00 0.  1.
</event>
<event>
 7    1  0.4673733E-013  0.5930193E+02  0.7816164E-02  0.1266605E+00
        -11   -1    0    0    0    0  0.00000000000E+00  0.00000000000E+00  0.45593999997E+02  0.45594000000E+02  0.51100000000E-03 0.  1.
         11   -1    0    0    0    0 -0.00000000000E+00 -0.00000000000E+00 -0.45593999997E+02  0.45594000000E+02  0.51100000000E-03 0. -1.
    9900012    2    1    2    0    0  0.18904733312E+02 -0.25600761829E+02  0.19832319208E+01  0.59301934757E+02  0.49999983093E+02 0.  0.
         12    1    1    2    0    0 -0.18904733312E+02  0.25600761829E+02 -0.19832319208E+01  0.31886065243E+02  0.00000000000E+00 0. -1.
         11    1    3    3    0    0  0.33838508939E+02 -0.24364108594E+02  0.17754600334E+01  0.41734958169E+02  0.51100000000E-03 0. -1.
        -11    1    3    3    0    0 -0.11794084744E+02  0.28551008768E+01  0.15613579961E+01  0.12234781363E+02  0.51100000000E-03 0.  1.
         12    1    3    3    0    0 -0.31396908836E+01 -0.40917541123E+01 -0.13535861086E+01  0.53321952246E+01  0.00000000000E+00 0. -1.
</event>
<event>
 7    1  0.4673733E-013  0.5930195E+02  0.7816164E-02  0.1266605E+00
        -11   -1    0    0    0    0  0.00000000000E+00  0.00000000000E+00  0.45593999997E+02  0.45594000000E+02  0.51100000000E-03 0.  1.
         11   -1    0    0    0    0 -0.00000000000E+00 -0.00000000000E+00 -0.45593999997E+02  0.45594000000E+02  0.51100000000E-03 0. -1.
    9900012    2    1    2    0    0  0.28839499282E+02 -0.13040793057E+02  0.38654197204E+01  0.59301945493E+02  0.50000002672E+02 0.  0.
         12    1    1    2    0    0 -0.28839499282E+02  0.13040793057E+02 -0.38654197204E+01  0.31886054507E+02  0.00000000000E+00 0. -1.
         11    1    3    3    0    0  0.50621663010E+01  0.12796492936E+02 -0.91340814033E+01  0.16516876293E+02  0.51100000000E-03 0. -1.
        -11    1    3    3    0    0  0.13026091059E+02 -0.12687867621E+02  0.17475400595E+02  0.25220044791E+02  0.51100000000E-03 0.  1.
         12    1    3    3    0    0  0.10751241923E+02 -0.13149418372E+02 -0.44758994712E+01  0.17565024409E+02  0.00000000000E+00 0. -1.
</event>
<event>
 7    1  0.4673733E-013  0.5930194E+02  0.7816164E-02  0.1266605E+00
        -11   -1    0    0    0    0  0.00000000000E+00  0.00000000000E+00  0.45593999997E+02  0.45594000000E+02  0.51100000000E-03 0.  1.
         11   -1    0    0    0    0 -0.00000000000E+00 -0.00000000000E+00 -0.45593999997E+02  0.45594000000E+02  0.51100000000E-03 0. -1.
    9900012    2    1    2    0    0 -0.50261379766E+01 -0.11912615841E+02  0.29147012511E+02  0.59301940077E+02  0.49999992794E+02 0.  0.
         12    1    1    2    0    0  0.50261379766E+01  0.11912615841E+02 -0.29147012511E+02  0.31886059923E+02  0.00000000000E+00 0. -1.
         11    1    3    3    0    0  0.15501270954E+02 -0.13369310640E+02  0.10493612710E+02  0.23003125356E+02  0.51100000000E-03 0. -1.
        -11    1    3    3    0    0 -0.23900955142E+02  0.59361760249E+01  0.18296224827E+02  0.30679727601E+02  0.51100000000E-03 0.  1.
        -12    1    3    3    0    0  0.33735462117E+01 -0.44794812258E+01  0.35717497415E+00  0.56190871196E+01  0.00000000000E+00 0.  1.
</event>
<event>
 7    1  0.4673733E-013  0.5930193E+02  0.7816164E-02  0.1266605E+00
        -11   -1    0    0    0    0  0.00000000000E+00  0.00000000000E+00  0.45593999997E+02  0.45594000000E+02  0.51100000000E-03 0.  1.
         11   -1    0    0    0    0 -0.00000000000E+00 -0.00000000000E+00 -0.45593999997E+02  0.45594000000E+02  0.51100000000E-03 0. -1.
    9900012    2    1    2    0    0  0.61138817548E+01 -0.28356280910E+02  0.13238706370E+02  0.59301928377E+02  0.49999971458E+02 0.  0.
         12    1    1    2    0    0 -0.61138817548E+01  0.28356280910E+02 -0.13238706370E+02  0.31886071623E+02  0.00000000000E+00 0. -1.
         11    1    3    3    0    0 -0.17525534054E+02  0.12876169035E+01  0.77274897968E+01  0.19196780980E+02  0.51100000000E-03 0. -1.
        -11    1    3    3    0    0  0.83205235251E+01 -0.16022438668E+02  0.74157815752E+01  0.19517773163E+02  0.51100000000E-03 0.  1.
         12    1    3    3    0    0  0.15318892283E+02 -0.13621459146E+02 -0.19045650023E+01  0.20587374235E+02  0.00000000000E+00 0. -1.
</event>
<event>
 7    1  0.4673733E-013  0.5930194E+02  0.7816164E-02  0.1266605E+00
        -11   -1    0    0    0    0  0.00000000000E+00  0.00000000000E+00  0.45593999997E+02  0.45594000000E+02  0.51100000000E-03 0.  1.
         11   -1    0    0    0    0 -0.00000000000E+00 -0.00000000000E+00 -0.45593999997E+02  0.45594000000E+02  0.51100000000E-03 0. -1.
    9900012    2    1    2    0    0  0.64929932211E+01  0.28461816186E+02  0.12825237251E+02  0.59301942669E+02  0.49999997521E+02 0.  0.
         12    1    1    2    0    0 -0.64929932211E+01 -0.28461816186E+02 -0.12825237251E+02  0.31886057331E+02  0.00000000000E+00 0. -1.
         11    1    3    3    0    0  0.11774444266E+02  0.23258806238E+02  0.20453738985E+02  0.33135555588E+02  0.51100000000E-03 0. -1.
        -11    1    3    3    0    0 -0.49834400179E+01 -0.76505705125E+01 -0.94971300557E+01  0.13174269738E+02  0.51100000000E-03 0.  1.
        -12    1    3    3    0    0 -0.29801102740E+00  0.12853580461E+02  0.18686283213E+01  0.12992117342E+02  0.00000000000E+00 0.  1.
</event>
<event>
 7    1  0.4673733E-013  0.5930194E+02  0.7816164E-02  0.1266605E+00
        -11   -1    0    0    0    0  0.00000000000E+00  0.00000000000E+00  0.45593999997E+02  0.45594000000E+02  0.51100000000E-03 0. -1.
         11   -1    0    0    0    0 -0.00000000000E+00 -0.00000000000E+00 -0.45593999997E+02  0.45594000000E+02  0.51100000000E-03 0.  1.
    9900012    2    1    2    0    0 -0.23297426838E+02  0.11089432215E+02 -0.18734324412E+02  0.59301944814E+02  0.50000001435E+02 0.  0.
         12    1    1    2    0    0  0.23297426838E+02 -0.11089432215E+02  0.18734324412E+02  0.31886055186E+02  0.00000000000E+00 0. -1.
         11    1    3    3    0    0 -0.35169212618E+01 -0.75165158702E+01 -0.45125492107E+01  0.94461551241E+01  0.51100000000E-03 0. -1.
        -11    1    3    3    0    0 -0.26058568907E+02  0.17704822260E+02 -0.23013931588E+02  0.39014750955E+02  0.51100000000E-03 0.  1.
        -12    1    3    3    0    0  0.62780633305E+01  0.90112582505E+00  0.87921563862E+01  0.10841038735E+02  0.00000000000E+00 0.  1.
</event>
<event>
 7    1  0.4673733E-013  0.5930193E+02  0.7816164E-02  0.1266605E+00
        -11   -1    0    0    0    0  0.00000000000E+00  0.00000000000E+00  0.45593999997E+02  0.45594000000E+02  0.51100000000E-03 0.  1.
         11   -1    0    0    0    0 -0.00000000000E+00 -0.00000000000E+00 -0.45593999997E+02  0.45594000000E+02  0.51100000000E-03 0. -1.
    9900012    2    1    2    0    0 -0.79380148434E+01 -0.97606017992E+01  0.29299144049E+02  0.59301932994E+02  0.49999979876E+02 0.  0.
         12    1    1    2    0    0  0.79380148434E+01  0.97606017992E+01 -0.29299144049E+02  0.31886067006E+02  0.00000000000E+00 0. -1.
         11    1    3    3    0    0  0.16529406286E+02 -0.12038812578E+02  0.19005630497E+02  0.27917168039E+02  0.51100000000E-03 0. -1.
        -11    1    3    3    0    0 -0.10499688862E+02  0.71374991375E+01  0.10680310519E+02  0.16590852696E+02  0.51100000000E-03 0.  1.
         12    1    3    3    0    0 -0.13967732267E+02 -0.48592883591E+01 -0.38679696719E+00  0.14793912259E+02  0.00000000000E+00 0. -1.
</event>
<event>
 7    1  0.4673733E-013  0.5930195E+02  0.7816164E-02  0.1266605E+00
        -11   -1    0    0    0    0  0.00000000000E+00  0.00000000000E+00  0.45593999997E+02  0.45594000000E+02  0.51100000000E-03 0. -1.
         11   -1    0    0    0    0 -0.00000000000E+00 -0.00000000000E+00 -0.45593999997E+02  0.45594000000E+02  0.51100000000E-03 0.  1.
    9900012    2    1    2    0    0  0.82902045026E+01 -0.24739971156E+02 -0.18328306209E+02  0.59301945493E+02  0.50000002673E+02 0.  0.
         12    1    1    2    0    0 -0.82902045026E+01  0.24739971156E+02  0.18328306209E+02  0.31886054507E+02  0.00000000000E+00 0. -1.
         11    1    3    3    0    0  0.43874183920E+01  0.10196743484E+02  0.37654038079E+01  0.11721829376E+02  0.51100000000E-03 0. -1.
        -11    1    3    3    0    0  0.41023175889E+01 -0.30689268392E+02 -0.67918105241E+01  0.31698405236E+02  0.51100000000E-03 0.  1.
        -12    1    3    3    0    0 -0.19953147821E+00 -0.42474462473E+01 -0.15301899493E+02  0.15881710882E+02  0.00000000000E+00 0.  1.
</event>
<event>
 7    1  0.4673733E-013  0.5930192E+02  0.7816164E-02  0.1266605E+00
        -11   -1    0    0    0    0  0.00000000000E+00  0.00000000000E+00  0.45593999997E+02  0.45594000000E+02  0.51100000000E-03 0.  1.
         11   -1    0    0    0    0 -0.00000000000E+00 -0.00000000000E+00 -0.45593999997E+02  0.45594000000E+02  0.51100000000E-03 0. -1.
    9900012    2    1    2    0    0 -0.70273098424E+01 -0.11208846778E+02  0.29012080193E+02  0.59301919544E+02  0.49999955347E+02 0.  0.
         12    1    1    2    0    0  0.70273098424E+01  0.11208846778E+02 -0.29012080193E+02  0.31886080456E+02  0.00000000000E+00 0. -1.
         11    1    3    3    0    0 -0.67147191833E+00 -0.15433817758E-02 -0.70459376065E+01  0.70778608304E+01  0.51100000000E-03 0. -1.
        -11    1    3    3    0    0 -0.20476638746E+02 -0.11811207584E+02  0.22988780838E+02  0.32973950379E+02  0.51100000000E-03 0.  1.
         12    1    3    3    0    0  0.14120800822E+02  0.60390418838E+00  0.13069236961E+02  0.19250108334E+02  0.00000000000E+00 0. -1.
</event>
<event>
 7    1  0.4673733E-013  0.5930194E+02  0.7816164E-02  0.1266605E+00
        -11   -1    0    0    0    0  0.00000000000E+00  0.00000000000E+00  0.45593999997E+02  0.45594000000E+02  0.51100000000E-03 0.  1.
         11   -1    0    0    0    0 -0.00000000000E+00 -0.00000000000E+00 -0.45593999997E+02  0.45594000000E+02  0.51100000000E-03 0. -1.
    9900012    2    1    2    0    0  0.16272462833E+02  0.18828307647E+02  0.19935467627E+02  0.59301935881E+02  0.49999985142E+02 0.  0.
         12    1    1    2    0    0 -0.16272462833E+02 -0.18828307647E+02 -0.19935467627E+02  0.31886064119E+02  0.00000000000E+00 0. -1.
         11    1    3    3    0    0 -0.63085113033E+01  0.17771054191E+02  0.26519483735E+02  0.32540600790E+02  0.51100000000E-03 0. -1.
        -11    1    3    3    0    0  0.20675548510E+02  0.26617542149E+01 -0.12609852116E+01  0.20884284178E+02  0.51100000000E-03 0.  1.
         12    1    3    3    0    0  0.19054256271E+01 -0.16045007592E+01 -0.53230308963E+01  0.58770509126E+01  0.00000000000E+00 0. -1.
</event>
<event>
 7    1  0.4673733E-013  0.5930194E+02  0.7816164E-02  0.1266605E+00
        -11   -1    0    0    0    0  0.00000000000E+00  0.00000000000E+00  0.45593999997E+02  0.45594000000E+02  0.51100000000E-03 0. -1.
         11   -1    0    0    0    0 -0.00000000000E+00 -0.00000000000E+00 -0.45593999997E+02  0.45594000000E+02  0.51100000000E-03 0.  1.
    9900012    2    1    2    0    0 -0.11259299976E+02 -0.18409696748E+02 -0.23474069201E+02  0.59301941994E+02  0.49999996292E+02 0.  0.
         12    1    1    2    0    0  0.11259299976E+02  0.18409696748E+02  0.23474069201E+02  0.31886058006E+02  0.00000000000E+00 0. -1.
         11    1    3    3    0    0  0.15457495710E+02 -0.78421638057E+01 -0.83953616535E+01  0.19259174550E+02  0.51100000000E-03 0. -1.
        -11    1    3    3    0    0 -0.18436757418E+02  0.51095238813E+01 -0.10067278239E+02  0.21618773087E+02  0.51100000000E-03 0.  1.
         12    1    3    3    0    0 -0.82800382681E+01 -0.15677056823E+02 -0.50114293082E+01  0.18423994357E+02  0.00000000000E+00 0. -1.
</event>
<event>
 7    1  0.4673733E-013  0.5930199E+02  0.7816164E-02  0.1266605E+00
        -11   -1    0    0    0    0  0.00000000000E+00  0.00000000000E+00  0.45593999997E+02  0.45594000000E+02  0.51100000000E-03 0.  1.
         11   -1    0    0    0    0 -0.00000000000E+00 -0.00000000000E+00 -0.45593999997E+02  0.45594000000E+02  0.51100000000E-03 0. -1.
    9900012    2    1    2    0    0 -0.16844002817E+02 -0.25543758189E+02 -0.89729422559E+01  0.59301988866E+02  0.50000081774E+02 0.  0.
         12    1    1    2    0    0  0.16844002817E+02  0.25543758189E+02  0.89729422559E+01  0.31886011134E+02  0.00000000000E+00 0. -1.
         11    1    3    3    0    0 -0.43786531113E+01  0.45504253969E+01 -0.31630414145E+01  0.70628468490E+01  0.51100000000E-03 0. -1.
        -11    1    3    3    0    0 -0.26016574630E+02 -0.24254419227E+02 -0.99111323823E+01  0.36923834482E+02  0.51100000000E-03 0.  1.
        -12    1    3    3    0    0  0.13551224924E+02 -0.58397643594E+01  0.41012315408E+01  0.15315307535E+02  0.00000000000E+00 0.  1.
</event>
<event>
 7    1  0.4673733E-013  0.5930194E+02  0.7816164E-02  0.1266605E+00
        -11   -1    0    0    0    0  0.00000000000E+00  0.00000000000E+00  0.45593999997E+02  0.45594000000E+02  0.51100000000E-03 0.  1.
         11   -1    0    0    0    0 -0.00000000000E+00 -0.00000000000E+00 -0.45593999997E+02  0.45594000000E+02  0.51100000000E-03 0. -1.
    9900012    2    1    2    0    0 -0.18016016405E+02  0.68744513415E+01  0.25394602884E+02  0.59301940601E+02  0.49999993750E+02 0.  0.
         12    1    1    2    0    0  0.18016016405E+02 -0.68744513415E+01 -0.25394602884E+02  0.31886059399E+02  0.00000000000E+00 0. -1.
         11    1    3    3    0    0 -0.18598165884E+02 -0.54904315787E+00 -0.41332355349E+01  0.19059823159E+02  0.51100000000E-03 0. -1.
        -11    1    3    3    0    0 -0.88657954996E+01  0.42081602318E+01  0.28578977727E+02  0.30217030141E+02  0.51100000000E-03 0.  1.
        -12    1    3    3    0    0  0.94479449779E+01  0.32153342676E+01  0.94886069232E+00  0.10025087300E+02  0.00000000000E+00 0.  1.
</event>
<event>
 7    1  0.4673733E-013  0.5930194E+02  0.7816164E-02  0.1266605E+00
        -11   -1    0    0    0    0  0.00000000000E+00  0.00000000000E+00  0.45593999997E+02  0.45594000000E+02  0.51100000000E-03 0. -1.
         11   -1    0    0    0    0 -0.00000000000E+00 -0.00000000000E+00 -0.45593999997E+02  0.45594000000E+02  0.51100000000E-03 0.  1.
    9900012    2    1    2    0    0  0.31412062129E+02 -0.53126171063E+01 -0.13338123985E+01  0.59301943435E+02  0.49999998920E+02 0.  0.
         12    1    1    2    0    0 -0.31412062129E+02  0.53126171063E+01  0.13338123985E+01  0.31886056565E+02  0.00000000000E+00 0. -1.
         11    1    3    3    0    0  0.81266170570E+01  0.38782604809E+01  0.47298886034E+01  0.10171266175E+02  0.51100000000E-03 0. -1.
        -11    1    3    3    0    0 -0.25814255240E+01 -0.20145720315E+02 -0.54670047835E+01  0.21033353188E+02  0.51100000000E-03 0.  1.
        -12    1    3    3    0    0  0.25866870596E+02  0.10954842728E+02 -0.59669621845E+00  0.28097324072E+02  0.00000000000E+00 0.  1.
</event>
<event>
 7    1  0.4673733E-013  0.5930194E+02  0.7816164E-02  0.1266605E+00
        -11   -1    0    0    0    0  0.00000000000E+00  0.00000000000E+00  0.45593999997E+02  0.45594000000E+02  0.51100000000E-03 0.  1.
         11   -1    0    0    0    0 -0.00000000000E+00 -0.00000000000E+00 -0.45593999997E+02  0.45594000000E+02  0.51100000000E-03 0. -1.
    9900012    2    1    2    0    0  0.36824300481E+01 -0.31436206246E+02 -0.38633895279E+01  0.59301935131E+02  0.49999983774E+02 0.  0.
         12    1    1    2    0    0 -0.36824300481E+01  0.31436206246E+02  0.38633895279E+01  0.31886064869E+02  0.00000000000E+00 0. -1.
         11    1    3    3    0    0  0.69511493560E+01  0.30553976443E+01 -0.60499836205E+01  0.97085649920E+01  0.51100000000E-03 0. -1.
        -11    1    3    3    0    0 -0.97297725302E+01 -0.25962556575E+02  0.16084533399E+02  0.32053627444E+02  0.51100000000E-03 0.  1.
        -12    1    3    3    0    0  0.64610532224E+01 -0.85290473158E+01 -0.13897939306E+02  0.17539742695E+02  0.00000000000E+00 0.  1.
</event>
<event>
 7    1  0.4673733E-013  0.5930197E+02  0.7816164E-02  0.1266605E+00
        -11   -1    0    0    0    0  0.00000000000E+00  0.00000000000E+00  0.45593999997E+02  0.45594000000E+02  0.51100000000E-03 0.  1.
         11   -1    0    0    0    0 -0.00000000000E+00 -0.00000000000E+00 -0.45593999997E+02  0.45594000000E+02  0.51100000000E-03 0. -1.
    9900012    2    1    2    0    0  0.19886868080E+02 -0.18075917350E+02  0.17160795663E+02  0.59301965159E+02  0.50000038539E+02 0.  0.
         12    1    1    2    0    0 -0.19886868080E+02  0.18075917350E+02 -0.17160795663E+02  0.31886034841E+02  0.00000000000E+00 0. -1.
         11    1    3    3    0    0 -0.47221028422E+01  0.65875363952E+01  0.11955837587E+02  0.14444235655E+02  0.51100000000E-03 0. -1.
        -11    1    3    3    0    0  0.28427776132E+02 -0.11231252738E+02  0.42582272846E+01  0.30861172916E+02  0.51100000000E-03 0.  1.
         12    1    3    3    0    0 -0.38188052097E+01 -0.13432201007E+02  0.94673079169E+00  0.13996556588E+02  0.00000000000E+00 0. -1.
</event>
<event>
 7    1  0.4673733E-013  0.5930194E+02  0.7816164E-02  0.1266605E+00
        -11   -1    0    0    0    0  0.00000000000E+00  0.00000000000E+00  0.45593999997E+02  0.45594000000E+02  0.51100000000E-03 0.  1.
         11   -1    0    0    0    0 -0.00000000000E+00 -0.00000000000E+00 -0.45593999997E+02  0.45594000000E+02  0.51100000000E-03 0. -1.
    9900012    2    1    2    0    0 -0.19245130758E+02 -0.12895896665E+02  0.21909850987E+02  0.59301940680E+02  0.49999993894E+02 0.  0.
         12    1    1    2    0    0  0.19245130758E+02  0.12895896665E+02 -0.21909850987E+02  0.31886059320E+02  0.00000000000E+00 0. -1.
         11    1    3    3    0    0 -0.15190883122E+02 -0.26801213086E+02  0.56420630465E+01  0.31319336337E+02  0.51100000000E-03 0. -1.
        -11    1    3    3    0    0 -0.38832085975E+01  0.10101211386E+02  0.19943227614E+02  0.22690220545E+02  0.51100000000E-03 0.  1.
        -12    1    3    3    0    0 -0.17103903891E+00  0.38041050353E+01 -0.36754396730E+01  0.52923837977E+01  0.00000000000E+00 0.  1.
</event>
<event>
 7    1  0.4673733E-013  0.5930191E+02  0.7816164E-02  0.1266605E+00
        -11   -1    0    0    0    0  0.00000000000E+00  0.00000000000E+00  0.45593999997E+02  0.45594000000E+02  0.51100000000E-03 0.  1.
         11   -1    0    0    0    0 -0.00000000000E+00 -0.00000000000E+00 -0.45593999997E+02  0.45594000000E+02  0.51100000000E-03 0. -1.
    9900012    2    1    2    0    0 -0.16398333850E+02  0.22365647599E+02  0.15735148633E+02  0.59301914507E+02  0.49999946161E+02 0.  0.
         12    1    1    2    0    0  0.16398333850E+02 -0.22365647599E+02 -0.15735148633E+02  0.31886085493E+02  0.00000000000E+00 0. -1.
         11    1    3    3    0    0 -0.65302057623E+01 -0.18390331755E+01 -0.45681947069E+01  0.81788772738E+01  0.51100000000E-03 0. -1.
        -11    1    3    3    0    0 -0.17719144231E+02  0.14071010057E+02  0.28132182440E+02  0.36102369526E+02  0.51100000000E-03 0.  1.
        -12    1    3    3    0    0  0.78510161432E+01  0.10133670718E+02 -0.78288391007E+01  0.15020667707E+02  0.00000000000E+00 0.  1.
</event>
<event>
 7    1  0.4673733E-013  0.5930200E+02  0.7816164E-02  0.1266605E+00
        -11   -1    0    0    0    0  0.00000000000E+00  0.00000000000E+00  0.45593999997E+02  0.45594000000E+02  0.51100000000E-03 0.  1.
         11   -1    0    0    0    0 -0.00000000000E+00 -0.00000000000E+00 -0.45593999997E+02  0.45594000000E+02  0.51100000000E-03 0. -1.
    9900012    2    1    2    0    0 -0.49941687226E+01  0.23138071983E+01  0.31407349114E+02  0.59301999884E+02  0.50000101869E+02 0.  0.
         12    1    1    2    0    0  0.49941687226E+01 -0.23138071983E+01 -0.31407349114E+02  0.31886000116E+02  0.00000000000E+00 0. -1.
         11    1    3    3    0    0  0.45430202528E+01 -0.15881761458E+02  0.27144102661E+01  0.16740292811E+02  0.51100000000E-03 0.  1.
        -11    1    3    3    0    0 -0.42231169458E+01  0.16175479281E+02  0.31913992904E+02  0.36027542104E+02  0.51100000000E-03 0. -1.
         12    1    3    3    0    0 -0.53140720297E+01  0.20200893754E+01 -0.32210540556E+01  0.65341649696E+01  0.00000000000E+00 0. -1.
</event>
<event>
 7    1  0.4673733E-013  0.5930195E+02  0.7816164E-02  0.1266605E+00
        -11   -1    0    0    0    0  0.00000000000E+00  0.00000000000E+00  0.45593999997E+02  0.45594000000E+02  0.51100000000E-03 0.  1.
         11   -1    0    0    0    0 -0.00000000000E+00 -0.00000000000E+00 -0.45593999997E+02  0.45594000000E+02  0.51100000000E-03 0. -1.
    9900012    2    1    2    0    0  0.73629749352E+01  0.22830834856E+02  0.21006185374E+02  0.59301949067E+02  0.50000009191E+02 0.  0.
         12    1    1    2    0    0 -0.73629749352E+01 -0.22830834856E+02 -0.21006185374E+02  0.31886050933E+02  0.00000000000E+00 0. -1.
         11    1    3    3    0    0  0.27632319093E+01 -0.19753566077E+01  0.25962432706E+02  0.26183685695E+02  0.51100000000E-03 0.  1.
        -11    1    3    3    0    0  0.41570547326E+01  0.32376175924E+01 -0.96917952551E+01  0.11031507932E+02  0.51100000000E-03 0. -1.
         12    1    3    3    0    0  0.44268829332E+00  0.21568573871E+02  0.47355479237E+01  0.22086755441E+02  0.00000000000E+00 0. -1.
</event>
<event>
 7    1  0.4673733E-013  0.5930191E+02  0.7816164E-02  0.1266605E+00
        -11   -1    0    0    0    0  0.00000000000E+00  0.00000000000E+00  0.45593999997E+02  0.45594000000E+02  0.51100000000E-03 0. -1.
         11   -1    0    0    0    0 -0.00000000000E+00 -0.00000000000E+00 -0.45593999997E+02  0.45594000000E+02  0.51100000000E-03 0.  1.
    9900012    2    1    2    0    0  0.20361866101E+02 -0.10026980314E+02 -0.22395911796E+02  0.59301909137E+02  0.49999936368E+02 0.  0.
         12    1    1    2    0    0 -0.20361866101E+02  0.10026980314E+02  0.22395911796E+02  0.31886090863E+02  0.00000000000E+00 0. -1.
         11    1    3    3    0    0 -0.12068892561E+01 -0.18464023191E+01 -0.34953525733E+01  0.41331916328E+01  0.51100000000E-03 0. -1.
        -11    1    3    3    0    0  0.27375266622E+02 -0.12513092277E+02  0.47152468764E+01  0.30466641664E+02  0.51100000000E-03 0.  1.
        -12    1    3    3    0    0 -0.58065112648E+01  0.43325142817E+01 -0.23615806100E+02  0.24702075840E+02  0.00000000000E+00 0.  1.
</event>
<event>
 7    1  0.4673733E-013  0.5930194E+02  0.7816164E-02  0.1266605E+00
        -11   -1    0    0    0    0  0.00000000000E+00  0.00000000000E+00  0.45593999997E+02  0.45594000000E+02  0.51100000000E-03 0.  1.
         11   -1    0    0    0    0 -0.00000000000E+00 -0.00000000000E+00 -0.45593999997E+02  0.45594000000E+02  0.51100000000E-03 0. -1.
    9900012    2    1    2    0    0  0.31184573144E+02  0.37471604560E+01  0.54956632230E+01  0.59301935208E+02  0.49999983916E+02 0.  0.
         12    1    1    2    0    0 -0.31184573144E+02 -0.37471604560E+01 -0.54956632230E+01  0.31886064792E+02  0.00000000000E+00 0. -1.
         11    1    3    3    0    0  0.22132163593E+02  0.29095511424E+01 -0.56709640286E+01  0.23031673549E+02  0.51100000000E-03 0. -1.
        -11    1    3    3    0    0  0.69404799442E+00  0.15404458160E+01  0.22281566175E+02  0.22345533500E+02  0.51100000000E-03 0.  1.
         12    1    3    3    0    0  0.83583615560E+01 -0.70283650240E+00 -0.11114938923E+02  0.13924728160E+02  0.00000000000E+00 0. -1.
</event>
<event>
 7    1  0.4673733E-013  0.5930194E+02  0.7816164E-02  0.1266605E+00
        -11   -1    0    0    0    0  0.00000000000E+00  0.00000000000E+00  0.45593999997E+02  0.45594000000E+02  0.51100000000E-03 0. -1.
         11   -1    0    0    0    0 -0.00000000000E+00 -0.00000000000E+00 -0.45593999997E+02  0.45594000000E+02  0.51100000000E-03 0.  1.
    9900012    2    1    2    0    0 -0.31657006688E+02 -0.65022198543E+00  0.37592315400E+01  0.59301942187E+02  0.49999996643E+02 0.  0.
         12    1    1    2    0    0  0.31657006688E+02  0.65022198543E+00 -0.37592315400E+01  0.31886057813E+02  0.00000000000E+00 0. -1.
         11    1    3    3    0    0 -0.66623282497E+01  0.63047376356E+00  0.17872052343E+02  0.19083877229E+02  0.51100000000E-03 0. -1.
        -11    1    3    3    0    0 -0.11997419242E+02 -0.31972492890E+01 -0.21733448436E+02  0.25030046996E+02  0.51100000000E-03 0.  1.
         12    1    3    3    0    0 -0.12997259197E+02  0.19165535400E+01  0.76206276329E+01  0.15188017962E+02  0.00000000000E+00 0. -1.
</event>
<event>
 7    1  0.4673733E-013  0.5930194E+02  0.7816164E-02  0.1266605E+00
        -11   -1    0    0    0    0  0.00000000000E+00  0.00000000000E+00  0.45593999997E+02  0.45594000000E+02  0.51100000000E-03 0.  1.
         11   -1    0    0    0    0 -0.00000000000E+00 -0.00000000000E+00 -0.45593999997E+02  0.45594000000E+02  0.51100000000E-03 0. -1.
    9900012    2    1    2    0    0  0.53452878012E+01 -0.10781417477E+02  0.29528112942E+02  0.59301944766E+02  0.50000001346E+02 0.  0.
         12    1    1    2    0    0 -0.53452878012E+01  0.10781417477E+02 -0.29528112942E+02  0.31886055234E+02  0.00000000000E+00 0. -1.
         11    1    3    3    0    0  0.83559601047E+01  0.70896603085E+01  0.12586597219E+02  0.16688552435E+02  0.51100000000E-03 0. -1.
        -11    1    3    3    0    0 -0.15507337425E+02 -0.11582879492E+02  0.20484100606E+02  0.28182245994E+02  0.51100000000E-03 0.  1.
         12    1    3    3    0    0  0.12496665122E+02 -0.62881982933E+01 -0.35425848830E+01  0.14431146337E+02  0.00000000000E+00 0. -1.
</event>
<event>
 7    1  0.4673733E-013  0.5930195E+02  0.7816164E-02  0.1266605E+00
        -11   -1    0    0    0    0  0.00000000000E+00  0.00000000000E+00  0.45593999997E+02  0.45594000000E+02  0.51100000000E-03 0.  1.
         11   -1    0    0    0    0 -0.00000000000E+00 -0.00000000000E+00 -0.45593999997E+02  0.45594000000E+02  0.51100000000E-03 0. -1.
    9900012    2    1    2    0    0 -0.31598246588E+01  0.16035239292E+02  0.27378945132E+02  0.59301952463E+02  0.50000015384E+02 0.  0.
         12    1    1    2    0    0  0.31598246588E+01 -0.16035239292E+02 -0.27378945132E+02  0.31886047537E+02  0.00000000000E+00 0. -1.
         11    1    3    3    0    0 -0.19195224864E+02  0.88744798784E+01  0.36700453007E+01  0.21463510511E+02  0.51100000000E-03 0. -1.
        -11    1    3    3    0    0  0.11139911715E+02  0.70261550875E+01  0.28243933279E+02  0.31163829284E+02  0.51100000000E-03 0.  1.
         12    1    3    3    0    0  0.48954884904E+01  0.13460432608E+00 -0.45350334482E+01  0.66746126675E+01  0.00000000000E+00 0. -1.
</event>
<event>
 7    1  0.4673733E-013  0.5930194E+02  0.7816164E-02  0.1266605E+00
        -11   -1    0    0    0    0  0.00000000000E+00  0.00000000000E+00  0.45593999997E+02  0.45594000000E+02  0.51100000000E-03 0. -1.
         11   -1    0    0    0    0 -0.00000000000E+00 -0.00000000000E+00 -0.45593999997E+02  0.45594000000E+02  0.51100000000E-03 0.  1.
    9900012    2    1    2    0    0  0.98665745823E+01 -0.26147002695E+02 -0.15352705677E+02  0.59301943243E+02  0.49999998568E+02 0.  0.
         12    1    1    2    0    0 -0.98665745823E+01  0.26147002695E+02  0.15352705677E+02  0.31886056757E+02  0.00000000000E+00 0. -1.
         11    1    3    3    0    0 -0.43715620495E+01 -0.82317565609E+01  0.12052141825E+02  0.15235698003E+02  0.51100000000E-03 0. -1.
        -11    1    3    3    0    0 -0.43065868286E+01 -0.14411922791E+02 -0.81628881602E+01  0.17113823419E+02  0.51100000000E-03 0.  1.
         12    1    3    3    0    0  0.18544723460E+02 -0.35033233433E+01 -0.19241959342E+02  0.26952421820E+02  0.00000000000E+00 0. -1.
</event>
<event>
 7    1  0.4673733E-013  0.5930194E+02  0.7816164E-02  0.1266605E+00
        -11   -1    0    0    0    0  0.00000000000E+00  0.00000000000E+00  0.45593999997E+02  0.45594000000E+02  0.51100000000E-03 0. -1.
         11   -1    0    0    0    0 -0.00000000000E+00 -0.00000000000E+00 -0.45593999997E+02  0.45594000000E+02  0.51100000000E-03 0.  1.
    9900012    2    1    2    0    0 -0.37635715639E+01  0.42024219026E+01 -0.31383051995E+02  0.59301940769E+02  0.49999994058E+02 0.  0.
         12    1    1    2    0    0  0.37635715639E+01 -0.42024219026E+01  0.31383051995E+02  0.31886059231E+02  0.00000000000E+00 0. -1.
         11    1    3    3    0    0  0.28923667353E+01 -0.33281194379E+00 -0.41296579363E+02  0.41399082314E+02  0.51100000000E-03 0. -1.
        -11    1    3    3    0    0 -0.18341690868E+01  0.69252473217E+01  0.65501461384E+00  0.71939051364E+01  0.51100000000E-03 0.  1.
         12    1    3    3    0    0 -0.48217692123E+01 -0.23900134753E+01  0.92585127548E+01  0.10708953319E+02  0.00000000000E+00 0. -1.
</event>
<event>
 7    1  0.4673733E-013  0.5930197E+02  0.7816164E-02  0.1266605E+00
        -11   -1    0    0    0    0  0.00000000000E+00  0.00000000000E+00  0.45593999997E+02  0.45594000000E+02  0.51100000000E-03 0.  1.
         11   -1    0    0    0    0 -0.00000000000E+00 -0.00000000000E+00 -0.45593999997E+02  0.45594000000E+02  0.51100000000E-03 0. -1.
    9900012    2    1    2    0    0  0.95375384219E+01 -0.34924737999E+01  0.30225107810E+02  0.59301966153E+02  0.50000040350E+02 0.  0.
         12    1    1    2    0    0 -0.95375384219E+01  0.34924737999E+01 -0.30225107810E+02  0.31886033847E+02  0.00000000000E+00 0. -1.
         11    1    3    3    0    0  0.24461000625E+02  0.50738430113E+01  0.15793095436E+02  0.29555139962E+02  0.51100000000E-03 0. -1.
        -11    1    3    3    0    0 -0.71944881664E+01  0.34613588186E+01  0.13161286928E+02  0.15393542110E+02  0.51100000000E-03 0.  1.
         12    1    3    3    0    0 -0.77289740366E+01 -0.12027675630E+02  0.12707254459E+01  0.14353284080E+02  0.00000000000E+00 0. -1.
</event>
<event>
 7    1  0.4673733E-013  0.5930172E+02  0.7816164E-02  0.1266606E+00
        -11   -1    0    0    0    0  0.00000000000E+00  0.00000000000E+00  0.45593999997E+02  0.45594000000E+02  0.51100000000E-03 0. -1.
         11   -1    0    0    0    0 -0.00000000000E+00 -0.00000000000E+00 -0.45593999997E+02  0.45594000000E+02  0.51100000000E-03 0.  1.
    9900012    2    1    2    0    0 -0.29055679718E+02 -0.67317827408E+01  0.11277644682E+02  0.59301722508E+02  0.49999595999E+02 0.  0.
         12    1    1    2    0    0  0.29055679718E+02  0.67317827408E+01 -0.11277644682E+02  0.31886277492E+02  0.00000000000E+00 0. -1.
         11    1    3    3    0    0 -0.16380540233E+02 -0.11553378618E+02  0.17942272608E+02  0.26902189547E+02  0.51100000000E-03 0. -1.
        -11    1    3    3    0    0  0.15208429473E+01  0.13755505474E+02  0.11662267930E+01  0.13888375690E+02  0.51100000000E-03 0.  1.
        -12    1    3    3    0    0 -0.14195982432E+02 -0.89339095958E+01 -0.78308547190E+01  0.18511157271E+02  0.00000000000E+00 0.  1.
</event>
<event>
 7    1  0.4673733E-013  0.5930197E+02  0.7816164E-02  0.1266605E+00
        -11   -1    0    0    0    0  0.00000000000E+00  0.00000000000E+00  0.45593999997E+02  0.45594000000E+02  0.51100000000E-03 0.  1.
         11   -1    0    0    0    0 -0.00000000000E+00 -0.00000000000E+00 -0.45593999997E+02  0.45594000000E+02  0.51100000000E-03 0. -1.
    9900012    2    1    2    0    0 -0.10506419483E+02 -0.27333258802E+02 -0.12618523957E+02  0.59301968043E+02  0.50000043799E+02 0.  0.
         12    1    1    2    0    0  0.10506419483E+02  0.27333258802E+02  0.12618523957E+02  0.31886031957E+02  0.00000000000E+00 0. -1.
         11    1    3    3    0    0  0.14670649899E+00  0.61026248331E+00 -0.78199307033E+01  0.78450786842E+01  0.51100000000E-03 0. -1.
        -11    1    3    3    0    0 -0.22792078702E+01 -0.33093764478E+02  0.91324777145E+01  0.34406310254E+02  0.51100000000E-03 0.  1.
        -12    1    3    3    0    0 -0.83739181123E+01  0.51502431930E+01 -0.13931070968E+02  0.17050579105E+02  0.00000000000E+00 0.  1.
</event>
<event>
 7    1  0.4673733E-013  0.5930197E+02  0.7816164E-02  0.1266605E+00
        -11   -1    0    0    0    0  0.00000000000E+00  0.00000000000E+00  0.45593999997E+02  0.45594000000E+02  0.51100000000E-03 0. -1.
         11   -1    0    0    0    0 -0.00000000000E+00 -0.00000000000E+00 -0.45593999997E+02  0.45594000000E+02  0.51100000000E-03 0.  1.
    9900012    2    1    2    0    0  0.20854012648E+02 -0.67562239399E+01 -0.23155615854E+02  0.59301969343E+02  0.50000046170E+02 0.  0.
         12    1    1    2    0    0 -0.20854012648E+02  0.67562239399E+01  0.23155615854E+02  0.31886030657E+02  0.00000000000E+00 0. -1.
         11    1    3    3    0    0  0.12091397664E+02 -0.94573266898E+01 -0.35419790567E+02  0.38603166835E+02  0.51100000000E-03 0.  1.
        -11    1    3    3    0    0  0.18064252870E+01 -0.45417180963E+01  0.88173603272E+01  0.10081479008E+02  0.51100000000E-03 0. -1.
        -12    1    3    3    0    0  0.69561896972E+01  0.72428208462E+01  0.34468143857E+01  0.10617323501E+02  0.00000000000E+00 0.  1.
</event>
<event>
 7    1  0.4673733E-013  0.5930195E+02  0.7816164E-02  0.1266605E+00
        -11   -1    0    0    0    0  0.00000000000E+00  0.00000000000E+00  0.45593999997E+02  0.45594000000E+02  0.51100000000E-03 0.  1.
         11   -1    0    0    0    0 -0.00000000000E+00 -0.00000000000E+00 -0.45593999997E+02  0.45594000000E+02  0.51100000000E-03 0. -1.
    9900012    2    1    2    0    0  0.18984791484E+02  0.25192462701E+02  0.46516202262E+01  0.59301952027E+02  0.50000014588E+02 0.  0.
         12    1    1    2    0    0 -0.18984791484E+02 -0.25192462701E+02 -0.46516202262E+01  0.31886047973E+02  0.00000000000E+00 0. -1.
         11    1    3    3    0    0 -0.35228670413E+01 -0.10545686605E+02 -0.67590565579E+00  0.11139072981E+02  0.51100000000E-03 0. -1.
        -11    1    3    3    0    0  0.14769098238E+02  0.35318308079E+02  0.93842417992E+01  0.39415392206E+02  0.51100000000E-03 0.  1.
        -12    1    3    3    0    0  0.77385602876E+01  0.41984122647E+00 -0.40567159172E+01  0.87474868398E+01  0.00000000000E+00 0.  1.
</event>
<event>
 7    1  0.4673733E-013  0.5930197E+02  0.7816164E-02  0.1266605E+00
        -11   -1    0    0    0    0  0.00000000000E+00  0.00000000000E+00  0.45593999997E+02  0.45594000000E+02  0.51100000000E-03 0.  1.
         11   -1    0    0    0    0 -0.00000000000E+00 -0.00000000000E+00 -0.45593999997E+02  0.45594000000E+02  0.51100000000E-03 0. -1.
    9900012    2    1    2    0    0  0.18629791153E+01 -0.12565041640E+02  0.29246668726E+02  0.59301974939E+02  0.50000056375E+02 0.  0.
         12    1    1    2    0    0 -0.18629791153E+01  0.12565041640E+02 -0.29246668726E+02  0.31886025061E+02  0.00000000000E+00 0. -1.
         11    1    3    3    0    0  0.33349809538E+01  0.91666419285E+01 -0.92910697732E+01  0.13471206331E+02  0.51100000000E-03 0. -1.
        -11    1    3    3    0    0 -0.58901673158E+01 -0.59303435969E+01  0.11803914847E+02  0.14463590569E+02  0.51100000000E-03 0.  1.
         12    1    3    3    0    0  0.44181654772E+01 -0.15801339971E+02  0.26733823653E+02  0.31367178040E+02  0.00000000000E+00 0. -1.
</event>
<event>
 7    1  0.4673733E-013  0.5930197E+02  0.7816164E-02  0.1266605E+00
        -11   -1    0    0    0    0  0.00000000000E+00  0.00000000000E+00  0.45593999997E+02  0.45594000000E+02  0.51100000000E-03 0.  1.
         11   -1    0    0    0    0 -0.00000000000E+00 -0.00000000000E+00 -0.45593999997E+02  0.45594000000E+02  0.51100000000E-03 0. -1.
    9900012    2    1    2    0    0  0.19683398827E+02  0.17809629148E+02  0.17666351815E+02  0.59301967537E+02  0.50000042875E+02 0.  0.
         12    1    1    2    0    0 -0.19683398827E+02 -0.17809629148E+02 -0.17666351815E+02  0.31886032463E+02  0.00000000000E+00 0. -1.
         11    1    3    3    0    0 -0.38352305784E+01 -0.74604348664E+01  0.31472765955E+00  0.83944109827E+01  0.51100000000E-03 0. -1.
        -11    1    3    3    0    0  0.23885599840E+02  0.13545092633E+01  0.93517674017E+01  0.25686808460E+02  0.51100000000E-03 0.  1.
         12    1    3    3    0    0 -0.36697043389E+00  0.23915554752E+02  0.79998567535E+01  0.25220748095E+02  0.00000000000E+00 0. -1.
</event>
<event>
 7    1  0.4673733E-013  0.5930194E+02  0.7816164E-02  0.1266605E+00
        -11   -1    0    0    0    0  0.00000000000E+00  0.00000000000E+00  0.45593999997E+02  0.45594000000E+02  0.51100000000E-03 0. -1.
         11   -1    0    0    0    0 -0.00000000000E+00 -0.00000000000E+00 -0.45593999997E+02  0.45594000000E+02  0.51100000000E-03 0.  1.
    9900012    2    1    2    0    0  0.75863970977E+01  0.27515976109E+02  0.14214022238E+02  0.59301940502E+02  0.49999993569E+02 0.  0.
         12    1    1    2    0    0 -0.75863970977E+01 -0.27515976109E+02 -0.14214022238E+02  0.31886059498E+02  0.00000000000E+00 0. -1.
         11    1    3    3    0    0 -0.14592423792E+02  0.25159503434E+02  0.14897981539E+02  0.32678575540E+02  0.51100000000E-03 0. -1.
        -11    1    3    3    0    0  0.20203466957E+02  0.29344469621E+01  0.46220691868E+01  0.20932142267E+02  0.51100000000E-03 0.  1.
         12    1    3    3    0    0  0.19753539325E+01 -0.57797428666E+00 -0.53060284887E+01  0.56912226944E+01  0.00000000000E+00 0. -1.
</event>
<event>
 7    1  0.4673733E-013  0.5930190E+02  0.7816164E-02  0.1266605E+00
        -11   -1    0    0    0    0  0.00000000000E+00  0.00000000000E+00  0.45593999997E+02  0.45594000000E+02  0.51100000000E-03 0.  1.
         11   -1    0    0    0    0 -0.00000000000E+00 -0.00000000000E+00 -0.45593999997E+02  0.45594000000E+02  0.51100000000E-03 0. -1.
    9900012    2    1    2    0    0 -0.22696979481E+02 -0.21340608901E+02 -0.67932940246E+01  0.59301900998E+02  0.49999921525E+02 0.  0.
         12    1    1    2    0    0  0.22696979481E+02  0.21340608901E+02  0.67932940246E+01  0.31886099002E+02  0.00000000000E+00 0. -1.
         11    1    3    3    0    0 -0.96884375722E+01 -0.35667044244E+02 -0.43444933634E+01  0.37213955589E+02  0.51100000000E-03 0. -1.
        -11    1    3    3    0    0 -0.10694534524E+02  0.49766505025E+01  0.10450405732E+01  0.11841968965E+02  0.51100000000E-03 0.  1.
         12    1    3    3    0    0 -0.23140073843E+01  0.93497848401E+01 -0.34938412344E+01  0.10245976445E+02  0.00000000000E+00 0. -1.
</event>
<event>
 7    1  0.4673733E-013  0.5930196E+02  0.7816164E-02  0.1266605E+00
        -11   -1    0    0    0    0  0.00000000000E+00  0.00000000000E+00  0.45593999997E+02  0.45594000000E+02  0.51100000000E-03 0. -1.
         11   -1    0    0    0    0 -0.00000000000E+00 -0.00000000000E+00 -0.45593999997E+02  0.45594000000E+02  0.51100000000E-03 0.  1.
    9900012    2    1    2    0    0 -0.30652825311E+02  0.79961160423E+01 -0.36312546622E+01  0.59301959454E+02  0.50000028134E+02 0.  0.
         12    1    1    2    0    0  0.30652825311E+02 -0.79961160423E+01  0.36312546622E+01  0.31886040546E+02  0.00000000000E+00 0. -1.
         11    1    3    3    0    0 -0.19886718990E+02  0.47149013448E+01  0.16470974595E+02  0.26248902667E+02  0.51100000000E-03 0. -1.
        -11    1    3    3    0    0  0.44312242061E+01  0.86069317486E+01 -0.10598969519E+02  0.14354552491E+02  0.51100000000E-03 0.  1.
         12    1    3    3    0    0 -0.15197330527E+02 -0.53257170511E+01 -0.95032597381E+01  0.18698504296E+02  0.00000000000E+00 0. -1.
</event>
<event>
 7    1  0.4673733E-013  0.5930195E+02  0.7816164E-02  0.1266605E+00
        -11   -1    0    0    0    0  0.00000000000E+00  0.00000000000E+00  0.45593999997E+02  0.45594000000E+02  0.51100000000E-03 0.  1.
         11   -1    0    0    0    0 -0.00000000000E+00 -0.00000000000E+00 -0.45593999997E+02  0.45594000000E+02  0.51100000000E-03 0. -1.
    9900012    2    1    2    0    0 -0.29986130231E+02 -0.88629832177E+01  0.62449872260E+01  0.59301947513E+02  0.50000006357E+02 0.  0.
         12    1    1    2    0    0  0.29986130231E+02  0.88629832177E+01 -0.62449872260E+01  0.31886052487E+02  0.00000000000E+00 0. -1.
         11    1    3    3    0    0  0.87692726629E+01 -0.69641344210E+01 -0.92507905084E+01  0.14525027937E+02  0.51100000000E-03 0. -1.
        -11    1    3    3    0    0 -0.20282483231E+02  0.25337550777E+01  0.15707633469E+02  0.25778455932E+02  0.51100000000E-03 0.  1.
         12    1    3    3    0    0 -0.18472919663E+02 -0.44326038744E+01 -0.21185573464E+00  0.18998463644E+02  0.00000000000E+00 0. -1.
</event>
<event>
 7    1  0.4673733E-013  0.5930202E+02  0.7816164E-02  0.1266605E+00
        -11   -1    0    0    0    0  0.00000000000E+00  0.00000000000E+00  0.45593999997E+02  0.45594000000E+02  0.51100000000E-03 0.  1.
         11   -1    0    0    0    0 -0.00000000000E+00 -0.00000000000E+00 -0.45593999997E+02  0.45594000000E+02  0.51100000000E-03 0. -1.
    9900012    2    1    2    0    0 -0.24714723481E+02  0.16422226231E+02  0.11670853886E+02  0.59302017162E+02  0.50000133379E+02 0.  0.
         12    1    1    2    0    0  0.24714723481E+02 -0.16422226231E+02 -0.11670853886E+02  0.31885982838E+02  0.00000000000E+00 0. -1.
         11    1    3    3    0    0  0.88498890894E+01  0.14016236086E+02 -0.60024511030E+01  0.17629657694E+02  0.51100000000E-03 0. -1.
        -11    1    3    3    0    0 -0.25817337936E+02  0.76937394124E+01  0.17805093547E+02  0.32291638557E+02  0.51100000000E-03 0.  1.
         12    1    3    3    0    0 -0.77472746346E+01 -0.52877492671E+01 -0.13178855785E+00  0.93807209104E+01  0.00000000000E+00 0. -1.
</event>
<event>
 7    1  0.4673733E-013  0.5930194E+02  0.7816164E-02  0.1266605E+00
        -11   -1    0    0    0    0  0.00000000000E+00  0.00000000000E+00  0.45593999997E+02  0.45594000000E+02  0.51100000000E-03 0.  1.
         11   -1    0    0    0    0 -0.00000000000E+00 -0.00000000000E+00 -0.45593999997E+02  0.45594000000E+02  0.51100000000E-03 0. -1.
    9900012    2    1    2    0    0  0.26900930940E+02 -0.16546970072E+02  0.43884796818E+01  0.59301936306E+02  0.49999985917E+02 0.  0.
         12    1    1    2    0    0 -0.26900930940E+02  0.16546970072E+02 -0.43884796818E+01  0.31886063694E+02  0.00000000000E+00 0. -1.
         11    1    3    3    0    0 -0.11588194295E+02 -0.13512724621E+02  0.30004249832E+01  0.18052216596E+02  0.51100000000E-03 0. -1.
        -11    1    3    3    0    0  0.13619438307E+02 -0.62698766404E+01  0.52269298360E+01  0.15878326381E+02  0.51100000000E-03 0.  1.
         12    1    3    3    0    0  0.24869686928E+02  0.32356311897E+01 -0.38388751374E+01  0.25371393328E+02  0.00000000000E+00 0. -1.
</event>
<event>
 7    1  0.4673733E-013  0.5930199E+02  0.7816164E-02  0.1266605E+00
        -11   -1    0    0    0    0  0.00000000000E+00  0.00000000000E+00  0.45593999997E+02  0.45594000000E+02  0.51100000000E-03 0.  1.
         11   -1    0    0    0    0 -0.00000000000E+00 -0.00000000000E+00 -0.45593999997E+02  0.45594000000E+02  0.51100000000E-03 0. -1.
    9900012    2    1    2    0    0 -0.12699380220E+02 -0.23423626966E+02 -0.17515054882E+02  0.59301988871E+02  0.50000081783E+02 0.  0.
         12    1    1    2    0    0  0.12699380220E+02  0.23423626966E+02  0.17515054882E+02  0.31886011129E+02  0.00000000000E+00 0. -1.
         11    1    3    3    0    0 -0.21850486221E+02 -0.16274374134E+02 -0.36424868950E+01  0.27487573785E+02  0.51100000000E-03 0. -1.
        -11    1    3    3    0    0  0.13521348187E+02 -0.48626653274E+01  0.26147747429E+01  0.14605116161E+02  0.51100000000E-03 0.  1.
         12    1    3    3    0    0 -0.43702421861E+01 -0.22865875048E+01 -0.16487342730E+02  0.17209298925E+02  0.00000000000E+00 0. -1.
</event>
<event>
 7    1  0.4673733E-013  0.5930198E+02  0.7816164E-02  0.1266605E+00
        -11   -1    0    0    0    0  0.00000000000E+00  0.00000000000E+00  0.45593999997E+02  0.45594000000E+02  0.51100000000E-03 0. -1.
         11   -1    0    0    0    0 -0.00000000000E+00 -0.00000000000E+00 -0.45593999997E+02  0.45594000000E+02  0.51100000000E-03 0.  1.
    9900012    2    1    2    0    0 -0.18986891117E+02 -0.25744090296E+01 -0.25487033688E+02  0.59301976379E+02  0.50000059001E+02 0.  0.
         12    1    1    2    0    0  0.18986891117E+02  0.25744090296E+01  0.25487033688E+02  0.31886023621E+02  0.00000000000E+00 0. -1.
         11    1    3    3    0    0  0.11827237129E+02 -0.74186128699E+01 -0.11986374531E+02  0.18400883937E+02  0.51100000000E-03 0. -1.
        -11    1    3    3    0    0 -0.22241037947E+02 -0.73568692319E+01 -0.10586097032E+02  0.25707056317E+02  0.51100000000E-03 0.  1.
        -12    1    3    3    0    0 -0.85730902987E+01  0.12201073072E+02 -0.29145621261E+01  0.15194036125E+02  0.00000000000E+00 0.  1.
</event>
<event>
 7    1  0.4673733E-013  0.5930196E+02  0.7816164E-02  0.1266605E+00
        -11   -1    0    0    0    0  0.00000000000E+00  0.00000000000E+00  0.45593999997E+02  0.45594000000E+02  0.51100000000E-03 0.  1.
         11   -1    0    0    0    0 -0.00000000000E+00 -0.00000000000E+00 -0.45593999997E+02  0.45594000000E+02  0.51100000000E-03 0. -1.
    9900012    2    1    2    0    0 -0.25459202354E+02  0.18993987637E+02  0.27887730191E+01  0.59301955940E+02  0.50000021725E+02 0.  0.
         12    1    1    2    0    0  0.25459202354E+02 -0.18993987637E+02 -0.27887730191E+01  0.31886044060E+02  0.00000000000E+00 0. -1.
         11    1    3    3    0    0 -0.81137476855E+01 -0.39921227069E+01 -0.15590367640E+01  0.91760852820E+01  0.51100000000E-03 0. -1.
        -11    1    3    3    0    0 -0.22976806893E+02  0.28770638767E+02  0.12274741197E+02  0.38811758293E+02  0.51100000000E-03 0.  1.
        -12    1    3    3    0    0  0.56313522252E+01 -0.57845284230E+01 -0.79269314140E+01  0.11314112365E+02  0.00000000000E+00 0.  1.
</event>
<event>
 7    1  0.4673733E-013  0.5930194E+02  0.7816164E-02  0.1266605E+00
        -11   -1    0    0    0    0  0.00000000000E+00  0.00000000000E+00  0.45593999997E+02  0.45594000000E+02  0.51100000000E-03 0. -1.
         11   -1    0    0    0    0 -0.00000000000E+00 -0.00000000000E+00 -0.45593999997E+02  0.45594000000E+02  0.51100000000E-03 0.  1.
    9900012    2    1    2    0    0 -0.29413540841E+02  0.37811749598E+01  0.11716097940E+02  0.59301943176E+02  0.49999998446E+02 0.  0.
         12    1    1    2    0    0  0.29413540841E+02 -0.37811749598E+01 -0.11716097940E+02  0.31886056824E+02  0.00000000000E+00 0. -1.
         11    1    3    3    0    0 -0.71914283702E+01 -0.50033624474E+01  0.68783420350E+01  0.11138306298E+02  0.51100000000E-03 0. -1.
        -11    1    3    3    0    0  0.63835386449E+01  0.98993583878E+01 -0.10417845906E+02  0.15725087462E+02  0.51100000000E-03 0.  1.
        -12    1    3    3    0    0 -0.28605651116E+02 -0.11148209806E+01  0.15255601810E+02  0.32438549415E+02  0.00000000000E+00 0.  1.
</event>
<event>
 7    1  0.4673733E-013  0.5930192E+02  0.7816164E-02  0.1266605E+00
        -11   -1    0    0    0    0  0.00000000000E+00  0.00000000000E+00  0.45593999997E+02  0.45594000000E+02  0.51100000000E-03 0.  1.
         11   -1    0    0    0    0 -0.00000000000E+00 -0.00000000000E+00 -0.45593999997E+02  0.45594000000E+02  0.51100000000E-03 0. -1.
    9900012    2    1    2    0    0 -0.24163392187E+02  0.19617980423E+02  0.69273004911E+01  0.59301918868E+02  0.49999954114E+02 0.  0.
         12    1    1    2    0    0  0.24163392187E+02 -0.19617980423E+02 -0.69273004911E+01  0.31886081132E+02  0.00000000000E+00 0. -1.
         11    1    3    3    0    0 -0.73641080014E+01 -0.14905959872E+02 -0.11945658600E+01  0.16668674639E+02  0.51100000000E-03 0. -1.
        -11    1    3    3    0    0 -0.68213839671E+01  0.22167620282E+02  0.12241413261E+02  0.26225690975E+02  0.51100000000E-03 0.  1.
         12    1    3    3    0    0 -0.99779002188E+01  0.12356320013E+02 -0.41195469102E+01  0.16407553254E+02  0.00000000000E+00 0. -1.
</event>
<event>
 7    1  0.4673733E-013  0.5930194E+02  0.7816164E-02  0.1266605E+00
        -11   -1    0    0    0    0  0.00000000000E+00  0.00000000000E+00  0.45593999997E+02  0.45594000000E+02  0.51100000000E-03 0.  1.
         11   -1    0    0    0    0 -0.00000000000E+00 -0.00000000000E+00 -0.45593999997E+02  0.45594000000E+02  0.51100000000E-03 0. -1.
    9900012    2    1    2    0    0 -0.42264310609E+01  0.12922448232E+02  0.28842129253E+02  0.59301940230E+02  0.49999993074E+02 0.  0.
         12    1    1    2    0    0  0.42264310609E+01 -0.12922448232E+02 -0.28842129253E+02  0.31886059770E+02  0.00000000000E+00 0. -1.
         11    1    3    3    0    0  0.13727449659E+02 -0.55014106764E+01  0.17354992898E+02  0.22801407244E+02  0.51100000000E-03 0. -1.
        -11    1    3    3    0    0 -0.22180654671E+02  0.13026078014E+02  0.13893044830E+02  0.29234856678E+02  0.51100000000E-03 0.  1.
         12    1    3    3    0    0  0.42267739516E+01  0.53977808944E+01 -0.24059084752E+01  0.72656763080E+01  0.00000000000E+00 0. -1.
</event>
<event>
 7    1  0.4673733E-013  0.5930190E+02  0.7816164E-02  0.1266605E+00
        -11   -1    0    0    0    0  0.00000000000E+00  0.00000000000E+00  0.45593999997E+02  0.45594000000E+02  0.51100000000E-03 0.  1.
         11   -1    0    0    0    0 -0.00000000000E+00 -0.00000000000E+00 -0.45593999997E+02  0.45594000000E+02  0.51100000000E-03 0. -1.
    9900012    2    1    2    0    0  0.18751356533E+02  0.21414853632E+02  0.14370597794E+02  0.59301899441E+02  0.49999918684E+02 0.  0.
         12    1    1    2    0    0 -0.18751356533E+02 -0.21414853632E+02 -0.14370597794E+02  0.31886100559E+02  0.00000000000E+00 0. -1.
         11    1    3    3    0    0 -0.23860895731E+01  0.26015066743E+02 -0.47452998738E+01  0.26551741793E+02  0.51100000000E-03 0. -1.
        -11    1    3    3    0    0 -0.22486783649E+00 -0.51645766715E+01  0.45674437020E+01  0.68981852666E+01  0.51100000000E-03 0.  1.
         12    1    3    3    0    0  0.21362313942E+02  0.56436356056E+00  0.14548453966E+02  0.25851972381E+02  0.00000000000E+00 0. -1.
</event>
<event>
 7    1  0.4673733E-013  0.5930194E+02  0.7816164E-02  0.1266605E+00
        -11   -1    0    0    0    0  0.00000000000E+00  0.00000000000E+00  0.45593999997E+02  0.45594000000E+02  0.51100000000E-03 0.  1.
         11   -1    0    0    0    0 -0.00000000000E+00 -0.00000000000E+00 -0.45593999997E+02  0.45594000000E+02  0.51100000000E-03 0. -1.
    9900012    2    1    2    0    0 -0.28102035448E+02 -0.14654051639E+02  0.35007301541E+01  0.59301941332E+02  0.49999995084E+02 0.  0.
         12    1    1    2    0    0  0.28102035448E+02  0.14654051639E+02 -0.35007301541E+01  0.31886058668E+02  0.00000000000E+00 0. -1.
         11    1    3    3    0    0 -0.21856109733E+02 -0.26173410056E+02  0.31240772835E+01  0.34241740401E+02  0.51100000000E-03 0. -1.
        -11    1    3    3    0    0 -0.23048064338E+01  0.20557802082E+01 -0.10004571206E+02  0.10470425504E+02  0.51100000000E-03 0.  1.
         12    1    3    3    0    0 -0.39411192811E+01  0.94635782087E+01  0.10381224076E+02  0.14589775427E+02  0.00000000000E+00 0. -1.
</event>
<event>
 7    1  0.4673733E-013  0.5930194E+02  0.7816164E-02  0.1266605E+00
        -11   -1    0    0    0    0  0.00000000000E+00  0.00000000000E+00  0.45593999997E+02  0.45594000000E+02  0.51100000000E-03 0.  1.
         11   -1    0    0    0    0 -0.00000000000E+00 -0.00000000000E+00 -0.45593999997E+02  0.45594000000E+02  0.51100000000E-03 0. -1.
    9900012    2    1    2    0    0 -0.29732190021E+02 -0.11518830654E+02  0.18437016372E+00  0.59301943872E+02  0.49999999715E+02 0.  0.
         12    1    1    2    0    0  0.29732190021E+02  0.11518830654E+02 -0.18437016372E+00  0.31886056128E+02  0.00000000000E+00 0. -1.
         11    1    3    3    0    0 -0.65494966526E+01  0.17203139154E+02  0.40658933182E+01  0.18851402915E+02  0.51100000000E-03 0. -1.
        -11    1    3    3    0    0 -0.25086486937E+02 -0.28184558301E+02 -0.21032145523E+01  0.37790536715E+02  0.51100000000E-03 0.  1.
         12    1    3    3    0    0  0.19037935690E+01 -0.53741150614E+00 -0.17783086022E+01  0.26600042415E+01  0.00000000000E+00 0. -1.
</event>
<event>
 7    1  0.4673733E-013  0.5930202E+02  0.7816164E-02  0.1266604E+00
        -11   -1    0    0    0    0  0.00000000000E+00  0.00000000000E+00  0.45593999997E+02  0.45594000000E+02  0.51100000000E-03 0.  1.
         11   -1    0    0    0    0 -0.00000000000E+00 -0.00000000000E+00 -0.45593999997E+02  0.45594000000E+02  0.51100000000E-03 0. -1.
    9900012    2    1    2    0    0  0.69546497181E+01  0.55158914243E+01  0.30625534175E+02  0.59302022606E+02  0.50000143307E+02 0.  0.
         12    1    1    2    0    0 -0.69546497181E+01 -0.55158914243E+01 -0.30625534175E+02  0.31885977394E+02  0.00000000000E+00 0. -1.
         11    1    3    3    0    0 -0.89808684532E+01  0.37349141404E+01 -0.46193293868E+01  0.10767719631E+02  0.51100000000E-03 0. -1.
        -11    1    3    3    0    0  0.98342619178E+01 -0.13615586719E+02  0.18345980009E+02  0.24873115846E+02  0.51100000000E-03 0.  1.
        -12    1    3    3    0    0  0.61012562535E+01  0.15396564003E+02  0.16898883553E+02  0.23661187128E+02  0.00000000000E+00 0.  1.
</event>
<event>
 7    1  0.4673733E-013  0.5930193E+02  0.7816164E-02  0.1266605E+00
        -11   -1    0    0    0    0  0.00000000000E+00  0.00000000000E+00  0.45593999997E+02  0.45594000000E+02  0.51100000000E-03 0. -1.
         11   -1    0    0    0    0 -0.00000000000E+00 -0.00000000000E+00 -0.45593999997E+02  0.45594000000E+02  0.51100000000E-03 0.  1.
    9900012    2    1    2    0    0 -0.15405308249E+02  0.25825847017E+02 -0.10602994233E+02  0.59301931207E+02  0.49999976618E+02 0.  0.
         12    1    1    2    0    0  0.15405308249E+02 -0.25825847017E+02  0.10602994233E+02  0.31886068793E+02  0.00000000000E+00 0. -1.
         11    1    3    3    0    0 -0.17212997875E+02  0.17260037057E+02  0.69714841597E+01  0.25353456702E+02  0.51100000000E-03 0. -1.
        -11    1    3    3    0    0 -0.13979253605E+00  0.20641667345E+01 -0.24303311476E+02  0.24391213074E+02  0.51100000000E-03 0.  1.
        -12    1    3    3    0    0  0.19474821628E+01  0.65016432250E+01  0.67288330834E+01  0.95572614311E+01  0.00000000000E+00 0.  1.
</event>
<event>
 7    1  0.4673733E-013  0.5930195E+02  0.7816164E-02  0.1266605E+00
        -11   -1    0    0    0    0  0.00000000000E+00  0.00000000000E+00  0.45593999997E+02  0.45594000000E+02  0.51100000000E-03 0.  1.
         11   -1    0    0    0    0 -0.00000000000E+00 -0.00000000000E+00 -0.45593999997E+02  0.45594000000E+02  0.51100000000E-03 0. -1.
    9900012    2    1    2    0    0 -0.10538680375E+02 -0.20589444248E+02  0.21948371909E+02  0.59301952456E+02  0.50000015372E+02 0.  0.
         12    1    1    2    0    0  0.10538680375E+02  0.20589444248E+02 -0.21948371909E+02  0.31886047544E+02  0.00000000000E+00 0. -1.
         11    1    3    3    0    0  0.12212102900E+02  0.38822188722E+01  0.99861370095E+01  0.16245922973E+02  0.51100000000E-03 0. -1.
        -11    1    3    3    0    0 -0.22487736911E+02 -0.27143106467E+02  0.15590819586E+02  0.38542446675E+02  0.51100000000E-03 0.  1.
         12    1    3    3    0    0 -0.26304636368E+00  0.26714433472E+01 -0.36285846856E+01  0.45135828083E+01  0.00000000000E+00 0. -1.
</event>
<event>
 7    1  0.4673733E-013  0.5930194E+02  0.7816164E-02  0.1266605E+00
        -11   -1    0    0    0    0  0.00000000000E+00  0.00000000000E+00  0.45593999997E+02  0.45594000000E+02  0.51100000000E-03 0.  1.
         11   -1    0    0    0    0 -0.00000000000E+00 -0.00000000000E+00 -0.45593999997E+02  0.45594000000E+02  0.51100000000E-03 0. -1.
    9900012    2    1    2    0    0  0.43260850650E+01 -0.25826311117E+02 -0.18193614092E+02  0.59301937972E+02  0.49999988956E+02 0.  0.
         12    1    1    2    0    0 -0.43260850650E+01  0.25826311117E+02  0.18193614092E+02  0.31886062028E+02  0.00000000000E+00 0. -1.
         11    1    3    3    0    0 -0.69453488567E+01 -0.26189922848E+02 -0.29936313194E+01  0.27260076270E+02  0.51100000000E-03 0. -1.
        -11    1    3    3    0    0  0.17233630472E+02 -0.10965745331E+01 -0.18737614520E+01  0.17369843902E+02  0.51100000000E-03 0.  1.
         12    1    3    3    0    0 -0.59621965501E+01  0.14601862638E+01 -0.13326221321E+02  0.14672017800E+02  0.00000000000E+00 0. -1.
</event>
<event>
 7    1  0.4673733E-013  0.5930195E+02  0.7816164E-02  0.1266605E+00
        -11   -1    0    0    0    0  0.00000000000E+00  0.00000000000E+00  0.45593999997E+02  0.45594000000E+02  0.51100000000E-03 0. -1.
         11   -1    0    0    0    0 -0.00000000000E+00 -0.00000000000E+00 -0.45593999997E+02  0.45594000000E+02  0.51100000000E-03 0.  1.
    9900012    2    1    2    0    0 -0.94470312926E+01 -0.46451719686E+01 -0.30098105160E+02  0.59301953568E+02  0.50000017398E+02 0.  0.
         12    1    1    2    0    0  0.94470312926E+01  0.46451719686E+01  0.30098105160E+02  0.31886046432E+02  0.00000000000E+00 0. -1.
         11    1    3    3    0    0  0.40998166414E+01  0.20048539879E+02 -0.18623746078E+02  0.27669412101E+02  0.51100000000E-03 0. -1.
        -11    1    3    3    0    0 -0.14562052911E+02 -0.20980536213E+02 -0.10780604303E+02  0.27721069860E+02  0.51100000000E-03 0.  1.
         12    1    3    3    0    0  0.10152049774E+01 -0.37131756344E+01 -0.69375477936E+00  0.39114716070E+01  0.00000000000E+00 0. -1.
</event>
<event>
 7    1  0.4673733E-013  0.5930194E+02  0.7816164E-02  0.1266605E+00
        -11   -1    0    0    0    0  0.00000000000E+00  0.00000000000E+00  0.45593999997E+02  0.45594000000E+02  0.51100000000E-03 0.  1.
         11   -1    0    0    0    0 -0.00000000000E+00 -0.00000000000E+00 -0.45593999997E+02  0.45594000000E+02  0.51100000000E-03 0. -1.
    9900012    2    1    2    0    0 -0.74460959932E+01  0.12042414878E+02  0.28570208413E+02  0.59301938618E+02  0.49999990135E+02 0.  0.
         12    1    1    2    0    0  0.74460959932E+01 -0.12042414878E+02 -0.28570208413E+02  0.31886061382E+02  0.00000000000E+00 0. -1.
         11    1    3    3    0    0  0.11077267561E+02 -0.41828469796E+00  0.22347487648E+01  0.11308179385E+02  0.51100000000E-03 0. -1.
        -11    1    3    3    0    0 -0.96735877150E+01  0.23828008535E+02  0.16844157904E+02  0.30742120060E+02  0.51100000000E-03 0.  1.
         12    1    3    3    0    0 -0.88497758390E+01 -0.11367308959E+02  0.94913017449E+01  0.17251639174E+02  0.00000000000E+00 0. -1.
</event>
<event>
 7    1  0.4673733E-013  0.5930194E+02  0.7816164E-02  0.1266605E+00
        -11   -1    0    0    0    0  0.00000000000E+00  0.00000000000E+00  0.45593999997E+02  0.45594000000E+02  0.51100000000E-03 0. -1.
         11   -1    0    0    0    0 -0.00000000000E+00 -0.00000000000E+00 -0.45593999997E+02  0.45594000000E+02  0.51100000000E-03 0.  1.
    9900012    2    1    2    0    0 -0.13941087076E+02  0.70563811857E+01 -0.27795217264E+02  0.59301944630E+02  0.50000001098E+02 0.  0.
         12    1    1    2    0    0  0.13941087076E+02 -0.70563811857E+01  0.27795217264E+02  0.31886055370E+02  0.00000000000E+00 0. -1.
         11    1    3    3    0    0 -0.26930360979E+02 -0.42120222325E+01 -0.18344176766E+02  0.32855658496E+02  0.51100000000E-03 0. -1.
        -11    1    3    3    0    0  0.42408080651E+01 -0.12296911120E+01 -0.10259289737E+02  0.11169136916E+02  0.51100000000E-03 0.  1.
         12    1    3    3    0    0  0.87484658372E+01  0.12498094530E+02  0.80824923881E+00  0.15277149218E+02  0.00000000000E+00 0. -1.
</event>
<event>
 7    1  0.4673733E-013  0.5930194E+02  0.7816164E-02  0.1266605E+00
        -11   -1    0    0    0    0  0.00000000000E+00  0.00000000000E+00  0.45593999997E+02  0.45594000000E+02  0.51100000000E-03 0.  1.
         11   -1    0    0    0    0 -0.00000000000E+00 -0.00000000000E+00 -0.45593999997E+02  0.45594000000E+02  0.51100000000E-03 0. -1.
    9900012    2    1    2    0    0  0.11525354447E+02 -0.28634533746E+02  0.79968974327E+01  0.59301942130E+02  0.49999996538E+02 0.  0.
         12    1    1    2    0    0 -0.11525354447E+02  0.28634533746E+02 -0.79968974327E+01  0.31886057870E+02  0.00000000000E+00 0. -1.
         11    1    3    3    0    0 -0.42414390653E+01  0.86381451919E+01 -0.37104339589E+01  0.10313810068E+02  0.51100000000E-03 0. -1.
        -11    1    3    3    0    0  0.10662536214E+02 -0.36253281281E+02  0.18416948371E+01  0.37833608370E+02  0.51100000000E-03 0.  1.
        -12    1    3    3    0    0  0.51042572986E+01 -0.10193976564E+01  0.98656365544E+01  0.11154523691E+02  0.00000000000E+00 0.  1.
</event>
<event>
 7    1  0.4673733E-013  0.5930196E+02  0.7816164E-02  0.1266605E+00
        -11   -1    0    0    0    0  0.00000000000E+00  0.00000000000E+00  0.45593999997E+02  0.45594000000E+02  0.51100000000E-03 0.  1.
         11   -1    0    0    0    0 -0.00000000000E+00 -0.00000000000E+00 -0.45593999997E+02  0.45594000000E+02  0.51100000000E-03 0. -1.
    9900012    2    1    2    0    0  0.16446082244E+02 -0.15217781255E+02  0.22686233062E+02  0.59301958257E+02  0.50000025950E+02 0.  0.
         12    1    1    2    0    0 -0.16446082244E+02  0.15217781255E+02 -0.22686233062E+02  0.31886041743E+02  0.00000000000E+00 0. -1.
         11    1    3    3    0    0  0.26973753548E+01  0.15257870698E+01 -0.40212802687E+01  0.50768647065E+01  0.51100000000E-03 0. -1.
        -11    1    3    3    0    0 -0.46417735205E+01 -0.23512380347E+02  0.41135120171E+01  0.24316641881E+02  0.51100000000E-03 0.  1.
        -12    1    3    3    0    0  0.18390480410E+02  0.67688120217E+01  0.22594001314E+02  0.29908451669E+02  0.00000000000E+00 0.  1.
</event>
<event>
 7    1  0.4673733E-013  0.5930194E+02  0.7816164E-02  0.1266605E+00
        -11   -1    0    0    0    0  0.00000000000E+00  0.00000000000E+00  0.45593999997E+02  0.45594000000E+02  0.51100000000E-03 0. -1.
         11   -1    0    0    0    0 -0.00000000000E+00 -0.00000000000E+00 -0.45593999997E+02  0.45594000000E+02  0.51100000000E-03 0.  1.
    9900012    2    1    2    0    0 -0.15639826939E+02 -0.20927630745E+02  0.18279788514E+02  0.59301943747E+02  0.49999999487E+02 0.  0.
         12    1    1    2    0    0  0.15639826939E+02  0.20927630745E+02 -0.18279788514E+02  0.31886056253E+02  0.00000000000E+00 0. -1.
         11    1    3    3    0    0  0.21265256502E+01  0.26164724470E+01 -0.53438868704E+01  0.63186364472E+01  0.51100000000E-03 0. -1.
        -11    1    3    3    0    0  0.34464381107E+01 -0.25052109039E+02  0.77598691921E+01  0.26451874661E+02  0.51100000000E-03 0.  1.
        -12    1    3    3    0    0 -0.21212790700E+02  0.15080058476E+01  0.15863806193E+02  0.26531432638E+02  0.00000000000E+00 0.  1.
</event>
<event>
 7    1  0.4673733E-013  0.5930190E+02  0.7816164E-02  0.1266605E+00
        -11   -1    0    0    0    0  0.00000000000E+00  0.00000000000E+00  0.45593999997E+02  0.45594000000E+02  0.51100000000E-03 0.  1.
         11   -1    0    0    0    0 -0.00000000000E+00 -0.00000000000E+00 -0.45593999997E+02  0.45594000000E+02  0.51100000000E-03 0. -1.
    9900012    2    1    2    0    0  0.11494956074E+02  0.53956073881E+01  0.29248530605E+02  0.59301903708E+02  0.49999926466E+02 0.  0.
         12    1    1    2    0    0 -0.11494956074E+02 -0.53956073881E+01 -0.29248530605E+02  0.31886096292E+02  0.00000000000E+00 0. -1.
         11    1    3    3    0    0  0.13658467016E+02 -0.13857719714E+01 -0.15581791008E+01  0.13816729264E+02  0.51100000000E-03 0. -1.
        -11    1    3    3    0    0 -0.24748494497E+01  0.25892551364E+01  0.37451477793E+02  0.37622364507E+02  0.51100000000E-03 0.  1.
        -12    1    3    3    0    0  0.31133850831E+00  0.41921242231E+01 -0.66447680874E+01  0.78628099369E+01  0.00000000000E+00 0.  1.
</event>
<event>
 7    1  0.4673733E-013  0.5930195E+02  0.7816164E-02  0.1266605E+00
        -11   -1    0    0    0    0  0.00000000000E+00  0.00000000000E+00  0.45593999997E+02  0.45594000000E+02  0.51100000000E-03 0. -1.
         11   -1    0    0    0    0 -0.00000000000E+00 -0.00000000000E+00 -0.45593999997E+02  0.45594000000E+02  0.51100000000E-03 0.  1.
    9900012    2    1    2    0    0 -0.71983447105E+01 -0.25490408681E+02 -0.17752269532E+02  0.59301950153E+02  0.50000011171E+02 0.  0.
         12    1    1    2    0    0  0.71983447105E+01  0.25490408681E+02  0.17752269532E+02  0.31886049847E+02  0.00000000000E+00 0. -1.
         11    1    3    3    0    0 -0.10094631815E+02  0.44942740739E+01 -0.19989543965E+02  0.22840358122E+02  0.51100000000E-03 0. -1.
        -11    1    3    3    0    0 -0.13489401136E+01 -0.22239177075E+02 -0.73163474627E+01  0.23450577325E+02  0.51100000000E-03 0.  1.
         12    1    3    3    0    0  0.42452272185E+01 -0.77455056797E+01  0.95536218951E+01  0.13011014706E+02  0.00000000000E+00 0. -1.
</event>
<event>
 7    1  0.4673733E-013  0.5930195E+02  0.7816164E-02  0.1266605E+00
        -11   -1    0    0    0    0  0.00000000000E+00  0.00000000000E+00  0.45593999997E+02  0.45594000000E+02  0.51100000000E-03 0. -1.
         11   -1    0    0    0    0 -0.00000000000E+00 -0.00000000000E+00 -0.45593999997E+02  0.45594000000E+02  0.51100000000E-03 0.  1.
    9900012    2    1    2    0    0  0.18055377244E+02 -0.13309710136E+02 -0.22662193602E+02  0.59301952108E+02  0.50000014737E+02 0.  0.
         12    1    1    2    0    0 -0.18055377244E+02  0.13309710136E+02  0.22662193602E+02  0.31886047892E+02  0.00000000000E+00 0. -1.
         11    1    3    3    0    0  0.69231277714E+00  0.86657736470E+01 -0.53198698775E+01  0.10191954948E+02  0.51100000000E-03 0. -1.
        -11    1    3    3    0    0 -0.96212179942E+01 -0.14440451910E+02 -0.10458311327E+02  0.20260078063E+02  0.51100000000E-03 0.  1.
        -12    1    3    3    0    0  0.26984282461E+02 -0.75350318736E+01 -0.68840123975E+01  0.28849919098E+02  0.00000000000E+00 0.  1.
</event>
<event>
 7    1  0.4673733E-013  0.5930194E+02  0.7816164E-02  0.1266605E+00
        -11   -1    0    0    0    0  0.00000000000E+00  0.00000000000E+00  0.45593999997E+02  0.45594000000E+02  0.51100000000E-03 0.  1.
         11   -1    0    0    0    0 -0.00000000000E+00 -0.00000000000E+00 -0.45593999997E+02  0.45594000000E+02  0.51100000000E-03 0. -1.
    9900012    2    1    2    0    0 -0.14564018615E+02  0.25205916989E+02  0.13010454846E+02  0.59301939962E+02  0.49999992585E+02 0.  0.
         12    1    1    2    0    0  0.14564018615E+02 -0.25205916989E+02 -0.13010454846E+02  0.31886060038E+02  0.00000000000E+00 0. -1.
         11    1    3    3    0    0  0.43949634212E+01  0.14837526656E+01  0.89287641261E+01  0.10061811692E+02  0.51100000000E-03 0. -1.
        -11    1    3    3    0    0 -0.16517105909E+02 -0.54664890980E+01 -0.57811709759E+01  0.18333554723E+02  0.51100000000E-03 0.  1.
        -12    1    3    3    0    0 -0.24418761276E+01  0.29188653421E+02  0.98628616956E+01  0.30906573547E+02  0.00000000000E+00 0.  1.
</event>
<event>
 7    1  0.4673733E-013  0.5930195E+02  0.7816164E-02  0.1266605E+00
        -11   -1    0    0    0    0  0.00000000000E+00  0.00000000000E+00  0.45593999997E+02  0.45594000000E+02  0.51100000000E-03 0.  1.
         11   -1    0    0    0    0 -0.00000000000E+00 -0.00000000000E+00 -0.45593999997E+02  0.45594000000E+02  0.51100000000E-03 0. -1.
    9900012    2    1    2    0    0  0.41187532437E+01  0.12091932176E+02  0.29215431183E+02  0.59301947074E+02  0.50000005555E+02 0.  0.
         12    1    1    2    0    0 -0.41187532437E+01 -0.12091932176E+02 -0.29215431183E+02  0.31886052926E+02  0.00000000000E+00 0. -1.
         11    1    3    3    0    0 -0.78784842132E+01  0.10601132056E+02 -0.65075570089E+01  0.14724225373E+02  0.51100000000E-03 0. -1.
        -11    1    3    3    0    0  0.11800964386E+02  0.10753929588E+02  0.29088510447E+02  0.33182091590E+02  0.51100000000E-03 0.  1.
        -12    1    3    3    0    0  0.19627307099E+00 -0.92631294684E+01  0.66344777447E+01  0.11395630110E+02  0.00000000000E+00 0.  1.
</event>
<event>
 7    1  0.4673733E-013  0.5930196E+02  0.7816164E-02  0.1266605E+00
        -11   -1    0    0    0    0  0.00000000000E+00  0.00000000000E+00  0.45593999997E+02  0.45594000000E+02  0.51100000000E-03 0.  1.
         11   -1    0    0    0    0 -0.00000000000E+00 -0.00000000000E+00 -0.45593999997E+02  0.45594000000E+02  0.51100000000E-03 0. -1.
    9900012    2    1    2    0    0 -0.21676974071E+02 -0.14943950079E+02  0.17986283755E+02  0.59301964622E+02  0.50000037558E+02 0.  0.
         12    1    1    2    0    0  0.21676974071E+02  0.14943950079E+02 -0.17986283755E+02  0.31886035378E+02  0.00000000000E+00 0. -1.
         11    1    3    3    0    0 -0.54795716404E+01 -0.17529937294E+02 -0.12729185524E+02  0.22346287639E+02  0.51100000000E-03 0. -1.
        -11    1    3    3    0    0 -0.11833956137E+02 -0.25445032045E+01  0.11913357973E+02  0.16983671949E+02  0.51100000000E-03 0.  1.
         12    1    3    3    0    0 -0.43634462938E+01  0.51304904197E+01  0.18802111306E+02  0.19972005034E+02  0.00000000000E+00 0. -1.
</event>
<event>
 7    1  0.4673733E-013  0.5930192E+02  0.7816164E-02  0.1266605E+00
        -11   -1    0    0    0    0  0.00000000000E+00  0.00000000000E+00  0.45593999997E+02  0.45594000000E+02  0.51100000000E-03 0.  1.
         11   -1    0    0    0    0 -0.00000000000E+00 -0.00000000000E+00 -0.45593999997E+02  0.45594000000E+02  0.51100000000E-03 0. -1.
    9900012    2    1    2    0    0  0.20327302099E+02 -0.19448274175E+02  0.15009573690E+02  0.59301923393E+02  0.49999962368E+02 0.  0.
         12    1    1    2    0    0 -0.20327302099E+02  0.19448274175E+02 -0.15009573690E+02  0.31886076607E+02  0.00000000000E+00 0. -1.
         11    1    3    3    0    0 -0.58387976984E+00 -0.11248886842E+01  0.13028368967E+02  0.13089869684E+02  0.51100000000E-03 0. -1.
        -11    1    3    3    0    0  0.11440779792E+02 -0.29256062543E+02 -0.10610124506E+01  0.31431423535E+02  0.51100000000E-03 0.  1.
        -12    1    3    3    0    0  0.94704020766E+01  0.10932677052E+02  0.30422171742E+01  0.14780630175E+02  0.00000000000E+00 0.  1.
</event>
<event>
 7    1  0.4673733E-013  0.5930193E+02  0.7816164E-02  0.1266605E+00
        -11   -1    0    0    0    0  0.00000000000E+00  0.00000000000E+00  0.45593999997E+02  0.45594000000E+02  0.51100000000E-03 0.  1.
         11   -1    0    0    0    0 -0.00000000000E+00 -0.00000000000E+00 -0.45593999997E+02  0.45594000000E+02  0.51100000000E-03 0. -1.
    9900012    2    1    2    0    0  0.53649395384E+01  0.63905072114E+01  0.30774993713E+02  0.59301930993E+02  0.49999976227E+02 0.  0.
         12    1    1    2    0    0 -0.53649395384E+01 -0.63905072114E+01 -0.30774993713E+02  0.31886069007E+02  0.00000000000E+00 0. -1.
         11    1    3    3    0    0  0.18472035914E+01  0.66389246238E+01 -0.92506104188E+01  0.11535218882E+02  0.51100000000E-03 0. -1.
        -11    1    3    3    0    0  0.98621587126E+01  0.61185490559E+01  0.36169868792E+02  0.37986289970E+02  0.51100000000E-03 0.  1.
        -12    1    3    3    0    0 -0.63444227655E+01 -0.63669664684E+01  0.38557353403E+01  0.97804221407E+01  0.00000000000E+00 0.  1.
</event>
<event>
 7    1  0.4673733E-013  0.5930193E+02  0.7816164E-02  0.1266605E+00
        -11   -1    0    0    0    0  0.00000000000E+00  0.00000000000E+00  0.45593999997E+02  0.45594000000E+02  0.51100000000E-03 0. -1.
         11   -1    0    0    0    0 -0.00000000000E+00 -0.00000000000E+00 -0.45593999997E+02  0.45594000000E+02  0.51100000000E-03 0.  1.
    9900012    2    1    2    0    0 -0.16587906945E+02  0.20788420962E+02 -0.17589891089E+02  0.59301931390E+02  0.49999976952E+02 0.  0.
         12    1    1    2    0    0  0.16587906945E+02 -0.20788420962E+02  0.17589891089E+02  0.31886068610E+02  0.00000000000E+00 0. -1.
         11    1    3    3    0    0 -0.10666186796E+02  0.23042391668E+02 -0.32646564206E+01  0.25600338599E+02  0.51100000000E-03 0. -1.
        -11    1    3    3    0    0  0.12047337552E+02  0.14352550447E+01 -0.64259717664E+01  0.13729217478E+02  0.51100000000E-03 0.  1.
         12    1    3    3    0    0 -0.17969057701E+02 -0.36892257510E+01 -0.78992629017E+01  0.19972375314E+02  0.00000000000E+00 0. -1.
</event>
<event>
 7    1  0.4673733E-013  0.5930194E+02  0.7816164E-02  0.1266605E+00
        -11   -1    0    0    0    0  0.00000000000E+00  0.00000000000E+00  0.45593999997E+02  0.45594000000E+02  0.51100000000E-03 0.  1.
         11   -1    0    0    0    0 -0.00000000000E+00 -0.00000000000E+00 -0.45593999997E+02  0.45594000000E+02  0.51100000000E-03 0. -1.
    9900012    2    1    2    0    0 -0.24407538359E+02  0.52180482978E+01  0.19843505328E+02  0.59301942538E+02  0.49999997282E+02 0.  0.
         12    1    1    2    0    0  0.24407538359E+02 -0.52180482978E+01 -0.19843505328E+02  0.31886057462E+02  0.00000000000E+00 0. -1.
         11    1    3    3    0    0 -0.19909126976E+02  0.17742770074E+02 -0.26263810039E+01  0.26796960729E+02  0.51100000000E-03 0. -1.
        -11    1    3    3    0    0 -0.75667866848E+01  0.21397955203E+01  0.11520036823E+02  0.13947983161E+02  0.51100000000E-03 0.  1.
         12    1    3    3    0    0  0.30683753015E+01 -0.14664517297E+02  0.10949849509E+02  0.18556998648E+02  0.00000000000E+00 0. -1.
</event>
<event>
 7    1  0.4673733E-013  0.5930195E+02  0.7816164E-02  0.1266605E+00
        -11   -1    0    0    0    0  0.00000000000E+00  0.00000000000E+00  0.45593999997E+02  0.45594000000E+02  0.51100000000E-03 0.  1.
         11   -1    0    0    0    0 -0.00000000000E+00 -0.00000000000E+00 -0.45593999997E+02  0.45594000000E+02  0.51100000000E-03 0. -1.
    9900012    2    1    2    0    0  0.14383503823E+02  0.28457351445E+02 -0.11797992270E+00  0.59301953635E+02  0.50000017522E+02 0.  0.
         12    1    1    2    0    0 -0.14383503823E+02 -0.28457351445E+02  0.11797992270E+00  0.31886046365E+02  0.00000000000E+00 0. -1.
         11    1    3    3    0    0  0.14180950046E+02 -0.76915058579E+00  0.12466743596E+02  0.18897371060E+02  0.51100000000E-03 0. -1.
        -11    1    3    3    0    0  0.43442857639E+01  0.29309219940E+02 -0.27786919225E+01  0.29759440878E+02  0.51100000000E-03 0.  1.
         12    1    3    3    0    0 -0.41417319865E+01 -0.82717909638E-01 -0.98060315959E+01  0.10645141698E+02  0.00000000000E+00 0. -1.
</event>
<event>
 7    1  0.4673733E-013  0.5930189E+02  0.7816164E-02  0.1266605E+00
        -11   -1    0    0    0    0  0.00000000000E+00  0.00000000000E+00  0.45593999997E+02  0.45594000000E+02  0.51100000000E-03 0. -1.
         11   -1    0    0    0    0 -0.00000000000E+00 -0.00000000000E+00 -0.45593999997E+02  0.45594000000E+02  0.51100000000E-03 0.  1.
    9900012    2    1    2    0    0 -0.30543822531E+02 -0.53915674862E+01 -0.73979481950E+01  0.59301894370E+02  0.49999909436E+02 0.  0.
         12    1    1    2    0    0  0.30543822531E+02  0.53915674862E+01  0.73979481950E+01  0.31886105630E+02  0.00000000000E+00 0. -1.
         11    1    3    3    0    0 -0.18556590384E+02 -0.46415227449E+01  0.13669116012E+02  0.23510327792E+02  0.51100000000E-03 0. -1.
        -11    1    3    3    0    0 -0.24675590846E+01 -0.10263039538E+02 -0.19589777121E+02  0.22252599765E+02  0.51100000000E-03 0.  1.
        -12    1    3    3    0    0 -0.95196730623E+01  0.95129947972E+01 -0.14772870857E+01  0.13538966813E+02  0.00000000000E+00 0.  1.
</event>
<event>
 7    1  0.4673733E-013  0.5930193E+02  0.7816164E-02  0.1266605E+00
        -11   -1    0    0    0    0  0.00000000000E+00  0.00000000000E+00  0.45593999997E+02  0.45594000000E+02  0.51100000000E-03 0.  1.
         11   -1    0    0    0    0 -0.00000000000E+00 -0.00000000000E+00 -0.45593999997E+02  0.45594000000E+02  0.51100000000E-03 0. -1.
    9900012    2    1    2    0    0 -0.14353737596E+02 -0.16992742237E+02  0.22845970236E+02  0.59301930507E+02  0.49999975341E+02 0.  0.
         12    1    1    2    0    0  0.14353737596E+02  0.16992742237E+02 -0.22845970236E+02  0.31886069493E+02  0.00000000000E+00 0. -1.
         11    1    3    3    0    0  0.14626604003E+01  0.14943047632E+02  0.70597383554E+01  0.16591381916E+02  0.51100000000E-03 0. -1.
        -11    1    3    3    0    0 -0.18374527540E+02 -0.21866322426E+02  0.78028817659E+01  0.29608179323E+02  0.51100000000E-03 0.  1.
         12    1    3    3    0    0  0.25581295436E+01 -0.10069467443E+02  0.79833501149E+01  0.13102369267E+02  0.00000000000E+00 0. -1.
</event>
<event>
 7    1  0.4673733E-013  0.5930192E+02  0.7816164E-02  0.1266605E+00
        -11   -1    0    0    0    0  0.00000000000E+00  0.00000000000E+00  0.45593999997E+02  0.45594000000E+02  0.51100000000E-03 0.  1.
         11   -1    0    0    0    0 -0.00000000000E+00 -0.00000000000E+00 -0.45593999997E+02  0.45594000000E+02  0.51100000000E-03 0. -1.
    9900012    2    1    2    0    0  0.16142599890E+02  0.19155106698E+02  0.19728671944E+02  0.59301919330E+02  0.49999954957E+02 0.  0.
         12    1    1    2    0    0 -0.16142599890E+02 -0.19155106698E+02 -0.19728671944E+02  0.31886080670E+02  0.00000000000E+00 0. -1.
         11    1    3    3    0    0  0.27068849323E+02  0.38449262115E+01  0.10385476219E+02  0.29246609680E+02  0.51100000000E-03 0. -1.
        -11    1    3    3    0    0 -0.37596640393E+00  0.14482839227E+02  0.12367910310E+02  0.19048863181E+02  0.51100000000E-03 0.  1.
         12    1    3    3    0    0 -0.10550283029E+02  0.82734125936E+00 -0.30247145843E+01  0.11006446468E+02  0.00000000000E+00 0. -1.
</event>
<event>
 7    1 -0.6224701E-013  0.5930196E+02  0.7816164E-02  0.1266605E+00
        -11   -1    0    0    0    0  0.00000000000E+00  0.00000000000E+00  0.45593999997E+02  0.45594000000E+02  0.51100000000E-03 0.  1.
         11   -1    0    0    0    0 -0.00000000000E+00 -0.00000000000E+00 -0.45593999997E+02  0.45594000000E+02  0.51100000000E-03 0. -1.
    9900012    2    1    2    0    0 -0.27356390732E+02  0.97765552079E+01  0.13144054761E+02  0.59301963539E+02  0.50000035584E+02 0.  0.
         12    1    1    2    0    0  0.27356390732E+02 -0.97765552079E+01 -0.13144054761E+02  0.31886036461E+02  0.00000000000E+00 0. -1.
         11    1    3    3    0    0 -0.37034955240E+00  0.25617475928E+00 -0.13343096719E+01  0.14082495730E+01  0.51100000000E-03 0. -1.
        -11    1    3    3    0    0  0.65393973770E+01 -0.12053702583E+02  0.11532172353E+02  0.17917769488E+02  0.51100000000E-03 0.  1.
        -12    1    3    3    0    0 -0.33525438557E+02  0.21574083032E+02  0.29461920807E+01  0.39975944477E+02  0.00000000000E+00 0.  1.
</event>
<event>
 7    1  0.4673733E-013  0.5930190E+02  0.7816164E-02  0.1266605E+00
        -11   -1    0    0    0    0  0.00000000000E+00  0.00000000000E+00  0.45593999997E+02  0.45594000000E+02  0.51100000000E-03 0.  1.
         11   -1    0    0    0    0 -0.00000000000E+00 -0.00000000000E+00 -0.45593999997E+02  0.45594000000E+02  0.51100000000E-03 0. -1.
    9900012    2    1    2    0    0  0.41113910198E+01  0.21177435444E+02  0.23480545238E+02  0.59301900947E+02  0.49999921432E+02 0.  0.
         12    1    1    2    0    0 -0.41113910198E+01 -0.21177435444E+02 -0.23480545238E+02  0.31886099053E+02  0.00000000000E+00 0. -1.
         11    1    3    3    0    0  0.28131595603E+01  0.78563377550E+01 -0.19683379389E+01  0.85738126954E+01  0.51100000000E-03 0. -1.
        -11    1    3    3    0    0 -0.56379840894E+01  0.24859471510E+02  0.27052574727E+02  0.37170176055E+02  0.51100000000E-03 0.  1.
        -12    1    3    3    0    0  0.69362155489E+01 -0.11538373821E+02 -0.16036915496E+01  0.13557912197E+02  0.00000000000E+00 0.  1.
</event>
<event>
 7    1  0.4673733E-013  0.5930198E+02  0.7816164E-02  0.1266605E+00
        -11   -1    0    0    0    0  0.00000000000E+00  0.00000000000E+00  0.45593999997E+02  0.45594000000E+02  0.51100000000E-03 0.  1.
         11   -1    0    0    0    0 -0.00000000000E+00 -0.00000000000E+00 -0.45593999997E+02  0.45594000000E+02  0.51100000000E-03 0. -1.
    9900012    2    1    2    0    0  0.17699938065E+02 -0.13229604580E+02  0.22987122798E+02  0.59301983325E+02  0.50000071670E+02 0.  0.
         12    1    1    2    0    0 -0.17699938065E+02  0.13229604580E+02 -0.22987122798E+02  0.31886016675E+02  0.00000000000E+00 0. -1.
         11    1    3    3    0    0  0.48188628126E+01 -0.72156455584E+01  0.58489493877E+01  0.10464090445E+02  0.51100000000E-03 0. -1.
        -11    1    3    3    0    0  0.10710304705E+02  0.17204426508E+02  0.64668823783E+00  0.20276122023E+02  0.51100000000E-03 0.  1.
        -12    1    3    3    0    0  0.21707705472E+01 -0.23218385529E+02  0.16491485172E+02  0.28561770858E+02  0.00000000000E+00 0.  1.
</event>
<event>
 7    1  0.4673733E-013  0.5930194E+02  0.7816164E-02  0.1266605E+00
        -11   -1    0    0    0    0  0.00000000000E+00  0.00000000000E+00  0.45593999997E+02  0.45594000000E+02  0.51100000000E-03 0.  1.
         11   -1    0    0    0    0 -0.00000000000E+00 -0.00000000000E+00 -0.45593999997E+02  0.45594000000E+02  0.51100000000E-03 0. -1.
    9900012    2    1    2    0    0  0.27004503748E+02  0.59445982835E+01  0.15878890127E+02  0.59301943124E+02  0.49999998352E+02 0.  0.
         12    1    1    2    0    0 -0.27004503748E+02 -0.59445982835E+01 -0.15878890127E+02  0.31886056876E+02  0.00000000000E+00 0. -1.
         11    1    3    3    0    0  0.18453024799E+02  0.24713896384E+01 -0.11868976677E+02  0.22079277583E+02  0.51100000000E-03 0. -1.
        -11    1    3    3    0    0  0.18288310856E+01  0.12953213651E+02  0.12958878514E+02  0.18413660680E+02  0.51100000000E-03 0.  1.
        -12    1    3    3    0    0  0.67226478638E+01 -0.94800050062E+01  0.14788988290E+02  0.18809004861E+02  0.00000000000E+00 0.  1.
</event>
<event>
 7    1  0.4673733E-013  0.5930194E+02  0.7816164E-02  0.1266605E+00
        -11   -1    0    0    0    0  0.00000000000E+00  0.00000000000E+00  0.45593999997E+02  0.45594000000E+02  0.51100000000E-03 0.  1.
         11   -1    0    0    0    0 -0.00000000000E+00 -0.00000000000E+00 -0.45593999997E+02  0.45594000000E+02  0.51100000000E-03 0. -1.
    9900012    2    1    2    0    0  0.85694878119E+01 -0.15854324364E+02  0.26304466026E+02  0.59301942619E+02  0.49999997431E+02 0.  0.
         12    1    1    2    0    0 -0.85694878119E+01  0.15854324364E+02 -0.26304466026E+02  0.31886057381E+02  0.00000000000E+00 0. -1.
         11    1    3    3    0    0  0.56633173812E+01 -0.27695591795E+02  0.17675455461E+01  0.28323897792E+02  0.51100000000E-03 0. -1.
        -11    1    3    3    0    0  0.57245680260E+01  0.66720934714E+01  0.23379507031E+02  0.24977767307E+02  0.51100000000E-03 0.  1.
         12    1    3    3    0    0 -0.28183975953E+01  0.51691739593E+01  0.11574134486E+01  0.60002775200E+01  0.00000000000E+00 0. -1.
</event>
<event>
 7    1  0.4673733E-013  0.5930194E+02  0.7816164E-02  0.1266605E+00
        -11   -1    0    0    0    0  0.00000000000E+00  0.00000000000E+00  0.45593999997E+02  0.45594000000E+02  0.51100000000E-03 0. -1.
         11   -1    0    0    0    0 -0.00000000000E+00 -0.00000000000E+00 -0.45593999997E+02  0.45594000000E+02  0.51100000000E-03 0.  1.
    9900012    2    1    2    0    0  0.10527882097E+02 -0.27718484276E+02 -0.11729021314E+02  0.59301943282E+02  0.49999998641E+02 0.  0.
         12    1    1    2    0    0 -0.10527882097E+02  0.27718484276E+02  0.11729021314E+02  0.31886056718E+02  0.00000000000E+00 0. -1.
         11    1    3    3    0    0  0.12320353514E+02  0.11108774721E+02  0.23419367758E+01  0.16753526633E+02  0.51100000000E-03 0. -1.
        -11    1    3    3    0    0  0.29941287631E+01 -0.41353067207E+01 -0.23308587169E+01  0.56123498950E+01  0.51100000000E-03 0.  1.
         12    1    3    3    0    0 -0.47866001797E+01 -0.34691952276E+02 -0.11740099373E+02  0.36936066755E+02  0.00000000000E+00 0. -1.
</event>
<event>
 7    1  0.4673733E-013  0.5930194E+02  0.7816164E-02  0.1266605E+00
        -11   -1    0    0    0    0  0.00000000000E+00  0.00000000000E+00  0.45593999997E+02  0.45594000000E+02  0.51100000000E-03 0.  1.
         11   -1    0    0    0    0 -0.00000000000E+00 -0.00000000000E+00 -0.45593999997E+02  0.45594000000E+02  0.51100000000E-03 0. -1.
    9900012    2    1    2    0    0  0.28484097305E+02 -0.99168076567E+01 -0.10345709659E+02  0.59301943772E+02  0.49999999534E+02 0.  0.
         12    1    1    2    0    0 -0.28484097305E+02  0.99168076567E+01  0.10345709659E+02  0.31886056228E+02  0.00000000000E+00 0. -1.
         11    1    3    3    0    0 -0.13812507622E+01 -0.17398339859E+02 -0.67825741088E+01  0.18724673437E+02  0.51100000000E-03 0. -1.
        -11    1    3    3    0    0  0.27019034984E+02 -0.55616262781E+00 -0.11082210409E+02  0.29208782175E+02  0.51100000000E-03 0.  1.
        -12    1    3    3    0    0  0.28463130837E+01  0.80376948296E+01  0.75190748583E+01  0.11368488161E+02  0.00000000000E+00 0.  1.
</event>
<event>
 7    1  0.4673733E-013  0.5930196E+02  0.7816164E-02  0.1266605E+00
        -11   -1    0    0    0    0  0.00000000000E+00  0.00000000000E+00  0.45593999997E+02  0.45594000000E+02  0.51100000000E-03 0.  1.
         11   -1    0    0    0    0 -0.00000000000E+00 -0.00000000000E+00 -0.45593999997E+02  0.45594000000E+02  0.51100000000E-03 0. -1.
    9900012    2    1    2    0    0 -0.15095806308E+01 -0.28976803236E+02  0.13220642944E+02  0.59301962941E+02  0.50000034493E+02 0.  0.
         12    1    1    2    0    0  0.15095806308E+01  0.28976803236E+02 -0.13220642944E+02  0.31886037059E+02  0.00000000000E+00 0. -1.
         11    1    3    3    0    0 -0.68208978368E+01 -0.75186434403E+01 -0.47573829513E+01  0.11211036495E+02  0.51100000000E-03 0.  1.
        -11    1    3    3    0    0  0.10071132248E+02  0.87675270658E+01  0.17834023768E+01  0.13471368153E+02  0.51100000000E-03 0. -1.
        -12    1    3    3    0    0 -0.47598150422E+01 -0.30225686862E+02  0.16194623519E+02  0.34619558293E+02  0.00000000000E+00 0.  1.
</event>
<event>
 7    1  0.4673733E-013  0.5930196E+02  0.7816164E-02  0.1266605E+00
        -11   -1    0    0    0    0  0.00000000000E+00  0.00000000000E+00  0.45593999997E+02  0.45594000000E+02  0.51100000000E-03 0.  1.
         11   -1    0    0    0    0 -0.00000000000E+00 -0.00000000000E+00 -0.45593999997E+02  0.45594000000E+02  0.51100000000E-03 0. -1.
    9900012    2    1    2    0    0  0.23886451362E+02  0.21057193947E+02 -0.16588466678E+01  0.59301956849E+02  0.50000023383E+02 0.  0.
         12    1    1    2    0    0 -0.23886451362E+02 -0.21057193947E+02  0.16588466678E+01  0.31886043151E+02  0.00000000000E+00 0. -1.
         11    1    3    3    0    0  0.34320949160E+01 -0.11214120924E+02 -0.44317655407E+01  0.12536998432E+02  0.51100000000E-03 0. -1.
        -11    1    3    3    0    0  0.19208316155E+02  0.57658618349E+01  0.26546345970E+01  0.20229969286E+02  0.51100000000E-03 0.  1.
         12    1    3    3    0    0  0.12460402907E+01  0.26505453035E+02  0.11828427588E+00  0.26534989131E+02  0.00000000000E+00 0. -1.
</event>
<event>
 7    1  0.4673733E-013  0.5930194E+02  0.7816164E-02  0.1266605E+00
        -11   -1    0    0    0    0  0.00000000000E+00  0.00000000000E+00  0.45593999997E+02  0.45594000000E+02  0.51100000000E-03 0. -1.
         11   -1    0    0    0    0 -0.00000000000E+00 -0.00000000000E+00 -0.45593999997E+02  0.45594000000E+02  0.51100000000E-03 0.  1.
    9900012    2    1    2    0    0  0.49355374988E+01  0.55112942948E+01 -0.31015912431E+02  0.59301941619E+02  0.49999995606E+02 0.  0.
         12    1    1    2    0    0 -0.49355374988E+01 -0.55112942948E+01  0.31015912431E+02  0.31886058381E+02  0.00000000000E+00 0. -1.
         11    1    3    3    0    0 -0.14912649643E+02 -0.36683901705E+01 -0.27203881458E+01  0.15596304618E+02  0.51100000000E-03 0. -1.
        -11    1    3    3    0    0  0.16001226190E+02  0.13341566365E+02 -0.31059895216E+02  0.37399916093E+02  0.51100000000E-03 0.  1.
         12    1    3    3    0    0  0.38469609514E+01 -0.41618818999E+01  0.27643709316E+01  0.63057209071E+01  0.00000000000E+00 0. -1.
</event>
<event>
 7    1  0.4673733E-013  0.5930193E+02  0.7816164E-02  0.1266605E+00
        -11   -1    0    0    0    0  0.00000000000E+00  0.00000000000E+00  0.45593999997E+02  0.45594000000E+02  0.51100000000E-03 0. -1.
         11   -1    0    0    0    0 -0.00000000000E+00 -0.00000000000E+00 -0.45593999997E+02  0.45594000000E+02  0.51100000000E-03 0.  1.
    9900012    2    1    2    0    0 -0.24440392432E+01 -0.29692446417E+02 -0.11362518253E+02  0.59301929011E+02  0.49999972613E+02 0.  0.
         12    1    1    2    0    0  0.24440392432E+01  0.29692446417E+02  0.11362518253E+02  0.31886070989E+02  0.00000000000E+00 0. -1.
         11    1    3    3    0    0 -0.12552760649E+02 -0.29974337079E+02  0.11191117954E+02  0.34369664015E+02  0.51100000000E-03 0. -1.
        -11    1    3    3    0    0  0.47182816143E+01 -0.13994318912E+01 -0.11829799722E+02  0.12812679373E+02  0.51100000000E-03 0.  1.
         12    1    3    3    0    0  0.53904397912E+01  0.16813225528E+01 -0.10723836486E+02  0.12119585622E+02  0.00000000000E+00 0. -1.
</event>
<event>
 7    1  0.4673733E-013  0.5930194E+02  0.7816164E-02  0.1266605E+00
        -11   -1    0    0    0    0  0.00000000000E+00  0.00000000000E+00  0.45593999997E+02  0.45594000000E+02  0.51100000000E-03 0.  1.
         11   -1    0    0    0    0 -0.00000000000E+00 -0.00000000000E+00 -0.45593999997E+02  0.45594000000E+02  0.51100000000E-03 0. -1.
    9900012    2    1    2    0    0  0.25941840372E+01 -0.30599737613E+02  0.85817726436E+01  0.59301944199E+02  0.50000000313E+02 0.  0.
         12    1    1    2    0    0 -0.25941840372E+01  0.30599737613E+02 -0.85817726436E+01  0.31886055801E+02  0.00000000000E+00 0. -1.
         11    1    3    3    0    0 -0.21086889935E+02 -0.67671964893E+01 -0.15202388234E+01  0.22198265739E+02  0.51100000000E-03 0. -1.
        -11    1    3    3    0    0  0.98089396191E+01 -0.66117234574E+01  0.91763074185E+01  0.14971132276E+02  0.51100000000E-03 0.  1.
         12    1    3    3    0    0  0.13872134353E+02 -0.17220817667E+02  0.92570404854E+00  0.22132546184E+02  0.00000000000E+00 0. -1.
</event>
<event>
 7    1  0.4673733E-013  0.5930194E+02  0.7816164E-02  0.1266605E+00
        -11   -1    0    0    0    0  0.00000000000E+00  0.00000000000E+00  0.45593999997E+02  0.45594000000E+02  0.51100000000E-03 0.  1.
         11   -1    0    0    0    0 -0.00000000000E+00 -0.00000000000E+00 -0.45593999997E+02  0.45594000000E+02  0.51100000000E-03 0. -1.
    9900012    2    1    2    0    0 -0.52478005590E+01  0.31427351017E+02  0.12259422192E+01  0.59301941338E+02  0.49999995095E+02 0.  0.
         12    1    1    2    0    0  0.52478005590E+01 -0.31427351017E+02 -0.12259422192E+01  0.31886058662E+02  0.00000000000E+00 0. -1.
         11    1    3    3    0    0 -0.10420729034E+02  0.39644945545E+01 -0.97344096260E+01  0.14800930434E+02  0.51100000000E-03 0. -1.
        -11    1    3    3    0    0  0.11137482034E+02  0.33071998026E+02  0.96722757797E+01  0.36212614909E+02  0.51100000000E-03 0.  1.
        -12    1    3    3    0    0 -0.59645535588E+01 -0.56091415637E+01  0.12880760655E+01  0.82883959961E+01  0.00000000000E+00 0.  1.
</event>
<event>
 7    1  0.4673733E-013  0.5930192E+02  0.7816164E-02  0.1266605E+00
        -11   -1    0    0    0    0  0.00000000000E+00  0.00000000000E+00  0.45593999997E+02  0.45594000000E+02  0.51100000000E-03 0.  1.
         11   -1    0    0    0    0 -0.00000000000E+00 -0.00000000000E+00 -0.45593999997E+02  0.45594000000E+02  0.51100000000E-03 0. -1.
    9900012    2    1    2    0    0  0.12756101851E+02  0.28838666856E+02 -0.47259986006E+01  0.59301923050E+02  0.49999961742E+02 0.  0.
         12    1    1    2    0    0 -0.12756101851E+02 -0.28838666856E+02  0.47259986006E+01  0.31886076950E+02  0.00000000000E+00 0. -1.
         11    1    3    3    0    0 -0.80048254207E+01  0.43991120185E+01 -0.18107349492E+02  0.20280668688E+02  0.51100000000E-03 0. -1.
        -11    1    3    3    0    0  0.71043980319E+01  0.11779680698E+02 -0.31590324771E+01  0.14114277707E+02  0.51100000000E-03 0.  1.
         12    1    3    3    0    0  0.13656529240E+02  0.12659874140E+02  0.16540383368E+02  0.24906976655E+02  0.00000000000E+00 0. -1.
</event>
<event>
 7    1  0.4673733E-013  0.5930200E+02  0.7816164E-02  0.1266605E+00
        -11   -1    0    0    0    0  0.00000000000E+00  0.00000000000E+00  0.45593999997E+02  0.45594000000E+02  0.51100000000E-03 0.  1.
         11   -1    0    0    0    0 -0.00000000000E+00 -0.00000000000E+00 -0.45593999997E+02  0.45594000000E+02  0.51100000000E-03 0. -1.
    9900012    2    1    2    0    0 -0.26034148131E+02 -0.17869340676E+02 -0.44301835034E+01  0.59302004156E+02  0.50000109660E+02 0.  0.
         12    1    1    2    0    0  0.26034148131E+02  0.17869340676E+02  0.44301835034E+01  0.31885995844E+02  0.00000000000E+00 0. -1.
         11    1    3    3    0    0 -0.23294742274E+02 -0.18003248803E+02 -0.54351798465E+01  0.29938322687E+02  0.51100000000E-03 0. -1.
        -11    1    3    3    0    0  0.12108336264E+02 -0.37235452047E+01  0.48231049418E+01  0.13555033660E+02  0.51100000000E-03 0.  1.
         12    1    3    3    0    0 -0.14847742120E+02  0.38574533317E+01 -0.38181085987E+01  0.15808647809E+02  0.00000000000E+00 0. -1.
</event>
<event>
 7    1  0.4673733E-013  0.5930195E+02  0.7816164E-02  0.1266605E+00
        -11   -1    0    0    0    0  0.00000000000E+00  0.00000000000E+00  0.45593999997E+02  0.45594000000E+02  0.51100000000E-03 0.  1.
         11   -1    0    0    0    0 -0.00000000000E+00 -0.00000000000E+00 -0.45593999997E+02  0.45594000000E+02  0.51100000000E-03 0. -1.
    9900012    2    1    2    0    0  0.11307738598E+01 -0.68143508705E+00  0.31858710018E+02  0.59301946508E+02  0.50000004523E+02 0.  0.
         12    1    1    2    0    0 -0.11307738598E+01  0.68143508705E+00 -0.31858710018E+02  0.31886053492E+02  0.00000000000E+00 0. -1.
         11    1    3    3    0    0 -0.41535935330E+01 -0.80106885443E+01  0.56972992619E+01  0.10671583263E+02  0.51100000000E-03 0. -1.
        -11    1    3    3    0    0  0.73181632991E+01  0.23523934690E+02  0.14734292849E+02  0.28705929760E+02  0.51100000000E-03 0.  1.
        -12    1    3    3    0    0 -0.20337959063E+01 -0.16194681233E+02  0.11427117907E+02  0.19924433485E+02  0.00000000000E+00 0.  1.
</event>
<event>
 7    1  0.4673733E-013  0.5930194E+02  0.7816164E-02  0.1266605E+00
        -11   -1    0    0    0    0  0.00000000000E+00  0.00000000000E+00  0.45593999997E+02  0.45594000000E+02  0.51100000000E-03 0. -1.
         11   -1    0    0    0    0 -0.00000000000E+00 -0.00000000000E+00 -0.45593999997E+02  0.45594000000E+02  0.51100000000E-03 0.  1.
    9900012    2    1    2    0    0 -0.85718317795E+01 -0.51311156622E+01 -0.30280624207E+02  0.59301939561E+02  0.49999991853E+02 0.  0.
         12    1    1    2    0    0  0.85718317795E+01  0.51311156622E+01  0.30280624207E+02  0.31886060439E+02  0.00000000000E+00 0. -1.
         11    1    3    3    0    0 -0.26820986245E+02 -0.40140152810E+01 -0.93353396004E+01  0.28681460694E+02  0.51100000000E-03 0. -1.
        -11    1    3    3    0    0  0.12950624491E+02  0.19387702210E+01 -0.58677432054E+01  0.14349491812E+02  0.51100000000E-03 0.  1.
        -12    1    3    3    0    0  0.52985299740E+01 -0.30558706022E+01 -0.15077541401E+02  0.16270987054E+02  0.00000000000E+00 0.  1.
</event>
<event>
 7    1  0.4673733E-013  0.5930195E+02  0.7816164E-02  0.1266605E+00
        -11   -1    0    0    0    0  0.00000000000E+00  0.00000000000E+00  0.45593999997E+02  0.45594000000E+02  0.51100000000E-03 0.  1.
         11   -1    0    0    0    0 -0.00000000000E+00 -0.00000000000E+00 -0.45593999997E+02  0.45594000000E+02  0.51100000000E-03 0. -1.
    9900012    2    1    2    0    0  0.94375705266E+01  0.54674632080E+01  0.29962635208E+02  0.59301946623E+02  0.50000004733E+02 0.  0.
         12    1    1    2    0    0 -0.94375705266E+01 -0.54674632080E+01 -0.29962635208E+02  0.31886053377E+02  0.00000000000E+00 0. -1.
         11    1    3    3    0    0 -0.10507412202E+02 -0.13609305009E+02  0.13693306919E+02  0.21980117121E+02  0.51100000000E-03 0. -1.
        -11    1    3    3    0    0  0.20032754588E+02  0.13223211529E+02  0.48488048029E+01  0.24488272454E+02  0.51100000000E-03 0.  1.
        -12    1    3    3    0    0 -0.87771858929E-01  0.58535566881E+01  0.11420523486E+02  0.12833557048E+02  0.00000000000E+00 0.  1.
</event>
<event>
 7    1  0.4673733E-013  0.5930174E+02  0.7816164E-02  0.1266605E+00
        -11   -1    0    0    0    0  0.00000000000E+00  0.00000000000E+00  0.45593999997E+02  0.45594000000E+02  0.51100000000E-03 0.  1.
         11   -1    0    0    0    0 -0.00000000000E+00 -0.00000000000E+00 -0.45593999997E+02  0.45594000000E+02  0.51100000000E-03 0. -1.
    9900012    2    1    2    0    0 -0.20125635244E+02 -0.16880758867E+02  0.18075745601E+02  0.59301736611E+02  0.49999621719E+02 0.  0.
         12    1    1    2    0    0  0.20125635244E+02  0.16880758867E+02 -0.18075745601E+02  0.31886263389E+02  0.00000000000E+00 0. -1.
         11    1    3    3    0    0 -0.42931661396E+01 -0.15607088000E+01 -0.65300355784E+01  0.79692190569E+01  0.51100000000E-03 0. -1.
        -11    1    3    3    0    0  0.40289497180E+01  0.22548695806E+01  0.24377341307E+02  0.24810716276E+02  0.51100000000E-03 0.  1.
        -12    1    3    3    0    0 -0.19861418823E+02 -0.17574919647E+02  0.22843987290E+00  0.26521801278E+02  0.00000000000E+00 0.  1.
</event>
<event>
 7    1  0.4673733E-013  0.5930193E+02  0.7816164E-02  0.1266605E+00
        -11   -1    0    0    0    0  0.00000000000E+00  0.00000000000E+00  0.45593999997E+02  0.45594000000E+02  0.51100000000E-03 0. -1.
         11   -1    0    0    0    0 -0.00000000000E+00 -0.00000000000E+00 -0.45593999997E+02  0.45594000000E+02  0.51100000000E-03 0.  1.
    9900012    2    1    2    0    0 -0.11728760102E+02  0.58313580184E+01 -0.29071508809E+02  0.59301934480E+02  0.49999982587E+02 0.  0.
         12    1    1    2    0    0  0.11728760102E+02 -0.58313580184E+01  0.29071508809E+02  0.31886065520E+02  0.00000000000E+00 0. -1.
         11    1    3    3    0    0 -0.22003280330E+02  0.20313358363E+01 -0.84743214229E+01  0.23666110673E+02  0.51100000000E-03 0. -1.
        -11    1    3    3    0    0  0.11466119332E+02  0.77133572074E+01  0.80852115893E+00  0.13842741010E+02  0.51100000000E-03 0.  1.
        -12    1    3    3    0    0 -0.11915991043E+01 -0.39133350253E+01 -0.21405708546E+02  0.21793082797E+02  0.00000000000E+00 0.  1.
</event>
<event>
 7    1  0.4673733E-013  0.5930193E+02  0.7816164E-02  0.1266605E+00
        -11   -1    0    0    0    0  0.00000000000E+00  0.00000000000E+00  0.45593999997E+02  0.45594000000E+02  0.51100000000E-03 0.  1.
         11   -1    0    0    0    0 -0.00000000000E+00 -0.00000000000E+00 -0.45593999997E+02  0.45594000000E+02  0.51100000000E-03 0. -1.
    9900012    2    1    2    0    0 -0.25924286228E+02  0.13572277627E+02  0.12666723995E+02  0.59301933557E+02  0.49999980905E+02 0.  0.
         12    1    1    2    0    0  0.25924286228E+02 -0.13572277627E+02 -0.12666723995E+02  0.31886066443E+02  0.00000000000E+00 0. -1.
         11    1    3    3    0    0  0.82844334601E+00 -0.45586944428E+01 -0.54012405907E+01  0.71162780707E+01  0.51100000000E-03 0. -1.
        -11    1    3    3    0    0 -0.16905881060E+02  0.27985799736E+02  0.19679677820E+02  0.38161545051E+02  0.51100000000E-03 0.  1.
        -12    1    3    3    0    0 -0.98468485138E+01 -0.98548276658E+01 -0.16117132346E+01  0.14024110436E+02  0.00000000000E+00 0.  1.
</event>
<event>
 7    1  0.4673733E-013  0.5930195E+02  0.7816164E-02  0.1266605E+00
        -11   -1    0    0    0    0  0.00000000000E+00  0.00000000000E+00  0.45593999997E+02  0.45594000000E+02  0.51100000000E-03 0. -1.
         11   -1    0    0    0    0 -0.00000000000E+00 -0.00000000000E+00 -0.45593999997E+02  0.45594000000E+02  0.51100000000E-03 0.  1.
    9900012    2    1    2    0    0 -0.97940044835E+01 -0.28808144297E+02 -0.95335393024E+01  0.59301951746E+02  0.50000014076E+02 0.  0.
         12    1    1    2    0    0  0.97940044835E+01  0.28808144297E+02  0.95335393024E+01  0.31886048254E+02  0.00000000000E+00 0. -1.
         11    1    3    3    0    0  0.11548106177E+02 -0.26600065055E+02 -0.12755540069E+02  0.31680057132E+02  0.51100000000E-03 0.  1.
        -11    1    3    3    0    0 -0.12771803861E+02  0.46734583633E+01 -0.43456420882E+01  0.14277422469E+02  0.51100000000E-03 0. -1.
        -12    1    3    3    0    0 -0.85703067998E+01 -0.68815376051E+01  0.75676428544E+01  0.13344472145E+02  0.00000000000E+00 0.  1.
</event>
<event>
 7    1  0.4673733E-013  0.5930192E+02  0.7816164E-02  0.1266605E+00
        -11   -1    0    0    0    0  0.00000000000E+00  0.00000000000E+00  0.45593999997E+02  0.45594000000E+02  0.51100000000E-03 0. -1.
         11   -1    0    0    0    0 -0.00000000000E+00 -0.00000000000E+00 -0.45593999997E+02  0.45594000000E+02  0.51100000000E-03 0.  1.
    9900012    2    1    2    0    0  0.18442174534E+02  0.24246749002E+02 -0.94182422287E+01  0.59301922703E+02  0.49999961109E+02 0.  0.
         12    1    1    2    0    0 -0.18442174534E+02 -0.24246749002E+02  0.94182422287E+01  0.31886077297E+02  0.00000000000E+00 0. -1.
         11    1    3    3    0    0  0.22666539485E+02  0.13007435692E+01 -0.99228629115E+01  0.24777553444E+02  0.51100000000E-03 0. -1.
        -11    1    3    3    0    0 -0.44664609834E+01  0.27906629801E+02  0.38692613890E+01  0.28525435045E+02  0.51100000000E-03 0.  1.
        -12    1    3    3    0    0  0.24209603257E+00 -0.49606243684E+01 -0.33646407062E+01  0.59989342133E+01  0.00000000000E+00 0.  1.
</event>
<event>
 7    1  0.4673733E-013  0.5930193E+02  0.7816164E-02  0.1266605E+00
        -11   -1    0    0    0    0  0.00000000000E+00  0.00000000000E+00  0.45593999997E+02  0.45594000000E+02  0.51100000000E-03 0.  1.
         11   -1    0    0    0    0 -0.00000000000E+00 -0.00000000000E+00 -0.45593999997E+02  0.45594000000E+02  0.51100000000E-03 0. -1.
    9900012    2    1    2    0    0 -0.20065622559E+02 -0.24699812684E+02  0.20028518117E+01  0.59301931402E+02  0.49999976973E+02 0.  0.
         12    1    1    2    0    0  0.20065622559E+02  0.24699812684E+02 -0.20028518117E+01  0.31886068598E+02  0.00000000000E+00 0. -1.
         11    1    3    3    0    0  0.13017907818E+02  0.30533521117E+01 -0.11334324201E-01  0.13371200836E+02  0.51100000000E-03 0. -1.
        -11    1    3    3    0    0 -0.18084539915E+02 -0.24413016338E+02  0.30202829739E+01  0.30531427418E+02  0.51100000000E-03 0.  1.
         12    1    3    3    0    0 -0.14998990461E+02 -0.33401484569E+01 -0.10060968380E+01  0.15399303147E+02  0.00000000000E+00 0. -1.
</event>
<event>
 7    1  0.4673733E-013  0.5930195E+02  0.7816164E-02  0.1266605E+00
        -11   -1    0    0    0    0  0.00000000000E+00  0.00000000000E+00  0.45593999997E+02  0.45594000000E+02  0.51100000000E-03 0.  1.
         11   -1    0    0    0    0 -0.00000000000E+00 -0.00000000000E+00 -0.45593999997E+02  0.45594000000E+02  0.51100000000E-03 0. -1.
    9900012    2    1    2    0    0  0.20486832881E+02 -0.23965087074E+02  0.47628079555E+01  0.59301951960E+02  0.50000014467E+02 0.  0.
         12    1    1    2    0    0 -0.20486832881E+02  0.23965087074E+02 -0.47628079555E+01  0.31886048040E+02  0.00000000000E+00 0. -1.
         11    1    3    3    0    0 -0.81532240881E+01 -0.12955864746E+01  0.12963565586E+02  0.15369048127E+02  0.51100000000E-03 0. -1.
        -11    1    3    3    0    0  0.32224697629E+02 -0.21926686156E+02 -0.54552476825E+01  0.39356961654E+02  0.51100000000E-03 0.  1.
         12    1    3    3    0    0 -0.35846406599E+01 -0.74281444338E+00 -0.27455099485E+01  0.45759421801E+01  0.00000000000E+00 0. -1.
</event>
<event>
 7    1  0.4673733E-013  0.5930210E+02  0.7816164E-02  0.1266604E+00
        -11   -1    0    0    0    0  0.00000000000E+00  0.00000000000E+00  0.45593999997E+02  0.45594000000E+02  0.51100000000E-03 0. -1.
         11   -1    0    0    0    0 -0.00000000000E+00 -0.00000000000E+00 -0.45593999997E+02  0.45594000000E+02  0.51100000000E-03 0.  1.
    9900012    2    1    2    0    0  0.23044466057E+02  0.17428833299E+02 -0.13486989506E+02  0.59302101362E+02  0.50000286939E+02 0.  0.
         12    1    1    2    0    0 -0.23044466057E+02 -0.17428833299E+02  0.13486989506E+02  0.31885898638E+02  0.00000000000E+00 0. -1.
         11    1    3    3    0    0 -0.80292521649E+01 -0.96338846333E+00 -0.29774956664E+01  0.86175685877E+01  0.51100000000E-03 0. -1.
        -11    1    3    3    0    0  0.11753147196E+02  0.14695662962E+02  0.10789663380E+02  0.21691376513E+02  0.51100000000E-03 0.  1.
        -12    1    3    3    0    0  0.19320571026E+02  0.36965588010E+01 -0.21299157220E+02  0.28993156262E+02  0.00000000000E+00 0.  1.
</event>
<event>
 7    1  0.4673733E-013  0.5930195E+02  0.7816164E-02  0.1266605E+00
        -11   -1    0    0    0    0  0.00000000000E+00  0.00000000000E+00  0.45593999997E+02  0.45594000000E+02  0.51100000000E-03 0.  1.
         11   -1    0    0    0    0 -0.00000000000E+00 -0.00000000000E+00 -0.45593999997E+02  0.45594000000E+02  0.51100000000E-03 0. -1.
    9900012    2    1    2    0    0  0.74913504028E+01 -0.28959783208E+02 -0.11042232757E+02  0.59301948527E+02  0.50000008205E+02 0.  0.
         12    1    1    2    0    0 -0.74913504028E+01  0.28959783208E+02  0.11042232757E+02  0.31886051473E+02  0.00000000000E+00 0. -1.
         11    1    3    3    0    0 -0.10216211934E+02  0.33178989472E+00 -0.12004004325E+02  0.15766330927E+02  0.51100000000E-03 0. -1.
        -11    1    3    3    0    0  0.23540214081E+02 -0.27773773077E+02 -0.26590024347E+01  0.36504718108E+02  0.51100000000E-03 0.  1.
        -12    1    3    3    0    0 -0.58326517440E+01 -0.15178000250E+01  0.36207740027E+01  0.70308994916E+01  0.00000000000E+00 0.  1.
</event>
<event>
 7    1  0.4673733E-013  0.5930194E+02  0.7816164E-02  0.1266605E+00
        -11   -1    0    0    0    0  0.00000000000E+00  0.00000000000E+00  0.45593999997E+02  0.45594000000E+02  0.51100000000E-03 0. -1.
         11   -1    0    0    0    0 -0.00000000000E+00 -0.00000000000E+00 -0.45593999997E+02  0.45594000000E+02  0.51100000000E-03 0.  1.
    9900012    2    1    2    0    0 -0.14469393719E+02  0.17671692903E+02 -0.22250144856E+02  0.59301936732E+02  0.49999986693E+02 0.  0.
         12    1    1    2    0    0  0.14469393719E+02 -0.17671692903E+02  0.22250144856E+02  0.31886063268E+02  0.00000000000E+00 0. -1.
         11    1    3    3    0    0 -0.68152193059E+01  0.88264232955E+01  0.64277947843E+01  0.12871266776E+02  0.51100000000E-03 0. -1.
        -11    1    3    3    0    0  0.55641751785E+01  0.18603870361E+02 -0.19893162287E+02  0.27799315529E+02  0.51100000000E-03 0.  1.
        -12    1    3    3    0    0 -0.13218349592E+02 -0.97586007541E+01 -0.87847773533E+01  0.18631354426E+02  0.00000000000E+00 0.  1.
</event>
<event>
 7    1  0.4673733E-013  0.5930195E+02  0.7816164E-02  0.1266605E+00
        -11   -1    0    0    0    0  0.00000000000E+00  0.00000000000E+00  0.45593999997E+02  0.45594000000E+02  0.51100000000E-03 0.  1.
         11   -1    0    0    0    0 -0.00000000000E+00 -0.00000000000E+00 -0.45593999997E+02  0.45594000000E+02  0.51100000000E-03 0. -1.
    9900012    2    1    2    0    0  0.10086279325E+02 -0.52475257328E+01  0.29790114182E+02  0.59301945683E+02  0.50000003020E+02 0.  0.
         12    1    1    2    0    0 -0.10086279325E+02  0.52475257328E+01 -0.29790114182E+02  0.31886054317E+02  0.00000000000E+00 0. -1.
         11    1    3    3    0    0 -0.10894943638E+01  0.18524102270E+02  0.15966602514E+02  0.24479823508E+02  0.51100000000E-03 0.  1.
        -11    1    3    3    0    0  0.12000284596E+02 -0.25924175731E+02  0.98296123011E+01  0.30210776156E+02  0.51100000000E-03 0. -1.
         12    1    3    3    0    0 -0.82451090725E+00  0.21525477289E+01  0.39938993665E+01  0.46113460194E+01  0.00000000000E+00 0. -1.
</event>
<event>
 7    1  0.4673733E-013  0.5930194E+02  0.7816164E-02  0.1266605E+00
        -11   -1    0    0    0    0  0.00000000000E+00  0.00000000000E+00  0.45593999997E+02  0.45594000000E+02  0.51100000000E-03 0. -1.
         11   -1    0    0    0    0 -0.00000000000E+00 -0.00000000000E+00 -0.45593999997E+02  0.45594000000E+02  0.51100000000E-03 0.  1.
    9900012    2    1    2    0    0 -0.17955722894E+02 -0.26277540540E+02  0.19503650393E+01  0.59301936504E+02  0.49999986279E+02 0.  0.
         12    1    1    2    0    0  0.17955722894E+02  0.26277540540E+02 -0.19503650393E+01  0.31886063496E+02  0.00000000000E+00 0. -1.
         11    1    3    3    0    0 -0.12178653974E+02 -0.20142597890E+02  0.17033817857E+02  0.29055030777E+02  0.51100000000E-03 0. -1.
        -11    1    3    3    0    0  0.14252693298E+01  0.82765859889E+01 -0.10599707550E+02  0.13523574553E+02  0.51100000000E-03 0.  1.
        -12    1    3    3    0    0 -0.72023382497E+01 -0.14411528638E+02 -0.44837452679E+01  0.16723331175E+02  0.00000000000E+00 0.  1.
</event>
<event>
 7    1  0.4673733E-013  0.5930194E+02  0.7816164E-02  0.1266605E+00
        -11   -1    0    0    0    0  0.00000000000E+00  0.00000000000E+00  0.45593999997E+02  0.45594000000E+02  0.51100000000E-03 0. -1.
         11   -1    0    0    0    0 -0.00000000000E+00 -0.00000000000E+00 -0.45593999997E+02  0.45594000000E+02  0.51100000000E-03 0.  1.
    9900012    2    1    2    0    0  0.11856620014E+01  0.22639455961E+02 -0.22422530574E+02  0.59301942892E+02  0.49999997928E+02 0.  0.
         12    1    1    2    0    0 -0.11856620014E+01 -0.22639455961E+02  0.22422530574E+02  0.31886057108E+02  0.00000000000E+00 0. -1.
         11    1    3    3    0    0  0.21337036797E+02  0.78423826305E+01 -0.14205219839E+02  0.26805976489E+02  0.51100000000E-03 0. -1.
        -11    1    3    3    0    0 -0.15104123133E+02  0.15035149617E+02  0.16857642659E+01  0.21378308190E+02  0.51100000000E-03 0.  1.
         12    1    3    3    0    0 -0.50472516623E+01 -0.23807628657E+00 -0.99030750011E+01  0.11117658213E+02  0.00000000000E+00 0. -1.
</event>
<event>
 7    1  0.4673733E-013  0.5930191E+02  0.7816164E-02  0.1266605E+00
        -11   -1    0    0    0    0  0.00000000000E+00  0.00000000000E+00  0.45593999997E+02  0.45594000000E+02  0.51100000000E-03 0.  1.
         11   -1    0    0    0    0 -0.00000000000E+00 -0.00000000000E+00 -0.45593999997E+02  0.45594000000E+02  0.51100000000E-03 0. -1.
    9900012    2    1    2    0    0  0.25115203103E+01 -0.31157844070E+02  0.62931366513E+01  0.59301912904E+02  0.49999943238E+02 0.  0.
         12    1    1    2    0    0 -0.25115203103E+01  0.31157844070E+02 -0.62931366513E+01  0.31886087096E+02  0.00000000000E+00 0. -1.
         11    1    3    3    0    0  0.10700470930E+02 -0.25768760264E+02 -0.67613093329E+01  0.28709656700E+02  0.51100000000E-03 0. -1.
        -11    1    3    3    0    0 -0.97813073763E+01  0.64921793925E+01 -0.13896626478E+01  0.11821739711E+02  0.51100000000E-03 0.  1.
        -12    1    3    3    0    0  0.15923567561E+01 -0.11881263199E+02  0.14444108632E+02  0.18770516493E+02  0.00000000000E+00 0.  1.
</event>
<event>
 7    1  0.4673733E-013  0.5930195E+02  0.7816164E-02  0.1266605E+00
        -11   -1    0    0    0    0  0.00000000000E+00  0.00000000000E+00  0.45593999997E+02  0.45594000000E+02  0.51100000000E-03 0. -1.
         11   -1    0    0    0    0 -0.00000000000E+00 -0.00000000000E+00 -0.45593999997E+02  0.45594000000E+02  0.51100000000E-03 0.  1.
    9900012    2    1    2    0    0 -0.12671847742E+02  0.11834338169E+02 -0.26759917502E+02  0.59301945528E+02  0.50000002736E+02 0.  0.
         12    1    1    2    0    0  0.12671847742E+02 -0.11834338169E+02  0.26759917502E+02  0.31886054472E+02  0.00000000000E+00 0. -1.
         11    1    3    3    0    0 -0.20313481721E+02 -0.85722981437E+01  0.16505195959E+01  0.22109863190E+02  0.51100000000E-03 0. -1.
        -11    1    3    3    0    0  0.18313712086E+01  0.14938991812E+02 -0.23229302073E+02  0.27679015010E+02  0.51100000000E-03 0.  1.
        -12    1    3    3    0    0  0.58102627704E+01  0.54676445010E+01 -0.51811350244E+01  0.95130673282E+01  0.00000000000E+00 0.  1.
</event>
<event>
 7    1  0.4673733E-013  0.5930198E+02  0.7816164E-02  0.1266605E+00
        -11   -1    0    0    0    0  0.00000000000E+00  0.00000000000E+00  0.45593999997E+02  0.45594000000E+02  0.51100000000E-03 0. -1.
         11   -1    0    0    0    0 -0.00000000000E+00 -0.00000000000E+00 -0.45593999997E+02  0.45594000000E+02  0.51100000000E-03 0.  1.
    9900012    2    1    2    0    0 -0.23715233537E+02 -0.61047785253E+01 -0.20421496420E+02  0.59301982083E+02  0.50000069405E+02 0.  0.
         12    1    1    2    0    0  0.23715233537E+02  0.61047785253E+01  0.20421496420E+02  0.31886017917E+02  0.00000000000E+00 0. -1.
         11    1    3    3    0    0 -0.18087500311E+02 -0.12362350507E+02  0.10947734152E+02  0.24491595719E+02  0.51100000000E-03 0. -1.
        -11    1    3    3    0    0  0.10607418729E+01 -0.31565799210E+01 -0.97050200819E+01  0.10260437864E+02  0.51100000000E-03 0.  1.
         12    1    3    3    0    0 -0.66884750989E+01  0.94141519031E+01 -0.21664210489E+02  0.24549948500E+02  0.00000000000E+00 0. -1.
</event>
<event>
 7    1  0.5380658E-013  0.5930172E+02  0.7816164E-02  0.1266606E+00
        -11   -1    0    0    0    0  0.00000000000E+00  0.00000000000E+00  0.45593999997E+02  0.45594000000E+02  0.51100000000E-03 0.  1.
         11   -1    0    0    0    0 -0.00000000000E+00 -0.00000000000E+00 -0.45593999997E+02  0.45594000000E+02  0.51100000000E-03 0. -1.
    9900012    2    1    2    0    0 -0.69674466117E+01 -0.17878586533E+02  0.25466554516E+02  0.59301724463E+02  0.49999599565E+02 0.  0.
         12    1    1    2    0    0  0.69674466117E+01  0.17878586533E+02 -0.25466554516E+02  0.31886275537E+02  0.00000000000E+00 0. -1.
         11    1    3    3    0    0  0.18422347211E+01 -0.29388696095E+01 -0.93105834863E+01  0.99356805739E+01  0.51100000000E-03 0. -1.
        -11    1    3    3    0    0 -0.15775567792E+01  0.21906631064E+01  0.30062150897E+02  0.30183117915E+02  0.51100000000E-03 0.  1.
        -12    1    3    3    0    0 -0.72321245537E+01 -0.17130380030E+02  0.47149871054E+01  0.19182925974E+02  0.00000000000E+00 0.  1.
</event>
<event>
 7    1  0.4673733E-013  0.5930193E+02  0.7816164E-02  0.1266605E+00
        -11   -1    0    0    0    0  0.00000000000E+00  0.00000000000E+00  0.45593999997E+02  0.45594000000E+02  0.51100000000E-03 0. -1.
         11   -1    0    0    0    0 -0.00000000000E+00 -0.00000000000E+00 -0.45593999997E+02  0.45594000000E+02  0.51100000000E-03 0.  1.
    9900012    2    1    2    0    0  0.35645352389E+01  0.20521647381E+02 -0.24142856044E+02  0.59301930617E+02  0.49999975543E+02 0.  0.
         12    1    1    2    0    0 -0.35645352389E+01 -0.20521647381E+02  0.24142856044E+02  0.31886069383E+02  0.00000000000E+00 0. -1.
         11    1    3    3    0    0  0.18036249187E+02  0.43673376194E+01 -0.46121711332E+01  0.19122030369E+02  0.51100000000E-03 0. -1.
        -11    1    3    3    0    0 -0.18762831398E+02  0.20867292458E+02 -0.12591428402E+02  0.30757630046E+02  0.51100000000E-03 0.  1.
        -12    1    3    3    0    0  0.42911174501E+01 -0.47129826963E+01 -0.69392565093E+01  0.94222702025E+01  0.00000000000E+00 0.  1.
</event>
<event>
 7    1  0.4673733E-013  0.5930193E+02  0.7816164E-02  0.1266605E+00
        -11   -1    0    0    0    0  0.00000000000E+00  0.00000000000E+00  0.45593999997E+02  0.45594000000E+02  0.51100000000E-03 0.  1.
         11   -1    0    0    0    0 -0.00000000000E+00 -0.00000000000E+00 -0.45593999997E+02  0.45594000000E+02  0.51100000000E-03 0. -1.
    9900012    2    1    2    0    0  0.46303553296E+01  0.49085269080E+01  0.31163880176E+02  0.59301933223E+02  0.49999980295E+02 0.  0.
         12    1    1    2    0    0 -0.46303553296E+01 -0.49085269080E+01 -0.31163880176E+02  0.31886066777E+02  0.00000000000E+00 0. -1.
         11    1    3    3    0    0 -0.36402169389E+01 -0.15394767732E+02 -0.47864057782E+00  0.15826533100E+02  0.51100000000E-03 0. -1.
        -11    1    3    3    0    0 -0.49242775364E+01  0.14252492371E+02  0.18744454640E+02  0.24056945527E+02  0.51100000000E-03 0.  1.
         12    1    3    3    0    0  0.13194849805E+02  0.60508022689E+01  0.12898066113E+02  0.19418454597E+02  0.00000000000E+00 0. -1.
</event>
<event>
 7    1  0.4673733E-013  0.5930191E+02  0.7816164E-02  0.1266605E+00
        -11   -1    0    0    0    0  0.00000000000E+00  0.00000000000E+00  0.45593999997E+02  0.45594000000E+02  0.51100000000E-03 0. -1.
         11   -1    0    0    0    0 -0.00000000000E+00 -0.00000000000E+00 -0.45593999997E+02  0.45594000000E+02  0.51100000000E-03 0.  1.
    9900012    2    1    2    0    0  0.31427186880E+02  0.20556051261E+01  0.49828938276E+01  0.59301908698E+02  0.49999935567E+02 0.  0.
         12    1    1    2    0    0 -0.31427186880E+02 -0.20556051261E+01 -0.49828938276E+01  0.31886091302E+02  0.00000000000E+00 0. -1.
         11    1    3    3    0    0  0.17442856195E+02  0.71103804935E+01  0.77089737550E+01  0.20352862689E+02  0.51100000000E-03 0. -1.
        -11    1    3    3    0    0  0.80089527947E+00 -0.18583496552E+02 -0.64657998200E+01  0.19692494634E+02  0.51100000000E-03 0.  1.
        -12    1    3    3    0    0  0.13183435405E+02  0.13528721185E+02  0.37397198926E+01  0.19256551375E+02  0.00000000000E+00 0.  1.
</event>
<event>
 7    1  0.4673733E-013  0.5930196E+02  0.7816164E-02  0.1266605E+00
        -11   -1    0    0    0    0  0.00000000000E+00  0.00000000000E+00  0.45593999997E+02  0.45594000000E+02  0.51100000000E-03 0. -1.
         11   -1    0    0    0    0 -0.00000000000E+00 -0.00000000000E+00 -0.45593999997E+02  0.45594000000E+02  0.51100000000E-03 0.  1.
    9900012    2    1    2    0    0 -0.30578077088E+02  0.25111776974E+01 -0.86830027514E+01  0.59301963109E+02  0.50000034800E+02 0.  0.
         12    1    1    2    0    0  0.30578077088E+02 -0.25111776974E+01  0.86830027514E+01  0.31886036891E+02  0.00000000000E+00 0. -1.
         11    1    3    3    0    0 -0.94428309480E+01 -0.12193309204E+02  0.93294511518E+01  0.18024497350E+02  0.51100000000E-03 0. -1.
        -11    1    3    3    0    0 -0.24328346300E+02  0.24858926230E+01 -0.10795104391E+02  0.26731673627E+02  0.51100000000E-03 0.  1.
         12    1    3    3    0    0  0.31931001600E+01  0.12218594278E+02 -0.72173495117E+01  0.14545792132E+02  0.00000000000E+00 0. -1.
</event>
<event>
 7    1  0.4673733E-013  0.5930193E+02  0.7816164E-02  0.1266605E+00
        -11   -1    0    0    0    0  0.00000000000E+00  0.00000000000E+00  0.45593999997E+02  0.45594000000E+02  0.51100000000E-03 0.  1.
         11   -1    0    0    0    0 -0.00000000000E+00 -0.00000000000E+00 -0.45593999997E+02  0.45594000000E+02  0.51100000000E-03 0. -1.
    9900012    2    1    2    0    0 -0.29141479306E+01 -0.13850284196E+02  0.28572691143E+02  0.59301932359E+02  0.49999978719E+02 0.  0.
         12    1    1    2    0    0  0.29141479306E+01  0.13850284196E+02 -0.28572691143E+02  0.31886067641E+02  0.00000000000E+00 0. -1.
         11    1    3    3    0    0 -0.52440998713E+00  0.10764027507E+02 -0.10682497839E+01  0.10829609960E+02  0.51100000000E-03 0. -1.
        -11    1    3    3    0    0  0.10829954631E+02 -0.19292986853E+02  0.25225519423E+02  0.33553451230E+02  0.51100000000E-03 0.  1.
        -12    1    3    3    0    0 -0.13219692574E+02 -0.53213248502E+01  0.44154215041E+01  0.14918871169E+02  0.00000000000E+00 0.  1.
</event>
<event>
 7    1  0.5546052E-013  0.5930194E+02  0.7816164E-02  0.1266605E+00
        -11   -1    0    0    0    0  0.00000000000E+00  0.00000000000E+00  0.45593999997E+02  0.45594000000E+02  0.51100000000E-03 0.  1.
         11   -1    0    0    0    0 -0.00000000000E+00 -0.00000000000E+00 -0.45593999997E+02  0.45594000000E+02  0.51100000000E-03 0. -1.
    9900012    2    1    2    0    0  0.26210490676E+02 -0.54159392194E+00  0.18150410500E+02  0.59301944320E+02  0.50000000534E+02 0.  0.
         12    1    1    2    0    0 -0.26210490676E+02  0.54159392194E+00 -0.18150410500E+02  0.31886055680E+02  0.00000000000E+00 0. -1.
         11    1    3    3    0    0 -0.67541772053E+01 -0.88512757639E+01 -0.12487414504E-02  0.11133911900E+02  0.51100000000E-03 0. -1.
        -11    1    3    3    0    0  0.26256797983E+02  0.43067230594E+01 -0.18732062991E+01  0.26673511316E+02  0.51100000000E-03 0.  1.
        -12    1    3    3    0    0  0.67078698993E+01  0.40029587826E+01  0.20024865541E+02  0.21494521105E+02  0.00000000000E+00 0.  1.
</event>
<event>
 7    1  0.4673733E-013  0.5930196E+02  0.7816164E-02  0.1266605E+00
        -11   -1    0    0    0    0  0.00000000000E+00  0.00000000000E+00  0.45593999997E+02  0.45594000000E+02  0.51100000000E-03 0.  1.
         11   -1    0    0    0    0 -0.00000000000E+00 -0.00000000000E+00 -0.45593999997E+02  0.45594000000E+02  0.51100000000E-03 0. -1.
    9900012    2    1    2    0    0  0.45969138996E+01 -0.31044572670E+02  0.56411317874E+01  0.59301961087E+02  0.50000031113E+02 0.  0.
         12    1    1    2    0    0 -0.45969138996E+01  0.31044572670E+02 -0.56411317874E+01  0.31886038913E+02  0.00000000000E+00 0. -1.
         11    1    3    3    0    0 -0.54759111289E+01 -0.31596933957E+02 -0.67552436045E+01  0.32771712720E+02  0.51100000000E-03 0. -1.
        -11    1    3    3    0    0  0.12670522858E+02 -0.76796649138E+01  0.75050486852E+01  0.16608586897E+02  0.51100000000E-03 0.  1.
         12    1    3    3    0    0 -0.25976978295E+01  0.82320262007E+01  0.48913267067E+01  0.99216614704E+01  0.00000000000E+00 0. -1.
</event>
<event>
 7    1  0.4673733E-013  0.5930188E+02  0.7816164E-02  0.1266605E+00
        -11   -1    0    0    0    0  0.00000000000E+00  0.00000000000E+00  0.45593999997E+02  0.45594000000E+02  0.51100000000E-03 0.  1.
         11   -1    0    0    0    0 -0.00000000000E+00 -0.00000000000E+00 -0.45593999997E+02  0.45594000000E+02  0.51100000000E-03 0. -1.
    9900012    2    1    2    0    0  0.38783835323E+01 -0.31595668855E+02 -0.18428828092E+01  0.59301884428E+02  0.49999891305E+02 0.  0.
         12    1    1    2    0    0 -0.38783835323E+01  0.31595668855E+02  0.18428828092E+01  0.31886115572E+02  0.00000000000E+00 0. -1.
         11    1    3    3    0    0  0.87915537604E+01 -0.17412123865E+02 -0.13600954141E+02  0.23779390842E+02  0.51100000000E-03 0. -1.
        -11    1    3    3    0    0  0.61004043509E+01 -0.11360000385E+02  0.18314081437E+02  0.22397993686E+02  0.51100000000E-03 0.  1.
         12    1    3    3    0    0 -0.11013574579E+02 -0.28235446043E+01 -0.65560101052E+01  0.13124499900E+02  0.00000000000E+00 0. -1.
</event>
<event>
 7    1  0.4673733E-013  0.5930196E+02  0.7816164E-02  0.1266605E+00
        -11   -1    0    0    0    0  0.00000000000E+00  0.00000000000E+00  0.45593999997E+02  0.45594000000E+02  0.51100000000E-03 0.  1.
         11   -1    0    0    0    0 -0.00000000000E+00 -0.00000000000E+00 -0.45593999997E+02  0.45594000000E+02  0.51100000000E-03 0. -1.
    9900012    2    1    2    0    0 -0.22116681291E+02 -0.22619562058E+02  0.39908886109E+01  0.59301962760E+02  0.50000034163E+02 0.  0.
         12    1    1    2    0    0  0.22116681291E+02  0.22619562058E+02 -0.39908886109E+01  0.31886037240E+02  0.00000000000E+00 0. -1.
         11    1    3    3    0    0  0.89210115055E+01 -0.11813069050E+02 -0.67227119311E+01  0.16258164184E+02  0.51100000000E-03 0. -1.
        -11    1    3    3    0    0 -0.91824031576E+01 -0.81050713182E+01  0.16238641501E+02  0.20339670275E+02  0.51100000000E-03 0.  1.
         12    1    3    3    0    0 -0.21855289639E+02 -0.27014216899E+01 -0.55250409590E+01  0.22704128301E+02  0.00000000000E+00 0. -1.
</event>
<event>
 7    1  0.4673733E-013  0.5930194E+02  0.7816164E-02  0.1266605E+00
        -11   -1    0    0    0    0  0.00000000000E+00  0.00000000000E+00  0.45593999997E+02  0.45594000000E+02  0.51100000000E-03 0. -1.
         11   -1    0    0    0    0 -0.00000000000E+00 -0.00000000000E+00 -0.45593999997E+02  0.45594000000E+02  0.51100000000E-03 0.  1.
    9900012    2    1    2    0    0  0.18815177369E+02  0.25728960642E+02  0.85478129055E+00  0.59301937744E+02  0.49999988541E+02 0.  0.
         12    1    1    2    0    0 -0.18815177369E+02 -0.25728960642E+02 -0.85478129055E+00  0.31886062256E+02  0.00000000000E+00 0. -1.
         11    1    3    3    0    0 -0.90174621193E+01  0.12815571707E+02  0.11870587512E+02  0.19658696533E+02  0.51100000000E-03 0. -1.
        -11    1    3    3    0    0  0.27565280798E+02  0.28268212002E+01 -0.59027239845E+01  0.28331568510E+02  0.51100000000E-03 0.  1.
        -12    1    3    3    0    0  0.26735869044E+00  0.10086567735E+02 -0.51130822366E+01  0.11311672701E+02  0.00000000000E+00 0.  1.
</event>
<event>
 7    1  0.4673733E-013  0.5930187E+02  0.7816164E-02  0.1266605E+00
        -11   -1    0    0    0    0  0.00000000000E+00  0.00000000000E+00  0.45593999997E+02  0.45594000000E+02  0.51100000000E-03 0.  1.
         11   -1    0    0    0    0 -0.00000000000E+00 -0.00000000000E+00 -0.45593999997E+02  0.45594000000E+02  0.51100000000E-03 0. -1.
    9900012    2    1    2    0    0 -0.31820874565E+02  0.19568981510E+01 -0.57267759196E+00  0.59301867151E+02  0.49999859794E+02 0.  0.
         12    1    1    2    0    0  0.31820874565E+02 -0.19568981510E+01  0.57267759196E+00  0.31886132849E+02  0.00000000000E+00 0. -1.
         11    1    3    3    0    0  0.18716363549E+01 -0.11218817510E+02  0.13615459906E+01  0.11455072968E+02  0.51100000000E-03 0. -1.
        -11    1    3    3    0    0 -0.36752861354E+02  0.98117282178E+01 -0.93273988230E+01  0.39166863513E+02  0.51100000000E-03 0.  1.
        -12    1    3    3    0    0  0.30603504344E+01  0.33639874428E+01  0.73931752405E+01  0.86799306699E+01  0.00000000000E+00 0.  1.
</event>
<event>
 7    1  0.4673733E-013  0.5930194E+02  0.7816164E-02  0.1266605E+00
        -11   -1    0    0    0    0  0.00000000000E+00  0.00000000000E+00  0.45593999997E+02  0.45594000000E+02  0.51100000000E-03 0. -1.
         11   -1    0    0    0    0 -0.00000000000E+00 -0.00000000000E+00 -0.45593999997E+02  0.45594000000E+02  0.51100000000E-03 0.  1.
    9900012    2    1    2    0    0 -0.17449600647E+02  0.88103538368E+01 -0.25191471250E+02  0.59301935313E+02  0.49999984106E+02 0.  0.
         12    1    1    2    0    0  0.17449600647E+02 -0.88103538368E+01  0.25191471250E+02  0.31886064687E+02  0.00000000000E+00 0. -1.
         11    1    3    3    0    0 -0.11726435975E+02  0.14190104064E+02  0.54063420512E+01  0.19185851262E+02  0.51100000000E-03 0. -1.
        -11    1    3    3    0    0 -0.31755943658E+01 -0.66446797589E+01 -0.34505608052E+02  0.35282760039E+02  0.51100000000E-03 0.  1.
         12    1    3    3    0    0 -0.25475703066E+01  0.12649295315E+01  0.39077947507E+01  0.48333240115E+01  0.00000000000E+00 0. -1.
</event>
<event>
 7    1  0.4673733E-013  0.5930170E+02  0.7816164E-02  0.1266606E+00
        -11   -1    0    0    0    0  0.00000000000E+00  0.00000000000E+00  0.45593999997E+02  0.45594000000E+02  0.51100000000E-03 0.  1.
         11   -1    0    0    0    0 -0.00000000000E+00 -0.00000000000E+00 -0.45593999997E+02  0.45594000000E+02  0.51100000000E-03 0. -1.
    9900012    2    1    2    0    0 -0.22770871021E+02  0.49529957284E+01  0.21764449391E+02  0.59301702143E+02  0.49999558858E+02 0.  0.
         12    1    1    2    0    0  0.22770871021E+02 -0.49529957284E+01 -0.21764449391E+02  0.31886297857E+02  0.00000000000E+00 0. -1.
         11    1    3    3    0    0 -0.12846262023E+02 -0.45698156381E+01  0.25661306131E+02  0.29058773125E+02  0.51100000000E-03 0. -1.
        -11    1    3    3    0    0 -0.16728377649E+02  0.13472231172E+02 -0.34218289630E-01  0.21478845469E+02  0.51100000000E-03 0.  1.
         12    1    3    3    0    0  0.68037686505E+01 -0.39494198059E+01 -0.38626384504E+01  0.87640835489E+01  0.00000000000E+00 0. -1.
</event>
<event>
 7    1  0.4673733E-013  0.5930195E+02  0.7816164E-02  0.1266605E+00
        -11   -1    0    0    0    0  0.00000000000E+00  0.00000000000E+00  0.45593999997E+02  0.45594000000E+02  0.51100000000E-03 0. -1.
         11   -1    0    0    0    0 -0.00000000000E+00 -0.00000000000E+00 -0.45593999997E+02  0.45594000000E+02  0.51100000000E-03 0.  1.
    9900012    2    1    2    0    0  0.24742572192E+02 -0.17740124068E+02 -0.94769815570E+01  0.59301951953E+02  0.50000014454E+02 0.  0.
         12    1    1    2    0    0 -0.24742572192E+02  0.17740124068E+02  0.94769815570E+01  0.31886048047E+02  0.00000000000E+00 0. -1.
         11    1    3    3    0    0 -0.10232476718E+02  0.55328353507E+01 -0.94710844701E+01  0.15000576259E+02  0.51100000000E-03 0. -1.
        -11    1    3    3    0    0  0.15622274491E+02 -0.13262750623E+02 -0.66127152577E+01  0.21533323425E+02  0.51100000000E-03 0.  1.
         12    1    3    3    0    0  0.19352774418E+02 -0.10010208795E+02  0.66068181708E+01  0.22768052270E+02  0.00000000000E+00 0. -1.
</event>
<event>
 7    1  0.4673733E-013  0.5930195E+02  0.7816164E-02  0.1266605E+00
        -11   -1    0    0    0    0  0.00000000000E+00  0.00000000000E+00  0.45593999997E+02  0.45594000000E+02  0.51100000000E-03 0.  1.
         11   -1    0    0    0    0 -0.00000000000E+00 -0.00000000000E+00 -0.45593999997E+02  0.45594000000E+02  0.51100000000E-03 0. -1.
    9900012    2    1    2    0    0 -0.75855329590E+01 -0.24032025430E+01  0.30877249618E+02  0.59301949183E+02  0.50000009402E+02 0.  0.
         12    1    1    2    0    0  0.75855329590E+01  0.24032025430E+01 -0.30877249618E+02  0.31886050817E+02  0.00000000000E+00 0. -1.
         11    1    3    3    0    0  0.15085220277E+02  0.20152362193E+01  0.27297162819E+02  0.31253162177E+02  0.51100000000E-03 0.  1.
        -11    1    3    3    0    0 -0.17765249019E+02 -0.99700304913E+01  0.19636285216E+01  0.20466104122E+02  0.51100000000E-03 0. -1.
        -12    1    3    3    0    0 -0.49055042171E+01  0.55515917289E+01  0.16164582780E+01  0.75826828836E+01  0.00000000000E+00 0.  1.
</event>
<event>
 7    1  0.4673733E-013  0.5930175E+02  0.7816164E-02  0.1266605E+00
        -11   -1    0    0    0    0  0.00000000000E+00  0.00000000000E+00  0.45593999997E+02  0.45594000000E+02  0.51100000000E-03 0. -1.
         11   -1    0    0    0    0 -0.00000000000E+00 -0.00000000000E+00 -0.45593999997E+02  0.45594000000E+02  0.51100000000E-03 0.  1.
    9900012    2    1    2    0    0  0.30495845598E+02 -0.87153610998E+01 -0.32830782053E+01  0.59301753430E+02  0.49999652394E+02 0.  0.
         12    1    1    2    0    0 -0.30495845598E+02  0.87153610998E+01  0.32830782053E+01  0.31886246570E+02  0.00000000000E+00 0. -1.
         11    1    3    3    0    0  0.15109525266E+02 -0.12800027761E+02  0.11748212033E+02  0.23025180795E+02  0.51100000000E-03 0. -1.
        -11    1    3    3    0    0  0.57707976694E+01 -0.12521978472E+01 -0.22316871258E+02  0.23084905202E+02  0.51100000000E-03 0.  1.
        -12    1    3    3    0    0  0.96155226626E+01  0.53368645083E+01  0.72855810200E+01  0.13191667433E+02  0.00000000000E+00 0.  1.
</event>
<event>
 7    1  0.4673733E-013  0.5930193E+02  0.7816164E-02  0.1266605E+00
        -11   -1    0    0    0    0  0.00000000000E+00  0.00000000000E+00  0.45593999997E+02  0.45594000000E+02  0.51100000000E-03 0. -1.
         11   -1    0    0    0    0 -0.00000000000E+00 -0.00000000000E+00 -0.45593999997E+02  0.45594000000E+02  0.51100000000E-03 0.  1.
    9900012    2    1    2    0    0  0.24322176921E+02 -0.11348883070E+02 -0.17214988572E+02  0.59301933001E+02  0.49999979890E+02 0.  0.
         12    1    1    2    0    0 -0.24322176921E+02  0.11348883070E+02  0.17214988572E+02  0.31886066999E+02  0.00000000000E+00 0. -1.
         11    1    3    3    0    0  0.11062422302E+02 -0.16406927033E+02  0.13683407012E+02  0.24058264060E+02  0.51100000000E-03 0. -1.
        -11    1    3    3    0    0  0.10028486892E+01  0.20514865474E+01 -0.13824805039E+02  0.14012121080E+02  0.51100000000E-03 0.  1.
         12    1    3    3    0    0  0.12256905931E+02  0.30065574157E+01 -0.17073590545E+02  0.21231547861E+02  0.00000000000E+00 0. -1.
</event>
<event>
 7    1  0.4673733E-013  0.5930194E+02  0.7816164E-02  0.1266605E+00
        -11   -1    0    0    0    0  0.00000000000E+00  0.00000000000E+00  0.45593999997E+02  0.45594000000E+02  0.51100000000E-03 0. -1.
         11   -1    0    0    0    0 -0.00000000000E+00 -0.00000000000E+00 -0.45593999997E+02  0.45594000000E+02  0.51100000000E-03 0.  1.
    9900012    2    1    2    0    0  0.22661771257E+01  0.25076631258E+02 -0.19563938079E+02  0.59301942433E+02  0.49999997091E+02 0.  0.
         12    1    1    2    0    0 -0.22661771257E+01 -0.25076631258E+02  0.19563938079E+02  0.31886057567E+02  0.00000000000E+00 0. -1.
         11    1    3    3    0    0  0.76155649538E+01 -0.94508695879E+01  0.11872449481E+01  0.12195298945E+02  0.51100000000E-03 0. -1.
        -11    1    3    3    0    0  0.88393448602E+01  0.69949266328E+01 -0.45969477512E+01  0.12173534616E+02  0.51100000000E-03 0.  1.
         12    1    3    3    0    0 -0.14188732688E+02  0.27532574213E+02 -0.16154235276E+02  0.34933108872E+02  0.00000000000E+00 0. -1.
</event>
<event>
 7    1  0.4673733E-013  0.5930196E+02  0.7816164E-02  0.1266605E+00
        -11   -1    0    0    0    0  0.00000000000E+00  0.00000000000E+00  0.45593999997E+02  0.45594000000E+02  0.51100000000E-03 0.  1.
         11   -1    0    0    0    0 -0.00000000000E+00 -0.00000000000E+00 -0.45593999997E+02  0.45594000000E+02  0.51100000000E-03 0. -1.
    9900012    2    1    2    0    0  0.11147537542E+02 -0.10649067628E+02  0.27911459852E+02  0.59301955628E+02  0.50000021157E+02 0.  0.
         12    1    1    2    0    0 -0.11147537542E+02  0.10649067628E+02 -0.27911459852E+02  0.31886044372E+02  0.00000000000E+00 0. -1.
         11    1    3    3    0    0  0.11458142229E+02  0.27169405755E+01  0.42838657108E+01  0.12530853727E+02  0.51100000000E-03 0. -1.
        -11    1    3    3    0    0 -0.10038219055E+02 -0.15673006530E+02  0.29717571867E+02  0.35064840702E+02  0.51100000000E-03 0.  1.
        -12    1    3    3    0    0  0.97276143681E+01  0.23069983266E+01 -0.60899777258E+01  0.11706261200E+02  0.00000000000E+00 0.  1.
</event>
<event>
 7    1  0.4673733E-013  0.5930195E+02  0.7816164E-02  0.1266605E+00
        -11   -1    0    0    0    0  0.00000000000E+00  0.00000000000E+00  0.45593999997E+02  0.45594000000E+02  0.51100000000E-03 0.  1.
         11   -1    0    0    0    0 -0.00000000000E+00 -0.00000000000E+00 -0.45593999997E+02  0.45594000000E+02  0.51100000000E-03 0. -1.
    9900012    2    1    2    0    0 -0.25604286690E+02  0.14500305858E+02  0.12283399515E+02  0.59301948653E+02  0.50000008435E+02 0.  0.
         12    1    1    2    0    0  0.25604286690E+02 -0.14500305858E+02 -0.12283399515E+02  0.31886051347E+02  0.00000000000E+00 0. -1.
         11    1    3    3    0    0 -0.61232079791E+01 -0.11053147491E+02 -0.10197336422E+02  0.16237346328E+02  0.51100000000E-03 0. -1.
        -11    1    3    3    0    0 -0.21867001924E+02  0.24739777233E+02  0.17238289629E+02  0.37247563414E+02  0.51100000000E-03 0.  1.
         12    1    3    3    0    0  0.23859232132E+01  0.81367611575E+00  0.52424463079E+01  0.58170389109E+01  0.00000000000E+00 0. -1.
</event>
<event>
 7    1  0.4673733E-013  0.5930196E+02  0.7816164E-02  0.1266605E+00
        -11   -1    0    0    0    0  0.00000000000E+00  0.00000000000E+00  0.45593999997E+02  0.45594000000E+02  0.51100000000E-03 0. -1.
         11   -1    0    0    0    0 -0.00000000000E+00 -0.00000000000E+00 -0.45593999997E+02  0.45594000000E+02  0.51100000000E-03 0.  1.
    9900012    2    1    2    0    0 -0.33700617853E+01 -0.22323456161E+02 -0.22517228335E+02  0.59301959429E+02  0.50000028087E+02 0.  0.
         12    1    1    2    0    0  0.33700617853E+01  0.22323456161E+02  0.22517228335E+02  0.31886040571E+02  0.00000000000E+00 0. -1.
         11    1    3    3    0    0 -0.91277662344E+01 -0.11863725429E+02 -0.29587741800E+02  0.33158687589E+02  0.51100000000E-03 0.  1.
        -11    1    3    3    0    0  0.10103244483E+02  0.32685394036E+01  0.15958629388E+01  0.10738048132E+02  0.51100000000E-03 0. -1.
        -12    1    3    3    0    0 -0.43455400336E+01 -0.13728270136E+02  0.54746505263E+01  0.15405223708E+02  0.00000000000E+00 0.  1.
</event>
<event>
 7    1  0.4673733E-013  0.5930194E+02  0.7816164E-02  0.1266605E+00
        -11   -1    0    0    0    0  0.00000000000E+00  0.00000000000E+00  0.45593999997E+02  0.45594000000E+02  0.51100000000E-03 0.  1.
         11   -1    0    0    0    0 -0.00000000000E+00 -0.00000000000E+00 -0.45593999997E+02  0.45594000000E+02  0.51100000000E-03 0. -1.
    9900012    2    1    2    0    0  0.23984702421E+02 -0.64960389009E+01  0.19981393576E+02  0.59301944100E+02  0.50000000131E+02 0.  0.
         12    1    1    2    0    0 -0.23984702421E+02  0.64960389009E+01 -0.19981393576E+02  0.31886055900E+02  0.00000000000E+00 0. -1.
         11    1    3    3    0    0  0.11579371315E+02 -0.15199489704E+02  0.77503121739E+01  0.20619739725E+02  0.51100000000E-03 0. -1.
        -11    1    3    3    0    0 -0.98451287152E+01 -0.35376722992E+01  0.74438536731E+01  0.12839495414E+02  0.51100000000E-03 0.  1.
        -12    1    3    3    0    0  0.22250459822E+02  0.12241123102E+02  0.47872277287E+01  0.25842708960E+02  0.00000000000E+00 0.  1.
</event>
<event>
 7    1  0.4673733E-013  0.5930200E+02  0.7816164E-02  0.1266605E+00
        -11   -1    0    0    0    0  0.00000000000E+00  0.00000000000E+00  0.45593999997E+02  0.45594000000E+02  0.51100000000E-03 0.  1.
         11   -1    0    0    0    0 -0.00000000000E+00 -0.00000000000E+00 -0.45593999997E+02  0.45594000000E+02  0.51100000000E-03 0. -1.
    9900012    2    1    2    0    0  0.34498616793E+01  0.31602734400E+02 -0.24663539978E+01  0.59301995716E+02  0.50000094266E+02 0.  0.
         12    1    1    2    0    0 -0.34498616793E+01 -0.31602734400E+02  0.24663539978E+01  0.31886004284E+02  0.00000000000E+00 0. -1.
         11    1    3    3    0    0  0.38101483998E+00  0.24798375335E+02  0.19229709345E+02  0.31382898422E+02  0.51100000000E-03 0.  1.
        -11    1    3    3    0    0  0.52434024007E+01 -0.25171170375E-01 -0.19831766372E+02  0.20513236215E+02  0.51100000000E-03 0. -1.
        -12    1    3    3    0    0 -0.21745555613E+01  0.68295302353E+01 -0.18642969709E+01  0.74058610789E+01  0.00000000000E+00 0.  1.
</event>
<event>
 7    1  0.4673733E-013  0.5930200E+02  0.7816164E-02  0.1266605E+00
        -11   -1    0    0    0    0  0.00000000000E+00  0.00000000000E+00  0.45593999997E+02  0.45594000000E+02  0.51100000000E-03 0.  1.
         11   -1    0    0    0    0 -0.00000000000E+00 -0.00000000000E+00 -0.45593999997E+02  0.45594000000E+02  0.51100000000E-03 0. -1.
    9900012    2    1    2    0    0  0.30916642212E+01  0.28403593891E+02  0.14156067158E+02  0.59302003529E+02  0.50000108517E+02 0.  0.
         12    1    1    2    0    0 -0.30916642212E+01 -0.28403593891E+02 -0.14156067158E+02  0.31885996471E+02  0.00000000000E+00 0. -1.
         11    1    3    3    0    0  0.80525626225E+01  0.45051223465E+01 -0.28863722372E+01  0.96680420510E+01  0.51100000000E-03 0. -1.
        -11    1    3    3    0    0 -0.15237029979E+02  0.29607544210E+02  0.17977503747E+02  0.37841305448E+02  0.51100000000E-03 0.  1.
        -12    1    3    3    0    0  0.10276131578E+02 -0.57090726661E+01 -0.93506435230E+00  0.11792656031E+02  0.00000000000E+00 0.  1.
</event>
<event>
 7    1  0.4673733E-013  0.5930193E+02  0.7816164E-02  0.1266605E+00
        -11   -1    0    0    0    0  0.00000000000E+00  0.00000000000E+00  0.45593999997E+02  0.45594000000E+02  0.51100000000E-03 0.  1.
         11   -1    0    0    0    0 -0.00000000000E+00 -0.00000000000E+00 -0.45593999997E+02  0.45594000000E+02  0.51100000000E-03 0. -1.
    9900012    2    1    2    0    0  0.59740379673E+01  0.30708860529E+02  0.61642738791E+01  0.59301929106E+02  0.49999972786E+02 0.  0.
         12    1    1    2    0    0 -0.59740379673E+01 -0.30708860529E+02 -0.61642738791E+01  0.31886070894E+02  0.00000000000E+00 0. -1.
         11    1    3    3    0    0 -0.14206227044E+01  0.32388369227E+02 -0.90888311988E+01  0.33669444350E+02  0.51100000000E-03 0. -1.
        -11    1    3    3    0    0  0.10387732380E+01 -0.50061769515E+01  0.17406945178E+02  0.18142287568E+02  0.51100000000E-03 0.  1.
        -12    1    3    3    0    0  0.63558874337E+01  0.33266682537E+01 -0.21538400997E+01  0.74901971880E+01  0.00000000000E+00 0.  1.
</event>
<event>
 7    1  0.4673733E-013  0.5930194E+02  0.7816164E-02  0.1266605E+00
        -11   -1    0    0    0    0  0.00000000000E+00  0.00000000000E+00  0.45593999997E+02  0.45594000000E+02  0.51100000000E-03 0.  1.
         11   -1    0    0    0    0 -0.00000000000E+00 -0.00000000000E+00 -0.45593999997E+02  0.45594000000E+02  0.51100000000E-03 0. -1.
    9900012    2    1    2    0    0 -0.21342939809E+02  0.70234318631E+01  0.22624565327E+02  0.59301942999E+02  0.49999998124E+02 0.  0.
         12    1    1    2    0    0  0.21342939809E+02 -0.70234318631E+01 -0.22624565327E+02  0.31886057001E+02  0.00000000000E+00 0. -1.
         11    1    3    3    0    0  0.25783939883E+01  0.11649924019E+02 -0.85321499121E+01  0.14668552334E+02  0.51100000000E-03 0. -1.
        -11    1    3    3    0    0 -0.13017829766E+02 -0.90396562662E+01  0.28444851027E+02  0.32562076522E+02  0.51100000000E-03 0.  1.
         12    1    3    3    0    0 -0.10903504032E+02  0.44131641105E+01  0.27118642121E+01  0.12071314143E+02  0.00000000000E+00 0. -1.
</event>
<event>
 7    1  0.4673733E-013  0.5930194E+02  0.7816164E-02  0.1266605E+00
        -11   -1    0    0    0    0  0.00000000000E+00  0.00000000000E+00  0.45593999997E+02  0.45594000000E+02  0.51100000000E-03 0.  1.
         11   -1    0    0    0    0 -0.00000000000E+00 -0.00000000000E+00 -0.45593999997E+02  0.45594000000E+02  0.51100000000E-03 0. -1.
    9900012    2    1    2    0    0  0.24030328282E+02  0.12288219354E+02  0.16978334944E+02  0.59301939257E+02  0.49999991299E+02 0.  0.
         12    1    1    2    0    0 -0.24030328282E+02 -0.12288219354E+02 -0.16978334944E+02  0.31886060743E+02  0.00000000000E+00 0. -1.
         11    1    3    3    0    0  0.14588825437E+02  0.69190032472E+01 -0.14868729938E+02  0.21949614207E+02  0.51100000000E-03 0. -1.
        -11    1    3    3    0    0  0.97215822920E+01  0.96313540303E+01  0.16575275123E+02  0.21494461807E+02  0.51100000000E-03 0.  1.
         12    1    3    3    0    0 -0.28007944734E+00 -0.42621379234E+01  0.15271789760E+02  0.15857863243E+02  0.00000000000E+00 0. -1.
</event>
<event>
 7    1  0.4673733E-013  0.5930189E+02  0.7816164E-02  0.1266605E+00
        -11   -1    0    0    0    0  0.00000000000E+00  0.00000000000E+00  0.45593999997E+02  0.45594000000E+02  0.51100000000E-03 0. -1.
         11   -1    0    0    0    0 -0.00000000000E+00 -0.00000000000E+00 -0.45593999997E+02  0.45594000000E+02  0.51100000000E-03 0.  1.
    9900012    2    1    2    0    0 -0.59807415479E+01 -0.26483350798E+02 -0.16720845102E+02  0.59301893309E+02  0.49999907501E+02 0.  0.
         12    1    1    2    0    0  0.59807415479E+01  0.26483350798E+02  0.16720845102E+02  0.31886106691E+02  0.00000000000E+00 0. -1.
         11    1    3    3    0    0  0.81257460070E+01  0.76428448492E+01  0.13672560326E+01  0.11238781735E+02  0.51100000000E-03 0. -1.
        -11    1    3    3    0    0 -0.12069115748E+00 -0.27208642088E+02 -0.49286693378E+01  0.27651700713E+02  0.51100000000E-03 0.  1.
         12    1    3    3    0    0 -0.13985796397E+02 -0.69175535594E+01 -0.13159431797E+02  0.20411410861E+02  0.00000000000E+00 0. -1.
</event>
<event>
 7    1  0.4673733E-013  0.5930194E+02  0.7816164E-02  0.1266605E+00
        -11   -1    0    0    0    0  0.00000000000E+00  0.00000000000E+00  0.45593999997E+02  0.45594000000E+02  0.51100000000E-03 0.  1.
         11   -1    0    0    0    0 -0.00000000000E+00 -0.00000000000E+00 -0.45593999997E+02  0.45594000000E+02  0.51100000000E-03 0. -1.
    9900012    2    1    2    0    0  0.30572220929E+02 -0.73085386074E+01  0.53521405690E+01  0.59301939758E+02  0.49999992213E+02 0.  0.
         12    1    1    2    0    0 -0.30572220929E+02  0.73085386074E+01 -0.53521405690E+01  0.31886060242E+02  0.00000000000E+00 0. -1.
         11    1    3    3    0    0  0.18292000669E+02 -0.12397342616E+02 -0.17946568704E+02  0.28467011099E+02  0.51100000000E-03 0. -1.
        -11    1    3    3    0    0  0.85838571876E+01 -0.39724256586E+01  0.16149636869E+02  0.18715596200E+02  0.51100000000E-03 0.  1.
        -12    1    3    3    0    0  0.36963630718E+01  0.90612296668E+01  0.71490724034E+01  0.12119332459E+02  0.00000000000E+00 0.  1.
</event>
<event>
 7    1  0.4673733E-013  0.5930199E+02  0.7816164E-02  0.1266605E+00
        -11   -1    0    0    0    0  0.00000000000E+00  0.00000000000E+00  0.45593999997E+02  0.45594000000E+02  0.51100000000E-03 0.  1.
         11   -1    0    0    0    0 -0.00000000000E+00 -0.00000000000E+00 -0.45593999997E+02  0.45594000000E+02  0.51100000000E-03 0. -1.
    9900012    2    1    2    0    0 -0.11777898636E+01  0.22892335056E+02  0.22164637365E+02  0.59301994562E+02  0.50000092162E+02 0.  0.
         12    1    1    2    0    0  0.11777898636E+01 -0.22892335056E+02 -0.22164637365E+02  0.31886005438E+02  0.00000000000E+00 0. -1.
         11    1    3    3    0    0 -0.73664720898E+01  0.89623948342E+01 -0.14116999501E+02  0.18272359108E+02  0.51100000000E-03 0. -1.
        -11    1    3    3    0    0 -0.85202913124E+00  0.51505423185E+01  0.23168920380E+02  0.23749798139E+02  0.51100000000E-03 0.  1.
         12    1    3    3    0    0  0.70407113574E+01  0.87793979036E+01  0.13112716486E+02  0.17279837314E+02  0.00000000000E+00 0. -1.
</event>
<event>
 7    1  0.4673733E-013  0.5930188E+02  0.7816164E-02  0.1266605E+00
        -11   -1    0    0    0    0  0.00000000000E+00  0.00000000000E+00  0.45593999997E+02  0.45594000000E+02  0.51100000000E-03 0.  1.
         11   -1    0    0    0    0 -0.00000000000E+00 -0.00000000000E+00 -0.45593999997E+02  0.45594000000E+02  0.51100000000E-03 0. -1.
    9900012    2    1    2    0    0 -0.17382168589E+02 -0.17171833601E+02  0.20486905340E+02  0.59301875361E+02  0.49999874768E+02 0.  0.
         12    1    1    2    0    0  0.17382168589E+02  0.17171833601E+02 -0.20486905340E+02  0.31886124639E+02  0.00000000000E+00 0. -1.
         11    1    3    3    0    0  0.60278192431E-01 -0.17491744049E+02 -0.95460043789E+01  0.19927140868E+02  0.51100000000E-03 0. -1.
        -11    1    3    3    0    0 -0.78501697569E+01  0.88949873347E+01  0.19130005155E+02  0.22510065801E+02  0.51100000000E-03 0.  1.
        -12    1    3    3    0    0 -0.95922770248E+01 -0.85750768865E+01  0.10902904564E+02  0.16864668691E+02  0.00000000000E+00 0.  1.
</event>
<event>
 7    1  0.4673733E-013  0.5930194E+02  0.7816164E-02  0.1266605E+00
        -11   -1    0    0    0    0  0.00000000000E+00  0.00000000000E+00  0.45593999997E+02  0.45594000000E+02  0.51100000000E-03 0.  1.
         11   -1    0    0    0    0 -0.00000000000E+00 -0.00000000000E+00 -0.45593999997E+02  0.45594000000E+02  0.51100000000E-03 0. -1.
    9900012    2    1    2    0    0  0.28755602449E+02 -0.11110314433E+02  0.81484322505E+01  0.59301941806E+02  0.49999995949E+02 0.  0.
         12    1    1    2    0    0 -0.28755602449E+02  0.11110314433E+02 -0.81484322505E+01  0.31886058194E+02  0.00000000000E+00 0. -1.
         11    1    3    3    0    0  0.10493323344E+02 -0.42705158720E+01 -0.10182248707E+02  0.15232377674E+02  0.51100000000E-03 0. -1.
        -11    1    3    3    0    0  0.51486615460E+01  0.14293247674E+02  0.74955662631E+01  0.16940754371E+02  0.51100000000E-03 0.  1.
        -12    1    3    3    0    0  0.13113617558E+02 -0.21133046235E+02  0.10835114694E+02  0.27128809762E+02  0.00000000000E+00 0.  1.
</event>
<event>
 7    1  0.4673733E-013  0.5930194E+02  0.7816164E-02  0.1266605E+00
        -11   -1    0    0    0    0  0.00000000000E+00  0.00000000000E+00  0.45593999997E+02  0.45594000000E+02  0.51100000000E-03 0.  1.
         11   -1    0    0    0    0 -0.00000000000E+00 -0.00000000000E+00 -0.45593999997E+02  0.45594000000E+02  0.51100000000E-03 0. -1.
    9900012    2    1    2    0    0  0.11413096513E+02  0.29366609735E+02  0.49055246901E+01  0.59301941733E+02  0.49999995815E+02 0.  0.
         12    1    1    2    0    0 -0.11413096513E+02 -0.29366609735E+02 -0.49055246901E+01  0.31886058267E+02  0.00000000000E+00 0. -1.
         11    1    3    3    0    0  0.26152372002E+02  0.15321320248E+02  0.11619598586E+02  0.32460814639E+02  0.51100000000E-03 0.  1.
        -11    1    3    3    0    0 -0.90530189407E+01  0.37576954690E+01 -0.10622490243E+02  0.14453882745E+02  0.51100000000E-03 0. -1.
        -12    1    3    3    0    0 -0.56862565483E+01  0.10287594017E+02  0.39084163479E+01  0.12387244348E+02  0.00000000000E+00 0.  1.
</event>
<event>
 7    1  0.4673733E-013  0.5930201E+02  0.7816164E-02  0.1266605E+00
        -11   -1    0    0    0    0  0.00000000000E+00  0.00000000000E+00  0.45593999997E+02  0.45594000000E+02  0.51100000000E-03 0. -1.
         11   -1    0    0    0    0 -0.00000000000E+00 -0.00000000000E+00 -0.45593999997E+02  0.45594000000E+02  0.51100000000E-03 0.  1.
    9900012    2    1    2    0    0  0.29693961804E+02 -0.84927591670E+01  0.79282964286E+01  0.59302012323E+02  0.50000124554E+02 0.  0.
         12    1    1    2    0    0 -0.29693961804E+02  0.84927591670E+01 -0.79282964286E+01  0.31885987677E+02  0.00000000000E+00 0. -1.
         11    1    3    3    0    0  0.11450186298E+01 -0.52983407101E+01  0.12790962498E+02  0.13892163396E+02  0.51100000000E-03 0. -1.
        -11    1    3    3    0    0  0.13705025993E+02  0.15864217080E+02 -0.30454411936E+01  0.21184329901E+02  0.51100000000E-03 0.  1.
        -12    1    3    3    0    0  0.14843917181E+02 -0.19058635537E+02 -0.18172248754E+01  0.24225519026E+02  0.00000000000E+00 0.  1.
</event>
<event>
 7    1  0.4673733E-013  0.5930188E+02  0.7816164E-02  0.1266605E+00
        -11   -1    0    0    0    0  0.00000000000E+00  0.00000000000E+00  0.45593999997E+02  0.45594000000E+02  0.51100000000E-03 0. -1.
         11   -1    0    0    0    0 -0.00000000000E+00 -0.00000000000E+00 -0.45593999997E+02  0.45594000000E+02  0.51100000000E-03 0.  1.
    9900012    2    1    2    0    0  0.10659921071E+02  0.29118286137E+02 -0.74307370554E+01  0.59301884558E+02  0.49999891541E+02 0.  0.
         12    1    1    2    0    0 -0.10659921071E+02 -0.29118286137E+02  0.74307370554E+01  0.31886115442E+02  0.00000000000E+00 0. -1.
         11    1    3    3    0    0 -0.21452489522E+01  0.49711551408E+01  0.69108682363E+01  0.87792127518E+01  0.51100000000E-03 0. -1.
        -11    1    3    3    0    0  0.35550371433E+01 -0.10991929404E+02 -0.68224623081E+01  0.13416661035E+02  0.51100000000E-03 0.  1.
        -12    1    3    3    0    0  0.92501328802E+01  0.35139060401E+02 -0.75191429836E+01  0.37106010771E+02  0.00000000000E+00 0.  1.
</event>
<event>
 7    1  0.4673733E-013  0.5930191E+02  0.7816164E-02  0.1266605E+00
        -11   -1    0    0    0    0  0.00000000000E+00  0.00000000000E+00  0.45593999997E+02  0.45594000000E+02  0.51100000000E-03 0.  1.
         11   -1    0    0    0    0 -0.00000000000E+00 -0.00000000000E+00 -0.45593999997E+02  0.45594000000E+02  0.51100000000E-03 0. -1.
    9900012    2    1    2    0    0 -0.84240592497E+01  0.18737550320E+02  0.24385689982E+02  0.59301914600E+02  0.49999946331E+02 0.  0.
         12    1    1    2    0    0  0.84240592497E+01 -0.18737550320E+02 -0.24385689982E+02  0.31886085400E+02  0.00000000000E+00 0. -1.
         11    1    3    3    0    0 -0.97334712798E+01 -0.98448679414E+01 -0.15763263115E+01  0.13933653248E+02  0.51100000000E-03 0.  1.
        -11    1    3    3    0    0  0.12012422202E+02  0.94728668867E+01  0.10323275153E+02  0.18455446469E+02  0.51100000000E-03 0. -1.
        -12    1    3    3    0    0 -0.10703010172E+02  0.19109551375E+02  0.15638741140E+02  0.26912814883E+02  0.00000000000E+00 0.  1.
</event>
<event>
 7    1  0.4673733E-013  0.5930196E+02  0.7816164E-02  0.1266605E+00
        -11   -1    0    0    0    0  0.00000000000E+00  0.00000000000E+00  0.45593999997E+02  0.45594000000E+02  0.51100000000E-03 0. -1.
         11   -1    0    0    0    0 -0.00000000000E+00 -0.00000000000E+00 -0.45593999997E+02  0.45594000000E+02  0.51100000000E-03 0.  1.
    9900012    2    1    2    0    0 -0.19465434748E+02  0.23527652836E+02  0.91796628470E+01  0.59301955907E+02  0.50000021666E+02 0.  0.
         12    1    1    2    0    0  0.19465434748E+02 -0.23527652836E+02 -0.91796628470E+01  0.31886044093E+02  0.00000000000E+00 0. -1.
         11    1    3    3    0    0  0.16144299982E+01 -0.10030193282E+02  0.13227823605E+02  0.16678923199E+02  0.51100000000E-03 0. -1.
        -11    1    3    3    0    0 -0.22138874486E+02  0.27890478994E+02 -0.53913189271E-01  0.35609148950E+02  0.51100000000E-03 0.  1.
        -12    1    3    3    0    0  0.10590097403E+01  0.56673671240E+01 -0.39942475683E+01  0.70138837591E+01  0.00000000000E+00 0.  1.
</event>
<event>
 7    1  0.4673733E-013  0.5930195E+02  0.7816164E-02  0.1266605E+00
        -11   -1    0    0    0    0  0.00000000000E+00  0.00000000000E+00  0.45593999997E+02  0.45594000000E+02  0.51100000000E-03 0. -1.
         11   -1    0    0    0    0 -0.00000000000E+00 -0.00000000000E+00 -0.45593999997E+02  0.45594000000E+02  0.51100000000E-03 0.  1.
    9900012    2    1    2    0    0 -0.34923763997E+01  0.14140676209E+02 -0.28364845907E+02  0.59301954465E+02  0.50000019035E+02 0.  0.
         12    1    1    2    0    0  0.34923763997E+01 -0.14140676209E+02  0.28364845907E+02  0.31886045535E+02  0.00000000000E+00 0. -1.
         11    1    3    3    0    0 -0.84148853139E+01  0.91041589136E+00 -0.18872815476E+02  0.20683866084E+02  0.51100000000E-03 0. -1.
        -11    1    3    3    0    0  0.19170972593E+02  0.10117431027E+02 -0.91017891321E+00  0.21696014073E+02  0.51100000000E-03 0.  1.
        -12    1    3    3    0    0 -0.14248463679E+02  0.31128292905E+01 -0.85818515174E+01  0.16922074308E+02  0.00000000000E+00 0.  1.
</event>
<event>
 7    1  0.4673733E-013  0.5930180E+02  0.7816164E-02  0.1266605E+00
        -11   -1    0    0    0    0  0.00000000000E+00  0.00000000000E+00  0.45593999997E+02  0.45594000000E+02  0.51100000000E-03 0.  1.
         11   -1    0    0    0    0 -0.00000000000E+00 -0.00000000000E+00 -0.45593999997E+02  0.45594000000E+02  0.51100000000E-03 0. -1.
    9900012    2    1    2    0    0 -0.20616663634E+02 -0.31643468142E+00  0.24322475263E+02  0.59301799957E+02  0.49999737248E+02 0.  0.
         12    1    1    2    0    0  0.20616663634E+02  0.31643468142E+00 -0.24322475263E+02  0.31886200043E+02  0.00000000000E+00 0. -1.
         11    1    3    3    0    0 -0.19806290765E+02  0.55450070280E+01 -0.34276771979E+01  0.20851504215E+02  0.51100000000E-03 0. -1.
        -11    1    3    3    0    0  0.23924240418E+01 -0.43729748825E+00  0.31182171520E+02  0.31276872332E+02  0.51100000000E-03 0.  1.
         12    1    3    3    0    0 -0.32027969104E+01 -0.54241442212E+01 -0.34320190597E+01  0.71734234092E+01  0.00000000000E+00 0. -1.
</event>
<event>
 7    1  0.4673733E-013  0.5930194E+02  0.7816164E-02  0.1266605E+00
        -11   -1    0    0    0    0  0.00000000000E+00  0.00000000000E+00  0.45593999997E+02  0.45594000000E+02  0.51100000000E-03 0. -1.
         11   -1    0    0    0    0 -0.00000000000E+00 -0.00000000000E+00 -0.45593999997E+02  0.45594000000E+02  0.51100000000E-03 0.  1.
    9900012    2    1    2    0    0  0.12738526941E+02  0.12455141852E+02 -0.26444659018E+02  0.59301943208E+02  0.49999998504E+02 0.  0.
         12    1    1    2    0    0 -0.12738526941E+02 -0.12455141852E+02  0.26444659018E+02  0.31886056792E+02  0.00000000000E+00 0. -1.
         11    1    3    3    0    0 -0.15277876458E+02  0.14330307218E+02 -0.14340042135E+01  0.20995894417E+02  0.51100000000E-03 0. -1.
        -11    1    3    3    0    0  0.19200885028E+02 -0.37551003184E+01 -0.20065182237E+02  0.28024744472E+02  0.51100000000E-03 0.  1.
         12    1    3    3    0    0  0.88155183708E+01  0.18799349526E+01 -0.49454725680E+01  0.10281304319E+02  0.00000000000E+00 0. -1.
</event>
<event>
 7    1  0.4673733E-013  0.5930194E+02  0.7816164E-02  0.1266605E+00
        -11   -1    0    0    0    0  0.00000000000E+00  0.00000000000E+00  0.45593999997E+02  0.45594000000E+02  0.51100000000E-03 0.  1.
         11   -1    0    0    0    0 -0.00000000000E+00 -0.00000000000E+00 -0.45593999997E+02  0.45594000000E+02  0.51100000000E-03 0. -1.
    9900012    2    1    2    0    0 -0.20208357769E+02  0.68332729173E+01  0.23699144421E+02  0.59301940526E+02  0.49999993614E+02 0.  0.
         12    1    1    2    0    0  0.20208357769E+02 -0.68332729173E+01 -0.23699144421E+02  0.31886059474E+02  0.00000000000E+00 0. -1.
         11    1    3    3    0    0 -0.61092646121E+00  0.16752030253E+02  0.22810859910E+02  0.28307933143E+02  0.51100000000E-03 0. -1.
        -11    1    3    3    0    0 -0.58857361533E+01 -0.92165490106E+01  0.97515995847E+01  0.14651974626E+02  0.51100000000E-03 0.  1.
         12    1    3    3    0    0 -0.13711695154E+02 -0.70220832483E+00 -0.88633150736E+01  0.16342032757E+02  0.00000000000E+00 0. -1.
</event>
<event>
 7    1  0.4673733E-013  0.5930194E+02  0.7816164E-02  0.1266605E+00
        -11   -1    0    0    0    0  0.00000000000E+00  0.00000000000E+00  0.45593999997E+02  0.45594000000E+02  0.51100000000E-03 0.  1.
         11   -1    0    0    0    0 -0.00000000000E+00 -0.00000000000E+00 -0.45593999997E+02  0.45594000000E+02  0.51100000000E-03 0. -1.
    9900012    2    1    2    0    0  0.27718102409E+02 -0.12521872819E+02  0.95723759187E+01  0.59301939083E+02  0.49999990983E+02 0.  0.
         12    1    1    2    0    0 -0.27718102409E+02  0.12521872819E+02 -0.95723759187E+01  0.31886060917E+02  0.00000000000E+00 0. -1.
         11    1    3    3    0    0  0.21051353761E+02 -0.11913803051E+02 -0.16856778877E+02  0.29483032284E+02  0.51100000000E-03 0. -1.
        -11    1    3    3    0    0  0.80333497399E+01  0.30778427205E+01  0.23159818616E+02  0.24705971392E+02  0.51100000000E-03 0.  1.
         12    1    3    3    0    0 -0.13666010920E+01 -0.36859124887E+01  0.32693361799E+01  0.51129354070E+01  0.00000000000E+00 0. -1.
</event>
<event>
 7    1  0.4673733E-013  0.5930193E+02  0.7816164E-02  0.1266605E+00
        -11   -1    0    0    0    0  0.00000000000E+00  0.00000000000E+00  0.45593999997E+02  0.45594000000E+02  0.51100000000E-03 0. -1.
         11   -1    0    0    0    0 -0.00000000000E+00 -0.00000000000E+00 -0.45593999997E+02  0.45594000000E+02  0.51100000000E-03 0.  1.
    9900012    2    1    2    0    0 -0.25058062147E+02  0.17972967622E+02  0.81109444636E+01  0.59301929941E+02  0.49999974309E+02 0.  0.
         12    1    1    2    0    0  0.25058062147E+02 -0.17972967622E+02 -0.81109444636E+01  0.31886070059E+02  0.00000000000E+00 0. -1.
         11    1    3    3    0    0 -0.58378613143E+01  0.10848049284E+02  0.35658181012E+01  0.12824814112E+02  0.51100000000E-03 0. -1.
        -11    1    3    3    0    0 -0.81753779497E+01 -0.15896292435E+02 -0.59945966816E+01  0.18853755791E+02  0.51100000000E-03 0.  1.
        -12    1    3    3    0    0 -0.11044822883E+02  0.23021210773E+02  0.10539723044E+02  0.27623360038E+02  0.00000000000E+00 0.  1.
</event>
<event>
 7    1  0.4673733E-013  0.5930198E+02  0.7816164E-02  0.1266605E+00
        -11   -1    0    0    0    0  0.00000000000E+00  0.00000000000E+00  0.45593999997E+02  0.45594000000E+02  0.51100000000E-03 0. -1.
         11   -1    0    0    0    0 -0.00000000000E+00 -0.00000000000E+00 -0.45593999997E+02  0.45594000000E+02  0.51100000000E-03 0.  1.
    9900012    2    1    2    0    0  0.29942727888E+02  0.76052692873E+01 -0.78937497737E+01  0.59301978614E+02  0.50000063078E+02 0.  0.
         12    1    1    2    0    0 -0.29942727888E+02 -0.76052692873E+01  0.78937497737E+01  0.31886021386E+02  0.00000000000E+00 0. -1.
         11    1    3    3    0    0  0.14276887271E+02 -0.79193019649E+01  0.61450775906E+01  0.17444392583E+02  0.51100000000E-03 0. -1.
        -11    1    3    3    0    0 -0.49283193419E+01  0.17547271033E+02 -0.99462938860E+01  0.20763521247E+02  0.51100000000E-03 0.  1.
        -12    1    3    3    0    0  0.20594159960E+02 -0.20226997808E+01 -0.40925334783E+01  0.21094064784E+02  0.00000000000E+00 0.  1.
</event>
<event>
 7    1  0.4673733E-013  0.5930194E+02  0.7816164E-02  0.1266605E+00
        -11   -1    0    0    0    0  0.00000000000E+00  0.00000000000E+00  0.45593999997E+02  0.45594000000E+02  0.51100000000E-03 0.  1.
         11   -1    0    0    0    0 -0.00000000000E+00 -0.00000000000E+00 -0.45593999997E+02  0.45594000000E+02  0.51100000000E-03 0. -1.
    9900012    2    1    2    0    0 -0.22345681234E+02  0.20744180477E+02 -0.93311345852E+01  0.59301944018E+02  0.49999999982E+02 0.  0.
         12    1    1    2    0    0  0.22345681234E+02 -0.20744180477E+02  0.93311345852E+01  0.31886055982E+02  0.00000000000E+00 0. -1.
         11    1    3    3    0    0 -0.75382647126E+01  0.26176821183E+02 -0.11625626340E+02  0.29617673612E+02  0.51100000000E-03 0. -1.
        -11    1    3    3    0    0 -0.97928389599E+01 -0.11881092073E+02 -0.73366866837E+01  0.17055410153E+02  0.51100000000E-03 0.  1.
         12    1    3    3    0    0 -0.50145775612E+01  0.64484513665E+01  0.96311784389E+01  0.12628860252E+02  0.00000000000E+00 0. -1.
</event>
<event>
 7    1  0.4673733E-013  0.5930196E+02  0.7816164E-02  0.1266605E+00
        -11   -1    0    0    0    0  0.00000000000E+00  0.00000000000E+00  0.45593999997E+02  0.45594000000E+02  0.51100000000E-03 0.  1.
         11   -1    0    0    0    0 -0.00000000000E+00 -0.00000000000E+00 -0.45593999997E+02  0.45594000000E+02  0.51100000000E-03 0. -1.
    9900012    2    1    2    0    0  0.13852580216E+02 -0.46214330273E+01  0.28345505386E+02  0.59301963912E+02  0.50000036264E+02 0.  0.
         12    1    1    2    0    0 -0.13852580216E+02  0.46214330273E+01 -0.28345505386E+02  0.31886036088E+02  0.00000000000E+00 0. -1.
         11    1    3    3    0    0  0.65952044188E+01  0.53639492728E+01 -0.55163186055E+01  0.10134024094E+02  0.51100000000E-03 0. -1.
        -11    1    3    3    0    0  0.90940073653E+01 -0.21248528039E+02  0.16526283488E+02  0.28413358829E+02  0.51100000000E-03 0.  1.
        -12    1    3    3    0    0 -0.18366315683E+01  0.11263145739E+02  0.17335540503E+02  0.20754580988E+02  0.00000000000E+00 0.  1.
</event>
<event>
 7    1  0.4673733E-013  0.5930193E+02  0.7816164E-02  0.1266605E+00
        -11   -1    0    0    0    0  0.00000000000E+00  0.00000000000E+00  0.45593999997E+02  0.45594000000E+02  0.51100000000E-03 0.  1.
         11   -1    0    0    0    0 -0.00000000000E+00 -0.00000000000E+00 -0.45593999997E+02  0.45594000000E+02  0.51100000000E-03 0. -1.
    9900012    2    1    2    0    0  0.29148176946E+02  0.78022176339E+01  0.10306834959E+02  0.59301926768E+02  0.49999968522E+02 0.  0.
         12    1    1    2    0    0 -0.29148176946E+02 -0.78022176339E+01 -0.10306834959E+02  0.31886073232E+02  0.00000000000E+00 0. -1.
         11    1    3    3    0    0  0.79118667707E+01  0.68651117783E+01 -0.14111309381E+02  0.17574312170E+02  0.51100000000E-03 0. -1.
        -11    1    3    3    0    0  0.22850398141E+02 -0.83947089208E+01  0.16879861020E+02  0.29623327655E+02  0.51100000000E-03 0.  1.
        -12    1    3    3    0    0 -0.16140879650E+01  0.93318147764E+01  0.75382833202E+01  0.12104286943E+02  0.00000000000E+00 0.  1.
</event>
<event>
 7    1  0.4673733E-013  0.5930195E+02  0.7816164E-02  0.1266605E+00
        -11   -1    0    0    0    0  0.00000000000E+00  0.00000000000E+00  0.45593999997E+02  0.45594000000E+02  0.51100000000E-03 0.  1.
         11   -1    0    0    0    0 -0.00000000000E+00 -0.00000000000E+00 -0.45593999997E+02  0.45594000000E+02  0.51100000000E-03 0. -1.
    9900012    2    1    2    0    0  0.14740768571E+02  0.15996557302E+02  0.23313943824E+02  0.59301951637E+02  0.50000013878E+02 0.  0.
         12    1    1    2    0    0 -0.14740768571E+02 -0.15996557302E+02 -0.23313943824E+02  0.31886048363E+02  0.00000000000E+00 0. -1.
         11    1    3    3    0    0  0.66866714555E+00 -0.15076849086E+02  0.77445362205E+01  0.16962792684E+02  0.51100000000E-03 0. -1.
        -11    1    3    3    0    0  0.11509814863E+00  0.22476879108E+02  0.56387596525E+01  0.23173669384E+02  0.51100000000E-03 0.  1.
        -12    1    3    3    0    0  0.13957003276E+02  0.85965272792E+01  0.99306479508E+01  0.19165489570E+02  0.00000000000E+00 0.  1.
</event>
<event>
 7    1  0.4673733E-013  0.5930195E+02  0.7816164E-02  0.1266605E+00
        -11   -1    0    0    0    0  0.00000000000E+00  0.00000000000E+00  0.45593999997E+02  0.45594000000E+02  0.51100000000E-03 0.  1.
         11   -1    0    0    0    0 -0.00000000000E+00 -0.00000000000E+00 -0.45593999997E+02  0.45594000000E+02  0.51100000000E-03 0. -1.
    9900012    2    1    2    0    0  0.24106265404E+01  0.22876337106E+01  0.31712388922E+02  0.59301952903E+02  0.50000016187E+02 0.  0.
         12    1    1    2    0    0 -0.24106265404E+01 -0.22876337106E+01 -0.31712388922E+02  0.31886047097E+02  0.00000000000E+00 0. -1.
         11    1    3    3    0    0 -0.85862269910E+01 -0.12863064638E+02 -0.22931207035E+01  0.15634581179E+02  0.51100000000E-03 0. -1.
        -11    1    3    3    0    0  0.43746266844E+01  0.62396102379E+01  0.31335141624E+02  0.32248429347E+02  0.51100000000E-03 0.  1.
        -12    1    3    3    0    0  0.66222268469E+01  0.89110881110E+01  0.26703680019E+01  0.11418942377E+02  0.00000000000E+00 0.  1.
</event>
<event>
 7    1  0.4673733E-013  0.5930196E+02  0.7816164E-02  0.1266605E+00
        -11   -1    0    0    0    0  0.00000000000E+00  0.00000000000E+00  0.45593999997E+02  0.45594000000E+02  0.51100000000E-03 0.  1.
         11   -1    0    0    0    0 -0.00000000000E+00 -0.00000000000E+00 -0.45593999997E+02  0.45594000000E+02  0.51100000000E-03 0. -1.
    9900012    2    1    2    0    0  0.27756092822E+02 -0.12781113943E+02 -0.91083505819E+01  0.59301958968E+02  0.50000027247E+02 0.  0.
         12    1    1    2    0    0 -0.27756092822E+02  0.12781113943E+02  0.91083505819E+01  0.31886041032E+02  0.00000000000E+00 0. -1.
         11    1    3    3    0    0 -0.13776122405E+02 -0.28234078257E+01 -0.45522847441E+01  0.14780949798E+02  0.51100000000E-03 0. -1.
        -11    1    3    3    0    0  0.20769424920E+02  0.85610386850E+00 -0.72642193046E+00  0.20799750346E+02  0.51100000000E-03 0.  1.
         12    1    3    3    0    0  0.20762790307E+02 -0.10813809986E+02 -0.38296439073E+01  0.23721258824E+02  0.00000000000E+00 0. -1.
</event>
<event>
 7    1  0.4673733E-013  0.5930194E+02  0.7816164E-02  0.1266605E+00
        -11   -1    0    0    0    0  0.00000000000E+00  0.00000000000E+00  0.45593999997E+02  0.45594000000E+02  0.51100000000E-03 0.  1.
         11   -1    0    0    0    0 -0.00000000000E+00 -0.00000000000E+00 -0.45593999997E+02  0.45594000000E+02  0.51100000000E-03 0. -1.
    9900012    2    1    2    0    0 -0.21294107324E+02 -0.38205829035E+01  0.23424023680E+02  0.59301941200E+02  0.49999994843E+02 0.  0.
         12    1    1    2    0    0  0.21294107324E+02  0.38205829035E+01 -0.23424023680E+02  0.31886058800E+02  0.00000000000E+00 0. -1.
         11    1    3    3    0    0  0.48688902761E+01  0.82573112647E+01  0.10104456098E+02  0.13928004708E+02  0.51100000000E-03 0.  1.
        -11    1    3    3    0    0 -0.24214108404E+02 -0.19026318291E+02  0.66001220896E+00  0.30801939060E+02  0.51100000000E-03 0. -1.
        -12    1    3    3    0    0 -0.19488891958E+01  0.69484241230E+01  0.12659555374E+02  0.14571997432E+02  0.00000000000E+00 0.  1.
</event>
<event>
 7    1  0.4673733E-013  0.5930191E+02  0.7816164E-02  0.1266605E+00
        -11   -1    0    0    0    0  0.00000000000E+00  0.00000000000E+00  0.45593999997E+02  0.45594000000E+02  0.51100000000E-03 0. -1.
         11   -1    0    0    0    0 -0.00000000000E+00 -0.00000000000E+00 -0.45593999997E+02  0.45594000000E+02  0.51100000000E-03 0.  1.
    9900012    2    1    2    0    0  0.26874791229E+02 -0.20629017650E+01 -0.17035638931E+02  0.59301906462E+02  0.49999931489E+02 0.  0.
         12    1    1    2    0    0 -0.26874791229E+02  0.20629017650E+01  0.17035638931E+02  0.31886093538E+02  0.00000000000E+00 0. -1.
         11    1    3    3    0    0  0.37327580795E+02  0.15512072377E+01 -0.37625802188E+01  0.37548788823E+02  0.51100000000E-03 0. -1.
        -11    1    3    3    0    0 -0.62229229405E+01 -0.77436246845E+01 -0.12220166818E+02  0.15748681548E+02  0.51100000000E-03 0.  1.
         12    1    3    3    0    0 -0.42298666252E+01  0.41295156818E+01 -0.10528918941E+01  0.60044360912E+01  0.00000000000E+00 0. -1.
</event>
<event>
 7    1  0.4673733E-013  0.5930196E+02  0.7816164E-02  0.1266605E+00
        -11   -1    0    0    0    0  0.00000000000E+00  0.00000000000E+00  0.45593999997E+02  0.45594000000E+02  0.51100000000E-03 0.  1.
         11   -1    0    0    0    0 -0.00000000000E+00 -0.00000000000E+00 -0.45593999997E+02  0.45594000000E+02  0.51100000000E-03 0. -1.
    9900012    2    1    2    0    0 -0.16824742464E+02  0.11019364755E+02  0.24743107013E+02  0.59301957548E+02  0.50000024658E+02 0.  0.
         12    1    1    2    0    0  0.16824742464E+02 -0.11019364755E+02 -0.24743107013E+02  0.31886042452E+02  0.00000000000E+00 0. -1.
         11    1    3    3    0    0  0.10725537542E+02 -0.10365179015E+02  0.85578778921E+01  0.17196260229E+02  0.51100000000E-03 0. -1.
        -11    1    3    3    0    0 -0.17980119864E+02  0.13773633749E+02  0.10848367599E+01  0.22675417704E+02  0.51100000000E-03 0.  1.
         12    1    3    3    0    0 -0.95701601421E+01  0.76109100216E+01  0.15100392361E+02  0.19430279616E+02  0.00000000000E+00 0. -1.
</event>
<event>
 7    1  0.4673733E-013  0.5930196E+02  0.7816164E-02  0.1266605E+00
        -11   -1    0    0    0    0  0.00000000000E+00  0.00000000000E+00  0.45593999997E+02  0.45594000000E+02  0.51100000000E-03 0.  1.
         11   -1    0    0    0    0 -0.00000000000E+00 -0.00000000000E+00 -0.45593999997E+02  0.45594000000E+02  0.51100000000E-03 0. -1.
    9900012    2    1    2    0    0  0.16225004740E+02  0.26834598448E+02  0.57769505613E+01  0.59301959003E+02  0.50000027311E+02 0.  0.
         12    1    1    2    0    0 -0.16225004740E+02 -0.26834598448E+02 -0.57769505613E+01  0.31886040997E+02  0.00000000000E+00 0. -1.
         11    1    3    3    0    0 -0.66978315440E+01  0.86154512558E+01  0.16150978819E+02  0.19492076975E+02  0.51100000000E-03 0. -1.
        -11    1    3    3    0    0  0.16054210966E+02  0.23222072566E+02 -0.26999464813E+01  0.28360043288E+02  0.51100000000E-03 0.  1.
         12    1    3    3    0    0  0.68686253178E+01 -0.50029253743E+01 -0.76740817765E+01  0.11449838740E+02  0.00000000000E+00 0. -1.
</event>
<event>
 7    1  0.4673733E-013  0.5930199E+02  0.7816164E-02  0.1266605E+00
        -11   -1    0    0    0    0  0.00000000000E+00  0.00000000000E+00  0.45593999997E+02  0.45594000000E+02  0.51100000000E-03 0. -1.
         11   -1    0    0    0    0 -0.00000000000E+00 -0.00000000000E+00 -0.45593999997E+02  0.45594000000E+02  0.51100000000E-03 0.  1.
    9900012    2    1    2    0    0  0.10382509597E+02  0.62264333051E+01 -0.29498347512E+02  0.59301992360E+02  0.50000088147E+02 0.  0.
         12    1    1    2    0    0 -0.10382509597E+02 -0.62264333051E+01  0.29498347512E+02  0.31886007640E+02  0.00000000000E+00 0. -1.
         11    1    3    3    0    0 -0.29468658239E+01  0.13557506981E+01  0.59343757452E+01  0.67630535918E+01  0.51100000000E-03 0. -1.
        -11    1    3    3    0    0  0.59994445753E+00  0.18757890997E+02 -0.24132101681E+02  0.30570847875E+02  0.51100000000E-03 0.  1.
        -12    1    3    3    0    0  0.12729430963E+02 -0.13887208390E+02 -0.11300621577E+02  0.21968090894E+02  0.00000000000E+00 0.  1.
</event>
<event>
 7    1  0.4673733E-013  0.5930193E+02  0.7816164E-02  0.1266605E+00
        -11   -1    0    0    0    0  0.00000000000E+00  0.00000000000E+00  0.45593999997E+02  0.45594000000E+02  0.51100000000E-03 0.  1.
         11   -1    0    0    0    0 -0.00000000000E+00 -0.00000000000E+00 -0.45593999997E+02  0.45594000000E+02  0.51100000000E-03 0. -1.
    9900012    2    1    2    0    0 -0.37919821811E+01  0.15759948279E+02  0.27458443776E+02  0.59301933557E+02  0.49999980904E+02 0.  0.
         12    1    1    2    0    0  0.37919821811E+01 -0.15759948279E+02 -0.27458443776E+02  0.31886066443E+02  0.00000000000E+00 0. -1.
         11    1    3    3    0    0 -0.17463939362E+02  0.93716872506E+01  0.80765739361E+01  0.21402073422E+02  0.51100000000E-03 0. -1.
        -11    1    3    3    0    0  0.15609006869E+02  0.15571102548E+02  0.17899032433E+02  0.28398515670E+02  0.51100000000E-03 0.  1.
         12    1    3    3    0    0 -0.19370496875E+01 -0.91828415190E+01  0.14828374066E+01  0.95013444643E+01  0.00000000000E+00 0. -1.
</event>
<event>
 7    1  0.4673733E-013  0.5930193E+02  0.7816164E-02  0.1266605E+00
        -11   -1    0    0    0    0  0.00000000000E+00  0.00000000000E+00  0.45593999997E+02  0.45594000000E+02  0.51100000000E-03 0.  1.
         11   -1    0    0    0    0 -0.00000000000E+00 -0.00000000000E+00 -0.45593999997E+02  0.45594000000E+02  0.51100000000E-03 0. -1.
    9900012    2    1    2    0    0  0.30414252557E+02 -0.39921343995E+01 -0.87038939007E+01  0.59301926791E+02  0.49999968564E+02 0.  0.
         12    1    1    2    0    0 -0.30414252557E+02  0.39921343995E+01  0.87038939007E+01  0.31886073209E+02  0.00000000000E+00 0. -1.
         11    1    3    3    0    0  0.15987378472E+02 -0.11429873571E+02 -0.11155803948E+02  0.22598456634E+02  0.51100000000E-03 0. -1.
        -11    1    3    3    0    0  0.22274389354E+02  0.33637876863E+01  0.10402320776E+02  0.24812733958E+02  0.51100000000E-03 0.  1.
        -12    1    3    3    0    0 -0.78475152685E+01  0.40739514857E+01 -0.79504107281E+01  0.11890736199E+02  0.00000000000E+00 0.  1.
</event>
<event>
 7    1  0.4673733E-013  0.5930196E+02  0.7816164E-02  0.1266605E+00
        -11   -1    0    0    0    0  0.00000000000E+00  0.00000000000E+00  0.45593999997E+02  0.45594000000E+02  0.51100000000E-03 0.  1.
         11   -1    0    0    0    0 -0.00000000000E+00 -0.00000000000E+00 -0.45593999997E+02  0.45594000000E+02  0.51100000000E-03 0. -1.
    9900012    2    1    2    0    0  0.12877674740E+02  0.22617013729E+02  0.18421616909E+02  0.59301956247E+02  0.50000022284E+02 0.  0.
         12    1    1    2    0    0 -0.12877674740E+02 -0.22617013729E+02 -0.18421616909E+02  0.31886043753E+02  0.00000000000E+00 0. -1.
         11    1    3    3    0    0  0.19348241184E+02 -0.10065732963E+02  0.25231602447E+01  0.21955403774E+02  0.51100000000E-03 0. -1.
        -11    1    3    3    0    0 -0.21494432217E+01  0.65867936126E+01  0.57905825623E+01  0.90297731384E+01  0.51100000000E-03 0.  1.
         12    1    3    3    0    0 -0.43211232221E+01  0.26095953079E+02  0.10107874102E+02  0.28316779334E+02  0.00000000000E+00 0. -1.
</event>
<event>
 7    1  0.4673733E-013  0.5930194E+02  0.7816164E-02  0.1266605E+00
        -11   -1    0    0    0    0  0.00000000000E+00  0.00000000000E+00  0.45593999997E+02  0.45594000000E+02  0.51100000000E-03 0. -1.
         11   -1    0    0    0    0 -0.00000000000E+00 -0.00000000000E+00 -0.45593999997E+02  0.45594000000E+02  0.51100000000E-03 0.  1.
    9900012    2    1    2    0    0 -0.16800962129E+02  0.17592198628E+02  0.20614639117E+02  0.59301935223E+02  0.49999983943E+02 0.  0.
         12    1    1    2    0    0  0.16800962129E+02 -0.17592198628E+02 -0.20614639117E+02  0.31886064777E+02  0.00000000000E+00 0. -1.
         11    1    3    3    0    0  0.27972062744E+01 -0.15896419807E+01  0.17064574509E+02  0.17365224674E+02  0.51100000000E-03 0. -1.
        -11    1    3    3    0    0  0.63158749669E+01  0.13963194777E+02  0.58085340253E+00  0.15336181921E+02  0.51100000000E-03 0.  1.
         12    1    3    3    0    0 -0.25914043370E+02  0.52186458316E+01  0.29692112054E+01  0.26600528628E+02  0.00000000000E+00 0. -1.
</event>
<event>
 7    1  0.4673733E-013  0.5930192E+02  0.7816164E-02  0.1266605E+00
        -11   -1    0    0    0    0  0.00000000000E+00  0.00000000000E+00  0.45593999997E+02  0.45594000000E+02  0.51100000000E-03 0. -1.
         11   -1    0    0    0    0 -0.00000000000E+00 -0.00000000000E+00 -0.45593999997E+02  0.45594000000E+02  0.51100000000E-03 0.  1.
    9900012    2    1    2    0    0 -0.28401217421E+02 -0.11606687099E+02 -0.86820433922E+01  0.59301918180E+02  0.49999952859E+02 0.  0.
         12    1    1    2    0    0  0.28401217421E+02  0.11606687099E+02  0.86820433922E+01  0.31886081820E+02  0.00000000000E+00 0. -1.
         11    1    3    3    0    0  0.92007163817E-01 -0.15325214137E+02 -0.99764095494E+01  0.18286590754E+02  0.51100000000E-03 0. -1.
        -11    1    3    3    0    0 -0.34583344795E+02  0.42600771793E+01  0.17133342278E+01  0.34886838625E+02  0.51100000000E-03 0.  1.
         12    1    3    3    0    0  0.60901202107E+01 -0.54155014135E+00 -0.41896807063E+00  0.61284888007E+01  0.00000000000E+00 0. -1.
</event>
<event>
 7    1  0.4673733E-013  0.5930194E+02  0.7816164E-02  0.1266605E+00
        -11   -1    0    0    0    0  0.00000000000E+00  0.00000000000E+00  0.45593999997E+02  0.45594000000E+02  0.51100000000E-03 0.  1.
         11   -1    0    0    0    0 -0.00000000000E+00 -0.00000000000E+00 -0.45593999997E+02  0.45594000000E+02  0.51100000000E-03 0. -1.
    9900012    2    1    2    0    0  0.11793130978E+02  0.26516592337E+02  0.13210333423E+02  0.59301944794E+02  0.50000001398E+02 0.  0.
         12    1    1    2    0    0 -0.11793130978E+02 -0.26516592337E+02 -0.13210333423E+02  0.31886055206E+02  0.00000000000E+00 0. -1.
         11    1    3    3    0    0 -0.20344418630E+01  0.16334145943E+02 -0.84329969070E+01  0.18494829398E+02  0.51100000000E-03 0. -1.
        -11    1    3    3    0    0  0.20401289425E+02  0.98636895559E+01  0.24726232592E+02  0.33539403100E+02  0.51100000000E-03 0.  1.
        -12    1    3    3    0    0 -0.65737165849E+01  0.31875683854E+00 -0.30829022616E+01  0.72677122958E+01  0.00000000000E+00 0.  1.
</event>
<event>
 7    1  0.4673733E-013  0.5930193E+02  0.7816164E-02  0.1266605E+00
        -11   -1    0    0    0    0  0.00000000000E+00  0.00000000000E+00  0.45593999997E+02  0.45594000000E+02  0.51100000000E-03 0. -1.
         11   -1    0    0    0    0 -0.00000000000E+00 -0.00000000000E+00 -0.45593999997E+02  0.45594000000E+02  0.51100000000E-03 0.  1.
    9900012    2    1    2    0    0  0.21512249242E+02 -0.19337341202E+02 -0.13416838408E+02  0.59301934311E+02  0.49999982280E+02 0.  0.
         12    1    1    2    0    0 -0.21512249242E+02  0.19337341202E+02  0.13416838408E+02  0.31886065689E+02  0.00000000000E+00 0. -1.
         11    1    3    3    0    0  0.91028677840E+01  0.40605193941E+01  0.64216288531E+01  0.11856953109E+02  0.51100000000E-03 0. -1.
        -11    1    3    3    0    0  0.14857524175E+02 -0.30410549080E+02 -0.10346133385E+02  0.35391948183E+02  0.51100000000E-03 0.  1.
        -12    1    3    3    0    0 -0.24481427172E+01  0.70126884833E+01 -0.94923338768E+01  0.12053033019E+02  0.00000000000E+00 0.  1.
</event>
<event>
 7    1  0.4673733E-013  0.5930197E+02  0.7816164E-02  0.1266605E+00
        -11   -1    0    0    0    0  0.00000000000E+00  0.00000000000E+00  0.45593999997E+02  0.45594000000E+02  0.51100000000E-03 0. -1.
         11   -1    0    0    0    0 -0.00000000000E+00 -0.00000000000E+00 -0.45593999997E+02  0.45594000000E+02  0.51100000000E-03 0.  1.
    9900012    2    1    2    0    0 -0.31318538726E+02  0.46001956978E+01  0.38348633543E+01  0.59301971001E+02  0.50000049193E+02 0.  0.
         12    1    1    2    0    0  0.31318538726E+02 -0.46001956978E+01 -0.38348633543E+01  0.31886028999E+02  0.00000000000E+00 0. -1.
         11    1    3    3    0    0 -0.11972751420E+01  0.14928608711E+02  0.37313506030E+01  0.15434370846E+02  0.51100000000E-03 0. -1.
        -11    1    3    3    0    0 -0.28683782391E+02 -0.15569332212E+02  0.86281151630E+01  0.33758078282E+02  0.51100000000E-03 0.  1.
        -12    1    3    3    0    0 -0.14374811930E+01  0.52409191987E+01 -0.85246024117E+01  0.10109521873E+02  0.00000000000E+00 0.  1.
</event>
<event>
 7    1  0.4673733E-013  0.5930180E+02  0.7816164E-02  0.1266605E+00
        -11   -1    0    0    0    0  0.00000000000E+00  0.00000000000E+00  0.45593999997E+02  0.45594000000E+02  0.51100000000E-03 0.  1.
         11   -1    0    0    0    0 -0.00000000000E+00 -0.00000000000E+00 -0.45593999997E+02  0.45594000000E+02  0.51100000000E-03 0. -1.
    9900012    2    1    2    0    0 -0.45848485595E+01  0.81523884749E+01  0.30483557369E+02  0.59301803236E+02  0.49999743230E+02 0.  0.
         12    1    1    2    0    0  0.45848485595E+01 -0.81523884749E+01 -0.30483557369E+02  0.31886196764E+02  0.00000000000E+00 0. -1.
         11    1    3    3    0    0 -0.12471459389E+02 -0.10218167031E+02  0.30952438321E+02  0.34899880731E+02  0.51100000000E-03 0. -1.
        -11    1    3    3    0    0  0.17375158614E+01  0.54824632195E+01 -0.66930195846E+01  0.88245609376E+01  0.51100000000E-03 0.  1.
        -12    1    3    3    0    0  0.61490949678E+01  0.12888092286E+02  0.62241386327E+01  0.15577361568E+02  0.00000000000E+00 0.  1.
</event>
<event>
 7    1  0.4673733E-013  0.5930198E+02  0.7816164E-02  0.1266605E+00
        -11   -1    0    0    0    0  0.00000000000E+00  0.00000000000E+00  0.45593999997E+02  0.45594000000E+02  0.51100000000E-03 0.  1.
         11   -1    0    0    0    0 -0.00000000000E+00 -0.00000000000E+00 -0.45593999997E+02  0.45594000000E+02  0.51100000000E-03 0. -1.
    9900012    2    1    2    0    0  0.10927521399E+02  0.25986565368E+02  0.14899854468E+02  0.59301984779E+02  0.50000074320E+02 0.  0.
         12    1    1    2    0    0 -0.10927521399E+02 -0.25986565368E+02 -0.14899854468E+02  0.31886015221E+02  0.00000000000E+00 0. -1.
         11    1    3    3    0    0  0.11739916915E+02 -0.15826551816E+01 -0.10433434673E+02  0.15785658236E+02  0.51100000000E-03 0. -1.
        -11    1    3    3    0    0  0.74961979540E+01  0.24736456953E+02  0.14726473215E+02  0.29748181457E+02  0.51100000000E-03 0.  1.
         12    1    3    3    0    0 -0.83085934707E+01  0.28327635965E+01  0.10606815925E+02  0.13768145086E+02  0.00000000000E+00 0. -1.
</event>
<event>
 7    1  0.4673733E-013  0.5930195E+02  0.7816164E-02  0.1266605E+00
        -11   -1    0    0    0    0  0.00000000000E+00  0.00000000000E+00  0.45593999997E+02  0.45594000000E+02  0.51100000000E-03 0. -1.
         11   -1    0    0    0    0 -0.00000000000E+00 -0.00000000000E+00 -0.45593999997E+02  0.45594000000E+02  0.51100000000E-03 0.  1.
    9900012    2    1    2    0    0 -0.50594411144E+01 -0.45859765871E+01 -0.31146284734E+02  0.59301950098E+02  0.50000011071E+02 0.  0.
         12    1    1    2    0    0  0.50594411144E+01  0.45859765871E+01  0.31146284734E+02  0.31886049902E+02  0.00000000000E+00 0. -1.
         11    1    3    3    0    0 -0.80684819688E+01  0.15547206711E+02 -0.28561168552E+01  0.17747491134E+02  0.51100000000E-03 0. -1.
        -11    1    3    3    0    0  0.52624345669E+01 -0.24331410787E+02 -0.19757578351E+02  0.31781640471E+02  0.51100000000E-03 0.  1.
        -12    1    3    3    0    0 -0.22533937125E+01  0.41982274880E+01 -0.85325895269E+01  0.97728184931E+01  0.00000000000E+00 0.  1.
</event>
<event>
 7    1  0.4673733E-013  0.5930195E+02  0.7816164E-02  0.1266605E+00
        -11   -1    0    0    0    0  0.00000000000E+00  0.00000000000E+00  0.45593999997E+02  0.45594000000E+02  0.51100000000E-03 0.  1.
         11   -1    0    0    0    0 -0.00000000000E+00 -0.00000000000E+00 -0.45593999997E+02  0.45594000000E+02  0.51100000000E-03 0. -1.
    9900012    2    1    2    0    0 -0.93592885287E+01  0.22236879857E+02  0.20848146935E+02  0.59301947592E+02  0.50000006500E+02 0.  0.
         12    1    1    2    0    0  0.93592885287E+01 -0.22236879857E+02 -0.20848146935E+02  0.31886052408E+02  0.00000000000E+00 0. -1.
         11    1    3    3    0    0 -0.15466847875E+02 -0.82537039745E+01 -0.47361527714E+01  0.18159795038E+02  0.51100000000E-03 0. -1.
        -11    1    3    3    0    0  0.17169962384E+01  0.25115590375E+02  0.18637288770E+02  0.31322348075E+02  0.51100000000E-03 0.  1.
         12    1    3    3    0    0  0.43905631076E+01  0.53749934572E+01  0.69470109363E+01  0.98198044795E+01  0.00000000000E+00 0. -1.
</event>
<event>
 7    1  0.4673733E-013  0.5930193E+02  0.7816164E-02  0.1266605E+00
        -11   -1    0    0    0    0  0.00000000000E+00  0.00000000000E+00  0.45593999997E+02  0.45594000000E+02  0.51100000000E-03 0.  1.
         11   -1    0    0    0    0 -0.00000000000E+00 -0.00000000000E+00 -0.45593999997E+02  0.45594000000E+02  0.51100000000E-03 0. -1.
    9900012    2    1    2    0    0  0.30155584141E+02 -0.42303441990E+01  0.94586707889E+01  0.59301929059E+02  0.49999972701E+02 0.  0.
         12    1    1    2    0    0 -0.30155584141E+02  0.42303441990E+01 -0.94586707889E+01  0.31886070941E+02  0.00000000000E+00 0. -1.
         11    1    3    3    0    0  0.23538166355E+02 -0.29501119035E+00 -0.12150167539E+02  0.26490731935E+02  0.51100000000E-03 0. -1.
        -11    1    3    3    0    0 -0.64233224651E-01  0.92498226623E+01  0.12118374462E+02  0.15245272876E+02  0.51100000000E-03 0.  1.
         12    1    3    3    0    0  0.66816510107E+01 -0.13185155671E+02  0.94904638656E+01  0.17565924248E+02  0.00000000000E+00 0. -1.
</event>
<event>
 7    1  0.4673733E-013  0.5930193E+02  0.7816164E-02  0.1266605E+00
        -11   -1    0    0    0    0  0.00000000000E+00  0.00000000000E+00  0.45593999997E+02  0.45594000000E+02  0.51100000000E-03 0.  1.
         11   -1    0    0    0    0 -0.00000000000E+00 -0.00000000000E+00 -0.45593999997E+02  0.45594000000E+02  0.51100000000E-03 0. -1.
    9900012    2    1    2    0    0  0.20599230706E+01  0.24678597749E+01  0.31723617214E+02  0.59301929310E+02  0.49999973158E+02 0.  0.
         12    1    1    2    0    0 -0.20599230706E+01 -0.24678597749E+01 -0.31723617214E+02  0.31886070690E+02  0.00000000000E+00 0. -1.
         11    1    3    3    0    0 -0.15515555200E+01  0.21167985110E+02  0.14038257286E+02  0.25447270699E+02  0.51100000000E-03 0. -1.
        -11    1    3    3    0    0  0.48563634250E+01 -0.13438924392E+01  0.15522572875E+02  0.16319944287E+02  0.51100000000E-03 0.  1.
         12    1    3    3    0    0 -0.12448848345E+01 -0.17356232896E+02  0.21627870531E+01  0.17534714324E+02  0.00000000000E+00 0. -1.
</event>
<event>
 7    1  0.4673733E-013  0.5930194E+02  0.7816164E-02  0.1266605E+00
        -11   -1    0    0    0    0  0.00000000000E+00  0.00000000000E+00  0.45593999997E+02  0.45594000000E+02  0.51100000000E-03 0.  1.
         11   -1    0    0    0    0 -0.00000000000E+00 -0.00000000000E+00 -0.45593999997E+02  0.45594000000E+02  0.51100000000E-03 0. -1.
    9900012    2    1    2    0    0  0.97285554618E+01 -0.16770346306E+02  0.25314650095E+02  0.59301940099E+02  0.49999992835E+02 0.  0.
         12    1    1    2    0    0 -0.97285554618E+01  0.16770346306E+02 -0.25314650095E+02  0.31886059901E+02  0.00000000000E+00 0. -1.
         11    1    3    3    0    0 -0.81879170438E+00  0.10554034719E+02  0.21818324398E+02  0.24250718516E+02  0.51100000000E-03 0. -1.
        -11    1    3    3    0    0  0.13198615431E+01 -0.21325287342E+02 -0.39964889096E+01  0.21736647363E+02  0.51100000000E-03 0.  1.
         12    1    3    3    0    0  0.92274856231E+01 -0.59990936832E+01  0.74928146057E+01  0.13314574220E+02  0.00000000000E+00 0. -1.
</event>
<event>
 7    1  0.4673733E-013  0.5930186E+02  0.7816164E-02  0.1266605E+00
        -11   -1    0    0    0    0  0.00000000000E+00  0.00000000000E+00  0.45593999997E+02  0.45594000000E+02  0.51100000000E-03 0.  1.
         11   -1    0    0    0    0 -0.00000000000E+00 -0.00000000000E+00 -0.45593999997E+02  0.45594000000E+02  0.51100000000E-03 0. -1.
    9900012    2    1    2    0    0 -0.12667172630E+02  0.13286806398E+01  0.29231891282E+02  0.59301856887E+02  0.49999841076E+02 0.  0.
         12    1    1    2    0    0  0.12667172630E+02 -0.13286806398E+01 -0.29231891282E+02  0.31886143113E+02  0.00000000000E+00 0. -1.
         11    1    3    3    0    0  0.35264860011E+01 -0.83675656529E+00  0.85993675157E+00  0.37250176568E+01  0.51100000000E-03 0. -1.
        -11    1    3    3    0    0 -0.28013185662E+02 -0.10355102825E+02  0.13297917310E+02  0.32692527136E+02  0.51100000000E-03 0.  1.
        -12    1    3    3    0    0  0.11819527031E+02  0.12520540031E+02  0.15074037221E+02  0.22884312094E+02  0.00000000000E+00 0.  1.
</event>
<event>
 7    1  0.4673733E-013  0.5930201E+02  0.7816164E-02  0.1266605E+00
        -11   -1    0    0    0    0  0.00000000000E+00  0.00000000000E+00  0.45593999997E+02  0.45594000000E+02  0.51100000000E-03 0.  1.
         11   -1    0    0    0    0 -0.00000000000E+00 -0.00000000000E+00 -0.45593999997E+02  0.45594000000E+02  0.51100000000E-03 0. -1.
    9900012    2    1    2    0    0  0.24995666594E+02 -0.48320008747E+01  0.19198561841E+02  0.59302010009E+02  0.50000120334E+02 0.  0.
         12    1    1    2    0    0 -0.24995666594E+02  0.48320008747E+01 -0.19198561841E+02  0.31885989991E+02  0.00000000000E+00 0. -1.
         11    1    3    3    0    0  0.18465838802E+02  0.65589730224E+01  0.20916046885E+01  0.19707413331E+02  0.51100000000E-03 0. -1.
        -11    1    3    3    0    0  0.41988746155E+01 -0.22508810728E+02  0.59170940483E+01  0.23649294084E+02  0.51100000000E-03 0.  1.
         12    1    3    3    0    0  0.23309531764E+01  0.11117836831E+02  0.11189863104E+02  0.15945302594E+02  0.00000000000E+00 0. -1.
</event>
<event>
 7    1  0.4673733E-013  0.5930195E+02  0.7816164E-02  0.1266605E+00
        -11   -1    0    0    0    0  0.00000000000E+00  0.00000000000E+00  0.45593999997E+02  0.45594000000E+02  0.51100000000E-03 0.  1.
         11   -1    0    0    0    0 -0.00000000000E+00 -0.00000000000E+00 -0.45593999997E+02  0.45594000000E+02  0.51100000000E-03 0. -1.
    9900012    2    1    2    0    0  0.77812410078E+01 -0.30834766810E+02  0.23215964179E+01  0.59301947159E+02  0.50000005711E+02 0.  0.
         12    1    1    2    0    0 -0.77812410078E+01  0.30834766810E+02 -0.23215964179E+01  0.31886052841E+02  0.00000000000E+00 0. -1.
         11    1    3    3    0    0  0.11412570589E+02 -0.33887055162E+02  0.85496822777E+01  0.36765151194E+02  0.51100000000E-03 0. -1.
        -11    1    3    3    0    0  0.29396182662E+01  0.29617775139E+01  0.67809833951E+01  0.79621113819E+01  0.51100000000E-03 0.  1.
         12    1    3    3    0    0 -0.65709478470E+01  0.90510838720E-01 -0.13009069255E+02  0.14574684583E+02  0.00000000000E+00 0. -1.
</event>
<event>
 7    1  0.4673733E-013  0.5930191E+02  0.7816164E-02  0.1266605E+00
        -11   -1    0    0    0    0  0.00000000000E+00  0.00000000000E+00  0.45593999997E+02  0.45594000000E+02  0.51100000000E-03 0.  1.
         11   -1    0    0    0    0 -0.00000000000E+00 -0.00000000000E+00 -0.45593999997E+02  0.45594000000E+02  0.51100000000E-03 0. -1.
    9900012    2    1    2    0    0 -0.11816037148E+02  0.14035443323E+02  0.26078919975E+02  0.59301914160E+02  0.49999945528E+02 0.  0.
         12    1    1    2    0    0  0.11816037148E+02 -0.14035443323E+02 -0.26078919975E+02  0.31886085840E+02  0.00000000000E+00 0. -1.
         11    1    3    3    0    0  0.64013131232E+01  0.96709680630E+00 -0.48759309532E+01  0.81047386667E+01  0.51100000000E-03 0. -1.
        -11    1    3    3    0    0 -0.15620585465E+02  0.24329000146E+02  0.24870207358E+02  0.38136991919E+02  0.51100000000E-03 0.  1.
        -12    1    3    3    0    0 -0.25967648067E+01 -0.11260653629E+02  0.60846435695E+01  0.13060183574E+02  0.00000000000E+00 0.  1.
</event>
<event>
 7    1  0.4673733E-013  0.5930194E+02  0.7816164E-02  0.1266605E+00
        -11   -1    0    0    0    0  0.00000000000E+00  0.00000000000E+00  0.45593999997E+02  0.45594000000E+02  0.51100000000E-03 0. -1.
         11   -1    0    0    0    0 -0.00000000000E+00 -0.00000000000E+00 -0.45593999997E+02  0.45594000000E+02  0.51100000000E-03 0.  1.
    9900012    2    1    2    0    0  0.13931578759E+02  0.12463137210E+02 -0.25832191914E+02  0.59301940117E+02  0.49999992867E+02 0.  0.
         12    1    1    2    0    0 -0.13931578759E+02 -0.12463137210E+02  0.25832191914E+02  0.31886059883E+02  0.00000000000E+00 0. -1.
         11    1    3    3    0    0  0.97538098225E+01  0.12292287306E+02  0.76021758547E+01  0.17436462120E+02  0.51100000000E-03 0. -1.
        -11    1    3    3    0    0  0.10382144602E+02  0.18422687225E+01 -0.33822679026E+02  0.35428187892E+02  0.51100000000E-03 0.  1.
         12    1    3    3    0    0 -0.62043756651E+01 -0.16714188186E+01  0.38831125751E+00  0.64372901048E+01  0.00000000000E+00 0. -1.
</event>
<event>
 7    1  0.4673733E-013  0.5930194E+02  0.7816164E-02  0.1266605E+00
        -11   -1    0    0    0    0  0.00000000000E+00  0.00000000000E+00  0.45593999997E+02  0.45594000000E+02  0.51100000000E-03 0.  1.
         11   -1    0    0    0    0 -0.00000000000E+00 -0.00000000000E+00 -0.45593999997E+02  0.45594000000E+02  0.51100000000E-03 0. -1.
    9900012    2    1    2    0    0  0.20920489992E+01  0.31617559536E+02 -0.35600284541E+01  0.59301944386E+02  0.50000000654E+02 0.  0.
         12    1    1    2    0    0 -0.20920489992E+01 -0.31617559536E+02  0.35600284541E+01  0.31886055614E+02  0.00000000000E+00 0. -1.
         11    1    3    3    0    0  0.13498940107E+02  0.23223733685E+02 -0.20981844591E+02  0.34085201965E+02  0.51100000000E-03 0. -1.
        -11    1    3    3    0    0 -0.15526056968E+01  0.78948849167E+01  0.55236678839E+01  0.97596464818E+01  0.51100000000E-03 0.  1.
         12    1    3    3    0    0 -0.98542854112E+01  0.49894093434E+00  0.11898148253E+02  0.15457095939E+02  0.00000000000E+00 0. -1.
</event>
<event>
 7    1  0.4673733E-013  0.5930190E+02  0.7816164E-02  0.1266605E+00
        -11   -1    0    0    0    0  0.00000000000E+00  0.00000000000E+00  0.45593999997E+02  0.45594000000E+02  0.51100000000E-03 0.  1.
         11   -1    0    0    0    0 -0.00000000000E+00 -0.00000000000E+00 -0.45593999997E+02  0.45594000000E+02  0.51100000000E-03 0. -1.
    9900012    2    1    2    0    0  0.17242702462E+02 -0.22279513887E+02  0.14934375247E+02  0.59301904421E+02  0.49999927767E+02 0.  0.
         12    1    1    2    0    0 -0.17242702462E+02  0.22279513887E+02 -0.14934375247E+02  0.31886095579E+02  0.00000000000E+00 0. -1.
         11    1    3    3    0    0  0.10233400604E+02 -0.12042384324E+02 -0.12231151160E+02  0.19983557418E+02  0.51100000000E-03 0. -1.
        -11    1    3    3    0    0 -0.63037198481E+01 -0.10629887899E+02  0.21595638048E+02  0.24881780154E+02  0.51100000000E-03 0.  1.
        -12    1    3    3    0    0  0.13313021706E+02  0.39275833553E+00  0.55698883588E+01  0.14436566849E+02  0.00000000000E+00 0.  1.
</event>
<event>
 7    1  0.4673733E-013  0.5930192E+02  0.7816164E-02  0.1266605E+00
        -11   -1    0    0    0    0  0.00000000000E+00  0.00000000000E+00  0.45593999997E+02  0.45594000000E+02  0.51100000000E-03 0. -1.
         11   -1    0    0    0    0 -0.00000000000E+00 -0.00000000000E+00 -0.45593999997E+02  0.45594000000E+02  0.51100000000E-03 0.  1.
    9900012    2    1    2    0    0  0.87070568048E+00 -0.30435448045E+02 -0.94682370981E+01  0.59301919340E+02  0.49999954976E+02 0.  0.
         12    1    1    2    0    0 -0.87070568048E+00  0.30435448045E+02  0.94682370981E+01  0.31886080660E+02  0.00000000000E+00 0. -1.
         11    1    3    3    0    0  0.11555539603E+02 -0.77695065030E+01  0.11392435325E+02  0.17991200897E+02  0.51100000000E-03 0. -1.
        -11    1    3    3    0    0 -0.41356336616E+01 -0.27215985760E+02 -0.14523247985E+02  0.31124557491E+02  0.51100000000E-03 0.  1.
         12    1    3    3    0    0 -0.65492002614E+01  0.45500442181E+01 -0.63374244379E+01  0.10186160953E+02  0.00000000000E+00 0. -1.
</event>
<event>
 7    1  0.4673733E-013  0.5930193E+02  0.7816164E-02  0.1266605E+00
        -11   -1    0    0    0    0  0.00000000000E+00  0.00000000000E+00  0.45593999997E+02  0.45594000000E+02  0.51100000000E-03 0. -1.
         11   -1    0    0    0    0 -0.00000000000E+00 -0.00000000000E+00 -0.45593999997E+02  0.45594000000E+02  0.51100000000E-03 0.  1.
    9900012    2    1    2    0    0  0.21600712597E+02  0.45774905335E+01 -0.23003846579E+02  0.59301934679E+02  0.49999982949E+02 0.  0.
         12    1    1    2    0    0 -0.21600712597E+02 -0.45774905335E+01  0.23003846579E+02  0.31886065321E+02  0.00000000000E+00 0. -1.
         11    1    3    3    0    0  0.15999606939E+02  0.82130891628E+01  0.57398654453E+01  0.18878249691E+02  0.51100000000E-03 0. -1.
        -11    1    3    3    0    0 -0.92331110181E+01  0.11541750437E+01 -0.21103249604E+02  0.23063599095E+02  0.51100000000E-03 0.  1.
        -12    1    3    3    0    0  0.14834216675E+02 -0.47897736730E+01 -0.76404624203E+01  0.17360085893E+02  0.00000000000E+00 0.  1.
</event>
<event>
 7    1  0.4673733E-013  0.5930196E+02  0.7816164E-02  0.1266605E+00
        -11   -1    0    0    0    0  0.00000000000E+00  0.00000000000E+00  0.45593999997E+02  0.45594000000E+02  0.51100000000E-03 0.  1.
         11   -1    0    0    0    0 -0.00000000000E+00 -0.00000000000E+00 -0.45593999997E+02  0.45594000000E+02  0.51100000000E-03 0. -1.
    9900012    2    1    2    0    0 -0.27279995758E+02  0.11745358792E+02 -0.11600329497E+02  0.59301964402E+02  0.50000037159E+02 0.  0.
         12    1    1    2    0    0  0.27279995758E+02 -0.11745358792E+02  0.11600329497E+02  0.31886035598E+02  0.00000000000E+00 0. -1.
         11    1    3    3    0    0  0.64844523002E+01  0.26746335442E+01 -0.11668307266E+02  0.13614374056E+02  0.51100000000E-03 0. -1.
        -11    1    3    3    0    0 -0.30416982316E+02 -0.46383606654E+01  0.40267237088E+01  0.31030979794E+02  0.51100000000E-03 0.  1.
        -12    1    3    3    0    0 -0.33474657417E+01  0.13709085913E+02 -0.39587459401E+01  0.14656610552E+02  0.00000000000E+00 0.  1.
</event>
<event>
 7    1  0.4673733E-013  0.5930195E+02  0.7816164E-02  0.1266605E+00
        -11   -1    0    0    0    0  0.00000000000E+00  0.00000000000E+00  0.45593999997E+02  0.45594000000E+02  0.51100000000E-03 0.  1.
         11   -1    0    0    0    0 -0.00000000000E+00 -0.00000000000E+00 -0.45593999997E+02  0.45594000000E+02  0.51100000000E-03 0. -1.
    9900012    2    1    2    0    0 -0.44256035048E+01 -0.57058923588E+01  0.31057644133E+02  0.59301946103E+02  0.50000003785E+02 0.  0.
         12    1    1    2    0    0  0.44256035048E+01  0.57058923588E+01 -0.31057644133E+02  0.31886053897E+02  0.00000000000E+00 0. -1.
         11    1    3    3    0    0 -0.24358583330E+02  0.67823688513E+01  0.16166468270E+02  0.30011594521E+02  0.51100000000E-03 0. -1.
        -11    1    3    3    0    0  0.14108706526E+02 -0.36587258944E+01  0.75481978617E+01  0.16413932077E+02  0.51100000000E-03 0.  1.
         12    1    3    3    0    0  0.58242732997E+01 -0.88295353158E+01  0.73429780013E+01  0.12876419506E+02  0.00000000000E+00 0. -1.
</event>
<event>
 7    1  0.4673733E-013  0.5930202E+02  0.7816164E-02  0.1266605E+00
        -11   -1    0    0    0    0  0.00000000000E+00  0.00000000000E+00  0.45593999997E+02  0.45594000000E+02  0.51100000000E-03 0.  1.
         11   -1    0    0    0    0 -0.00000000000E+00 -0.00000000000E+00 -0.45593999997E+02  0.45594000000E+02  0.51100000000E-03 0. -1.
    9900012    2    1    2    0    0 -0.22627580078E+02  0.14894090462E+02  0.16818872479E+02  0.59302019031E+02  0.50000136788E+02 0.  0.
         12    1    1    2    0    0  0.22627580078E+02 -0.14894090462E+02 -0.16818872479E+02  0.31885980969E+02  0.00000000000E+00 0. -1.
         11    1    3    3    0    0 -0.12220147191E+02 -0.15399676208E+02 -0.28329722872E+01  0.19862219335E+02  0.51100000000E-03 0. -1.
        -11    1    3    3    0    0 -0.37626555662E+01  0.31735160464E+01  0.75381971851E+01  0.90029549632E+01  0.51100000000E-03 0.  1.
         12    1    3    3    0    0 -0.66447773212E+01  0.27120250624E+02  0.12113647581E+02  0.30436844733E+02  0.00000000000E+00 0. -1.
</event>
<event>
 7    1  0.4673733E-013  0.5930195E+02  0.7816164E-02  0.1266605E+00
        -11   -1    0    0    0    0  0.00000000000E+00  0.00000000000E+00  0.45593999997E+02  0.45594000000E+02  0.51100000000E-03 0.  1.
         11   -1    0    0    0    0 -0.00000000000E+00 -0.00000000000E+00 -0.45593999997E+02  0.45594000000E+02  0.51100000000E-03 0. -1.
    9900012    2    1    2    0    0 -0.18235769159E+02  0.66334080802E+01  0.25301679343E+02  0.59301947294E+02  0.50000005958E+02 0.  0.
         12    1    1    2    0    0  0.18235769159E+02 -0.66334080802E+01 -0.25301679343E+02  0.31886052706E+02  0.00000000000E+00 0. -1.
         11    1    3    3    0    0 -0.40193932460E+01  0.14486127319E+02 -0.99378414175E+01  0.18021212475E+02  0.51100000000E-03 0. -1.
        -11    1    3    3    0    0  0.15277030243E+01 -0.11881942607E+01  0.13430693797E+02  0.13569422179E+02  0.51100000000E-03 0.  1.
         12    1    3    3    0    0 -0.15744078938E+02 -0.66645249778E+01  0.21808826963E+02  0.27711312641E+02  0.00000000000E+00 0. -1.
</event>
<event>
 7    1  0.4673733E-013  0.5930194E+02  0.7816164E-02  0.1266605E+00
        -11   -1    0    0    0    0  0.00000000000E+00  0.00000000000E+00  0.45593999997E+02  0.45594000000E+02  0.51100000000E-03 0.  1.
         11   -1    0    0    0    0 -0.00000000000E+00 -0.00000000000E+00 -0.45593999997E+02  0.45594000000E+02  0.51100000000E-03 0. -1.
    9900012    2    1    2    0    0 -0.21159416883E+02 -0.11572573798E+02  0.20858458868E+02  0.59301942021E+02  0.49999996340E+02 0.  0.
         12    1    1    2    0    0  0.21159416883E+02  0.11572573798E+02 -0.20858458868E+02  0.31886057979E+02  0.00000000000E+00 0. -1.
         11    1    3    3    0    0 -0.75678141536E+01  0.60340882053E+01 -0.81890442222E+01  0.12678425654E+02  0.51100000000E-03 0. -1.
        -11    1    3    3    0    0 -0.14806513384E+02 -0.11235998452E+02  0.33806521741E+02  0.38579287348E+02  0.51100000000E-03 0.  1.
        -12    1    3    3    0    0  0.12149106550E+01 -0.63706635510E+01 -0.47590186512E+01  0.80442290185E+01  0.00000000000E+00 0.  1.
</event>
<event>
 7    1  0.4673733E-013  0.5930196E+02  0.7816164E-02  0.1266605E+00
        -11   -1    0    0    0    0  0.00000000000E+00  0.00000000000E+00  0.45593999997E+02  0.45594000000E+02  0.51100000000E-03 0.  1.
         11   -1    0    0    0    0 -0.00000000000E+00 -0.00000000000E+00 -0.45593999997E+02  0.45594000000E+02  0.51100000000E-03 0. -1.
    9900012    2    1    2    0    0 -0.22940261909E+02 -0.21852040473E+02  0.35989587112E+01  0.59301956139E+02  0.50000022089E+02 0.  0.
         12    1    1    2    0    0  0.22940261909E+02  0.21852040473E+02 -0.35989587112E+01  0.31886043861E+02  0.00000000000E+00 0. -1.
         11    1    3    3    0    0 -0.13023600049E+02  0.37540301433E+01 -0.13845854579E+02  0.19375618437E+02  0.51100000000E-03 0. -1.
        -11    1    3    3    0    0 -0.17461046562E+02 -0.18537182790E+02  0.13795357636E+02  0.28962513451E+02  0.51100000000E-03 0.  1.
         12    1    3    3    0    0  0.75443847022E+01 -0.70688878259E+01  0.36494556544E+01  0.10963824251E+02  0.00000000000E+00 0. -1.
</event>
<event>
 7    1  0.4673733E-013  0.5930193E+02  0.7816164E-02  0.1266605E+00
        -11   -1    0    0    0    0  0.00000000000E+00  0.00000000000E+00  0.45593999997E+02  0.45594000000E+02  0.51100000000E-03 0.  1.
         11   -1    0    0    0    0 -0.00000000000E+00 -0.00000000000E+00 -0.45593999997E+02  0.45594000000E+02  0.51100000000E-03 0. -1.
    9900012    2    1    2    0    0  0.32805930238E+01  0.14117845842E+02  0.28401509239E+02  0.59301927980E+02  0.49999970733E+02 0.  0.
         12    1    1    2    0    0 -0.32805930238E+01 -0.14117845842E+02 -0.28401509239E+02  0.31886072020E+02  0.00000000000E+00 0. -1.
         11    1    3    3    0    0 -0.18276719206E+01 -0.43206140076E+01  0.20546684167E+02  0.21075443544E+02  0.51100000000E-03 0. -1.
        -11    1    3    3    0    0 -0.10647903952E+02  0.17244146298E+02 -0.65907555224E+00  0.20277396799E+02  0.51100000000E-03 0.  1.
        -12    1    3    3    0    0  0.15756168896E+02  0.11943135522E+01  0.85139006243E+01  0.17949087637E+02  0.00000000000E+00 0.  1.
</event>
<event>
 7    1  0.4673733E-013  0.5930205E+02  0.7816164E-02  0.1266604E+00
        -11   -1    0    0    0    0  0.00000000000E+00  0.00000000000E+00  0.45593999997E+02  0.45594000000E+02  0.51100000000E-03 0.  1.
         11   -1    0    0    0    0 -0.00000000000E+00 -0.00000000000E+00 -0.45593999997E+02  0.45594000000E+02  0.51100000000E-03 0. -1.
    9900012    2    1    2    0    0 -0.45915365706E+01 -0.31411205645E+01  0.31396892178E+02  0.59302051921E+02  0.50000196770E+02 0.  0.
         12    1    1    2    0    0  0.45915365706E+01  0.31411205645E+01 -0.31396892178E+02  0.31885948079E+02  0.00000000000E+00 0. -1.
         11    1    3    3    0    0 -0.15160418138E+02  0.13276559597E+02  0.11778527619E+02  0.23341787121E+02  0.51100000000E-03 0. -1.
        -11    1    3    3    0    0 -0.89052148877E-01 -0.13545162078E+02  0.20839306051E+02  0.24854698206E+02  0.51100000000E-03 0.  1.
        -12    1    3    3    0    0  0.10657933716E+02 -0.28725180842E+01 -0.12209414911E+01  0.11105566594E+02  0.00000000000E+00 0.  1.
</event>
<event>
 7    1  0.4673733E-013  0.5930196E+02  0.7816164E-02  0.1266605E+00
        -11   -1    0    0    0    0  0.00000000000E+00  0.00000000000E+00  0.45593999997E+02  0.45594000000E+02  0.51100000000E-03 0.  1.
         11   -1    0    0    0    0 -0.00000000000E+00 -0.00000000000E+00 -0.45593999997E+02  0.45594000000E+02  0.51100000000E-03 0. -1.
    9900012    2    1    2    0    0 -0.24094449015E+02  0.19564857827E+02 -0.73070945750E+01  0.59301956560E+02  0.50000022856E+02 0.  0.
         12    1    1    2    0    0  0.24094449015E+02 -0.19564857827E+02  0.73070945750E+01  0.31886043440E+02  0.00000000000E+00 0. -1.
         11    1    3    3    0    0 -0.21652530328E+01  0.25570747983E+02 -0.92493019046E+01  0.27278215834E+02  0.51100000000E-03 0. -1.
        -11    1    3    3    0    0 -0.26398044536E+02 -0.33768614659E+01  0.28309409548E+01  0.26763299042E+02  0.51100000000E-03 0.  1.
        -12    1    3    3    0    0  0.44688485537E+01 -0.26290286906E+01 -0.88873362527E+00  0.52604416838E+01  0.00000000000E+00 0.  1.
</event>
<event>
 7    1  0.4673733E-013  0.5930196E+02  0.7816164E-02  0.1266605E+00
        -11   -1    0    0    0    0  0.00000000000E+00  0.00000000000E+00  0.45593999997E+02  0.45594000000E+02  0.51100000000E-03 0. -1.
         11   -1    0    0    0    0 -0.00000000000E+00 -0.00000000000E+00 -0.45593999997E+02  0.45594000000E+02  0.51100000000E-03 0.  1.
    9900012    2    1    2    0    0 -0.12094552028E+02 -0.13728970244E+02  0.26114305836E+02  0.59301956313E+02  0.50000022405E+02 0.  0.
         12    1    1    2    0    0  0.12094552028E+02  0.13728970244E+02 -0.26114305836E+02  0.31886043687E+02  0.00000000000E+00 0. -1.
         11    1    3    3    0    0  0.96340153542E+01  0.94920456942E+01  0.99837347112E+01  0.16810358186E+02  0.51100000000E-03 0. -1.
        -11    1    3    3    0    0 -0.19840718610E+02 -0.86110375364E+01  0.17324610793E+02  0.27711842628E+02  0.51100000000E-03 0.  1.
         12    1    3    3    0    0 -0.18878487719E+01 -0.14609978402E+02 -0.11940396679E+01  0.14779755499E+02  0.00000000000E+00 0. -1.
</event>
<event>
 7    1  0.4673733E-013  0.5930175E+02  0.7816164E-02  0.1266605E+00
        -11   -1    0    0    0    0  0.00000000000E+00  0.00000000000E+00  0.45593999997E+02  0.45594000000E+02  0.51100000000E-03 0. -1.
         11   -1    0    0    0    0 -0.00000000000E+00 -0.00000000000E+00 -0.45593999997E+02  0.45594000000E+02  0.51100000000E-03 0.  1.
    9900012    2    1    2    0    0  0.11483538875E+02  0.23636864383E+02 -0.18059889562E+02  0.59301754785E+02  0.49999654865E+02 0.  0.
         12    1    1    2    0    0 -0.11483538875E+02 -0.23636864383E+02  0.18059889562E+02  0.31886245215E+02  0.00000000000E+00 0. -1.
         11    1    3    3    0    0  0.24819949855E+02  0.80617623501E+01 -0.62461087639E+01  0.26833482777E+02  0.51100000000E-03 0. -1.
        -11    1    3    3    0    0 -0.39191104914E+01 -0.48036167531E+01 -0.72863005423E+01  0.95668352556E+01  0.51100000000E-03 0.  1.
         12    1    3    3    0    0 -0.94173004886E+01  0.20378718786E+02 -0.45274802560E+01  0.22901436752E+02  0.00000000000E+00 0. -1.
</event>
<event>
 7    1  0.4673733E-013  0.5930195E+02  0.7816164E-02  0.1266605E+00
        -11   -1    0    0    0    0  0.00000000000E+00  0.00000000000E+00  0.45593999997E+02  0.45594000000E+02  0.51100000000E-03 0.  1.
         11   -1    0    0    0    0 -0.00000000000E+00 -0.00000000000E+00 -0.45593999997E+02  0.45594000000E+02  0.51100000000E-03 0. -1.
    9900012    2    1    2    0    0 -0.10375178845E+02  0.23465594980E+02  0.18932562919E+02  0.59301946269E+02  0.50000004088E+02 0.  0.
         12    1    1    2    0    0  0.10375178845E+02 -0.23465594980E+02 -0.18932562919E+02  0.31886053731E+02  0.00000000000E+00 0. -1.
         11    1    3    3    0    0  0.42585764339E+01 -0.54680474173E+01  0.19764698300E+01  0.72070416297E+01  0.51100000000E-03 0. -1.
        -11    1    3    3    0    0 -0.57751381875E+01  0.36540376191E+02  0.93418056693E+01  0.38155217817E+02  0.51100000000E-03 0.  1.
        -12    1    3    3    0    0 -0.88586170917E+01 -0.76067337935E+01  0.76142874199E+01  0.13939686822E+02  0.00000000000E+00 0.  1.
</event>
<event>
 7    1  0.4673733E-013  0.5930191E+02  0.7816164E-02  0.1266605E+00
        -11   -1    0    0    0    0  0.00000000000E+00  0.00000000000E+00  0.45593999997E+02  0.45594000000E+02  0.51100000000E-03 0.  1.
         11   -1    0    0    0    0 -0.00000000000E+00 -0.00000000000E+00 -0.45593999997E+02  0.45594000000E+02  0.51100000000E-03 0. -1.
    9900012    2    1    2    0    0 -0.15549306861E+02 -0.11464651020E+02  0.25367368148E+02  0.59301913166E+02  0.49999943715E+02 0.  0.
         12    1    1    2    0    0  0.15549306861E+02  0.11464651020E+02 -0.25367368148E+02  0.31886086834E+02  0.00000000000E+00 0. -1.
         11    1    3    3    0    0 -0.64974540981E+01 -0.92631332225E+01 -0.35541255156E+01  0.11859778889E+02  0.51100000000E-03 0. -1.
        -11    1    3    3    0    0 -0.12513212370E+02 -0.14278284743E+02  0.29253996117E+02  0.34874721334E+02  0.51100000000E-03 0.  1.
        -12    1    3    3    0    0  0.34613596071E+01  0.12076766946E+02 -0.33250245376E+00  0.12567412943E+02  0.00000000000E+00 0.  1.
</event>
<event>
 7    1  0.4673733E-013  0.5930195E+02  0.7816164E-02  0.1266605E+00
        -11   -1    0    0    0    0  0.00000000000E+00  0.00000000000E+00  0.45593999997E+02  0.45594000000E+02  0.51100000000E-03 0.  1.
         11   -1    0    0    0    0 -0.00000000000E+00 -0.00000000000E+00 -0.45593999997E+02  0.45594000000E+02  0.51100000000E-03 0. -1.
    9900012    2    1    2    0    0 -0.43071067893E+01 -0.29910183781E+02  0.10175936127E+02  0.59301953855E+02  0.50000017922E+02 0.  0.
         12    1    1    2    0    0  0.43071067893E+01  0.29910183781E+02 -0.10175936127E+02  0.31886046145E+02  0.00000000000E+00 0. -1.
         11    1    3    3    0    0  0.17542841346E+02 -0.11520196308E+01  0.51141955270E+01  0.18309380871E+02  0.51100000000E-03 0. -1.
        -11    1    3    3    0    0 -0.58704040139E+00 -0.11816272449E+02 -0.37535546371E+01  0.12412013685E+02  0.51100000000E-03 0.  1.
         12    1    3    3    0    0 -0.21262907734E+02 -0.16941891701E+02  0.88152952375E+01  0.28580559299E+02  0.00000000000E+00 0. -1.
</event>
<event>
 7    1  0.4673733E-013  0.5930194E+02  0.7816164E-02  0.1266605E+00
        -11   -1    0    0    0    0  0.00000000000E+00  0.00000000000E+00  0.45593999997E+02  0.45594000000E+02  0.51100000000E-03 0.  1.
         11   -1    0    0    0    0 -0.00000000000E+00 -0.00000000000E+00 -0.45593999997E+02  0.45594000000E+02  0.51100000000E-03 0. -1.
    9900012    2    1    2    0    0 -0.18151099051E+02 -0.24624045394E+02  0.89952659487E+01  0.59301940070E+02  0.49999992783E+02 0.  0.
         12    1    1    2    0    0  0.18151099051E+02  0.24624045394E+02 -0.89952659487E+01  0.31886059930E+02  0.00000000000E+00 0. -1.
         11    1    3    3    0    0 -0.14137783160E+02  0.58997778034E+01 -0.45247182706E+01  0.15973645999E+02  0.51100000000E-03 0. -1.
        -11    1    3    3    0    0 -0.13777690175E+02 -0.14661997273E+02 -0.32137161231E+00  0.20122181556E+02  0.51100000000E-03 0.  1.
         12    1    3    3    0    0  0.97643742838E+01 -0.15861825925E+02  0.13841355832E+02  0.23206112515E+02  0.00000000000E+00 0. -1.
</event>
<event>
 7    1  0.4673733E-013  0.5930194E+02  0.7816164E-02  0.1266605E+00
        -11   -1    0    0    0    0  0.00000000000E+00  0.00000000000E+00  0.45593999997E+02  0.45594000000E+02  0.51100000000E-03 0. -1.
         11   -1    0    0    0    0 -0.00000000000E+00 -0.00000000000E+00 -0.45593999997E+02  0.45594000000E+02  0.51100000000E-03 0.  1.
    9900012    2    1    2    0    0  0.15788136643E+02  0.15794014185E+02 -0.22759712031E+02  0.59301942946E+02  0.49999998026E+02 0.  0.
         12    1    1    2    0    0 -0.15788136643E+02 -0.15794014185E+02  0.22759712031E+02  0.31886057054E+02  0.00000000000E+00 0. -1.
         11    1    3    3    0    0 -0.13228229048E+02  0.24612984938E+01 -0.19925159346E+01  0.13601990811E+02  0.51100000000E-03 0. -1.
        -11    1    3    3    0    0  0.22335340746E+02  0.20413876801E+02 -0.11845329928E+02  0.32494701931E+02  0.51100000000E-03 0.  1.
        -12    1    3    3    0    0  0.66810249458E+01 -0.70811611093E+01 -0.89218661687E+01  0.13205250203E+02  0.00000000000E+00 0.  1.
</event>
<event>
 7    1  0.4673733E-013  0.5930202E+02  0.7816164E-02  0.1266604E+00
        -11   -1    0    0    0    0  0.00000000000E+00  0.00000000000E+00  0.45593999997E+02  0.45594000000E+02  0.51100000000E-03 0. -1.
         11   -1    0    0    0    0 -0.00000000000E+00 -0.00000000000E+00 -0.45593999997E+02  0.45594000000E+02  0.51100000000E-03 0.  1.
    9900012    2    1    2    0    0  0.12851290766E+02  0.49721006660E+01 -0.28754794386E+02  0.59302020956E+02  0.50000140299E+02 0.  0.
         12    1    1    2    0    0 -0.12851290766E+02 -0.49721006660E+01  0.28754794386E+02  0.31885979044E+02  0.00000000000E+00 0. -1.
         11    1    3    3    0    0 -0.78018073134E+01  0.92467935663E+00 -0.35042060209E+01  0.86024815819E+01  0.51100000000E-03 0. -1.
        -11    1    3    3    0    0  0.19086365384E+02 -0.57643561702E+00 -0.34958231388E+02  0.39833397590E+02  0.51100000000E-03 0.  1.
        -12    1    3    3    0    0  0.15667326962E+01  0.46238569264E+01  0.97076430224E+01  0.10866141784E+02  0.00000000000E+00 0.  1.
</event>
<event>
 7    1  0.4673733E-013  0.5930194E+02  0.7816164E-02  0.1266605E+00
        -11   -1    0    0    0    0  0.00000000000E+00  0.00000000000E+00  0.45593999997E+02  0.45594000000E+02  0.51100000000E-03 0.  1.
         11   -1    0    0    0    0 -0.00000000000E+00 -0.00000000000E+00 -0.45593999997E+02  0.45594000000E+02  0.51100000000E-03 0. -1.
    9900012    2    1    2    0    0 -0.23700594495E+02 -0.11356192043E+02  0.18056562882E+02  0.59301941287E+02  0.49999995002E+02 0.  0.
         12    1    1    2    0    0  0.23700594495E+02  0.11356192043E+02 -0.18056562882E+02  0.31886058713E+02  0.00000000000E+00 0. -1.
         11    1    3    3    0    0 -0.10317188601E+02 -0.17098135739E+02 -0.80895629291E+01  0.21546035715E+02  0.51100000000E-03 0. -1.
        -11    1    3    3    0    0 -0.19265591646E+02  0.80332653144E+01  0.19066990743E+02  0.28270948151E+02  0.51100000000E-03 0.  1.
         12    1    3    3    0    0  0.58821857527E+01 -0.22913216185E+01  0.70791350675E+01  0.94849574217E+01  0.00000000000E+00 0. -1.
</event>
<event>
 7    1  0.4673733E-013  0.5930195E+02  0.7816164E-02  0.1266605E+00
        -11   -1    0    0    0    0  0.00000000000E+00  0.00000000000E+00  0.45593999997E+02  0.45594000000E+02  0.51100000000E-03 0. -1.
         11   -1    0    0    0    0 -0.00000000000E+00 -0.00000000000E+00 -0.45593999997E+02  0.45594000000E+02  0.51100000000E-03 0.  1.
    9900012    2    1    2    0    0  0.10771093343E+02  0.29891019287E+02 -0.26890215280E+01  0.59301947836E+02  0.50000006945E+02 0.  0.
         12    1    1    2    0    0 -0.10771093343E+02 -0.29891019287E+02  0.26890215280E+01  0.31886052164E+02  0.00000000000E+00 0. -1.
         11    1    3    3    0    0  0.19902088515E+02  0.88520219915E+01  0.10221142456E+02  0.24060822387E+02  0.51100000000E-03 0. -1.
        -11    1    3    3    0    0 -0.16881361180E+02  0.13117819335E+02 -0.60934628920E+01  0.22230335798E+02  0.51100000000E-03 0.  1.
        -12    1    3    3    0    0  0.77503660091E+01  0.79211779612E+01 -0.68167010918E+01  0.13010789651E+02  0.00000000000E+00 0.  1.
</event>
<event>
 7    1  0.4673733E-013  0.5930190E+02  0.7816164E-02  0.1266605E+00
        -11   -1    0    0    0    0  0.00000000000E+00  0.00000000000E+00  0.45593999997E+02  0.45594000000E+02  0.51100000000E-03 0.  1.
         11   -1    0    0    0    0 -0.00000000000E+00 -0.00000000000E+00 -0.45593999997E+02  0.45594000000E+02  0.51100000000E-03 0. -1.
    9900012    2    1    2    0    0 -0.38109230696E+00 -0.10240668907E+02  0.30194479822E+02  0.59301903614E+02  0.49999926295E+02 0.  0.
         12    1    1    2    0    0  0.38109230696E+00  0.10240668907E+02 -0.30194479822E+02  0.31886096386E+02  0.00000000000E+00 0. -1.
         11    1    3    3    0    0  0.13877698928E+02 -0.99606856432E+01  0.20995154968E+01  0.17210861442E+02  0.51100000000E-03 0. -1.
        -11    1    3    3    0    0 -0.20706276918E+02  0.59465952638E+01  0.15114210068E+02  0.26316368391E+02  0.51100000000E-03 0.  1.
        -12    1    3    3    0    0  0.64474856832E+01 -0.62265785279E+01  0.12980754257E+02  0.15774673780E+02  0.00000000000E+00 0.  1.
</event>
<event>
 7    1  0.4673733E-013  0.5930193E+02  0.7816164E-02  0.1266605E+00
        -11   -1    0    0    0    0  0.00000000000E+00  0.00000000000E+00  0.45593999997E+02  0.45594000000E+02  0.51100000000E-03 0. -1.
         11   -1    0    0    0    0 -0.00000000000E+00 -0.00000000000E+00 -0.45593999997E+02  0.45594000000E+02  0.51100000000E-03 0.  1.
    9900012    2    1    2    0    0  0.64411484994E+01  0.22904747735E+02 -0.21227476000E+02  0.59301927804E+02  0.49999970412E+02 0.  0.
         12    1    1    2    0    0 -0.64411484994E+01 -0.22904747735E+02  0.21227476000E+02  0.31886072196E+02  0.00000000000E+00 0. -1.
         11    1    3    3    0    0  0.10737586870E+02  0.27319469609E+01  0.60429035644E+01  0.12620459173E+02  0.51100000000E-03 0. -1.
        -11    1    3    3    0    0 -0.10336965108E+02  0.26741516311E+02 -0.18209348776E+02  0.33963832608E+02  0.51100000000E-03 0.  1.
        -12    1    3    3    0    0  0.60405267370E+01 -0.65687155378E+01 -0.90610307879E+01  0.12717636023E+02  0.00000000000E+00 0.  1.
</event>
<event>
 7    1  0.4673733E-013  0.5930191E+02  0.7816164E-02  0.1266605E+00
        -11   -1    0    0    0    0  0.00000000000E+00  0.00000000000E+00  0.45593999997E+02  0.45594000000E+02  0.51100000000E-03 0. -1.
         11   -1    0    0    0    0 -0.00000000000E+00 -0.00000000000E+00 -0.45593999997E+02  0.45594000000E+02  0.51100000000E-03 0.  1.
    9900012    2    1    2    0    0 -0.30527601887E+02 -0.30661017096E+01  0.86825876967E+01  0.59301909212E+02  0.49999936504E+02 0.  0.
         12    1    1    2    0    0  0.30527601887E+02  0.30661017096E+01 -0.86825876967E+01  0.31886090788E+02  0.00000000000E+00 0. -1.
         11    1    3    3    0    0 -0.61157814622E+01 -0.15104294987E+02  0.22312395714E+02  0.27629432002E+02  0.51100000000E-03 0. -1.
        -11    1    3    3    0    0 -0.13014679551E+02  0.57174837141E+01 -0.11874508121E+02  0.18522295949E+02  0.51100000000E-03 0.  1.
         12    1    3    3    0    0 -0.11397140873E+02  0.63207095638E+01 -0.17552998965E+01  0.13150181261E+02  0.00000000000E+00 0. -1.
</event>
<event>
 7    1  0.4673733E-013  0.5930195E+02  0.7816164E-02  0.1266605E+00
        -11   -1    0    0    0    0  0.00000000000E+00  0.00000000000E+00  0.45593999997E+02  0.45594000000E+02  0.51100000000E-03 0.  1.
         11   -1    0    0    0    0 -0.00000000000E+00 -0.00000000000E+00 -0.45593999997E+02  0.45594000000E+02  0.51100000000E-03 0. -1.
    9900012    2    1    2    0    0  0.20464904095E+02 -0.59913325402E+01  0.23706792605E+02  0.59301946923E+02  0.50000005279E+02 0.  0.
         12    1    1    2    0    0 -0.20464904095E+02  0.59913325402E+01 -0.23706792605E+02  0.31886053077E+02  0.00000000000E+00 0. -1.
         11    1    3    3    0    0  0.12670650409E+02  0.38209211265E+01  0.29760479843E+02  0.32570400378E+02  0.51100000000E-03 0.  1.
        -11    1    3    3    0    0  0.12377992990E+02 -0.11219350959E+02 -0.10873503168E+02  0.19932927979E+02  0.51100000000E-03 0. -1.
         12    1    3    3    0    0 -0.45837393038E+01  0.14070972922E+01  0.48198159307E+01  0.67986185657E+01  0.00000000000E+00 0. -1.
</event>
<event>
 7    1  0.4673733E-013  0.5930191E+02  0.7816164E-02  0.1266605E+00
        -11   -1    0    0    0    0  0.00000000000E+00  0.00000000000E+00  0.45593999997E+02  0.45594000000E+02  0.51100000000E-03 0.  1.
         11   -1    0    0    0    0 -0.00000000000E+00 -0.00000000000E+00 -0.45593999997E+02  0.45594000000E+02  0.51100000000E-03 0. -1.
    9900012    2    1    2    0    0  0.11238206465E+01  0.29560294106E+01  0.31728875884E+02  0.59301911378E+02  0.49999940455E+02 0.  0.
         12    1    1    2    0    0 -0.11238206465E+01 -0.29560294106E+01 -0.31728875884E+02  0.31886088622E+02  0.00000000000E+00 0. -1.
         11    1    3    3    0    0 -0.20184637101E+02  0.10170046531E+02  0.18345562178E+02  0.29110291534E+02  0.51100000000E-03 0. -1.
        -11    1    3    3    0    0  0.13091254723E+02  0.22714564107E+01  0.23740222182E+01  0.13497275510E+02  0.51100000000E-03 0.  1.
         12    1    3    3    0    0  0.82172030244E+01 -0.94854735313E+01  0.11009291489E+02  0.16694344334E+02  0.00000000000E+00 0. -1.
</event>
<event>
 7    1  0.4673733E-013  0.5930232E+02  0.7816164E-02  0.1266603E+00
        -11   -1    0    0    0    0  0.00000000000E+00  0.00000000000E+00  0.45593999997E+02  0.45594000000E+02  0.51100000000E-03 0.  1.
         11   -1    0    0    0    0 -0.00000000000E+00 -0.00000000000E+00 -0.45593999997E+02  0.45594000000E+02  0.51100000000E-03 0. -1.
    9900012    2    1    2    0    0 -0.24341485357E+02 -0.28364450652E+01  0.20399597330E+02  0.59302315105E+02  0.50000676751E+02 0.  0.
         12    1    1    2    0    0  0.24341485357E+02  0.28364450652E+01 -0.20399597330E+02  0.31885684895E+02  0.00000000000E+00 0. -1.
         11    1    3    3    0    0  0.10834250847E+01  0.13521728199E+02  0.41300267849E+01  0.14179847140E+02  0.51100000000E-03 0. -1.
        -11    1    3    3    0    0 -0.13286258165E+01 -0.17256281627E+02  0.28924365264E+01  0.17547384177E+02  0.51100000000E-03 0.  1.
         12    1    3    3    0    0 -0.24096284625E+02  0.89810836282E+00  0.13377134019E+02  0.27575083788E+02  0.00000000000E+00 0. -1.
</event>
<event>
 7    1  0.4673733E-013  0.5930198E+02  0.7816164E-02  0.1266605E+00
        -11   -1    0    0    0    0  0.00000000000E+00  0.00000000000E+00  0.45593999997E+02  0.45594000000E+02  0.51100000000E-03 0. -1.
         11   -1    0    0    0    0 -0.00000000000E+00 -0.00000000000E+00 -0.45593999997E+02  0.45594000000E+02  0.51100000000E-03 0.  1.
    9900012    2    1    2    0    0  0.12506817212E+02 -0.34745924026E+01 -0.29124306783E+02  0.59301976185E+02  0.50000058647E+02 0.  0.
         12    1    1    2    0    0 -0.12506817212E+02  0.34745924026E+01  0.29124306783E+02  0.31886023815E+02  0.00000000000E+00 0. -1.
         11    1    3    3    0    0 -0.38096198484E+01  0.14345750934E+02 -0.63650200144E+01  0.16150147160E+02  0.51100000000E-03 0. -1.
        -11    1    3    3    0    0  0.22494532778E+02 -0.19647217480E+02 -0.16283643836E+02  0.34017263506E+02  0.51100000000E-03 0.  1.
        -12    1    3    3    0    0 -0.61780957174E+01  0.18268741437E+01 -0.64756429327E+01  0.91345655191E+01  0.00000000000E+00 0.  1.
</event>
<event>
 7    1  0.4673733E-013  0.5930193E+02  0.7816164E-02  0.1266605E+00
        -11   -1    0    0    0    0  0.00000000000E+00  0.00000000000E+00  0.45593999997E+02  0.45594000000E+02  0.51100000000E-03 0. -1.
         11   -1    0    0    0    0 -0.00000000000E+00 -0.00000000000E+00 -0.45593999997E+02  0.45594000000E+02  0.51100000000E-03 0.  1.
    9900012    2    1    2    0    0 -0.28567633341E+02  0.14049713361E+02 -0.17936755629E+01  0.59301931063E+02  0.49999976356E+02 0.  0.
         12    1    1    2    0    0  0.28567633341E+02 -0.14049713361E+02  0.17936755629E+01  0.31886068937E+02  0.00000000000E+00 0. -1.
         11    1    3    3    0    0 -0.66762278057E+01 -0.17097398111E+02 -0.81520667551E+01  0.20083556271E+02  0.51100000000E-03 0. -1.
        -11    1    3    3    0    0 -0.37321378684E+00  0.25525175842E+01 -0.84388582239E+00  0.27141809244E+01  0.51100000000E-03 0.  1.
         12    1    3    3    0    0 -0.21518191748E+02  0.28594593887E+02  0.72022770146E+01  0.36504193867E+02  0.00000000000E+00 0. -1.
</event>
<event>
 7    1  0.4673733E-013  0.5930194E+02  0.7816164E-02  0.1266605E+00
        -11   -1    0    0    0    0  0.00000000000E+00  0.00000000000E+00  0.45593999997E+02  0.45594000000E+02  0.51100000000E-03 0.  1.
         11   -1    0    0    0    0 -0.00000000000E+00 -0.00000000000E+00 -0.45593999997E+02  0.45594000000E+02  0.51100000000E-03 0. -1.
    9900012    2    1    2    0    0 -0.12101269965E+02 -0.21747365175E+01  0.29420244079E+02  0.59301937601E+02  0.49999988279E+02 0.  0.
         12    1    1    2    0    0  0.12101269965E+02  0.21747365175E+01 -0.29420244079E+02  0.31886062399E+02  0.00000000000E+00 0. -1.
         11    1    3    3    0    0 -0.13088379590E+02  0.94558121376E+01 -0.56521655207E+01  0.17107455650E+02  0.51100000000E-03 0. -1.
        -11    1    3    3    0    0  0.66065129026E+01 -0.10499781660E+02  0.34220290614E+02  0.36399446666E+02  0.51100000000E-03 0.  1.
        -12    1    3    3    0    0 -0.56194032770E+01 -0.11307669955E+01  0.85211898556E+00  0.57950352849E+01  0.00000000000E+00 0.  1.
</event>
<event>
 7    1  0.4673733E-013  0.5930194E+02  0.7816164E-02  0.1266605E+00
        -11   -1    0    0    0    0  0.00000000000E+00  0.00000000000E+00  0.45593999997E+02  0.45594000000E+02  0.51100000000E-03 0.  1.
         11   -1    0    0    0    0 -0.00000000000E+00 -0.00000000000E+00 -0.45593999997E+02  0.45594000000E+02  0.51100000000E-03 0. -1.
    9900012    2    1    2    0    0 -0.71465930417E+01 -0.29361798263E+02  0.10175051586E+02  0.59301942481E+02  0.49999997179E+02 0.  0.
         12    1    1    2    0    0  0.71465930417E+01  0.29361798263E+02 -0.10175051586E+02  0.31886057519E+02  0.00000000000E+00 0. -1.
         11    1    3    3    0    0 -0.40013286469E+01 -0.27618532387E+02  0.20506709854E+02  0.34631186977E+02  0.51100000000E-03 0.  1.
        -11    1    3    3    0    0 -0.38046967250E+01  0.43448206123E+01 -0.15573564839E+02  0.16609909855E+02  0.51100000000E-03 0. -1.
         12    1    3    3    0    0  0.65943233013E+00 -0.60880864875E+01  0.52419065712E+01  0.80608456491E+01  0.00000000000E+00 0. -1.
</event>
<event>
 7    1  0.4673733E-013  0.5930189E+02  0.7816164E-02  0.1266605E+00
        -11   -1    0    0    0    0  0.00000000000E+00  0.00000000000E+00  0.45593999997E+02  0.45594000000E+02  0.51100000000E-03 0. -1.
         11   -1    0    0    0    0 -0.00000000000E+00 -0.00000000000E+00 -0.45593999997E+02  0.45594000000E+02  0.51100000000E-03 0.  1.
    9900012    2    1    2    0    0  0.94592375299E+01  0.10724361681E+02 -0.28499739450E+02  0.59301886144E+02  0.49999894434E+02 0.  0.
         12    1    1    2    0    0 -0.94592375299E+01 -0.10724361681E+02  0.28499739450E+02  0.31886113856E+02  0.00000000000E+00 0. -1.
         11    1    3    3    0    0  0.19788462874E+02  0.11864102250E+01 -0.18397060550E+02  0.27045196788E+02  0.51100000000E-03 0. -1.
        -11    1    3    3    0    0 -0.17669004005E+02  0.12078530218E+02 -0.27812188083E+01  0.21582858315E+02  0.51100000000E-03 0.  1.
        -12    1    3    3    0    0  0.73397786607E+01 -0.25405787616E+01 -0.73214600914E+01  0.10673831041E+02  0.00000000000E+00 0.  1.
</event>
<event>
 7    1  0.4673733E-013  0.5930195E+02  0.7816164E-02  0.1266605E+00
        -11   -1    0    0    0    0  0.00000000000E+00  0.00000000000E+00  0.45593999997E+02  0.45594000000E+02  0.51100000000E-03 0. -1.
         11   -1    0    0    0    0 -0.00000000000E+00 -0.00000000000E+00 -0.45593999997E+02  0.45594000000E+02  0.51100000000E-03 0.  1.
    9900012    2    1    2    0    0  0.22971258305E+01  0.18561968987E+02 -0.25824342436E+02  0.59301950667E+02  0.50000012109E+02 0.  0.
         12    1    1    2    0    0 -0.22971258305E+01 -0.18561968987E+02  0.25824342436E+02  0.31886049333E+02  0.00000000000E+00 0. -1.
         11    1    3    3    0    0 -0.51600479425E+01 -0.16388603326E+01  0.30044152834E+01  0.61918066357E+01  0.51100000000E-03 0. -1.
        -11    1    3    3    0    0  0.41283000439E+01  0.21453730292E+02 -0.37688593351E+02  0.43563005793E+02  0.51100000000E-03 0.  1.
        -12    1    3    3    0    0  0.33288737290E+01 -0.12529009716E+01  0.88598356309E+01  0.95471382390E+01  0.00000000000E+00 0.  1.
</event>
<event>
 7    1  0.4673733E-013  0.5930195E+02  0.7816164E-02  0.1266605E+00
        -11   -1    0    0    0    0  0.00000000000E+00  0.00000000000E+00  0.45593999997E+02  0.45594000000E+02  0.51100000000E-03 0.  1.
         11   -1    0    0    0    0 -0.00000000000E+00 -0.00000000000E+00 -0.45593999997E+02  0.45594000000E+02  0.51100000000E-03 0. -1.
    9900012    2    1    2    0    0 -0.33830768241E+01  0.24756847113E+02  0.19808422346E+02  0.59301948447E+02  0.50000008060E+02 0.  0.
         12    1    1    2    0    0  0.33830768241E+01 -0.24756847113E+02 -0.19808422346E+02  0.31886051553E+02  0.00000000000E+00 0. -1.
         11    1    3    3    0    0 -0.14430417704E+02  0.55358511180E+01  0.23120087822E+02  0.27810448826E+02  0.51100000000E-03 0. -1.
        -11    1    3    3    0    0 -0.58418080432E+01  0.11048988194E+02 -0.22497355692E+01  0.12699140590E+02  0.51100000000E-03 0.  1.
         12    1    3    3    0    0  0.16889148923E+02  0.81720078012E+01 -0.10619299073E+01  0.18792359032E+02  0.00000000000E+00 0. -1.
</event>
<event>
 7    1  0.4673733E-013  0.5930192E+02  0.7816164E-02  0.1266605E+00
        -11   -1    0    0    0    0  0.00000000000E+00  0.00000000000E+00  0.45593999997E+02  0.45594000000E+02  0.51100000000E-03 0.  1.
         11   -1    0    0    0    0 -0.00000000000E+00 -0.00000000000E+00 -0.45593999997E+02  0.45594000000E+02  0.51100000000E-03 0. -1.
    9900012    2    1    2    0    0  0.11557343619E+02 -0.15389134630E+02  0.25422912990E+02  0.59301919007E+02  0.49999954369E+02 0.  0.
         12    1    1    2    0    0 -0.11557343619E+02  0.15389134630E+02 -0.25422912990E+02  0.31886080993E+02  0.00000000000E+00 0. -1.
         11    1    3    3    0    0 -0.59481079092E+01  0.45973580819E+01 -0.90032512678E+01  0.11729203838E+02  0.51100000000E-03 0. -1.
        -11    1    3    3    0    0  0.15515293499E+02 -0.60301851182E+01  0.10139266432E+02  0.19490823199E+02  0.51100000000E-03 0.  1.
         12    1    3    3    0    0  0.19901580286E+01 -0.13956307594E+02  0.24286897825E+02  0.28081891970E+02  0.00000000000E+00 0. -1.
</event>
<event>
 7    1  0.4673733E-013  0.5930197E+02  0.7816164E-02  0.1266605E+00
        -11   -1    0    0    0    0  0.00000000000E+00  0.00000000000E+00  0.45593999997E+02  0.45594000000E+02  0.51100000000E-03 0.  1.
         11   -1    0    0    0    0 -0.00000000000E+00 -0.00000000000E+00 -0.45593999997E+02  0.45594000000E+02  0.51100000000E-03 0. -1.
    9900012    2    1    2    0    0  0.14422449014E+02  0.28043748878E+02  0.47180573835E+01  0.59301969326E+02  0.50000046138E+02 0.  0.
         12    1    1    2    0    0 -0.14422449014E+02 -0.28043748878E+02 -0.47180573835E+01  0.31886030674E+02  0.00000000000E+00 0. -1.
         11    1    3    3    0    0 -0.94626124746E+01  0.19194769942E+02 -0.54951905680E+01  0.22094735744E+02  0.51100000000E-03 0. -1.
        -11    1    3    3    0    0  0.57934708370E+01  0.12593406733E+02  0.12405572910E+02  0.18602592211E+02  0.51100000000E-03 0.  1.
         12    1    3    3    0    0  0.18091590651E+02 -0.37444277974E+01 -0.21923249580E+01  0.18604641371E+02  0.00000000000E+00 0. -1.
</event>
<event>
 7    1  0.4673733E-013  0.5930196E+02  0.7816164E-02  0.1266605E+00
        -11   -1    0    0    0    0  0.00000000000E+00  0.00000000000E+00  0.45593999997E+02  0.45594000000E+02  0.51100000000E-03 0.  1.
         11   -1    0    0    0    0 -0.00000000000E+00 -0.00000000000E+00 -0.45593999997E+02  0.45594000000E+02  0.51100000000E-03 0. -1.
    9900012    2    1    2    0    0  0.10441313215E+02  0.45909800626E+01  0.29776194156E+02  0.59301955122E+02  0.50000020233E+02 0.  0.
         12    1    1    2    0    0 -0.10441313215E+02 -0.45909800626E+01 -0.29776194156E+02  0.31886044878E+02  0.00000000000E+00 0. -1.
         11    1    3    3    0    0 -0.14952628148E+01  0.16474901760E+02  0.53312135865E+01  0.17380449864E+02  0.51100000000E-03 0. -1.
        -11    1    3    3    0    0  0.14868478970E+02 -0.96559198705E+01  0.54251083055E+00  0.17737045235E+02  0.51100000000E-03 0.  1.
        -12    1    3    3    0    0 -0.29319029402E+01 -0.22280018273E+01  0.23902469739E+02  0.24184460023E+02  0.00000000000E+00 0.  1.
</event>
<event>
 7    1  0.4673733E-013  0.5930193E+02  0.7816164E-02  0.1266605E+00
        -11   -1    0    0    0    0  0.00000000000E+00  0.00000000000E+00  0.45593999997E+02  0.45594000000E+02  0.51100000000E-03 0.  1.
         11   -1    0    0    0    0 -0.00000000000E+00 -0.00000000000E+00 -0.45593999997E+02  0.45594000000E+02  0.51100000000E-03 0. -1.
    9900012    2    1    2    0    0 -0.19662404246E+02  0.27632139865E+01  0.24949464474E+02  0.59301932983E+02  0.49999979857E+02 0.  0.
         12    1    1    2    0    0  0.19662404246E+02 -0.27632139865E+01 -0.24949464474E+02  0.31886067017E+02  0.00000000000E+00 0. -1.
         11    1    3    3    0    0 -0.10266275672E+02 -0.55342963436E+01 -0.12998306670E+02  0.17463700317E+02  0.51100000000E-03 0. -1.
        -11    1    3    3    0    0 -0.65289230317E+01  0.14471137905E+00  0.27571291227E+02  0.28334146847E+02  0.51100000000E-03 0.  1.
         12    1    3    3    0    0 -0.28672055423E+01  0.81527989510E+01  0.10376479917E+02  0.13504085820E+02  0.00000000000E+00 0. -1.
</event>
<event>
 7    1  0.4673733E-013  0.5930195E+02  0.7816164E-02  0.1266605E+00
        -11   -1    0    0    0    0  0.00000000000E+00  0.00000000000E+00  0.45593999997E+02  0.45594000000E+02  0.51100000000E-03 0. -1.
         11   -1    0    0    0    0 -0.00000000000E+00 -0.00000000000E+00 -0.45593999997E+02  0.45594000000E+02  0.51100000000E-03 0.  1.
    9900012    2    1    2    0    0 -0.51763422459E+01  0.23945829686E+02 -0.20408894158E+02  0.59301949145E+02  0.50000009333E+02 0.  0.
         12    1    1    2    0    0  0.51763422459E+01 -0.23945829686E+02  0.20408894158E+02  0.31886050855E+02  0.00000000000E+00 0. -1.
         11    1    3    3    0    0  0.13243941571E+02 -0.50164361436E+01  0.40483273988E+01  0.14729411900E+02  0.51100000000E-03 0. -1.
        -11    1    3    3    0    0 -0.83180944745E+01  0.56631351151E+01 -0.13686974797E+02  0.16988086248E+02  0.51100000000E-03 0.  1.
         12    1    3    3    0    0 -0.10102189343E+02  0.23299130714E+02 -0.10770246760E+02  0.27584450997E+02  0.00000000000E+00 0. -1.
</event>
<event>
 7    1  0.4673733E-013  0.5930190E+02  0.7816164E-02  0.1266605E+00
        -11   -1    0    0    0    0  0.00000000000E+00  0.00000000000E+00  0.45593999997E+02  0.45594000000E+02  0.51100000000E-03 0.  1.
         11   -1    0    0    0    0 -0.00000000000E+00 -0.00000000000E+00 -0.45593999997E+02  0.45594000000E+02  0.51100000000E-03 0. -1.
    9900012    2    1    2    0    0 -0.65030474910E+01 -0.77998928489E+01  0.30225736224E+02  0.59301904513E+02  0.49999927935E+02 0.  0.
         12    1    1    2    0    0  0.65030474910E+01  0.77998928489E+01 -0.30225736224E+02  0.31886095487E+02  0.00000000000E+00 0. -1.
         11    1    3    3    0    0 -0.31773644983E+01  0.84837497377E+01  0.22584502895E+02  0.24333709665E+02  0.51100000000E-03 0. -1.
        -11    1    3    3    0    0  0.23667332324E+01 -0.18503594003E+02  0.16026262773E+02  0.24593200604E+02  0.51100000000E-03 0.  1.
         12    1    3    3    0    0 -0.56924162251E+01  0.22199514166E+01 -0.83850294449E+01  0.10374994244E+02  0.00000000000E+00 0. -1.
</event>
<event>
 7    1  0.4673733E-013  0.5930196E+02  0.7816164E-02  0.1266605E+00
        -11   -1    0    0    0    0  0.00000000000E+00  0.00000000000E+00  0.45593999997E+02  0.45594000000E+02  0.51100000000E-03 0.  1.
         11   -1    0    0    0    0 -0.00000000000E+00 -0.00000000000E+00 -0.45593999997E+02  0.45594000000E+02  0.51100000000E-03 0. -1.
    9900012    2    1    2    0    0 -0.21040896953E+02 -0.21338614676E+02  0.10893278252E+02  0.59301963370E+02  0.50000035276E+02 0.  0.
         12    1    1    2    0    0  0.21040896953E+02  0.21338614676E+02 -0.10893278252E+02  0.31886036630E+02  0.00000000000E+00 0. -1.
         11    1    3    3    0    0  0.12170766236E+01  0.60830369409E+01  0.64546706648E+00  0.62370860125E+01  0.51100000000E-03 0. -1.
        -11    1    3    3    0    0 -0.22813796559E+02 -0.33831482391E+02 -0.18780015692E+00  0.40805315627E+02  0.51100000000E-03 0.  1.
        -12    1    3    3    0    0  0.55582298215E+00  0.64098307742E+01  0.10435611343E+02  0.12259561731E+02  0.00000000000E+00 0.  1.
</event>
<event>
 7    1  0.4673733E-013  0.5930192E+02  0.7816164E-02  0.1266605E+00
        -11   -1    0    0    0    0  0.00000000000E+00  0.00000000000E+00  0.45593999997E+02  0.45594000000E+02  0.51100000000E-03 0.  1.
         11   -1    0    0    0    0 -0.00000000000E+00 -0.00000000000E+00 -0.45593999997E+02  0.45594000000E+02  0.51100000000E-03 0. -1.
    9900012    2    1    2    0    0 -0.80403560148E+01 -0.18718914463E+02  0.24529106061E+02  0.59301919532E+02  0.49999955325E+02 0.  0.
         12    1    1    2    0    0  0.80403560148E+01  0.18718914463E+02 -0.24529106061E+02  0.31886080468E+02  0.00000000000E+00 0. -1.
         11    1    3    3    0    0  0.41039117087E+01 -0.24759704210E+02  0.30272968640E+02  0.39323500282E+02  0.51100000000E-03 0.  1.
        -11    1    3    3    0    0 -0.14013827328E+02  0.57477114462E+01 -0.13649727834E+01  0.15208112776E+02  0.51100000000E-03 0. -1.
         12    1    3    3    0    0  0.18695596045E+01  0.29307830122E+00 -0.43788897961E+01  0.47703064735E+01  0.00000000000E+00 0. -1.
</event>
<event>
 7    1  0.4673733E-013  0.5930209E+02  0.7816164E-02  0.1266604E+00
        -11   -1    0    0    0    0  0.00000000000E+00  0.00000000000E+00  0.45593999997E+02  0.45594000000E+02  0.51100000000E-03 0.  1.
         11   -1    0    0    0    0 -0.00000000000E+00 -0.00000000000E+00 -0.45593999997E+02  0.45594000000E+02  0.51100000000E-03 0. -1.
    9900012    2    1    2    0    0 -0.72642289948E+01 -0.13147865002E+02  0.28126076022E+02  0.59302085721E+02  0.50000258413E+02 0.  0.
         12    1    1    2    0    0  0.72642289948E+01  0.13147865002E+02 -0.28126076022E+02  0.31885914279E+02  0.00000000000E+00 0. -1.
         11    1    3    3    0    0 -0.29260061838E+01  0.14177891219E+02  0.17301356095E+02  0.22559056598E+02  0.51100000000E-03 0. -1.
        -11    1    3    3    0    0 -0.16789318334E+01 -0.30357177750E+02  0.11768101812E+02  0.32601614585E+02  0.51100000000E-03 0.  1.
        -12    1    3    3    0    0 -0.26592909777E+01  0.30314215295E+01 -0.94338188397E+00  0.41414145376E+01  0.00000000000E+00 0.  1.
</event>
<event>
 7    1  0.4673733E-013  0.5930199E+02  0.7816164E-02  0.1266605E+00
        -11   -1    0    0    0    0  0.00000000000E+00  0.00000000000E+00  0.45593999997E+02  0.45594000000E+02  0.51100000000E-03 0.  1.
         11   -1    0    0    0    0 -0.00000000000E+00 -0.00000000000E+00 -0.45593999997E+02  0.45594000000E+02  0.51100000000E-03 0. -1.
    9900012    2    1    2    0    0  0.12126319149E+02  0.28626984994E+02  0.70827985525E+01  0.59301985491E+02  0.50000075619E+02 0.  0.
         12    1    1    2    0    0 -0.12126319149E+02 -0.28626984994E+02 -0.70827985525E+01  0.31886014509E+02  0.00000000000E+00 0. -1.
         11    1    3    3    0    0 -0.13978092443E+02 -0.13487958706E+00  0.70853560210E+01  0.15671870694E+02  0.51100000000E-03 0. -1.
        -11    1    3    3    0    0  0.79744414081E+01  0.12206308872E+02  0.93909132508E+01  0.17342864354E+02  0.51100000000E-03 0.  1.
         12    1    3    3    0    0  0.18129970184E+02  0.16555555708E+02 -0.93934707193E+01  0.26287250443E+02  0.00000000000E+00 0. -1.
</event>
<event>
 7    1  0.4673733E-013  0.5930201E+02  0.7816164E-02  0.1266605E+00
        -11   -1    0    0    0    0  0.00000000000E+00  0.00000000000E+00  0.45593999997E+02  0.45594000000E+02  0.51100000000E-03 0.  1.
         11   -1    0    0    0    0 -0.00000000000E+00 -0.00000000000E+00 -0.45593999997E+02  0.45594000000E+02  0.51100000000E-03 0. -1.
    9900012    2    1    2    0    0 -0.18014864995E+02  0.24787581260E+02 -0.88179667964E+01  0.59302014302E+02  0.50000128164E+02 0.  0.
         12    1    1    2    0    0  0.18014864995E+02 -0.24787581260E+02  0.88179667964E+01  0.31885985698E+02  0.00000000000E+00 0. -1.
         11    1    3    3    0    0 -0.85770474631E+00  0.78331430383E+00 -0.11416003090E+02  0.11474945122E+02  0.51100000000E-03 0. -1.
        -11    1    3    3    0    0 -0.72269788093E+01 -0.23007859247E+00  0.16616367899E+02  0.18121419406E+02  0.51100000000E-03 0.  1.
         12    1    3    3    0    0 -0.99301814392E+01  0.24234345548E+02 -0.14018331605E+02  0.29705649775E+02  0.00000000000E+00 0. -1.
</event>
<event>
 7    1  0.4673733E-013  0.5930215E+02  0.7816164E-02  0.1266604E+00
        -11   -1    0    0    0    0  0.00000000000E+00  0.00000000000E+00  0.45593999997E+02  0.45594000000E+02  0.51100000000E-03 0.  1.
         11   -1    0    0    0    0 -0.00000000000E+00 -0.00000000000E+00 -0.45593999997E+02  0.45594000000E+02  0.51100000000E-03 0. -1.
    9900012    2    1    2    0    0  0.26053069437E+02  0.15968865796E+02  0.91071460419E+01  0.59302153439E+02  0.50000381914E+02 0.  0.
         12    1    1    2    0    0 -0.26053069437E+02 -0.15968865796E+02 -0.91071460419E+01  0.31885846561E+02  0.00000000000E+00 0. -1.
         11    1    3    3    0    0 -0.10742658493E+01 -0.58445714844E+01  0.14265843018E+02  0.15454039608E+02  0.51100000000E-03 0. -1.
        -11    1    3    3    0    0  0.27538832047E+02  0.18693574038E+02  0.45945113960E+01  0.33599799346E+02  0.51100000000E-03 0.  1.
         12    1    3    3    0    0 -0.41149676107E+00  0.31198632426E+01 -0.97532083718E+01  0.10248314485E+02  0.00000000000E+00 0. -1.
</event>
<event>
 7    1  0.4673733E-013  0.5930194E+02  0.7816164E-02  0.1266605E+00
        -11   -1    0    0    0    0  0.00000000000E+00  0.00000000000E+00  0.45593999997E+02  0.45594000000E+02  0.51100000000E-03 0. -1.
         11   -1    0    0    0    0 -0.00000000000E+00 -0.00000000000E+00 -0.45593999997E+02  0.45594000000E+02  0.51100000000E-03 0.  1.
    9900012    2    1    2    0    0 -0.78822799239E+01  0.28455604579E+02 -0.12036152433E+02  0.59301941383E+02  0.49999995177E+02 0.  0.
         12    1    1    2    0    0  0.78822799239E+01 -0.28455604579E+02  0.12036152433E+02  0.31886058617E+02  0.00000000000E+00 0. -1.
         11    1    3    3    0    0  0.34427443934E+01  0.33592318358E+02  0.89184134035E+01  0.34926128322E+02  0.51100000000E-03 0. -1.
        -11    1    3    3    0    0 -0.70428765506E+01 -0.28418246408E+01 -0.12879080265E+02  0.14951547951E+02  0.51100000000E-03 0.  1.
         12    1    3    3    0    0 -0.42821477667E+01 -0.22948891388E+01 -0.80754855714E+01  0.94242651103E+01  0.00000000000E+00 0. -1.
</event>
<event>
 7    1  0.4673733E-013  0.5930205E+02  0.7816164E-02  0.1266604E+00
        -11   -1    0    0    0    0  0.00000000000E+00  0.00000000000E+00  0.45593999997E+02  0.45594000000E+02  0.51100000000E-03 0.  1.
         11   -1    0    0    0    0 -0.00000000000E+00 -0.00000000000E+00 -0.45593999997E+02  0.45594000000E+02  0.51100000000E-03 0. -1.
    9900012    2    1    2    0    0  0.25711195458E+02  0.12660165617E+02  0.13977436563E+02  0.59302045440E+02  0.50000184950E+02 0.  0.
         12    1    1    2    0    0 -0.25711195458E+02 -0.12660165617E+02 -0.13977436563E+02  0.31885954560E+02  0.00000000000E+00 0. -1.
         11    1    3    3    0    0  0.95526402135E+01  0.44963707681E+01 -0.12738794618E+02  0.16545306697E+02  0.51100000000E-03 0. -1.
        -11    1    3    3    0    0  0.16484163302E+02  0.13291997977E+02  0.29954117486E+02  0.36683156961E+02  0.51100000000E-03 0.  1.
        -12    1    3    3    0    0 -0.32560805692E+00 -0.51282031276E+01 -0.32378863057E+01  0.60735817813E+01  0.00000000000E+00 0.  1.
</event>
<event>
 7    1  0.4673733E-013  0.5930195E+02  0.7816164E-02  0.1266605E+00
        -11   -1    0    0    0    0  0.00000000000E+00  0.00000000000E+00  0.45593999997E+02  0.45594000000E+02  0.51100000000E-03 0.  1.
         11   -1    0    0    0    0 -0.00000000000E+00 -0.00000000000E+00 -0.45593999997E+02  0.45594000000E+02  0.51100000000E-03 0. -1.
    9900012    2    1    2    0    0  0.31879312338E+02 -0.10620375356E+00 -0.64699019900E+00  0.59301946141E+02  0.50000003853E+02 0.  0.
         12    1    1    2    0    0 -0.31879312338E+02  0.10620375356E+00  0.64699019900E+00  0.31886053859E+02  0.00000000000E+00 0. -1.
         11    1    3    3    0    0  0.33639187407E+02  0.87130242905E+00  0.70516652798E+01  0.34381391490E+02  0.51100000000E-03 0.  1.
        -11    1    3    3    0    0 -0.90706439462E+01 -0.45884741205E+01  0.37759927721E+01  0.10843836868E+02  0.51100000000E-03 0. -1.
        -12    1    3    3    0    0  0.73107688778E+01  0.36109679379E+01 -0.11474648251E+02  0.14076717782E+02  0.00000000000E+00 0.  1.
</event>
<event>
 7    1  0.4673733E-013  0.5930191E+02  0.7816164E-02  0.1266605E+00
        -11   -1    0    0    0    0  0.00000000000E+00  0.00000000000E+00  0.45593999997E+02  0.45594000000E+02  0.51100000000E-03 0.  1.
         11   -1    0    0    0    0 -0.00000000000E+00 -0.00000000000E+00 -0.45593999997E+02  0.45594000000E+02  0.51100000000E-03 0. -1.
    9900012    2    1    2    0    0 -0.11851513712E+02  0.26776323986E+02  0.12621128357E+02  0.59301909232E+02  0.49999936541E+02 0.  0.
         12    1    1    2    0    0  0.11851513712E+02 -0.26776323986E+02 -0.12621128357E+02  0.31886090768E+02  0.00000000000E+00 0. -1.
         11    1    3    3    0    0 -0.21919948827E+02  0.60574174889E+01 -0.11468901069E+02  0.25469828331E+02  0.51100000000E-03 0. -1.
        -11    1    3    3    0    0  0.67619058154E+01  0.18332819799E+02  0.21217023341E+02  0.28844024195E+02  0.51100000000E-03 0.  1.
         12    1    3    3    0    0  0.33065292999E+01  0.23860866986E+01  0.28730060842E+01  0.49880567062E+01  0.00000000000E+00 0. -1.
</event>
<event>
 7    1  0.4673733E-013  0.5930194E+02  0.7816164E-02  0.1266605E+00
        -11   -1    0    0    0    0  0.00000000000E+00  0.00000000000E+00  0.45593999997E+02  0.45594000000E+02  0.51100000000E-03 0.  1.
         11   -1    0    0    0    0 -0.00000000000E+00 -0.00000000000E+00 -0.45593999997E+02  0.45594000000E+02  0.51100000000E-03 0. -1.
    9900012    2    1    2    0    0 -0.11419101642E+02 -0.27030388112E+02  0.12477296542E+02  0.59301942032E+02  0.49999996360E+02 0.  0.
         12    1    1    2    0    0  0.11419101642E+02  0.27030388112E+02 -0.12477296542E+02  0.31886057968E+02  0.00000000000E+00 0. -1.
         11    1    3    3    0    0 -0.23684642067E+02 -0.11706822355E+02 -0.72306829168E+01  0.27391508450E+02  0.51100000000E-03 0. -1.
        -11    1    3    3    0    0  0.27323764406E+01 -0.64720570348E+01  0.17311535745E+02  0.18682683784E+02  0.51100000000E-03 0.  1.
         12    1    3    3    0    0  0.95331639849E+01 -0.88515087222E+01  0.23964437137E+01  0.13227749797E+02  0.00000000000E+00 0. -1.
</event>
<event>
 7    1  0.4673733E-013  0.5930202E+02  0.7816164E-02  0.1266605E+00
        -11   -1    0    0    0    0  0.00000000000E+00  0.00000000000E+00  0.45593999997E+02  0.45594000000E+02  0.51100000000E-03 0.  1.
         11   -1    0    0    0    0 -0.00000000000E+00 -0.00000000000E+00 -0.45593999997E+02  0.45594000000E+02  0.51100000000E-03 0. -1.
    9900012    2    1    2    0    0  0.26865199519E+02 -0.83312226546E+01 -0.15018908473E+02  0.59302018318E+02  0.50000135488E+02 0.  0.
         12    1    1    2    0    0 -0.26865199519E+02  0.83312226546E+01  0.15018908473E+02  0.31885981682E+02  0.00000000000E+00 0. -1.
         11    1    3    3    0    0  0.18939565840E+02 -0.15754096122E+02  0.10561811177E+02  0.26803927967E+02  0.51100000000E-03 0. -1.
        -11    1    3    3    0    0  0.15695950218E+01  0.67659074099E+01 -0.90005449683E+00  0.70036583277E+01  0.51100000000E-03 0.  1.
         12    1    3    3    0    0  0.63560386564E+01  0.65696605747E+00 -0.24680665153E+02  0.25494432024E+02  0.00000000000E+00 0. -1.
</event>
<event>
 7    1  0.4673733E-013  0.5930180E+02  0.7816164E-02  0.1266605E+00
        -11   -1    0    0    0    0  0.00000000000E+00  0.00000000000E+00  0.45593999997E+02  0.45594000000E+02  0.51100000000E-03 0.  1.
         11   -1    0    0    0    0 -0.00000000000E+00 -0.00000000000E+00 -0.45593999997E+02  0.45594000000E+02  0.51100000000E-03 0. -1.
    9900012    2    1    2    0    0  0.14046226012E+02 -0.26224074191E+02  0.11477425802E+02  0.59301798668E+02  0.49999734898E+02 0.  0.
         12    1    1    2    0    0 -0.14046226012E+02  0.26224074191E+02 -0.11477425802E+02  0.31886201332E+02  0.00000000000E+00 0. -1.
         11    1    3    3    0    0 -0.70689723060E+01 -0.98496724763E+00  0.55183119172E+01  0.90217679320E+01  0.51100000000E-03 0. -1.
        -11    1    3    3    0    0  0.29798001821E+02 -0.92791957548E+01  0.16569338530E+00  0.31209803603E+02  0.51100000000E-03 0.  1.
        -12    1    3    3    0    0 -0.86828035031E+01 -0.15959911188E+02  0.57934204991E+01  0.19070227133E+02  0.00000000000E+00 0.  1.
</event>
<event>
 7    1  0.4673733E-013  0.5930195E+02  0.7816164E-02  0.1266605E+00
        -11   -1    0    0    0    0  0.00000000000E+00  0.00000000000E+00  0.45593999997E+02  0.45594000000E+02  0.51100000000E-03 0.  1.
         11   -1    0    0    0    0 -0.00000000000E+00 -0.00000000000E+00 -0.45593999997E+02  0.45594000000E+02  0.51100000000E-03 0. -1.
    9900012    2    1    2    0    0 -0.49047926708E+01  0.11124365789E+02  0.29477311705E+02  0.59301946454E+02  0.50000004426E+02 0.  0.
         12    1    1    2    0    0  0.49047926708E+01 -0.11124365789E+02 -0.29477311705E+02  0.31886053546E+02  0.00000000000E+00 0. -1.
         11    1    3    3    0    0  0.44641294485E+01  0.44050395258E+01  0.69750088946E-02  0.62715926102E+01  0.51100000000E-03 0. -1.
        -11    1    3    3    0    0 -0.39843797890E+01 -0.18121972146E+02  0.10559729866E+02  0.21349216657E+02  0.51100000000E-03 0.  1.
        -12    1    3    3    0    0 -0.53845423303E+01  0.24841298409E+02  0.18910606830E+02  0.31681137187E+02  0.00000000000E+00 0.  1.
</event>
<event>
 7    1  0.4673733E-013  0.5930196E+02  0.7816164E-02  0.1266605E+00
        -11   -1    0    0    0    0  0.00000000000E+00  0.00000000000E+00  0.45593999997E+02  0.45594000000E+02  0.51100000000E-03 0. -1.
         11   -1    0    0    0    0 -0.00000000000E+00 -0.00000000000E+00 -0.45593999997E+02  0.45594000000E+02  0.51100000000E-03 0.  1.
    9900012    2    1    2    0    0 -0.30782277383E+02  0.28669369930E+00 -0.83119543918E+01  0.59301962617E+02  0.50000033902E+02 0.  0.
         12    1    1    2    0    0  0.30782277383E+02 -0.28669369930E+00  0.83119543918E+01  0.31886037383E+02  0.00000000000E+00 0. -1.
         11    1    3    3    0    0  0.54839483372E+01  0.56505859968E+01  0.13193084354E+02  0.15364253529E+02  0.51100000000E-03 0. -1.
        -11    1    3    3    0    0 -0.23774592705E+02 -0.87126502065E+01 -0.13043845097E+02  0.28483037533E+02  0.51100000000E-03 0.  1.
        -12    1    3    3    0    0 -0.12491633015E+02  0.33487579090E+01 -0.84611936490E+01  0.15454671555E+02  0.00000000000E+00 0.  1.
</event>
<event>
 7    1  0.4673733E-013  0.5930207E+02  0.7816164E-02  0.1266604E+00
        -11   -1    0    0    0    0  0.00000000000E+00  0.00000000000E+00  0.45593999997E+02  0.45594000000E+02  0.51100000000E-03 0.  1.
         11   -1    0    0    0    0 -0.00000000000E+00 -0.00000000000E+00 -0.45593999997E+02  0.45594000000E+02  0.51100000000E-03 0. -1.
    9900012    2    1    2    0    0 -0.15378335447E+02  0.27911529512E+02 -0.10798010974E+01  0.59302068129E+02  0.50000226331E+02 0.  0.
         12    1    1    2    0    0  0.15378335447E+02 -0.27911529512E+02  0.10798010974E+01  0.31885931871E+02  0.00000000000E+00 0. -1.
         11    1    3    3    0    0 -0.20667717109E+02  0.10226168538E+02 -0.18188411361E+02  0.29369156637E+02  0.51100000000E-03 0. -1.
        -11    1    3    3    0    0  0.85146907889E+01  0.15199967116E+02  0.65440913665E+01  0.18610859508E+02  0.51100000000E-03 0.  1.
        -12    1    3    3    0    0 -0.32253091268E+01  0.24853938585E+01  0.10564518897E+02  0.11322051984E+02  0.00000000000E+00 0.  1.
</event>
<event>
 7    1  0.4673733E-013  0.5930195E+02  0.7816164E-02  0.1266605E+00
        -11   -1    0    0    0    0  0.00000000000E+00  0.00000000000E+00  0.45593999997E+02  0.45594000000E+02  0.51100000000E-03 0.  1.
         11   -1    0    0    0    0 -0.00000000000E+00 -0.00000000000E+00 -0.45593999997E+02  0.45594000000E+02  0.51100000000E-03 0. -1.
    9900012    2    1    2    0    0  0.11430776585E+02 -0.22077042036E+02  0.19966518156E+02  0.59301948416E+02  0.50000008002E+02 0.  0.
         12    1    1    2    0    0 -0.11430776585E+02  0.22077042036E+02 -0.19966518156E+02  0.31886051584E+02  0.00000000000E+00 0. -1.
         11    1    3    3    0    0  0.62919271367E+01 -0.24327972361E+02  0.20754023546E+01  0.25214001695E+02  0.51100000000E-03 0. -1.
        -11    1    3    3    0    0  0.14305347354E+02  0.66824467966E+01  0.17950257278E+02  0.23906271033E+02  0.51100000000E-03 0.  1.
         12    1    3    3    0    0 -0.91664979056E+01 -0.44315164718E+01 -0.59141476928E-01  0.10181675688E+02  0.00000000000E+00 0. -1.
</event>
<event>
 7    1  0.4673733E-013  0.5930195E+02  0.7816164E-02  0.1266605E+00
        -11   -1    0    0    0    0  0.00000000000E+00  0.00000000000E+00  0.45593999997E+02  0.45594000000E+02  0.51100000000E-03 0.  1.
         11   -1    0    0    0    0 -0.00000000000E+00 -0.00000000000E+00 -0.45593999997E+02  0.45594000000E+02  0.51100000000E-03 0. -1.
    9900012    2    1    2    0    0  0.15734436835E+02  0.22839691500E+02  0.15732009255E+02  0.59301950926E+02  0.50000012582E+02 0.  0.
         12    1    1    2    0    0 -0.15734436835E+02 -0.22839691500E+02 -0.15732009255E+02  0.31886049074E+02  0.00000000000E+00 0. -1.
         11    1    3    3    0    0 -0.85408887386E+01 -0.83428973677E+01  0.82773646698E+01  0.14528092892E+02  0.51100000000E-03 0. -1.
        -11    1    3    3    0    0  0.17610489709E+02  0.30822365928E+02  0.10358167944E+01  0.35513666466E+02  0.51100000000E-03 0.  1.
        -12    1    3    3    0    0  0.66648358647E+01  0.36022293943E+00  0.64188277909E+01  0.92601915681E+01  0.00000000000E+00 0.  1.
</event>
<event>
 7    1  0.4673733E-013  0.5930194E+02  0.7816164E-02  0.1266605E+00
        -11   -1    0    0    0    0  0.00000000000E+00  0.00000000000E+00  0.45593999997E+02  0.45594000000E+02  0.51100000000E-03 0. -1.
         11   -1    0    0    0    0 -0.00000000000E+00 -0.00000000000E+00 -0.45593999997E+02  0.45594000000E+02  0.51100000000E-03 0.  1.
    9900012    2    1    2    0    0 -0.19052748726E+02  0.24773462800E+02  0.63237033281E+01  0.59301938517E+02  0.49999989950E+02 0.  0.
         12    1    1    2    0    0  0.19052748726E+02 -0.24773462800E+02 -0.63237033281E+01  0.31886061483E+02  0.00000000000E+00 0. -1.
         11    1    3    3    0    0  0.40793126771E+00  0.12196132144E+02  0.68409119989E+00  0.12222112265E+02  0.51100000000E-03 0. -1.
        -11    1    3    3    0    0 -0.30029910678E+02  0.11723827080E+02  0.12360412803E+02  0.34525692776E+02  0.51100000000E-03 0.  1.
        -12    1    3    3    0    0  0.10569230685E+02  0.85350357631E+00 -0.67208006750E+01  0.12554133476E+02  0.00000000000E+00 0.  1.
</event>
<event>
 7    1  0.4673733E-013  0.5930195E+02  0.7816164E-02  0.1266605E+00
        -11   -1    0    0    0    0  0.00000000000E+00  0.00000000000E+00  0.45593999997E+02  0.45594000000E+02  0.51100000000E-03 0.  1.
         11   -1    0    0    0    0 -0.00000000000E+00 -0.00000000000E+00 -0.45593999997E+02  0.45594000000E+02  0.51100000000E-03 0. -1.
    9900012    2    1    2    0    0 -0.18242235566E+02 -0.26147632589E+02 -0.49212171176E+00  0.59301952389E+02  0.50000015249E+02 0.  0.
         12    1    1    2    0    0  0.18242235566E+02  0.26147632589E+02  0.49212171176E+00  0.31886047611E+02  0.00000000000E+00 0. -1.
         11    1    3    3    0    0 -0.85036356426E+01  0.43268464145E+01 -0.10974307455E+02  0.14541968348E+02  0.51100000000E-03 0. -1.
        -11    1    3    3    0    0 -0.18060140347E+02 -0.26319714726E+02  0.16960027875E+01  0.31965176026E+02  0.51100000000E-03 0.  1.
        -12    1    3    3    0    0  0.83215404236E+01 -0.41547642770E+01  0.87861829561E+01  0.12794808016E+02  0.00000000000E+00 0.  1.
</event>
<event>
 7    1  0.4673733E-013  0.5930194E+02  0.7816164E-02  0.1266605E+00
        -11   -1    0    0    0    0  0.00000000000E+00  0.00000000000E+00  0.45593999997E+02  0.45594000000E+02  0.51100000000E-03 0.  1.
         11   -1    0    0    0    0 -0.00000000000E+00 -0.00000000000E+00 -0.45593999997E+02  0.45594000000E+02  0.51100000000E-03 0. -1.
    9900012    2    1    2    0    0 -0.10856930352E+02 -0.47896464260E+00  0.29976961891E+02  0.59301943675E+02  0.49999999356E+02 0.  0.
         12    1    1    2    0    0  0.10856930352E+02  0.47896464260E+00 -0.29976961891E+02  0.31886056325E+02  0.00000000000E+00 0. -1.
         11    1    3    3    0    0 -0.11335225829E+02 -0.52916368351E+01 -0.37071347431E+00  0.12515038703E+02  0.51100000000E-03 0. -1.
        -11    1    3    3    0    0  0.80007949112E+01  0.88111495380E+01 -0.30775600058E+01  0.12293105842E+02  0.51100000000E-03 0.  1.
        -12    1    3    3    0    0 -0.75224994338E+01 -0.39984773454E+01  0.33425235371E+02  0.34493799130E+02  0.00000000000E+00 0.  1.
</event>
<event>
 7    1  0.4673733E-013  0.5930195E+02  0.7816164E-02  0.1266605E+00
        -11   -1    0    0    0    0  0.00000000000E+00  0.00000000000E+00  0.45593999997E+02  0.45594000000E+02  0.51100000000E-03 0.  1.
         11   -1    0    0    0    0 -0.00000000000E+00 -0.00000000000E+00 -0.45593999997E+02  0.45594000000E+02  0.51100000000E-03 0. -1.
    9900012    2    1    2    0    0  0.19901561235E+02 -0.11110157880E+02  0.22298267619E+02  0.59301945266E+02  0.50000002258E+02 0.  0.
         12    1    1    2    0    0 -0.19901561235E+02  0.11110157880E+02 -0.22298267619E+02  0.31886054734E+02  0.00000000000E+00 0. -1.
         11    1    3    3    0    0 -0.29519936622E+01  0.16035358084E+02  0.34620259258E+00  0.16308489567E+02  0.51100000000E-03 0. -1.
        -11    1    3    3    0    0  0.21642000502E+02 -0.19218761599E+02  0.17458573337E+02  0.33801461008E+02  0.51100000000E-03 0.  1.
         12    1    3    3    0    0  0.12115543958E+01 -0.79267543649E+01  0.44934916900E+01  0.91919946901E+01  0.00000000000E+00 0. -1.
</event>
<event>
 7    1  0.4673733E-013  0.5930196E+02  0.7816164E-02  0.1266605E+00
        -11   -1    0    0    0    0  0.00000000000E+00  0.00000000000E+00  0.45593999997E+02  0.45594000000E+02  0.51100000000E-03 0.  1.
         11   -1    0    0    0    0 -0.00000000000E+00 -0.00000000000E+00 -0.45593999997E+02  0.45594000000E+02  0.51100000000E-03 0. -1.
    9900012    2    1    2    0    0  0.14681360168E+02 -0.77902358713E+01  0.27211938493E+02  0.59301957476E+02  0.50000024526E+02 0.  0.
         12    1    1    2    0    0 -0.14681360168E+02  0.77902358713E+01 -0.27211938493E+02  0.31886042524E+02  0.00000000000E+00 0. -1.
         11    1    3    3    0    0  0.16280270717E+01 -0.63108314717E+00 -0.13585120690E+02  0.13696869807E+02  0.51100000000E-03 0. -1.
        -11    1    3    3    0    0  0.28478094993E+01 -0.80598143099E+01  0.27627640182E+02  0.28919839694E+02  0.51100000000E-03 0.  1.
         12    1    3    3    0    0  0.10205523597E+02  0.90066158575E+00  0.13169419000E+02  0.16685247975E+02  0.00000000000E+00 0. -1.
</event>
<event>
 7    1  0.4673733E-013  0.5930213E+02  0.7816164E-02  0.1266604E+00
        -11   -1    0    0    0    0  0.00000000000E+00  0.00000000000E+00  0.45593999997E+02  0.45594000000E+02  0.51100000000E-03 0. -1.
         11   -1    0    0    0    0 -0.00000000000E+00 -0.00000000000E+00 -0.45593999997E+02  0.45594000000E+02  0.51100000000E-03 0.  1.
    9900012    2    1    2    0    0  0.64870953780E+01 -0.19507929537E+02 -0.24373488316E+02  0.59302130811E+02  0.50000340647E+02 0.  0.
         12    1    1    2    0    0 -0.64870953780E+01  0.19507929537E+02  0.24373488316E+02  0.31885869189E+02  0.00000000000E+00 0. -1.
         11    1    3    3    0    0  0.31650100884E+01 -0.21092439973E+02 -0.40459128150E+01  0.21708931886E+02  0.51100000000E-03 0. -1.
        -11    1    3    3    0    0 -0.43777576966E+01  0.13615327690E+02 -0.18207526896E+02  0.23152882034E+02  0.51100000000E-03 0.  1.
        -12    1    3    3    0    0  0.76998429862E+01 -0.12030817254E+02 -0.21200486046E+01  0.14440316890E+02  0.00000000000E+00 0.  1.
</event>
<event>
 7    1  0.4673733E-013  0.5930195E+02  0.7816164E-02  0.1266605E+00
        -11   -1    0    0    0    0  0.00000000000E+00  0.00000000000E+00  0.45593999997E+02  0.45594000000E+02  0.51100000000E-03 0.  1.
         11   -1    0    0    0    0 -0.00000000000E+00 -0.00000000000E+00 -0.45593999997E+02  0.45594000000E+02  0.51100000000E-03 0. -1.
    9900012    2    1    2    0    0  0.23258064431E+02 -0.17644080972E+02 -0.12824539356E+02  0.59301953457E+02  0.50000017196E+02 0.  0.
         12    1    1    2    0    0 -0.23258064431E+02  0.17644080972E+02  0.12824539356E+02  0.31886046543E+02  0.00000000000E+00 0. -1.
         11    1    3    3    0    0  0.16591958368E+02 -0.98290719602E+01 -0.46461852517E+01  0.19836601920E+02  0.51100000000E-03 0. -1.
        -11    1    3    3    0    0 -0.11260644023E+02  0.19210419452E+01 -0.14172393213E+02  0.18203000731E+02  0.51100000000E-03 0.  1.
        -12    1    3    3    0    0  0.17926750087E+02 -0.97360509574E+01  0.59940391090E+01  0.21262350805E+02  0.00000000000E+00 0.  1.
</event>
<event>
 7    1  0.4673733E-013  0.5930196E+02  0.7816164E-02  0.1266605E+00
        -11   -1    0    0    0    0  0.00000000000E+00  0.00000000000E+00  0.45593999997E+02  0.45594000000E+02  0.51100000000E-03 0. -1.
         11   -1    0    0    0    0 -0.00000000000E+00 -0.00000000000E+00 -0.45593999997E+02  0.45594000000E+02  0.51100000000E-03 0.  1.
    9900012    2    1    2    0    0  0.13939050444E+02  0.28542866006E+02 -0.27798311733E+01  0.59301956212E+02  0.50000022221E+02 0.  0.
         12    1    1    2    0    0 -0.13939050444E+02 -0.28542866006E+02  0.27798311733E+01  0.31886043788E+02  0.00000000000E+00 0. -1.
         11    1    3    3    0    0  0.18201321899E+02  0.24317096609E+02 -0.60325682388E+01  0.30967744286E+02  0.51100000000E-03 0.  1.
        -11    1    3    3    0    0 -0.15415820765E+02  0.30518692155E+01 -0.21922012518E+01  0.15867173099E+02  0.51100000000E-03 0. -1.
         12    1    3    3    0    0  0.11153549310E+02  0.11739001813E+01  0.54449383172E+01  0.12467038827E+02  0.00000000000E+00 0. -1.
</event>
<event>
 7    1  0.4673733E-013  0.5930192E+02  0.7816164E-02  0.1266605E+00
        -11   -1    0    0    0    0  0.00000000000E+00  0.00000000000E+00  0.45593999997E+02  0.45594000000E+02  0.51100000000E-03 0.  1.
         11   -1    0    0    0    0 -0.00000000000E+00 -0.00000000000E+00 -0.45593999997E+02  0.45594000000E+02  0.51100000000E-03 0. -1.
    9900012    2    1    2    0    0  0.10280954542E+02 -0.96650391286E+01  0.28593901724E+02  0.59301918029E+02  0.49999952585E+02 0.  0.
         12    1    1    2    0    0 -0.10280954542E+02  0.96650391286E+01 -0.28593901724E+02  0.31886081971E+02  0.00000000000E+00 0. -1.
         11    1    3    3    0    0  0.17657102930E+01  0.83279577728E+01  0.94146139821E+00  0.85649847244E+01  0.51100000000E-03 0. -1.
        -11    1    3    3    0    0  0.11627697891E+02 -0.22978033197E+02  0.33627753850E+02  0.42355863787E+02  0.51100000000E-03 0.  1.
        -12    1    3    3    0    0 -0.31124536424E+01  0.49850362961E+01 -0.59753135247E+01  0.83810695181E+01  0.00000000000E+00 0.  1.
</event>
<event>
 7    1  0.4673733E-013  0.5930195E+02  0.7816164E-02  0.1266605E+00
        -11   -1    0    0    0    0  0.00000000000E+00  0.00000000000E+00  0.45593999997E+02  0.45594000000E+02  0.51100000000E-03 0. -1.
         11   -1    0    0    0    0 -0.00000000000E+00 -0.00000000000E+00 -0.45593999997E+02  0.45594000000E+02  0.51100000000E-03 0.  1.
    9900012    2    1    2    0    0  0.15797098936E+02 -0.23978692873E+02 -0.13863404061E+02  0.59301952599E+02  0.50000015632E+02 0.  0.
         12    1    1    2    0    0 -0.15797098936E+02  0.23978692873E+02  0.13863404061E+02  0.31886047401E+02  0.00000000000E+00 0. -1.
         11    1    3    3    0    0 -0.23413254239E+01  0.14199883812E+01  0.11354717371E+02  0.11680230245E+02  0.51100000000E-03 0. -1.
        -11    1    3    3    0    0  0.55412789558E+01  0.10660729490E+01 -0.15891576763E+02  0.16863703516E+02  0.51100000000E-03 0.  1.
         12    1    3    3    0    0  0.12597145404E+02 -0.26464754203E+02 -0.93265446697E+01  0.30758018838E+02  0.00000000000E+00 0. -1.
</event>
<event>
 7    1  0.4673733E-013  0.5930197E+02  0.7816164E-02  0.1266605E+00
        -11   -1    0    0    0    0  0.00000000000E+00  0.00000000000E+00  0.45593999997E+02  0.45594000000E+02  0.51100000000E-03 0.  1.
         11   -1    0    0    0    0 -0.00000000000E+00 -0.00000000000E+00 -0.45593999997E+02  0.45594000000E+02  0.51100000000E-03 0. -1.
    9900012    2    1    2    0    0 -0.11304238461E+02 -0.26522828406E+02  0.13618842987E+02  0.59301966723E+02  0.50000041391E+02 0.  0.
         12    1    1    2    0    0  0.11304238461E+02  0.26522828406E+02 -0.13618842987E+02  0.31886033277E+02  0.00000000000E+00 0. -1.
         11    1    3    3    0    0 -0.22175551880E+02 -0.16804227559E+02  0.15687954715E+01  0.27867513067E+02  0.51100000000E-03 0. -1.
        -11    1    3    3    0    0  0.24518961601E+01 -0.10852903341E+02  0.17930631013E+02  0.21102247144E+02  0.51100000000E-03 0.  1.
        -12    1    3    3    0    0  0.84194172596E+01  0.11343024949E+01 -0.58805834973E+01  0.10332206512E+02  0.00000000000E+00 0.  1.
</event>
<event>
 7    1  0.4673733E-013  0.5930215E+02  0.7816164E-02  0.1266604E+00
        -11   -1    0    0    0    0  0.00000000000E+00  0.00000000000E+00  0.45593999997E+02  0.45594000000E+02  0.51100000000E-03 0. -1.
         11   -1    0    0    0    0 -0.00000000000E+00 -0.00000000000E+00 -0.45593999997E+02  0.45594000000E+02  0.51100000000E-03 0.  1.
    9900012    2    1    2    0    0  0.29908450931E+02  0.97895613312E+01  0.51338802977E+01  0.59302146161E+02  0.50000368641E+02 0.  0.
         12    1    1    2    0    0 -0.29908450931E+02 -0.97895613312E+01 -0.51338802977E+01  0.31885853839E+02  0.00000000000E+00 0. -1.
         11    1    3    3    0    0  0.30246638114E+02 -0.10123064325E+02  0.20344229945E+00  0.31896346774E+02  0.51100000000E-03 0. -1.
        -11    1    3    3    0    0 -0.58219958024E+01  0.16062288833E+02 -0.26492323504E+01  0.17289048267E+02  0.51100000000E-03 0.  1.
         12    1    3    3    0    0  0.54838086190E+01  0.38503368225E+01  0.75796703487E+01  0.10116751119E+02  0.00000000000E+00 0. -1.
</event>
<event>
 7    1  0.4673733E-013  0.5930199E+02  0.7816164E-02  0.1266605E+00
        -11   -1    0    0    0    0  0.00000000000E+00  0.00000000000E+00  0.45593999997E+02  0.45594000000E+02  0.51100000000E-03 0.  1.
         11   -1    0    0    0    0 -0.00000000000E+00 -0.00000000000E+00 -0.45593999997E+02  0.45594000000E+02  0.51100000000E-03 0. -1.
    9900012    2    1    2    0    0 -0.20919146408E+02 -0.20027821400E+02  0.13341419099E+02  0.59301987706E+02  0.50000079658E+02 0.  0.
         12    1    1    2    0    0  0.20919146408E+02  0.20027821400E+02 -0.13341419099E+02  0.31886012294E+02  0.00000000000E+00 0. -1.
         11    1    3    3    0    0 -0.16258970564E+02  0.86534263683E+00 -0.15477212948E+02  0.22464350928E+02  0.51100000000E-03 0. -1.
        -11    1    3    3    0    0 -0.48155524792E+01 -0.70956618678E+01  0.72323519563E+01  0.11218060354E+02  0.51100000000E-03 0.  1.
         12    1    3    3    0    0  0.15537663591E+00 -0.13797502169E+02  0.21586280091E+02  0.25619576424E+02  0.00000000000E+00 0. -1.
</event>
<event>
 7    1  0.4673733E-013  0.5930187E+02  0.7816164E-02  0.1266605E+00
        -11   -1    0    0    0    0  0.00000000000E+00  0.00000000000E+00  0.45593999997E+02  0.45594000000E+02  0.51100000000E-03 0.  1.
         11   -1    0    0    0    0 -0.00000000000E+00 -0.00000000000E+00 -0.45593999997E+02  0.45594000000E+02  0.51100000000E-03 0. -1.
    9900012    2    1    2    0    0 -0.22354352220E+02 -0.20137871027E+02  0.10558140497E+02  0.59301870673E+02  0.49999866218E+02 0.  0.
         12    1    1    2    0    0  0.22354352220E+02  0.20137871027E+02 -0.10558140497E+02  0.31886129327E+02  0.00000000000E+00 0. -1.
         11    1    3    3    0    0  0.19541090977E+01  0.48024541509E+01 -0.67393895851E+01  0.85030277242E+01  0.51100000000E-03 0. -1.
        -11    1    3    3    0    0 -0.31568097540E+02 -0.25277464628E+02  0.13776764817E+02  0.42723462516E+02  0.51100000000E-03 0.  1.
         12    1    3    3    0    0  0.72596362218E+01  0.33713944929E+00  0.35207652651E+01  0.80753804328E+01  0.00000000000E+00 0. -1.
</event>
<event>
 7    1  0.4673733E-013  0.5930203E+02  0.7816164E-02  0.1266604E+00
        -11   -1    0    0    0    0  0.00000000000E+00  0.00000000000E+00  0.45593999997E+02  0.45594000000E+02  0.51100000000E-03 0.  1.
         11   -1    0    0    0    0 -0.00000000000E+00 -0.00000000000E+00 -0.45593999997E+02  0.45594000000E+02  0.51100000000E-03 0. -1.
    9900012    2    1    2    0    0 -0.31878246036E+02 -0.69000108810E+00  0.12822904395E+00  0.59302029504E+02  0.50000155887E+02 0.  0.
         12    1    1    2    0    0  0.31878246036E+02  0.69000108810E+00 -0.12822904395E+00  0.31885970496E+02  0.00000000000E+00 0. -1.
         11    1    3    3    0    0  0.12131446447E+02  0.69675718101E+01 -0.36740921917E+00  0.13994786158E+02  0.51100000000E-03 0. -1.
        -11    1    3    3    0    0 -0.25228804748E+02 -0.31006968866E+01  0.37995893514E+01  0.25701046471E+02  0.51100000000E-03 0.  1.
         12    1    3    3    0    0 -0.18780887735E+02 -0.45568760116E+01 -0.33039510883E+01  0.19606196875E+02  0.00000000000E+00 0. -1.
</event>
<event>
 7    1  0.4673733E-013  0.5930200E+02  0.7816164E-02  0.1266605E+00
        -11   -1    0    0    0    0  0.00000000000E+00  0.00000000000E+00  0.45593999997E+02  0.45594000000E+02  0.51100000000E-03 0.  1.
         11   -1    0    0    0    0 -0.00000000000E+00 -0.00000000000E+00 -0.45593999997E+02  0.45594000000E+02  0.51100000000E-03 0. -1.
    9900012    2    1    2    0    0  0.81415762161E+00  0.31100161935E+02  0.69881340018E+01  0.59302000849E+02  0.50000103628E+02 0.  0.
         12    1    1    2    0    0 -0.81415762161E+00 -0.31100161935E+02 -0.69881340018E+01  0.31885999151E+02  0.00000000000E+00 0. -1.
         11    1    3    3    0    0 -0.88423672768E+01  0.47890937791E+00 -0.56366877920E+01  0.10497097826E+02  0.51100000000E-03 0. -1.
        -11    1    3    3    0    0  0.15236558440E+02  0.73499186829E+01 -0.65490433917E+01  0.18140120930E+02  0.51100000000E-03 0.  1.
        -12    1    3    3    0    0 -0.55800335419E+01  0.23271333874E+02  0.19173865186E+02  0.30664782092E+02  0.00000000000E+00 0.  1.
</event>
<event>
 7    1  0.4673733E-013  0.5930196E+02  0.7816164E-02  0.1266605E+00
        -11   -1    0    0    0    0  0.00000000000E+00  0.00000000000E+00  0.45593999997E+02  0.45594000000E+02  0.51100000000E-03 0. -1.
         11   -1    0    0    0    0 -0.00000000000E+00 -0.00000000000E+00 -0.45593999997E+02  0.45594000000E+02  0.51100000000E-03 0.  1.
    9900012    2    1    2    0    0  0.30118381148E+02 -0.86321712032E+01  0.59235343970E+01  0.59301960384E+02  0.50000029830E+02 0.  0.
         12    1    1    2    0    0 -0.30118381148E+02  0.86321712032E+01 -0.59235343970E+01  0.31886039616E+02  0.00000000000E+00 0. -1.
         11    1    3    3    0    0  0.77032282529E+01  0.16701755383E+02  0.10949743367E+02  0.21405261934E+02  0.51100000000E-03 0. -1.
        -11    1    3    3    0    0  0.13637822068E+02 -0.23220086347E+02 -0.84767396285E+01  0.28231502187E+02  0.51100000000E-03 0.  1.
        -12    1    3    3    0    0  0.87773308267E+01 -0.21138402389E+01  0.34505306586E+01  0.96651962640E+01  0.00000000000E+00 0.  1.
</event>
<event>
 7    1  0.4673733E-013  0.5930196E+02  0.7816164E-02  0.1266605E+00
        -11   -1    0    0    0    0  0.00000000000E+00  0.00000000000E+00  0.45593999997E+02  0.45594000000E+02  0.51100000000E-03 0.  1.
         11   -1    0    0    0    0 -0.00000000000E+00 -0.00000000000E+00 -0.45593999997E+02  0.45594000000E+02  0.51100000000E-03 0. -1.
    9900012    2    1    2    0    0 -0.12263037871E+02 -0.23975492694E+02  0.17073764361E+02  0.59301956388E+02  0.50000022543E+02 0.  0.
         12    1    1    2    0    0  0.12263037871E+02  0.23975492694E+02 -0.17073764361E+02  0.31886043612E+02  0.00000000000E+00 0. -1.
         11    1    3    3    0    0 -0.21284471930E+02 -0.15844528421E+02 -0.17597133107E+01  0.26592751219E+02  0.51100000000E-03 0. -1.
        -11    1    3    3    0    0  0.79290623399E+01 -0.16496130322E+02  0.12624477970E+02  0.22234428022E+02  0.51100000000E-03 0.  1.
         12    1    3    3    0    0  0.10923717199E+01  0.83651660480E+01  0.62089997019E+01  0.10474777147E+02  0.00000000000E+00 0. -1.
</event>
<event>
 7    1  0.4673733E-013  0.5930197E+02  0.7816164E-02  0.1266605E+00
        -11   -1    0    0    0    0  0.00000000000E+00  0.00000000000E+00  0.45593999997E+02  0.45594000000E+02  0.51100000000E-03 0. -1.
         11   -1    0    0    0    0 -0.00000000000E+00 -0.00000000000E+00 -0.45593999997E+02  0.45594000000E+02  0.51100000000E-03 0.  1.
    9900012    2    1    2    0    0 -0.17392743319E+02  0.26724680630E+02  0.55994157073E-01  0.59301965278E+02  0.50000038756E+02 0.  0.
         12    1    1    2    0    0  0.17392743319E+02 -0.26724680630E+02 -0.55994157073E-01  0.31886034722E+02  0.00000000000E+00 0. -1.
         11    1    3    3    0    0 -0.11842053811E+02  0.26970645693E+02 -0.66093633141E+01  0.30188303220E+02  0.51100000000E-03 0.  1.
        -11    1    3    3    0    0 -0.80796065395E+01 -0.12973215853E+02  0.46984778488E+01  0.15989373527E+02  0.51100000000E-03 0. -1.
         12    1    3    3    0    0  0.25289170317E+01  0.12727250790E+02  0.19668796224E+01  0.13124288532E+02  0.00000000000E+00 0. -1.
</event>
<event>
 7    1  0.4673733E-013  0.5930191E+02  0.7816164E-02  0.1266605E+00
        -11   -1    0    0    0    0  0.00000000000E+00  0.00000000000E+00  0.45593999997E+02  0.45594000000E+02  0.51100000000E-03 0.  1.
         11   -1    0    0    0    0 -0.00000000000E+00 -0.00000000000E+00 -0.45593999997E+02  0.45594000000E+02  0.51100000000E-03 0. -1.
    9900012    2    1    2    0    0 -0.10733095976E+02  0.19776527838E+02  0.22592307627E+02  0.59301909514E+02  0.49999937055E+02 0.  0.
         12    1    1    2    0    0  0.10733095976E+02 -0.19776527838E+02 -0.22592307627E+02  0.31886090486E+02  0.00000000000E+00 0. -1.
         11    1    3    3    0    0 -0.18470945972E+02 -0.89554835637E+01  0.20613397437E+01  0.20630696856E+02  0.51100000000E-03 0. -1.
        -11    1    3    3    0    0  0.11719043230E+02  0.22381280106E+02  0.15392523296E+02  0.29583567180E+02  0.51100000000E-03 0.  1.
        -12    1    3    3    0    0 -0.39811932342E+01  0.63507312958E+01  0.51384445870E+01  0.90876454780E+01  0.00000000000E+00 0.  1.
</event>
<event>
 7    1  0.4673733E-013  0.5930191E+02  0.7816164E-02  0.1266605E+00
        -11   -1    0    0    0    0  0.00000000000E+00  0.00000000000E+00  0.45593999997E+02  0.45594000000E+02  0.51100000000E-03 0. -1.
         11   -1    0    0    0    0 -0.00000000000E+00 -0.00000000000E+00 -0.45593999997E+02  0.45594000000E+02  0.51100000000E-03 0.  1.
    9900012    2    1    2    0    0 -0.22455145841E+02 -0.22633090029E+02 -0.48179725492E+00  0.59301914201E+02  0.49999945602E+02 0.  0.
         12    1    1    2    0    0  0.22455145841E+02  0.22633090029E+02  0.48179725492E+00  0.31886085799E+02  0.00000000000E+00 0. -1.
         11    1    3    3    0    0  0.99076509022E+01  0.19566707463E+01  0.28640967603E+01  0.10497292857E+02  0.51100000000E-03 0. -1.
        -11    1    3    3    0    0 -0.18177660623E+02 -0.26088540281E+02  0.51363898320E+01  0.32209032592E+02  0.51100000000E-03 0.  1.
         12    1    3    3    0    0 -0.14185136120E+02  0.14987795059E+01 -0.84822838472E+01  0.16595588752E+02  0.00000000000E+00 0. -1.
</event>
<event>
 7    1  0.4673733E-013  0.5930198E+02  0.7816164E-02  0.1266605E+00
        -11   -1    0    0    0    0  0.00000000000E+00  0.00000000000E+00  0.45593999997E+02  0.45594000000E+02  0.51100000000E-03 0.  1.
         11   -1    0    0    0    0 -0.00000000000E+00 -0.00000000000E+00 -0.45593999997E+02  0.45594000000E+02  0.51100000000E-03 0. -1.
    9900012    2    1    2    0    0  0.69837224988E+01 -0.27038865302E+02  0.15389796136E+02  0.59301977328E+02  0.50000060731E+02 0.  0.
         12    1    1    2    0    0 -0.69837224988E+01  0.27038865302E+02 -0.15389796136E+02  0.31886022672E+02  0.00000000000E+00 0. -1.
         11    1    3    3    0    0  0.12372987124E+02  0.43768732858E+01  0.20211692900E+01  0.13279041972E+02  0.51100000000E-03 0. -1.
        -11    1    3    3    0    0 -0.13398371668E+02 -0.14140720262E+02  0.17893933422E+02  0.26451260584E+02  0.51100000000E-03 0.  1.
         12    1    3    3    0    0  0.80091070430E+01 -0.17275018326E+02 -0.45253065762E+01  0.19571674772E+02  0.00000000000E+00 0. -1.
</event>
<event>
 7    1  0.4673733E-013  0.5930198E+02  0.7816164E-02  0.1266605E+00
        -11   -1    0    0    0    0  0.00000000000E+00  0.00000000000E+00  0.45593999997E+02  0.45594000000E+02  0.51100000000E-03 0.  1.
         11   -1    0    0    0    0 -0.00000000000E+00 -0.00000000000E+00 -0.45593999997E+02  0.45594000000E+02  0.51100000000E-03 0. -1.
    9900012    2    1    2    0    0  0.16344901391E+02  0.27371315790E+02 -0.61116808675E+00  0.59301980242E+02  0.50000066047E+02 0.  0.
         12    1    1    2    0    0 -0.16344901391E+02 -0.27371315790E+02  0.61116808675E+00  0.31886019758E+02  0.00000000000E+00 0. -1.
         11    1    3    3    0    0  0.48210072418E+01  0.43990365265E+01  0.14466404323E+02  0.15870428081E+02  0.51100000000E-03 0.  1.
        -11    1    3    3    0    0  0.53862223551E+01  0.29528118824E+02 -0.16635220815E+02  0.34316931162E+02  0.51100000000E-03 0. -1.
        -12    1    3    3    0    0  0.61376717940E+01 -0.65558395608E+01  0.15576484051E+01  0.91146209988E+01  0.00000000000E+00 0.  1.
</event>
<event>
 7    1  0.4673733E-013  0.5930178E+02  0.7816164E-02  0.1266605E+00
        -11   -1    0    0    0    0  0.00000000000E+00  0.00000000000E+00  0.45593999997E+02  0.45594000000E+02  0.51100000000E-03 0.  1.
         11   -1    0    0    0    0 -0.00000000000E+00 -0.00000000000E+00 -0.45593999997E+02  0.45594000000E+02  0.51100000000E-03 0. -1.
    9900012    2    1    2    0    0  0.54861662160E+01  0.16836565969E+02  0.26517222837E+02  0.59301779145E+02  0.49999699293E+02 0.  0.
         12    1    1    2    0    0 -0.54861662160E+01 -0.16836565969E+02 -0.26517222837E+02  0.31886220855E+02  0.00000000000E+00 0. -1.
         11    1    3    3    0    0  0.18664882172E+01  0.81465677834E+01 -0.10147317763E+02  0.13146041341E+02  0.51100000000E-03 0. -1.
        -11    1    3    3    0    0  0.86262321847E+01  0.31590315415E+01  0.37536778139E+02  0.38644547808E+02  0.51100000000E-03 0.  1.
        -12    1    3    3    0    0 -0.50065541859E+01  0.55309666440E+01 -0.87223753885E+00  0.75111899961E+01  0.00000000000E+00 0.  1.
</event>
<event>
 7    1  0.4673733E-013  0.5930203E+02  0.7816164E-02  0.1266604E+00
        -11   -1    0    0    0    0  0.00000000000E+00  0.00000000000E+00  0.45593999997E+02  0.45594000000E+02  0.51100000000E-03 0.  1.
         11   -1    0    0    0    0 -0.00000000000E+00 -0.00000000000E+00 -0.45593999997E+02  0.45594000000E+02  0.51100000000E-03 0. -1.
    9900012    2    1    2    0    0 -0.28468925737E+02  0.14174161441E+01  0.14290770931E+02  0.59302032319E+02  0.50000161022E+02 0.  0.
         12    1    1    2    0    0  0.28468925737E+02 -0.14174161441E+01 -0.14290770931E+02  0.31885967681E+02  0.00000000000E+00 0. -1.
         11    1    3    3    0    0 -0.90593697272E+01  0.50628512088E+01 -0.16659135016E+02  0.19627313162E+02  0.51100000000E-03 0. -1.
        -11    1    3    3    0    0 -0.80432051120E+01  0.46359766993E+01  0.19285306167E+02  0.21403468472E+02  0.51100000000E-03 0.  1.
         12    1    3    3    0    0 -0.11366350898E+02 -0.82814117639E+01  0.11664599780E+02  0.18271250684E+02  0.00000000000E+00 0. -1.
</event>
<event>
 7    1  0.4673733E-013  0.5930195E+02  0.7816164E-02  0.1266605E+00
        -11   -1    0    0    0    0  0.00000000000E+00  0.00000000000E+00  0.45593999997E+02  0.45594000000E+02  0.51100000000E-03 0.  1.
         11   -1    0    0    0    0 -0.00000000000E+00 -0.00000000000E+00 -0.45593999997E+02  0.45594000000E+02  0.51100000000E-03 0. -1.
    9900012    2    1    2    0    0 -0.18458633455E+02 -0.54818826634E+01  0.25415511881E+02  0.59301946141E+02  0.50000003853E+02 0.  0.
         12    1    1    2    0    0  0.18458633455E+02  0.54818826634E+01 -0.25415511881E+02  0.31886053859E+02  0.00000000000E+00 0. -1.
         11    1    3    3    0    0  0.13989112343E+01  0.15249776455E+02 -0.47948502725E+01  0.16046906990E+02  0.51100000000E-03 0. -1.
        -11    1    3    3    0    0 -0.14648896020E+02 -0.69994049154E+01  0.14835181477E+02  0.21992372166E+02  0.51100000000E-03 0.  1.
         12    1    3    3    0    0 -0.52086486691E+01 -0.13732254203E+02  0.15375180677E+02  0.21262666984E+02  0.00000000000E+00 0. -1.
</event>
<event>
 7    1  0.4673733E-013  0.5930195E+02  0.7816164E-02  0.1266605E+00
        -11   -1    0    0    0    0  0.00000000000E+00  0.00000000000E+00  0.45593999997E+02  0.45594000000E+02  0.51100000000E-03 0.  1.
         11   -1    0    0    0    0 -0.00000000000E+00 -0.00000000000E+00 -0.45593999997E+02  0.45594000000E+02  0.51100000000E-03 0. -1.
    9900012    2    1    2    0    0 -0.74874294639E+00  0.31656222009E+02  0.37474544660E+01  0.59301946264E+02  0.50000004078E+02 0.  0.
         12    1    1    2    0    0  0.74874294639E+00 -0.31656222009E+02 -0.37474544660E+01  0.31886053736E+02  0.00000000000E+00 0. -1.
         11    1    3    3    0    0 -0.14675021293E+02  0.68769903355E+01  0.16327500173E+02  0.23005140908E+02  0.51100000000E-03 0. -1.
        -11    1    3    3    0    0  0.87983027678E+01  0.99164460095E+01  0.35988906688E+01  0.13736740784E+02  0.51100000000E-03 0.  1.
         12    1    3    3    0    0  0.51279755787E+01  0.14862785664E+02 -0.16178936376E+02  0.22560064572E+02  0.00000000000E+00 0. -1.
</event>
<event>
 7    1  0.4673733E-013  0.5930195E+02  0.7816164E-02  0.1266605E+00
        -11   -1    0    0    0    0  0.00000000000E+00  0.00000000000E+00  0.45593999997E+02  0.45594000000E+02  0.51100000000E-03 0.  1.
         11   -1    0    0    0    0 -0.00000000000E+00 -0.00000000000E+00 -0.45593999997E+02  0.45594000000E+02  0.51100000000E-03 0. -1.
    9900012    2    1    2    0    0  0.15956430944E+02  0.10577994917E+02  0.25499385490E+02  0.59301947794E+02  0.50000006869E+02 0.  0.
         12    1    1    2    0    0 -0.15956430944E+02 -0.10577994917E+02 -0.25499385490E+02  0.31886052206E+02  0.00000000000E+00 0. -1.
         11    1    3    3    0    0 -0.17122822137E+01  0.10239336737E+02  0.35424425524E+02  0.36914304154E+02  0.51100000000E-03 0.  1.
        -11    1    3    3    0    0  0.18149962980E+02  0.13105657569E+01 -0.74087837901E+01  0.19647616046E+02  0.51100000000E-03 0. -1.
         12    1    3    3    0    0 -0.48124982278E+00 -0.97190757743E+00 -0.25162562438E+01  0.27400275939E+01  0.00000000000E+00 0. -1.
</event>
<event>
 7    1  0.4673733E-013  0.5930195E+02  0.7816164E-02  0.1266605E+00
        -11   -1    0    0    0    0  0.00000000000E+00  0.00000000000E+00  0.45593999997E+02  0.45594000000E+02  0.51100000000E-03 0. -1.
         11   -1    0    0    0    0 -0.00000000000E+00 -0.00000000000E+00 -0.45593999997E+02  0.45594000000E+02  0.51100000000E-03 0.  1.
    9900012    2    1    2    0    0  0.22904450717E+02 -0.50320752233E+00 -0.22177766793E+02  0.59301946303E+02  0.50000004149E+02 0.  0.
         12    1    1    2    0    0 -0.22904450717E+02  0.50320752233E+00  0.22177766793E+02  0.31886053697E+02  0.00000000000E+00 0. -1.
         11    1    3    3    0    0  0.21225471644E+02  0.11168871112E+02 -0.54868855992E+01  0.24604272845E+02  0.51100000000E-03 0. -1.
        -11    1    3    3    0    0 -0.11193604183E+02 -0.66967093706E+01 -0.46825471385E-02  0.13043876463E+02  0.51100000000E-03 0.  1.
        -12    1    3    3    0    0  0.12872583256E+02 -0.49753692642E+01 -0.16686198646E+02  0.21653796994E+02  0.00000000000E+00 0.  1.
</event>
<event>
 7    1  0.4673733E-013  0.5930180E+02  0.7816164E-02  0.1266605E+00
        -11   -1    0    0    0    0  0.00000000000E+00  0.00000000000E+00  0.45593999997E+02  0.45594000000E+02  0.51100000000E-03 0. -1.
         11   -1    0    0    0    0 -0.00000000000E+00 -0.00000000000E+00 -0.45593999997E+02  0.45594000000E+02  0.51100000000E-03 0.  1.
    9900012    2    1    2    0    0 -0.12165658929E+02  0.28974315781E+02  0.54051636404E+01  0.59301795677E+02  0.49999729444E+02 0.  0.
         12    1    1    2    0    0  0.12165658929E+02 -0.28974315781E+02 -0.54051636404E+01  0.31886204323E+02  0.00000000000E+00 0. -1.
         11    1    3    3    0    0 -0.24584187930E+01 -0.71074843538E+00  0.27929442465E+00  0.25742944542E+01  0.51100000000E-03 0. -1.
        -11    1    3    3    0    0  0.18187746941E+02  0.16749370280E+02  0.76342986790E+01  0.25876979348E+02  0.51100000000E-03 0.  1.
        -12    1    3    3    0    0 -0.27894987077E+02  0.12935693936E+02 -0.25084294633E+01  0.30850521876E+02  0.00000000000E+00 0.  1.
</event>
<event>
 7    1  0.4673733E-013  0.5930193E+02  0.7816164E-02  0.1266605E+00
        -11   -1    0    0    0    0  0.00000000000E+00  0.00000000000E+00  0.45593999997E+02  0.45594000000E+02  0.51100000000E-03 0.  1.
         11   -1    0    0    0    0 -0.00000000000E+00 -0.00000000000E+00 -0.45593999997E+02  0.45594000000E+02  0.51100000000E-03 0. -1.
    9900012    2    1    2    0    0 -0.29296101108E+01 -0.29438957692E+02  0.11894823049E+02  0.59301926853E+02  0.49999968677E+02 0.  0.
         12    1    1    2    0    0  0.29296101108E+01  0.29438957692E+02 -0.11894823049E+02  0.31886073147E+02  0.00000000000E+00 0. -1.
         11    1    3    3    0    0  0.16222949594E+01  0.42781085287E+01 -0.31735982543E+01  0.55682833674E+01  0.51100000000E-03 0. -1.
        -11    1    3    3    0    0  0.37751612369E+01 -0.36052671529E+02 -0.12639657481E+00  0.36250006112E+02  0.51100000000E-03 0.  1.
        -12    1    3    3    0    0 -0.83270663072E+01  0.23356053090E+01  0.15194817878E+02  0.17483637373E+02  0.00000000000E+00 0.  1.
</event>
<event>
 7    1  0.4673733E-013  0.5930195E+02  0.7816164E-02  0.1266605E+00
        -11   -1    0    0    0    0  0.00000000000E+00  0.00000000000E+00  0.45593999997E+02  0.45594000000E+02  0.51100000000E-03 0.  1.
         11   -1    0    0    0    0 -0.00000000000E+00 -0.00000000000E+00 -0.45593999997E+02  0.45594000000E+02  0.51100000000E-03 0. -1.
    9900012    2    1    2    0    0  0.28756829491E+02  0.12901612068E+02 -0.48283943741E+01  0.59301949311E+02  0.50000009635E+02 0.  0.
         12    1    1    2    0    0 -0.28756829491E+02 -0.12901612068E+02  0.48283943741E+01  0.31886050689E+02  0.00000000000E+00 0. -1.
         11    1    3    3    0    0  0.10708110310E+02  0.11403962976E+02 -0.20451588278E+02  0.25748426385E+02  0.51100000000E-03 0. -1.
        -11    1    3    3    0    0  0.13947888952E+02  0.10522273532E+02  0.15919174088E+02  0.23636453846E+02  0.51100000000E-03 0.  1.
         12    1    3    3    0    0  0.41008302289E+01 -0.90246244403E+01 -0.29598018474E+00  0.99170690794E+01  0.00000000000E+00 0. -1.
</event>
<event>
 7    1  0.4673733E-013  0.5930194E+02  0.7816164E-02  0.1266605E+00
        -11   -1    0    0    0    0  0.00000000000E+00  0.00000000000E+00  0.45593999997E+02  0.45594000000E+02  0.51100000000E-03 0.  1.
         11   -1    0    0    0    0 -0.00000000000E+00 -0.00000000000E+00 -0.45593999997E+02  0.45594000000E+02  0.51100000000E-03 0. -1.
    9900012    2    1    2    0    0 -0.22859883176E+02 -0.95890511700E+01  0.20054844418E+02  0.59301938064E+02  0.49999989123E+02 0.  0.
         12    1    1    2    0    0  0.22859883176E+02  0.95890511700E+01 -0.20054844418E+02  0.31886061936E+02  0.00000000000E+00 0. -1.
         11    1    3    3    0    0 -0.22520715250E+00  0.53730827165E+01  0.12780048943E+02  0.13865438593E+02  0.51100000000E-03 0. -1.
        -11    1    3    3    0    0 -0.22917150425E+02 -0.18698990409E+02 -0.72355994425E+01  0.30449990566E+02  0.51100000000E-03 0.  1.
        -12    1    3    3    0    0  0.28247440204E+00  0.37368565228E+01  0.14510394918E+02  0.14986508904E+02  0.00000000000E+00 0.  1.
</event>
<event>
 7    1  0.4673733E-013  0.5930195E+02  0.7816164E-02  0.1266605E+00
        -11   -1    0    0    0    0  0.00000000000E+00  0.00000000000E+00  0.45593999997E+02  0.45594000000E+02  0.51100000000E-03 0. -1.
         11   -1    0    0    0    0 -0.00000000000E+00 -0.00000000000E+00 -0.45593999997E+02  0.45594000000E+02  0.51100000000E-03 0.  1.
    9900012    2    1    2    0    0 -0.14772120920E+02  0.21003049708E+02  0.18904410396E+02  0.59301946843E+02  0.50000005135E+02 0.  0.
         12    1    1    2    0    0  0.14772120920E+02 -0.21003049708E+02 -0.18904410396E+02  0.31886053157E+02  0.00000000000E+00 0. -1.
         11    1    3    3    0    0 -0.29303044188E+02  0.15598244677E+02  0.95086541986E+01  0.34530973641E+02  0.51100000000E-03 0. -1.
        -11    1    3    3    0    0  0.47753586674E+01  0.37729738771E+01 -0.46028192988E+01  0.76305522761E+01  0.51100000000E-03 0.  1.
         12    1    3    3    0    0  0.97555646006E+01  0.16318311541E+01  0.13998575496E+02  0.17140420926E+02  0.00000000000E+00 0. -1.
</event>
<event>
 7    1  0.4673733E-013  0.5930193E+02  0.7816164E-02  0.1266605E+00
        -11   -1    0    0    0    0  0.00000000000E+00  0.00000000000E+00  0.45593999997E+02  0.45594000000E+02  0.51100000000E-03 0.  1.
         11   -1    0    0    0    0 -0.00000000000E+00 -0.00000000000E+00 -0.45593999997E+02  0.45594000000E+02  0.51100000000E-03 0. -1.
    9900012    2    1    2    0    0  0.17927790481E+02 -0.26123112579E+02 -0.35914952300E+01  0.59301929055E+02  0.49999972693E+02 0.  0.
         12    1    1    2    0    0 -0.17927790481E+02  0.26123112579E+02  0.35914952300E+01  0.31886070945E+02  0.00000000000E+00 0. -1.
         11    1    3    3    0    0  0.11407781227E+02  0.36123542408E+01  0.10200400996E+02  0.15723700469E+02  0.51100000000E-03 0. -1.
        -11    1    3    3    0    0 -0.54715830432E+01 -0.16148269073E+02 -0.18188500924E+02  0.24930430826E+02  0.51100000000E-03 0.  1.
        -12    1    3    3    0    0  0.11991592297E+02 -0.13587197747E+02  0.43966046980E+01  0.18647797760E+02  0.00000000000E+00 0.  1.
</event>
<event>
 7    1  0.4673733E-013  0.5930195E+02  0.7816164E-02  0.1266605E+00
        -11   -1    0    0    0    0  0.00000000000E+00  0.00000000000E+00  0.45593999997E+02  0.45594000000E+02  0.51100000000E-03 0.  1.
         11   -1    0    0    0    0 -0.00000000000E+00 -0.00000000000E+00 -0.45593999997E+02  0.45594000000E+02  0.51100000000E-03 0. -1.
    9900012    2    1    2    0    0  0.91097027737E+01  0.30529711689E+02 -0.12923081601E+01  0.59301952255E+02  0.50000015004E+02 0.  0.
         12    1    1    2    0    0 -0.91097027737E+01 -0.30529711689E+02  0.12923081601E+01  0.31886047745E+02  0.00000000000E+00 0. -1.
         11    1    3    3    0    0 -0.75772705470E+01  0.28050677875E+02 -0.60668582008E+01  0.29682694064E+02  0.51100000000E-03 0. -1.
        -11    1    3    3    0    0  0.89858610462E+01 -0.78418709430E+01 -0.55111514853E+01  0.13138243017E+02  0.51100000000E-03 0.  1.
        -12    1    3    3    0    0  0.77011122745E+01  0.10320904757E+02  0.10285701526E+02  0.16481015174E+02  0.00000000000E+00 0.  1.
</event>
<event>
 7    1  0.4673733E-013  0.5930193E+02  0.7816164E-02  0.1266605E+00
        -11   -1    0    0    0    0  0.00000000000E+00  0.00000000000E+00  0.45593999997E+02  0.45594000000E+02  0.51100000000E-03 0. -1.
         11   -1    0    0    0    0 -0.00000000000E+00 -0.00000000000E+00 -0.45593999997E+02  0.45594000000E+02  0.51100000000E-03 0.  1.
    9900012    2    1    2    0    0  0.30820818653E+02  0.10775123876E+01  0.81017207223E+01  0.59301925076E+02  0.49999965437E+02 0.  0.
         12    1    1    2    0    0 -0.30820818653E+02 -0.10775123876E+01 -0.81017207223E+01  0.31886074924E+02  0.00000000000E+00 0. -1.
         11    1    3    3    0    0  0.48176645387E+01 -0.69668623600E+01  0.46123771604E+01  0.96447439614E+01  0.51100000000E-03 0. -1.
        -11    1    3    3    0    0  0.20352238288E+02  0.15912550973E+02  0.18511778906E+02  0.31782209494E+02  0.51100000000E-03 0.  1.
        -12    1    3    3    0    0  0.56509158269E+01 -0.78681762253E+01 -0.15022435344E+02  0.17874971621E+02  0.00000000000E+00 0.  1.
</event>
<event>
 7    1  0.4673733E-013  0.5930186E+02  0.7816164E-02  0.1266605E+00
        -11   -1    0    0    0    0  0.00000000000E+00  0.00000000000E+00  0.45593999997E+02  0.45594000000E+02  0.51100000000E-03 0.  1.
         11   -1    0    0    0    0 -0.00000000000E+00 -0.00000000000E+00 -0.45593999997E+02  0.45594000000E+02  0.51100000000E-03 0. -1.
    9900012    2    1    2    0    0  0.15062325414E+02 -0.27178310190E+02 -0.71548305357E+01  0.59301862077E+02  0.49999850541E+02 0.  0.
         12    1    1    2    0    0 -0.15062325414E+02  0.27178310190E+02  0.71548305357E+01  0.31886137923E+02  0.00000000000E+00 0. -1.
         11    1    3    3    0    0 -0.14197078097E+01  0.23773175141E+01 -0.34780497551E+01  0.44456764601E+01  0.51100000000E-03 0. -1.
        -11    1    3    3    0    0  0.29997604715E+02 -0.13026655919E+02 -0.64238387291E+01  0.33328902732E+02  0.51100000000E-03 0.  1.
        -12    1    3    3    0    0 -0.13515571491E+02 -0.16528971785E+02  0.27470579485E+01  0.21527282884E+02  0.00000000000E+00 0.  1.
</event>
<event>
 7    1  0.4673733E-013  0.5930193E+02  0.7816164E-02  0.1266605E+00
        -11   -1    0    0    0    0  0.00000000000E+00  0.00000000000E+00  0.45593999997E+02  0.45594000000E+02  0.51100000000E-03 0.  1.
         11   -1    0    0    0    0 -0.00000000000E+00 -0.00000000000E+00 -0.45593999997E+02  0.45594000000E+02  0.51100000000E-03 0. -1.
    9900012    2    1    2    0    0 -0.24666985787E+02  0.18492725359E+02  0.81412741716E+01  0.59301930563E+02  0.49999975443E+02 0.  0.
         12    1    1    2    0    0  0.24666985787E+02 -0.18492725359E+02 -0.81412741716E+01  0.31886069437E+02  0.00000000000E+00 0. -1.
         11    1    3    3    0    0  0.41040779200E+01  0.53572872300E+01 -0.39236067700E+01  0.78063225903E+01  0.51100000000E-03 0. -1.
        -11    1    3    3    0    0 -0.28485655273E+02  0.22696317288E+01  0.22543447234E+02  0.36397675722E+02  0.51100000000E-03 0.  1.
        -12    1    3    3    0    0 -0.28540843418E+00  0.10865806401E+02 -0.10478566292E+02  0.15097932251E+02  0.00000000000E+00 0.  1.
</event>
<event>
 7    1  0.4673733E-013  0.5930195E+02  0.7816164E-02  0.1266605E+00
        -11   -1    0    0    0    0  0.00000000000E+00  0.00000000000E+00  0.45593999997E+02  0.45594000000E+02  0.51100000000E-03 0. -1.
         11   -1    0    0    0    0 -0.00000000000E+00 -0.00000000000E+00 -0.45593999997E+02  0.45594000000E+02  0.51100000000E-03 0.  1.
    9900012    2    1    2    0    0  0.18078518156E+02  0.25128193315E+02 -0.76459940559E+01  0.59301950651E+02  0.50000012079E+02 0.  0.
         12    1    1    2    0    0 -0.18078518156E+02 -0.25128193315E+02  0.76459940559E+01  0.31886049349E+02  0.00000000000E+00 0. -1.
         11    1    3    3    0    0 -0.10353849359E+02  0.58310933834E+01 -0.93948598766E+01  0.15148176093E+02  0.51100000000E-03 0. -1.
        -11    1    3    3    0    0  0.29221911764E+02  0.18027605815E+02  0.10005049934E+02  0.35763329305E+02  0.51100000000E-03 0.  1.
        -12    1    3    3    0    0 -0.78954424854E+00  0.12694941165E+01 -0.82561841129E+01  0.83904452527E+01  0.00000000000E+00 0.  1.
</event>
<event>
 7    1  0.4673733E-013  0.5930194E+02  0.7816164E-02  0.1266605E+00
        -11   -1    0    0    0    0  0.00000000000E+00  0.00000000000E+00  0.45593999997E+02  0.45594000000E+02  0.51100000000E-03 0. -1.
         11   -1    0    0    0    0 -0.00000000000E+00 -0.00000000000E+00 -0.45593999997E+02  0.45594000000E+02  0.51100000000E-03 0.  1.
    9900012    2    1    2    0    0  0.11982093193E+02  0.13039873355E+01 -0.29520329078E+02  0.59301940835E+02  0.49999994176E+02 0.  0.
         12    1    1    2    0    0 -0.11982093193E+02 -0.13039873355E+01  0.29520329078E+02  0.31886059165E+02  0.00000000000E+00 0. -1.
         11    1    3    3    0    0 -0.57558451704E+01 -0.98839867899E+01  0.47773628249E+01  0.12395408195E+02  0.51100000000E-03 0. -1.
        -11    1    3    3    0    0 -0.24611905743E+01  0.61707284384E+01 -0.21432151151E+02  0.22438191810E+02  0.51100000000E-03 0.  1.
        -12    1    3    3    0    0  0.20199128938E+02  0.50172456870E+01 -0.12865540752E+02  0.24468340830E+02  0.00000000000E+00 0.  1.
</event>
<event>
 7    1  0.4673733E-013  0.5930197E+02  0.7816164E-02  0.1266605E+00
        -11   -1    0    0    0    0  0.00000000000E+00  0.00000000000E+00  0.45593999997E+02  0.45594000000E+02  0.51100000000E-03 0. -1.
         11   -1    0    0    0    0 -0.00000000000E+00 -0.00000000000E+00 -0.45593999997E+02  0.45594000000E+02  0.51100000000E-03 0.  1.
    9900012    2    1    2    0    0  0.29043040234E+02  0.10246191435E+02 -0.82605448450E+01  0.59301965031E+02  0.50000038304E+02 0.  0.
         12    1    1    2    0    0 -0.29043040234E+02 -0.10246191435E+02  0.82605448450E+01  0.31886034969E+02  0.00000000000E+00 0. -1.
         11    1    3    3    0    0  0.25282337740E+02 -0.55947346867E+01 -0.10187042939E+02  0.27825770464E+02  0.51100000000E-03 0.  1.
        -11    1    3    3    0    0 -0.86465771494E+01  0.16738667637E+02  0.25983348167E+01  0.19018349948E+02  0.51100000000E-03 0. -1.
         12    1    3    3    0    0  0.12407279643E+02 -0.89774151475E+00 -0.67183672299E+00  0.12457844619E+02  0.00000000000E+00 0. -1.
</event>
<event>
 7    1  0.4673733E-013  0.5930196E+02  0.7816164E-02  0.1266605E+00
        -11   -1    0    0    0    0  0.00000000000E+00  0.00000000000E+00  0.45593999997E+02  0.45594000000E+02  0.51100000000E-03 0. -1.
         11   -1    0    0    0    0 -0.00000000000E+00 -0.00000000000E+00 -0.45593999997E+02  0.45594000000E+02  0.51100000000E-03 0.  1.
    9900012    2    1    2    0    0  0.28449655561E+02 -0.97929416705E+01 -0.10556279691E+02  0.59301958399E+02  0.50000026209E+02 0.  0.
         12    1    1    2    0    0 -0.28449655561E+02  0.97929416705E+01  0.10556279691E+02  0.31886041601E+02  0.00000000000E+00 0. -1.
         11    1    3    3    0    0 -0.53468007584E+01  0.11319867120E+02 -0.91834398010E+01  0.15526211283E+02  0.51100000000E-03 0. -1.
        -11    1    3    3    0    0  0.27777393945E+02 -0.21212933151E+02 -0.68743702870E+01  0.35620627652E+02  0.51100000000E-03 0.  1.
        -12    1    3    3    0    0  0.60190623746E+01  0.10012435998E+00  0.55015303972E+01  0.81551194637E+01  0.00000000000E+00 0.  1.
</event>
<event>
 7    1  0.4673733E-013  0.5930195E+02  0.7816164E-02  0.1266605E+00
        -11   -1    0    0    0    0  0.00000000000E+00  0.00000000000E+00  0.45593999997E+02  0.45594000000E+02  0.51100000000E-03 0.  1.
         11   -1    0    0    0    0 -0.00000000000E+00 -0.00000000000E+00 -0.45593999997E+02  0.45594000000E+02  0.51100000000E-03 0. -1.
    9900012    2    1    2    0    0  0.93453058182E+01 -0.43063282111E+01  0.30180144464E+02  0.59301947824E+02  0.50000006924E+02 0.  0.
         12    1    1    2    0    0 -0.93453058182E+01  0.43063282111E+01 -0.30180144464E+02  0.31886052176E+02  0.00000000000E+00 0. -1.
         11    1    3    3    0    0  0.50531506607E+01  0.14925024676E+01 -0.12371117232E+02  0.13446428412E+02  0.51100000000E-03 0. -1.
        -11    1    3    3    0    0  0.62008191693E+01  0.35832132944E+01  0.13729012248E+02  0.15484681251E+02  0.51100000000E-03 0.  1.
         12    1    3    3    0    0 -0.19086640119E+01 -0.93820439731E+01  0.28822249447E+02  0.30370838162E+02  0.00000000000E+00 0. -1.
</event>
<event>
 7    1  0.4673733E-013  0.5930195E+02  0.7816164E-02  0.1266605E+00
        -11   -1    0    0    0    0  0.00000000000E+00  0.00000000000E+00  0.45593999997E+02  0.45594000000E+02  0.51100000000E-03 0.  1.
         11   -1    0    0    0    0 -0.00000000000E+00 -0.00000000000E+00 -0.45593999997E+02  0.45594000000E+02  0.51100000000E-03 0. -1.
    9900012    2    1    2    0    0  0.95587761351E+01 -0.35652275330E+01  0.30209922260E+02  0.59301945814E+02  0.50000003258E+02 0.  0.
         12    1    1    2    0    0 -0.95587761351E+01  0.35652275330E+01 -0.30209922260E+02  0.31886054186E+02  0.00000000000E+00 0. -1.
         11    1    3    3    0    0  0.22474751995E+02  0.33262470949E+01  0.20345698665E+02  0.30497964709E+02  0.51100000000E-03 0.  1.
        -11    1    3    3    0    0 -0.34515005570E+01 -0.13800807512E-03 -0.72724250641E+01  0.80499082410E+01  0.51100000000E-03 0. -1.
        -12    1    3    3    0    0 -0.94644753028E+01 -0.68913366198E+01  0.17136648659E+02  0.20754072864E+02  0.00000000000E+00 0.  1.
</event>
<event>
 7    1  0.4673733E-013  0.5930196E+02  0.7816164E-02  0.1266605E+00
        -11   -1    0    0    0    0  0.00000000000E+00  0.00000000000E+00  0.45593999997E+02  0.45594000000E+02  0.51100000000E-03 0.  1.
         11   -1    0    0    0    0 -0.00000000000E+00 -0.00000000000E+00 -0.45593999997E+02  0.45594000000E+02  0.51100000000E-03 0. -1.
    9900012    2    1    2    0    0 -0.22995970731E+02 -0.15288566998E+02  0.15942536010E+02  0.59301962223E+02  0.50000033184E+02 0.  0.
         12    1    1    2    0    0  0.22995970731E+02  0.15288566998E+02 -0.15942536010E+02  0.31886037777E+02  0.00000000000E+00 0. -1.
         11    1    3    3    0    0  0.67000217997E+01 -0.19400165910E+02  0.11816193871E+02  0.23682887647E+02  0.51100000000E-03 0. -1.
        -11    1    3    3    0    0 -0.22463597785E+02  0.11221415869E+02  0.42989491784E+01  0.25475760320E+02  0.51100000000E-03 0.  1.
         12    1    3    3    0    0 -0.72323947452E+01 -0.71098169564E+01 -0.17260703937E+00  0.10143314256E+02  0.00000000000E+00 0. -1.
</event>
<event>
 7    1  0.4673733E-013  0.5930157E+02  0.7816164E-02  0.1266606E+00
        -11   -1    0    0    0    0  0.00000000000E+00  0.00000000000E+00  0.45593999997E+02  0.45594000000E+02  0.51100000000E-03 0.  1.
         11   -1    0    0    0    0 -0.00000000000E+00 -0.00000000000E+00 -0.45593999997E+02  0.45594000000E+02  0.51100000000E-03 0. -1.
    9900012    2    1    2    0    0  0.18389608814E+01 -0.10085124529E+02  0.30193589309E+02  0.59301571080E+02  0.49999319828E+02 0.  0.
         12    1    1    2    0    0 -0.18389608814E+01  0.10085124529E+02 -0.30193589309E+02  0.31886428920E+02  0.00000000000E+00 0. -1.
         11    1    3    3    0    0  0.34143341315E+01  0.11415451607E+02 -0.19239693909E+01  0.12069460280E+02  0.51100000000E-03 0. -1.
        -11    1    3    3    0    0 -0.12476211632E+02 -0.12456968343E+02  0.82201010003E+01  0.19452557099E+02  0.51100000000E-03 0.  1.
         12    1    3    3    0    0  0.10900838381E+02 -0.90436077935E+01  0.23897457700E+02  0.27779553702E+02  0.00000000000E+00 0. -1.
</event>
<event>
 7    1  0.4673733E-013  0.5930195E+02  0.7816164E-02  0.1266605E+00
        -11   -1    0    0    0    0  0.00000000000E+00  0.00000000000E+00  0.45593999997E+02  0.45594000000E+02  0.51100000000E-03 0. -1.
         11   -1    0    0    0    0 -0.00000000000E+00 -0.00000000000E+00 -0.45593999997E+02  0.45594000000E+02  0.51100000000E-03 0.  1.
    9900012    2    1    2    0    0  0.87658760002E+01 -0.13651569101E+02 -0.27450210325E+02  0.59301953399E+02  0.50000017090E+02 0.  0.
         12    1    1    2    0    0 -0.87658760002E+01  0.13651569101E+02  0.27450210325E+02  0.31886046601E+02  0.00000000000E+00 0. -1.
         11    1    3    3    0    0  0.25295386027E+00 -0.89571868520E+00  0.94101028201E+01  0.94560209900E+01  0.51100000000E-03 0. -1.
        -11    1    3    3    0    0  0.16574605539E+02 -0.17432166209E+02 -0.28802447534E+02  0.37525710543E+02  0.51100000000E-03 0.  1.
        -12    1    3    3    0    0 -0.80616833988E+01  0.46763157934E+01 -0.80578656108E+01  0.12320221866E+02  0.00000000000E+00 0.  1.
</event>
<event>
 7    1  0.4673733E-013  0.5930197E+02  0.7816164E-02  0.1266605E+00
        -11   -1    0    0    0    0  0.00000000000E+00  0.00000000000E+00  0.45593999997E+02  0.45594000000E+02  0.51100000000E-03 0.  1.
         11   -1    0    0    0    0 -0.00000000000E+00 -0.00000000000E+00 -0.45593999997E+02  0.45594000000E+02  0.51100000000E-03 0. -1.
    9900012    2    1    2    0    0 -0.16747548298E+02  0.15699767626E+02 -0.22130425037E+02  0.59301971871E+02  0.50000050779E+02 0.  0.
         12    1    1    2    0    0  0.16747548298E+02 -0.15699767626E+02  0.22130425037E+02  0.31886028129E+02  0.00000000000E+00 0. -1.
         11    1    3    3    0    0 -0.20294100532E+01  0.35449298976E+01 -0.11775299493E+02  0.12463655625E+02  0.51100000000E-03 0. -1.
        -11    1    3    3    0    0 -0.10588906005E+02 -0.11380801876E+02  0.72554244758E+01  0.17154846729E+02  0.51100000000E-03 0.  1.
        -12    1    3    3    0    0 -0.41292322399E+01  0.23535639605E+02 -0.17610550021E+02  0.29683469516E+02  0.00000000000E+00 0.  1.
</event>
<event>
 7    1  0.4673733E-013  0.5930195E+02  0.7816164E-02  0.1266605E+00
        -11   -1    0    0    0    0  0.00000000000E+00  0.00000000000E+00  0.45593999997E+02  0.45594000000E+02  0.51100000000E-03 0. -1.
         11   -1    0    0    0    0 -0.00000000000E+00 -0.00000000000E+00 -0.45593999997E+02  0.45594000000E+02  0.51100000000E-03 0.  1.
    9900012    2    1    2    0    0  0.23428605823E+02 -0.20138823095E+02 -0.78897804003E+01  0.59301946604E+02  0.50000004698E+02 0.  0.
         12    1    1    2    0    0 -0.23428605823E+02  0.20138823095E+02  0.78897804003E+01  0.31886053396E+02  0.00000000000E+00 0. -1.
         11    1    3    3    0    0  0.24243882887E+01 -0.42672915607E+01  0.31202276121E+01  0.58157765132E+01  0.51100000000E-03 0. -1.
        -11    1    3    3    0    0 -0.54460687923E+01 -0.20726638906E+02 -0.15194665537E+02  0.26270346147E+02  0.51100000000E-03 0.  1.
        -12    1    3    3    0    0  0.26450286326E+02  0.48551073721E+01  0.41846575250E+01  0.27215823944E+02  0.00000000000E+00 0.  1.
</event>
<event>
 7    1  0.4673733E-013  0.5930196E+02  0.7816164E-02  0.1266605E+00
        -11   -1    0    0    0    0  0.00000000000E+00  0.00000000000E+00  0.45593999997E+02  0.45594000000E+02  0.51100000000E-03 0. -1.
         11   -1    0    0    0    0 -0.00000000000E+00 -0.00000000000E+00 -0.45593999997E+02  0.45594000000E+02  0.51100000000E-03 0.  1.
    9900012    2    1    2    0    0 -0.16778110681E+01 -0.11154770024E+02 -0.29824080937E+02  0.59301956846E+02  0.50000023377E+02 0.  0.
         12    1    1    2    0    0  0.16778110681E+01  0.11154770024E+02  0.29824080937E+02  0.31886043154E+02  0.00000000000E+00 0. -1.
         11    1    3    3    0    0  0.12151386918E+02 -0.20877557577E+02 -0.10939641788E+02  0.26518001001E+02  0.51100000000E-03 0. -1.
        -11    1    3    3    0    0 -0.16778505496E+02  0.13827308335E+02 -0.15149757989E+02  0.26499582446E+02  0.51100000000E-03 0.  1.
        -12    1    3    3    0    0  0.29493075093E+01 -0.41045207820E+01 -0.37346811609E+01  0.62843733982E+01  0.00000000000E+00 0.  1.
</event>
<event>
 7    1  0.4673733E-013  0.5930193E+02  0.7816164E-02  0.1266605E+00
        -11   -1    0    0    0    0  0.00000000000E+00  0.00000000000E+00  0.45593999997E+02  0.45594000000E+02  0.51100000000E-03 0.  1.
         11   -1    0    0    0    0 -0.00000000000E+00 -0.00000000000E+00 -0.45593999997E+02  0.45594000000E+02  0.51100000000E-03 0. -1.
    9900012    2    1    2    0    0  0.25805340415E+02 -0.12777773166E+02  0.13694314182E+02  0.59301932165E+02  0.49999978366E+02 0.  0.
         12    1    1    2    0    0 -0.25805340415E+02  0.12777773166E+02 -0.13694314182E+02  0.31886067835E+02  0.00000000000E+00 0. -1.
         11    1    3    3    0    0  0.25218634119E+02 -0.17611730676E+02 -0.54250938752E+00  0.30764376817E+02  0.51100000000E-03 0. -1.
        -11    1    3    3    0    0 -0.32507749224E+01  0.24914553378E+01 -0.63000268900E+01  0.75143347259E+01  0.51100000000E-03 0.  1.
        -12    1    3    3    0    0  0.38374812188E+01  0.23425021724E+01  0.20536850460E+02  0.21023220622E+02  0.00000000000E+00 0.  1.
</event>
<event>
 7    1  0.4673733E-013  0.5930195E+02  0.7816164E-02  0.1266605E+00
        -11   -1    0    0    0    0  0.00000000000E+00  0.00000000000E+00  0.45593999997E+02  0.45594000000E+02  0.51100000000E-03 0.  1.
         11   -1    0    0    0    0 -0.00000000000E+00 -0.00000000000E+00 -0.45593999997E+02  0.45594000000E+02  0.51100000000E-03 0. -1.
    9900012    2    1    2    0    0 -0.16381612374E+02  0.27096464451E+02  0.37609609111E+01  0.59301946047E+02  0.50000003683E+02 0.  0.
         12    1    1    2    0    0  0.16381612374E+02 -0.27096464451E+02 -0.37609609111E+01  0.31886053953E+02  0.00000000000E+00 0. -1.
         11    1    3    3    0    0 -0.17544865048E+02 -0.63262256694E+01  0.71216382127E+01  0.19963996390E+02  0.51100000000E-03 0. -1.
        -11    1    3    3    0    0  0.66472232602E+00  0.30381151862E+02  0.46616774502E+01  0.30743901528E+02  0.51100000000E-03 0.  1.
         12    1    3    3    0    0  0.49853034769E+00  0.30415382584E+01 -0.80223547518E+01  0.85940481293E+01  0.00000000000E+00 0. -1.
</event>
<event>
 7    1  0.4673733E-013  0.5930193E+02  0.7816164E-02  0.1266605E+00
        -11   -1    0    0    0    0  0.00000000000E+00  0.00000000000E+00  0.45593999997E+02  0.45594000000E+02  0.51100000000E-03 0.  1.
         11   -1    0    0    0    0 -0.00000000000E+00 -0.00000000000E+00 -0.45593999997E+02  0.45594000000E+02  0.51100000000E-03 0. -1.
    9900012    2    1    2    0    0 -0.56211478288E+01 -0.31384081083E+02  0.40429254022E+00  0.59301932498E+02  0.49999978972E+02 0.  0.
         12    1    1    2    0    0  0.56211478288E+01  0.31384081083E+02 -0.40429254022E+00  0.31886067502E+02  0.00000000000E+00 0. -1.
         11    1    3    3    0    0  0.11485111971E+02 -0.21229007539E+02 -0.70082106180E+01  0.25133514963E+02  0.51100000000E-03 0. -1.
        -11    1    3    3    0    0 -0.10367445761E+02  0.54866059838E+01 -0.53435472435E+01  0.12889541273E+02  0.51100000000E-03 0.  1.
        -12    1    3    3    0    0 -0.67388140382E+01 -0.15641679527E+02  0.12756050402E+02  0.21278876261E+02  0.00000000000E+00 0.  1.
</event>
<event>
 7    1  0.4673733E-013  0.5930195E+02  0.7816164E-02  0.1266605E+00
        -11   -1    0    0    0    0  0.00000000000E+00  0.00000000000E+00  0.45593999997E+02  0.45594000000E+02  0.51100000000E-03 0.  1.
         11   -1    0    0    0    0 -0.00000000000E+00 -0.00000000000E+00 -0.45593999997E+02  0.45594000000E+02  0.51100000000E-03 0. -1.
    9900012    2    1    2    0    0 -0.92784070264E+00 -0.31394406670E+02  0.55000730393E+01  0.59301945651E+02  0.50000002960E+02 0.  0.
         12    1    1    2    0    0  0.92784070264E+00  0.31394406670E+02 -0.55000730393E+01  0.31886054349E+02  0.00000000000E+00 0. -1.
         11    1    3    3    0    0  0.10560841458E+02 -0.24421642559E+02 -0.15744070324E+02  0.30916399341E+02  0.51100000000E-03 0. -1.
        -11    1    3    3    0    0  0.20238750835E+01 -0.39508735416E+01  0.83922153131E+01  0.94939322842E+01  0.51100000000E-03 0.  1.
         12    1    3    3    0    0 -0.13512557244E+02 -0.30218905693E+01  0.12851928050E+02  0.18891614026E+02  0.00000000000E+00 0. -1.
</event>
<event>
 7    1  0.4673733E-013  0.5930194E+02  0.7816164E-02  0.1266605E+00
        -11   -1    0    0    0    0  0.00000000000E+00  0.00000000000E+00  0.45593999997E+02  0.45594000000E+02  0.51100000000E-03 0.  1.
         11   -1    0    0    0    0 -0.00000000000E+00 -0.00000000000E+00 -0.45593999997E+02  0.45594000000E+02  0.51100000000E-03 0. -1.
    9900012    2    1    2    0    0  0.17886418654E+02  0.16307505369E+02  0.20757222047E+02  0.59301937672E+02  0.49999988409E+02 0.  0.
         12    1    1    2    0    0 -0.17886418654E+02 -0.16307505369E+02 -0.20757222047E+02  0.31886062328E+02  0.00000000000E+00 0. -1.
         11    1    3    3    0    0 -0.63447615749E+01  0.52718079765E+01 -0.13440949111E+01  0.83579034557E+01  0.51100000000E-03 0. -1.
        -11    1    3    3    0    0  0.10726172240E+02 -0.12310581112E+02  0.16856340250E+02  0.23467794637E+02  0.51100000000E-03 0.  1.
        -12    1    3    3    0    0  0.13505007989E+02  0.23346278504E+02  0.52449767089E+01  0.27476239580E+02  0.00000000000E+00 0.  1.
</event>
<event>
 7    1  0.4673733E-013  0.5930181E+02  0.7816164E-02  0.1266605E+00
        -11   -1    0    0    0    0  0.00000000000E+00  0.00000000000E+00  0.45593999997E+02  0.45594000000E+02  0.51100000000E-03 0. -1.
         11   -1    0    0    0    0 -0.00000000000E+00 -0.00000000000E+00 -0.45593999997E+02  0.45594000000E+02  0.51100000000E-03 0.  1.
    9900012    2    1    2    0    0  0.13722654199E+02  0.27712626979E+02  0.77735748055E+01  0.59301805533E+02  0.49999747417E+02 0.  0.
         12    1    1    2    0    0 -0.13722654199E+02 -0.27712626979E+02 -0.77735748055E+01  0.31886194467E+02  0.00000000000E+00 0. -1.
         11    1    3    3    0    0  0.87375297916E+01  0.29268274618E+02 -0.15009628000E+01  0.30581517548E+02  0.51100000000E-03 0.  1.
        -11    1    3    3    0    0 -0.97293404914E+00  0.29503437063E+01  0.17404457910E+02  0.17679544226E+02  0.51100000000E-03 0. -1.
         12    1    3    3    0    0  0.59580584565E+01 -0.45059913446E+01 -0.81299203047E+01  0.11040743758E+02  0.00000000000E+00 0. -1.
</event>
<event>
 7    1  0.4673733E-013  0.5930198E+02  0.7816164E-02  0.1266605E+00
        -11   -1    0    0    0    0  0.00000000000E+00  0.00000000000E+00  0.45593999997E+02  0.45594000000E+02  0.51100000000E-03 0.  1.
         11   -1    0    0    0    0 -0.00000000000E+00 -0.00000000000E+00 -0.45593999997E+02  0.45594000000E+02  0.51100000000E-03 0. -1.
    9900012    2    1    2    0    0  0.24030135375E+02 -0.68867985704E+01  0.19795018017E+02  0.59301982077E+02  0.50000069393E+02 0.  0.
         12    1    1    2    0    0 -0.24030135375E+02  0.68867985704E+01 -0.19795018017E+02  0.31886017923E+02  0.00000000000E+00 0. -1.
         11    1    3    3    0    0 -0.10189684234E+02  0.33522156522E+01  0.94983579440E+01  0.14327798800E+02  0.51100000000E-03 0. -1.
        -11    1    3    3    0    0  0.16093396969E+02  0.72325848419E+01 -0.33112525911E+00  0.17647021100E+02  0.51100000000E-03 0.  1.
        -12    1    3    3    0    0  0.18126422640E+02 -0.17471599065E+02  0.10627785332E+02  0.27327162177E+02  0.00000000000E+00 0.  1.
</event>
<event>
 7    1  0.4673733E-013  0.5930194E+02  0.7816164E-02  0.1266605E+00
        -11   -1    0    0    0    0  0.00000000000E+00  0.00000000000E+00  0.45593999997E+02  0.45594000000E+02  0.51100000000E-03 0.  1.
         11   -1    0    0    0    0 -0.00000000000E+00 -0.00000000000E+00 -0.45593999997E+02  0.45594000000E+02  0.51100000000E-03 0. -1.
    9900012    2    1    2    0    0 -0.23035850668E+02 -0.87451852501E+01  0.20238383410E+02  0.59301939658E+02  0.49999992031E+02 0.  0.
         12    1    1    2    0    0  0.23035850668E+02  0.87451852501E+01 -0.20238383410E+02  0.31886060342E+02  0.00000000000E+00 0. -1.
         11    1    3    3    0    0 -0.12427103337E+02  0.20628134124E+01 -0.10492781361E+02  0.16394711265E+02  0.51100000000E-03 0. -1.
        -11    1    3    3    0    0 -0.74922997070E+01 -0.19216587972E+02  0.18262442998E+02  0.27548659363E+02  0.51100000000E-03 0.  1.
         12    1    3    3    0    0 -0.31164476246E+01  0.84085893099E+01  0.12468721773E+02  0.15358569030E+02  0.00000000000E+00 0. -1.
</event>
<event>
 7    1  0.4673733E-013  0.5930195E+02  0.7816164E-02  0.1266605E+00
        -11   -1    0    0    0    0  0.00000000000E+00  0.00000000000E+00  0.45593999997E+02  0.45594000000E+02  0.51100000000E-03 0. -1.
         11   -1    0    0    0    0 -0.00000000000E+00 -0.00000000000E+00 -0.45593999997E+02  0.45594000000E+02  0.51100000000E-03 0.  1.
    9900012    2    1    2    0    0 -0.10104296697E+02  0.61871075061E+01 -0.29603094846E+02  0.59301947634E+02  0.50000006577E+02 0.  0.
         12    1    1    2    0    0  0.10104296697E+02 -0.61871075061E+01  0.29603094846E+02  0.31886052366E+02  0.00000000000E+00 0. -1.
         11    1    3    3    0    0 -0.14334353720E+02  0.42498160254E+01  0.97504785110E+01  0.17849550814E+02  0.51100000000E-03 0.  1.
        -11    1    3    3    0    0  0.55948474688E+01  0.60938465831E+01 -0.30110343377E+02  0.31226111876E+02  0.51100000000E-03 0. -1.
        -12    1    3    3    0    0 -0.13647904462E+01 -0.41565551024E+01 -0.92432299797E+01  0.10226284943E+02  0.00000000000E+00 0.  1.
</event>
<event>
 7    1  0.4673733E-013  0.5930192E+02  0.7816164E-02  0.1266605E+00
        -11   -1    0    0    0    0  0.00000000000E+00  0.00000000000E+00  0.45593999997E+02  0.45594000000E+02  0.51100000000E-03 0.  1.
         11   -1    0    0    0    0 -0.00000000000E+00 -0.00000000000E+00 -0.45593999997E+02  0.45594000000E+02  0.51100000000E-03 0. -1.
    9900012    2    1    2    0    0  0.28597240924E+02  0.11461679328E+02  0.82188876660E+01  0.59301915324E+02  0.49999947651E+02 0.  0.
         12    1    1    2    0    0 -0.28597240924E+02 -0.11461679328E+02 -0.82188876660E+01  0.31886084676E+02  0.00000000000E+00 0. -1.
         11    1    3    3    0    0  0.50271822380E+00  0.66551164303E+00 -0.79622601813E+01  0.80058240560E+01  0.51100000000E-03 0. -1.
        -11    1    3    3    0    0  0.30315953718E+02  0.21558536450E+02  0.93506340864E+01  0.38357031973E+02  0.51100000000E-03 0.  1.
        -12    1    3    3    0    0 -0.22214310171E+01 -0.10762368765E+02  0.68305137610E+01  0.12939059295E+02  0.00000000000E+00 0.  1.
</event>
<event>
 7    1  0.4673733E-013  0.5930194E+02  0.7816164E-02  0.1266605E+00
        -11   -1    0    0    0    0  0.00000000000E+00  0.00000000000E+00  0.45593999997E+02  0.45594000000E+02  0.51100000000E-03 0. -1.
         11   -1    0    0    0    0 -0.00000000000E+00 -0.00000000000E+00 -0.45593999997E+02  0.45594000000E+02  0.51100000000E-03 0.  1.
    9900012    2    1    2    0    0  0.80479244070E+01  0.26601319760E+02 -0.15630784855E+02  0.59301941363E+02  0.49999995140E+02 0.  0.
         12    1    1    2    0    0 -0.80479244070E+01 -0.26601319760E+02  0.15630784855E+02  0.31886058637E+02  0.00000000000E+00 0. -1.
         11    1    3    3    0    0  0.10485932344E+01 -0.41349321667E+01 -0.69666028895E+00  0.43223312707E+01  0.51100000000E-03 0. -1.
        -11    1    3    3    0    0 -0.96582471792E+01  0.16987403753E+02  0.10033262628E+02  0.21966337520E+02  0.51100000000E-03 0.  1.
        -12    1    3    3    0    0  0.16657578352E+02  0.13748848174E+02 -0.24967387193E+02  0.33013272572E+02  0.00000000000E+00 0.  1.
</event>
<event>
 7    1  0.4673733E-013  0.5930195E+02  0.7816164E-02  0.1266605E+00
        -11   -1    0    0    0    0  0.00000000000E+00  0.00000000000E+00  0.45593999997E+02  0.45594000000E+02  0.51100000000E-03 0. -1.
         11   -1    0    0    0    0 -0.00000000000E+00 -0.00000000000E+00 -0.45593999997E+02  0.45594000000E+02  0.51100000000E-03 0.  1.
    9900012    2    1    2    0    0  0.78032551304E+01 -0.30895680994E+02 -0.11341270480E+01  0.59301950717E+02  0.50000012200E+02 0.  0.
         12    1    1    2    0    0 -0.78032551304E+01  0.30895680994E+02  0.11341270480E+01  0.31886049283E+02  0.00000000000E+00 0. -1.
         11    1    3    3    0    0  0.74871678556E+01  0.28271118416E+01  0.16011187714E+01  0.81617293170E+01  0.51100000000E-03 0. -1.
        -11    1    3    3    0    0  0.49042244458E+00 -0.37387749762E+02  0.93233159727E+01  0.38535808898E+02  0.51100000000E-03 0.  1.
        -12    1    3    3    0    0 -0.17433516986E+00  0.36649569265E+01 -0.12058561792E+02  0.12604412502E+02  0.00000000000E+00 0.  1.
</event>
<event>
 7    1  0.4673733E-013  0.5930194E+02  0.7816164E-02  0.1266605E+00
        -11   -1    0    0    0    0  0.00000000000E+00  0.00000000000E+00  0.45593999997E+02  0.45594000000E+02  0.51100000000E-03 0.  1.
         11   -1    0    0    0    0 -0.00000000000E+00 -0.00000000000E+00 -0.45593999997E+02  0.45594000000E+02  0.51100000000E-03 0. -1.
    9900012    2    1    2    0    0 -0.96355156770E+01 -0.25386368817E+02 -0.16715560349E+02  0.59301939694E+02  0.49999992096E+02 0.  0.
         12    1    1    2    0    0  0.96355156770E+01  0.25386368817E+02  0.16715560349E+02  0.31886060306E+02  0.00000000000E+00 0. -1.
         11    1    3    3    0    0 -0.14690303461E+02 -0.17208833657E+02  0.10997961072E+02  0.25157585727E+02  0.51100000000E-03 0.  1.
        -11    1    3    3    0    0  0.42821342283E+01 -0.32793972691E+00  0.96431081390E+00  0.44016035283E+01  0.51100000000E-03 0. -1.
         12    1    3    3    0    0  0.77265355597E+00 -0.78495954333E+01 -0.28677832235E+02  0.29742750439E+02  0.00000000000E+00 0. -1.
</event>
<event>
 7    1  0.4673733E-013  0.5930195E+02  0.7816164E-02  0.1266605E+00
        -11   -1    0    0    0    0  0.00000000000E+00  0.00000000000E+00  0.45593999997E+02  0.45594000000E+02  0.51100000000E-03 0. -1.
         11   -1    0    0    0    0 -0.00000000000E+00 -0.00000000000E+00 -0.45593999997E+02  0.45594000000E+02  0.51100000000E-03 0.  1.
    9900012    2    1    2    0    0 -0.30512890164E+02 -0.65524866916E+01  0.65382614091E+01  0.59301946462E+02  0.50000004439E+02 0.  0.
         12    1    1    2    0    0  0.30512890164E+02  0.65524866916E+01 -0.65382614091E+01  0.31886053538E+02  0.00000000000E+00 0. -1.
         11    1    3    3    0    0 -0.98155253450E+00  0.26125307584E+01  0.10941707794E+02  0.11292020725E+02  0.51100000000E-03 0. -1.
        -11    1    3    3    0    0  0.13037454574E+01  0.17429730431E+01 -0.13806900968E+02  0.13977418283E+02  0.51100000000E-03 0.  1.
        -12    1    3    3    0    0 -0.30835083086E+02 -0.10907990493E+02  0.94034545833E+01  0.34032507455E+02  0.00000000000E+00 0.  1.
</event>
<event>
 7    1  0.4673733E-013  0.5930196E+02  0.7816164E-02  0.1266605E+00
        -11   -1    0    0    0    0  0.00000000000E+00  0.00000000000E+00  0.45593999997E+02  0.45594000000E+02  0.51100000000E-03 0.  1.
         11   -1    0    0    0    0 -0.00000000000E+00 -0.00000000000E+00 -0.45593999997E+02  0.45594000000E+02  0.51100000000E-03 0. -1.
    9900012    2    1    2    0    0  0.21698485649E+02  0.65491932057E+01  0.22427732420E+02  0.59301962419E+02  0.50000033542E+02 0.  0.
         12    1    1    2    0    0 -0.21698485649E+02 -0.65491932057E+01 -0.22427732420E+02  0.31886037581E+02  0.00000000000E+00 0. -1.
         11    1    3    3    0    0  0.12735613686E+02 -0.16329093729E+02  0.52337334246E+01  0.21359473865E+02  0.51100000000E-03 0. -1.
        -11    1    3    3    0    0  0.10774428920E+02  0.26652535348E+02  0.11705881628E+02  0.31039871520E+02  0.51100000000E-03 0.  1.
        -12    1    3    3    0    0 -0.18115569572E+01 -0.37742484128E+01  0.54881173667E+01  0.69026170342E+01  0.00000000000E+00 0.  1.
</event>
<event>
 7    1  0.4673733E-013  0.5930209E+02  0.7816164E-02  0.1266604E+00
        -11   -1    0    0    0    0  0.00000000000E+00  0.00000000000E+00  0.45593999997E+02  0.45594000000E+02  0.51100000000E-03 0.  1.
         11   -1    0    0    0    0 -0.00000000000E+00 -0.00000000000E+00 -0.45593999997E+02  0.45594000000E+02  0.51100000000E-03 0. -1.
    9900012    2    1    2    0    0  0.18601740437E+02  0.22972458968E+02  0.11956275488E+02  0.59302091798E+02  0.50000269498E+02 0.  0.
         12    1    1    2    0    0 -0.18601740437E+02 -0.22972458968E+02 -0.11956275488E+02  0.31885908202E+02  0.00000000000E+00 0. -1.
         11    1    3    3    0    0  0.80673200421E+01 -0.10743106311E+02  0.68400064696E+01  0.15075863977E+02  0.51100000000E-03 0. -1.
        -11    1    3    3    0    0  0.17320046592E+02  0.20338429603E+02  0.98888373211E+01  0.28485519769E+02  0.51100000000E-03 0.  1.
        -12    1    3    3    0    0 -0.67856261977E+01  0.13377135676E+02 -0.47725683031E+01  0.15740708053E+02  0.00000000000E+00 0.  1.
</event>
<event>
 7    1  0.4673733E-013  0.5930181E+02  0.7816164E-02  0.1266605E+00
        -11   -1    0    0    0    0  0.00000000000E+00  0.00000000000E+00  0.45593999997E+02  0.45594000000E+02  0.51100000000E-03 0.  1.
         11   -1    0    0    0    0 -0.00000000000E+00 -0.00000000000E+00 -0.45593999997E+02  0.45594000000E+02  0.51100000000E-03 0. -1.
    9900012    2    1    2    0    0  0.10942659705E+02  0.15261226889E+02  0.25769799816E+02  0.59301805023E+02  0.49999746488E+02 0.  0.
         12    1    1    2    0    0 -0.10942659705E+02 -0.15261226889E+02 -0.25769799816E+02  0.31886194977E+02  0.00000000000E+00 0. -1.
         11    1    3    3    0    0  0.10385693831E+02 -0.77830069765E+01 -0.17305578660E+01  0.13093229729E+02  0.51100000000E-03 0. -1.
        -11    1    3    3    0    0  0.45828180779E+01  0.18407489032E+02  0.32935768842E+02  0.38007930008E+02  0.51100000000E-03 0.  1.
         12    1    3    3    0    0 -0.40258522046E+01  0.46367448337E+01 -0.54354111599E+01  0.82006452858E+01  0.00000000000E+00 0. -1.
</event>
<event>
 7    1  0.4673733E-013  0.5930194E+02  0.7816164E-02  0.1266605E+00
        -11   -1    0    0    0    0  0.00000000000E+00  0.00000000000E+00  0.45593999997E+02  0.45594000000E+02  0.51100000000E-03 0. -1.
         11   -1    0    0    0    0 -0.00000000000E+00 -0.00000000000E+00 -0.45593999997E+02  0.45594000000E+02  0.51100000000E-03 0.  1.
    9900012    2    1    2    0    0  0.29901829595E+02 -0.61731549064E+01 -0.91920313440E+01  0.59301941999E+02  0.49999996300E+02 0.  0.
         12    1    1    2    0    0 -0.29901829595E+02  0.61731549064E+01  0.91920313440E+01  0.31886058001E+02  0.00000000000E+00 0. -1.
         11    1    3    3    0    0  0.19538373093E+02  0.11119201525E+02 -0.14492357204E+02  0.26747207018E+02  0.51100000000E-03 0. -1.
        -11    1    3    3    0    0 -0.74685468308E+01 -0.10298968587E+02  0.16114634078E+00  0.12722967976E+02  0.51100000000E-03 0.  1.
        -12    1    3    3    0    0  0.17832003332E+02 -0.69933878438E+01  0.51391795196E+01  0.19831767004E+02  0.00000000000E+00 0.  1.
</event>
<event>
 7    1  0.4673733E-013  0.5930193E+02  0.7816164E-02  0.1266605E+00
        -11   -1    0    0    0    0  0.00000000000E+00  0.00000000000E+00  0.45593999997E+02  0.45594000000E+02  0.51100000000E-03 0.  1.
         11   -1    0    0    0    0 -0.00000000000E+00 -0.00000000000E+00 -0.45593999997E+02  0.45594000000E+02  0.51100000000E-03 0. -1.
    9900012    2    1    2    0    0  0.24425039347E+02 -0.20111638847E+02 -0.39573475396E+01  0.59301934646E+02  0.49999982890E+02 0.  0.
         12    1    1    2    0    0 -0.24425039347E+02  0.20111638847E+02  0.39573475396E+01  0.31886065354E+02  0.00000000000E+00 0. -1.
         11    1    3    3    0    0  0.73935937097E+01 -0.35101054385E+01  0.13703697961E+02  0.15961748219E+02  0.51100000000E-03 0.  1.
        -11    1    3    3    0    0  0.22876592786E+02 -0.21573813050E+02 -0.11438817632E+02  0.33460640402E+02  0.51100000000E-03 0. -1.
         12    1    3    3    0    0 -0.58451471486E+01  0.49722796412E+01 -0.62222278684E+01  0.98795460252E+01  0.00000000000E+00 0. -1.
</event>
<event>
 7    1  0.4673733E-013  0.5930195E+02  0.7816164E-02  0.1266605E+00
        -11   -1    0    0    0    0  0.00000000000E+00  0.00000000000E+00  0.45593999997E+02  0.45594000000E+02  0.51100000000E-03 0.  1.
         11   -1    0    0    0    0 -0.00000000000E+00 -0.00000000000E+00 -0.45593999997E+02  0.45594000000E+02  0.51100000000E-03 0. -1.
    9900012    2    1    2    0    0 -0.13634217626E+02 -0.18017813625E+02 -0.22498586986E+02  0.59301954236E+02  0.50000018618E+02 0.  0.
         12    1    1    2    0    0  0.13634217626E+02  0.18017813625E+02  0.22498586986E+02  0.31886045764E+02  0.00000000000E+00 0. -1.
         11    1    3    3    0    0 -0.60041324823E+01 -0.16845332032E+02 -0.20675753936E+02  0.27336818015E+02  0.51100000000E-03 0. -1.
        -11    1    3    3    0    0  0.10134958272E+02  0.30606916035E+01  0.59192334386E+01  0.12129407942E+02  0.51100000000E-03 0.  1.
        -12    1    3    3    0    0 -0.17765043415E+02 -0.42331731963E+01 -0.77420664884E+01  0.19835728279E+02  0.00000000000E+00 0.  1.
</event>
<event>
 7    1  0.4673733E-013  0.5930192E+02  0.7816164E-02  0.1266605E+00
        -11   -1    0    0    0    0  0.00000000000E+00  0.00000000000E+00  0.45593999997E+02  0.45594000000E+02  0.51100000000E-03 0.  1.
         11   -1    0    0    0    0 -0.00000000000E+00 -0.00000000000E+00 -0.45593999997E+02  0.45594000000E+02  0.51100000000E-03 0. -1.
    9900012    2    1    2    0    0  0.29316671771E+02  0.98221767453E+01 -0.77961517721E+01  0.59301915540E+02  0.49999948045E+02 0.  0.
         12    1    1    2    0    0 -0.29316671771E+02 -0.98221767453E+01  0.77961517721E+01  0.31886084460E+02  0.00000000000E+00 0. -1.
         11    1    3    3    0    0 -0.21781251529E+01 -0.83802735181E+01  0.13116522059E+02  0.15716754264E+02  0.51100000000E-03 0. -1.
        -11    1    3    3    0    0  0.16226617527E+02  0.14929180810E+02 -0.15902760938E+02  0.27186050867E+02  0.51100000000E-03 0.  1.
         12    1    3    3    0    0  0.15268179397E+02  0.32732694532E+01 -0.50099128935E+01  0.16399110409E+02  0.00000000000E+00 0. -1.
</event>
<event>
 7    1  0.4673733E-013  0.5930193E+02  0.7816164E-02  0.1266605E+00
        -11   -1    0    0    0    0  0.00000000000E+00  0.00000000000E+00  0.45593999997E+02  0.45594000000E+02  0.51100000000E-03 0. -1.
         11   -1    0    0    0    0 -0.00000000000E+00 -0.00000000000E+00 -0.45593999997E+02  0.45594000000E+02  0.51100000000E-03 0.  1.
    9900012    2    1    2    0    0  0.18383023772E+02  0.16762451979E+02 -0.19945069308E+02  0.59301934877E+02  0.49999983311E+02 0.  0.
         12    1    1    2    0    0 -0.18383023772E+02 -0.16762451979E+02  0.19945069308E+02  0.31886065123E+02  0.00000000000E+00 0. -1.
         11    1    3    3    0    0  0.57136515877E+01 -0.63914770212E+01  0.12730749665E+02  0.15348250072E+02  0.51100000000E-03 0. -1.
        -11    1    3    3    0    0  0.76606536491E+01  0.99766403980E+01 -0.24795512464E+02  0.27803532268E+02  0.51100000000E-03 0.  1.
         12    1    3    3    0    0  0.50087185347E+01  0.13177288602E+02 -0.78803065092E+01  0.16150152536E+02  0.00000000000E+00 0. -1.
</event>
<event>
 7    1  0.4673733E-013  0.5930194E+02  0.7816164E-02  0.1266605E+00
        -11   -1    0    0    0    0  0.00000000000E+00  0.00000000000E+00  0.45593999997E+02  0.45594000000E+02  0.51100000000E-03 0. -1.
         11   -1    0    0    0    0 -0.00000000000E+00 -0.00000000000E+00 -0.45593999997E+02  0.45594000000E+02  0.51100000000E-03 0.  1.
    9900012    2    1    2    0    0 -0.12904669182E+02 -0.23051046211E+01 -0.29066769390E+02  0.59301936010E+02  0.49999985378E+02 0.  0.
         12    1    1    2    0    0  0.12904669182E+02  0.23051046211E+01  0.29066769390E+02  0.31886063990E+02  0.00000000000E+00 0. -1.
         11    1    3    3    0    0  0.27762458152E+00 -0.14407495113E+01  0.15765147376E+01  0.21536558550E+01  0.51100000000E-03 0. -1.
        -11    1    3    3    0    0 -0.29318135713E+02  0.41460406050E+01 -0.11894223348E+02  0.31909485795E+02  0.51100000000E-03 0.  1.
        -12    1    3    3    0    0  0.16135841950E+02 -0.50103957148E+01 -0.18749060780E+02  0.25238794360E+02  0.00000000000E+00 0.  1.
</event>
<event>
 7    1  0.4673733E-013  0.5930194E+02  0.7816164E-02  0.1266605E+00
        -11   -1    0    0    0    0  0.00000000000E+00  0.00000000000E+00  0.45593999997E+02  0.45594000000E+02  0.51100000000E-03 0. -1.
         11   -1    0    0    0    0 -0.00000000000E+00 -0.00000000000E+00 -0.45593999997E+02  0.45594000000E+02  0.51100000000E-03 0.  1.
    9900012    2    1    2    0    0  0.39149749781E+01 -0.31066495449E+02 -0.60221688852E+01  0.59301942128E+02  0.49999996535E+02 0.  0.
         12    1    1    2    0    0 -0.39149749781E+01  0.31066495449E+02  0.60221688852E+01  0.31886057872E+02  0.00000000000E+00 0. -1.
         11    1    3    3    0    0 -0.73539268456E+01  0.26781893200E+01  0.83133368313E+01  0.11417727778E+02  0.51100000000E-03 0. -1.
        -11    1    3    3    0    0  0.90235232917E+01 -0.38024730208E+02 -0.16705075089E+02  0.42501336614E+02  0.51100000000E-03 0.  1.
        -12    1    3    3    0    0  0.22453785320E+01  0.42800454387E+01  0.23695693726E+01  0.53828777360E+01  0.00000000000E+00 0.  1.
</event>
<event>
 7    1  0.4673733E-013  0.5930188E+02  0.7816164E-02  0.1266605E+00
        -11   -1    0    0    0    0  0.00000000000E+00  0.00000000000E+00  0.45593999997E+02  0.45594000000E+02  0.51100000000E-03 0.  1.
         11   -1    0    0    0    0 -0.00000000000E+00 -0.00000000000E+00 -0.45593999997E+02  0.45594000000E+02  0.51100000000E-03 0. -1.
    9900012    2    1    2    0    0  0.14503374673E+02  0.10068072974E+02  0.26552031391E+02  0.59301884819E+02  0.49999892018E+02 0.  0.
         12    1    1    2    0    0 -0.14503374673E+02 -0.10068072974E+02 -0.26552031391E+02  0.31886115181E+02  0.00000000000E+00 0. -1.
         11    1    3    3    0    0 -0.73095982930E-01  0.26620517769E+02  0.15513721247E+02  0.30811245617E+02  0.51100000000E-03 0. -1.
        -11    1    3    3    0    0  0.18835279227E+01 -0.12906803811E+02  0.49911542334E+01  0.13965847016E+02  0.51100000000E-03 0.  1.
         12    1    3    3    0    0  0.12692942733E+02 -0.36456409847E+01  0.60471559114E+01  0.14524792186E+02  0.00000000000E+00 0. -1.
</event>
<event>
 7    1  0.4673733E-013  0.5930188E+02  0.7816164E-02  0.1266605E+00
        -11   -1    0    0    0    0  0.00000000000E+00  0.00000000000E+00  0.45593999997E+02  0.45594000000E+02  0.51100000000E-03 0.  1.
         11   -1    0    0    0    0 -0.00000000000E+00 -0.00000000000E+00 -0.45593999997E+02  0.45594000000E+02  0.51100000000E-03 0. -1.
    9900012    2    1    2    0    0 -0.21214659121E+02 -0.22996527670E+02  0.61500195630E+01  0.59301877828E+02  0.49999879268E+02 0.  0.
         12    1    1    2    0    0  0.21214659121E+02  0.22996527670E+02 -0.61500195630E+01  0.31886122172E+02  0.00000000000E+00 0. -1.
         11    1    3    3    0    0  0.99841035520E+01 -0.10526038226E+02  0.17512072882E+02  0.22740987256E+02  0.51100000000E-03 0. -1.
        -11    1    3    3    0    0 -0.11324022127E+02 -0.61909226238E+01 -0.17885250444E+00  0.12907090630E+02  0.51100000000E-03 0.  1.
         12    1    3    3    0    0 -0.19874740547E+02 -0.62795668204E+01 -0.11183200815E+02  0.23653799942E+02  0.00000000000E+00 0. -1.
</event>
<event>
 7    1  0.4673733E-013  0.5930192E+02  0.7816164E-02  0.1266605E+00
        -11   -1    0    0    0    0  0.00000000000E+00  0.00000000000E+00  0.45593999997E+02  0.45594000000E+02  0.51100000000E-03 0. -1.
         11   -1    0    0    0    0 -0.00000000000E+00 -0.00000000000E+00 -0.45593999997E+02  0.45594000000E+02  0.51100000000E-03 0.  1.
    9900012    2    1    2    0    0 -0.38191485305E+01 -0.30855282107E+02  0.70772787468E+01  0.59301918336E+02  0.49999953145E+02 0.  0.
         12    1    1    2    0    0  0.38191485305E+01  0.30855282107E+02 -0.70772787468E+01  0.31886081664E+02  0.00000000000E+00 0. -1.
         11    1    3    3    0    0 -0.79884881039E+00  0.58293259477E+01  0.18856111168E+02  0.19752775224E+02  0.51100000000E-03 0. -1.
        -11    1    3    3    0    0 -0.53666680247E+01 -0.31299361406E+02 -0.87473988076E+01  0.32938854507E+02  0.51100000000E-03 0.  1.
         12    1    3    3    0    0  0.23463683045E+01 -0.53852466489E+01 -0.30314336132E+01  0.66102886050E+01  0.00000000000E+00 0. -1.
</event>
<event>
 7    1  0.4673733E-013  0.5930193E+02  0.7816164E-02  0.1266605E+00
        -11   -1    0    0    0    0  0.00000000000E+00  0.00000000000E+00  0.45593999997E+02  0.45594000000E+02  0.51100000000E-03 0.  1.
         11   -1    0    0    0    0 -0.00000000000E+00 -0.00000000000E+00 -0.45593999997E+02  0.45594000000E+02  0.51100000000E-03 0. -1.
    9900012    2    1    2    0    0  0.14083538821E+02 -0.28451900299E+02 -0.29773999998E+01  0.59301927694E+02  0.49999970211E+02 0.  0.
         12    1    1    2    0    0 -0.14083538821E+02  0.28451900299E+02  0.29773999998E+01  0.31886072306E+02  0.00000000000E+00 0. -1.
         11    1    3    3    0    0 -0.64284419422E+01 -0.22268867001E+01 -0.52688152742E+01  0.86049000479E+01  0.51100000000E-03 0. -1.
        -11    1    3    3    0    0  0.30519506893E+02 -0.26289178289E+02 -0.58105334568E+00  0.40285218373E+02  0.51100000000E-03 0.  1.
        -12    1    3    3    0    0 -0.10007526130E+02  0.64164689715E-01  0.28724686202E+01  0.10411809273E+02  0.00000000000E+00 0.  1.
</event>
<event>
 7    1  0.4673733E-013  0.5930193E+02  0.7816164E-02  0.1266605E+00
        -11   -1    0    0    0    0  0.00000000000E+00  0.00000000000E+00  0.45593999997E+02  0.45594000000E+02  0.51100000000E-03 0.  1.
         11   -1    0    0    0    0 -0.00000000000E+00 -0.00000000000E+00 -0.45593999997E+02  0.45594000000E+02  0.51100000000E-03 0. -1.
    9900012    2    1    2    0    0 -0.90420012163E+01  0.22184720860E+02  0.21042852527E+02  0.59301933009E+02  0.49999979905E+02 0.  0.
         12    1    1    2    0    0  0.90420012163E+01 -0.22184720860E+02 -0.21042852527E+02  0.31886066991E+02  0.00000000000E+00 0. -1.
         11    1    3    3    0    0  0.17233806763E+02  0.18076297396E+02  0.13399124545E+02  0.28342426888E+02  0.51100000000E-03 0. -1.
        -11    1    3    3    0    0 -0.96709930954E+01 -0.37973623766E+01 -0.13679536977E+01  0.10479473558E+02  0.51100000000E-03 0.  1.
         12    1    3    3    0    0 -0.16604814884E+02  0.79057858409E+01  0.90116816805E+01  0.20480032563E+02  0.00000000000E+00 0. -1.
</event>
<event>
 7    1  0.4673733E-013  0.5930233E+02  0.7816164E-02  0.1266603E+00
        -11   -1    0    0    0    0  0.00000000000E+00  0.00000000000E+00  0.45593999997E+02  0.45594000000E+02  0.51100000000E-03 0.  1.
         11   -1    0    0    0    0 -0.00000000000E+00 -0.00000000000E+00 -0.45593999997E+02  0.45594000000E+02  0.51100000000E-03 0. -1.
    9900012    2    1    2    0    0 -0.16194186526E+02 -0.21669385492E+02  0.16878440087E+02  0.59302334183E+02  0.50000711544E+02 0.  0.
         12    1    1    2    0    0  0.16194186526E+02  0.21669385492E+02 -0.16878440087E+02  0.31885665817E+02  0.00000000000E+00 0. -1.
         11    1    3    3    0    0 -0.62165003472E+01 -0.21881621560E+02  0.14738100510E+02  0.27104646199E+02  0.51100000000E-03 0.  1.
        -11    1    3    3    0    0 -0.30540360055E+00  0.88974668720E+01 -0.10704409788E+02  0.13922735983E+02  0.51100000000E-03 0. -1.
         12    1    3    3    0    0 -0.96722825787E+01 -0.86852308032E+01  0.12844749364E+02  0.18274952000E+02  0.00000000000E+00 0. -1.
</event>
<event>
 7    1  0.4673733E-013  0.5930198E+02  0.7816164E-02  0.1266605E+00
        -11   -1    0    0    0    0  0.00000000000E+00  0.00000000000E+00  0.45593999997E+02  0.45594000000E+02  0.51100000000E-03 0.  1.
         11   -1    0    0    0    0 -0.00000000000E+00 -0.00000000000E+00 -0.45593999997E+02  0.45594000000E+02  0.51100000000E-03 0. -1.
    9900012    2    1    2    0    0  0.32449636294E+01  0.31714871989E+02 -0.59620816179E+00  0.59301978636E+02  0.50000063117E+02 0.  0.
         12    1    1    2    0    0 -0.32449636294E+01 -0.31714871989E+02  0.59620816179E+00  0.31886021364E+02  0.00000000000E+00 0. -1.
         11    1    3    3    0    0 -0.15750514357E+00  0.42436519674E+02 -0.59217489449E+01  0.42847988526E+02  0.51100000000E-03 0. -1.
        -11    1    3    3    0    0  0.28690506696E+01  0.64829747965E-01  0.48603128981E+01  0.56443154031E+01  0.51100000000E-03 0.  1.
         12    1    3    3    0    0  0.53341810338E+00 -0.10786477433E+02  0.46522788502E+00  0.10809674707E+02  0.00000000000E+00 0. -1.
</event>
<event>
 7    1  0.4673733E-013  0.5930196E+02  0.7816164E-02  0.1266605E+00
        -11   -1    0    0    0    0  0.00000000000E+00  0.00000000000E+00  0.45593999997E+02  0.45594000000E+02  0.51100000000E-03 0.  1.
         11   -1    0    0    0    0 -0.00000000000E+00 -0.00000000000E+00 -0.45593999997E+02  0.45594000000E+02  0.51100000000E-03 0. -1.
    9900012    2    1    2    0    0  0.25835806225E+02 -0.18215986265E+02  0.41723403284E+01  0.59301961320E+02  0.50000031537E+02 0.  0.
         12    1    1    2    0    0 -0.25835806225E+02  0.18215986265E+02 -0.41723403284E+01  0.31886038680E+02  0.00000000000E+00 0. -1.
         11    1    3    3    0    0  0.53214262858E+01  0.18162277596E+01 -0.87444897484E+01  0.10396266744E+02  0.51100000000E-03 0. -1.
        -11    1    3    3    0    0  0.30856391051E+02 -0.18401404726E+02  0.61763362049E+01  0.36453747321E+02  0.51100000000E-03 0.  1.
        -12    1    3    3    0    0 -0.10342011112E+02 -0.16308092982E+01  0.67404938719E+01  0.12451947255E+02  0.00000000000E+00 0.  1.
</event>
<event>
 7    1  0.4673733E-013  0.5930195E+02  0.7816164E-02  0.1266605E+00
        -11   -1    0    0    0    0  0.00000000000E+00  0.00000000000E+00  0.45593999997E+02  0.45594000000E+02  0.51100000000E-03 0.  1.
         11   -1    0    0    0    0 -0.00000000000E+00 -0.00000000000E+00 -0.45593999997E+02  0.45594000000E+02  0.51100000000E-03 0. -1.
    9900012    2    1    2    0    0  0.80922625435E+01  0.25025095786E+02  0.18027204979E+02  0.59301948950E+02  0.50000008978E+02 0.  0.
         12    1    1    2    0    0 -0.80922625435E+01 -0.25025095786E+02 -0.18027204979E+02  0.31886051050E+02  0.00000000000E+00 0. -1.
         11    1    3    3    0    0 -0.71153692337E+00 -0.11295721614E+01 -0.73726921403E+01  0.74925835142E+01  0.51100000000E-03 0. -1.
        -11    1    3    3    0    0  0.73619130573E+01  0.25170794040E+02  0.34053490403E+02  0.42981470954E+02  0.51100000000E-03 0.  1.
        -12    1    3    3    0    0  0.14418864096E+01  0.98387390712E+00 -0.86535932830E+01  0.88278944823E+01  0.00000000000E+00 0.  1.
</event>
<event>
 7    1  0.4673733E-013  0.5930199E+02  0.7816164E-02  0.1266605E+00
        -11   -1    0    0    0    0  0.00000000000E+00  0.00000000000E+00  0.45593999997E+02  0.45594000000E+02  0.51100000000E-03 0. -1.
         11   -1    0    0    0    0 -0.00000000000E+00 -0.00000000000E+00 -0.45593999997E+02  0.45594000000E+02  0.51100000000E-03 0.  1.
    9900012    2    1    2    0    0 -0.19308036403E+02 -0.25348971499E+02 -0.11605712063E+01  0.59301991292E+02  0.50000086199E+02 0.  0.
         12    1    1    2    0    0  0.19308036403E+02  0.25348971499E+02  0.11605712063E+01  0.31886008708E+02  0.00000000000E+00 0. -1.
         11    1    3    3    0    0  0.10298244205E+02  0.80375992875E+01  0.30684388276E+01  0.13419096583E+02  0.51100000000E-03 0. -1.
        -11    1    3    3    0    0 -0.27933526413E+02 -0.26167137023E+02 -0.36829150553E+01  0.38452110754E+02  0.51100000000E-03 0.  1.
         12    1    3    3    0    0 -0.16727541943E+01 -0.72194337638E+01 -0.54609497863E+00  0.74307839553E+01  0.00000000000E+00 0. -1.
</event>
<event>
 7    1  0.4673733E-013  0.5930195E+02  0.7816164E-02  0.1266605E+00
        -11   -1    0    0    0    0  0.00000000000E+00  0.00000000000E+00  0.45593999997E+02  0.45594000000E+02  0.51100000000E-03 0.  1.
         11   -1    0    0    0    0 -0.00000000000E+00 -0.00000000000E+00 -0.45593999997E+02  0.45594000000E+02  0.51100000000E-03 0. -1.
    9900012    2    1    2    0    0  0.22476522128E+01  0.29440287957E+02  0.12038997839E+02  0.59301953452E+02  0.50000017188E+02 0.  0.
         12    1    1    2    0    0 -0.22476522128E+01 -0.29440287957E+02 -0.12038997839E+02  0.31886046548E+02  0.00000000000E+00 0. -1.
         11    1    3    3    0    0 -0.45509248829E+00  0.43624842348E+01 -0.96651570565E+01  0.10613841861E+02  0.51100000000E-03 0. -1.
        -11    1    3    3    0    0 -0.99761566495E+00  0.23977365539E+02  0.30660292144E+02  0.38935367082E+02  0.51100000000E-03 0.  1.
        -12    1    3    3    0    0  0.37003603660E+01  0.11004381832E+01 -0.89561372484E+01  0.97527445084E+01  0.00000000000E+00 0.  1.
</event>
<event>
 7    1  0.4673733E-013  0.5930194E+02  0.7816164E-02  0.1266605E+00
        -11   -1    0    0    0    0  0.00000000000E+00  0.00000000000E+00  0.45593999997E+02  0.45594000000E+02  0.51100000000E-03 0. -1.
         11   -1    0    0    0    0 -0.00000000000E+00 -0.00000000000E+00 -0.45593999997E+02  0.45594000000E+02  0.51100000000E-03 0.  1.
    9900012    2    1    2    0    0  0.31252903441E+02  0.57785663410E+01 -0.25661136620E+01  0.59301941263E+02  0.49999994958E+02 0.  0.
         12    1    1    2    0    0 -0.31252903441E+02 -0.57785663410E+01  0.25661136620E+01  0.31886058737E+02  0.00000000000E+00 0. -1.
         11    1    3    3    0    0  0.47985716448E+01  0.18189579170E+02  0.11603196126E+02  0.22102516617E+02  0.51100000000E-03 0. -1.
        -11    1    3    3    0    0  0.19109045374E+02  0.95326618735E+00 -0.83831371726E+01  0.20888784566E+02  0.51100000000E-03 0.  1.
         12    1    3    3    0    0  0.73452864219E+01 -0.13364279017E+02 -0.57861726152E+01  0.16310640079E+02  0.00000000000E+00 0. -1.
</event>
<event>
 7    1  0.4673733E-013  0.5930194E+02  0.7816164E-02  0.1266605E+00
        -11   -1    0    0    0    0  0.00000000000E+00  0.00000000000E+00  0.45593999997E+02  0.45594000000E+02  0.51100000000E-03 0.  1.
         11   -1    0    0    0    0 -0.00000000000E+00 -0.00000000000E+00 -0.45593999997E+02  0.45594000000E+02  0.51100000000E-03 0. -1.
    9900012    2    1    2    0    0  0.10371230740E+02 -0.53661368043E+01  0.29670914932E+02  0.59301936521E+02  0.49999986309E+02 0.  0.
         12    1    1    2    0    0 -0.10371230740E+02  0.53661368043E+01 -0.29670914932E+02  0.31886063479E+02  0.00000000000E+00 0. -1.
         11    1    3    3    0    0  0.46092148921E+01  0.63824602748E+01  0.11274642710E+01  0.79531023522E+01  0.51100000000E-03 0. -1.
        -11    1    3    3    0    0 -0.32581767155E+01 -0.20860688657E+02  0.31752778360E+02  0.38131653263E+02  0.51100000000E-03 0.  1.
        -12    1    3    3    0    0  0.90201925638E+01  0.91120915774E+01 -0.32093276992E+01  0.13217180905E+02  0.00000000000E+00 0.  1.
</event>
<event>
 7    1  0.4673733E-013  0.5930201E+02  0.7816164E-02  0.1266605E+00
        -11   -1    0    0    0    0  0.00000000000E+00  0.00000000000E+00  0.45593999997E+02  0.45594000000E+02  0.51100000000E-03 0.  1.
         11   -1    0    0    0    0 -0.00000000000E+00 -0.00000000000E+00 -0.45593999997E+02  0.45594000000E+02  0.51100000000E-03 0. -1.
    9900012    2    1    2    0    0 -0.30175092222E+02 -0.88958540007E+01 -0.52003689559E+01  0.59302011756E+02  0.50000123520E+02 0.  0.
         12    1    1    2    0    0  0.30175092222E+02  0.88958540007E+01  0.52003689559E+01  0.31885988244E+02  0.00000000000E+00 0. -1.
         11    1    3    3    0    0 -0.16858685380E+02  0.86177903251E+00  0.79565394908E+00  0.16899437899E+02  0.51100000000E-03 0. -1.
        -11    1    3    3    0    0  0.29282773952E+00 -0.20909444629E+01 -0.20785044974E+02  0.20892005448E+02  0.51100000000E-03 0.  1.
        -12    1    3    3    0    0 -0.13609234582E+02 -0.76666885703E+01  0.14789022069E+02  0.21510568409E+02  0.00000000000E+00 0.  1.
</event>
<event>
 7    1  0.4673733E-013  0.5930194E+02  0.7816164E-02  0.1266605E+00
        -11   -1    0    0    0    0  0.00000000000E+00  0.00000000000E+00  0.45593999997E+02  0.45594000000E+02  0.51100000000E-03 0. -1.
         11   -1    0    0    0    0 -0.00000000000E+00 -0.00000000000E+00 -0.45593999997E+02  0.45594000000E+02  0.51100000000E-03 0.  1.
    9900012    2    1    2    0    0  0.17541575471E+02 -0.16593209605E+02 -0.20824967402E+02  0.59301941255E+02  0.49999994942E+02 0.  0.
         12    1    1    2    0    0 -0.17541575471E+02  0.16593209605E+02  0.20824967402E+02  0.31886058745E+02  0.00000000000E+00 0. -1.
         11    1    3    3    0    0  0.16979312390E+02  0.54043971065E+01 -0.33701713558E+01  0.18134569544E+02  0.51100000000E-03 0.  1.
        -11    1    3    3    0    0  0.36024429462E+01 -0.24973130415E+02 -0.23025208799E+02  0.34158382257E+02  0.51100000000E-03 0. -1.
         12    1    3    3    0    0 -0.30401798649E+01  0.29755237034E+01  0.55704127528E+01  0.70089894533E+01  0.00000000000E+00 0. -1.
</event>
<event>
 7    1  0.4673733E-013  0.5930194E+02  0.7816164E-02  0.1266605E+00
        -11   -1    0    0    0    0  0.00000000000E+00  0.00000000000E+00  0.45593999997E+02  0.45594000000E+02  0.51100000000E-03 0. -1.
         11   -1    0    0    0    0 -0.00000000000E+00 -0.00000000000E+00 -0.45593999997E+02  0.45594000000E+02  0.51100000000E-03 0.  1.
    9900012    2    1    2    0    0 -0.11341403634E+02 -0.12743417780E+02 -0.26938799456E+02  0.59301936441E+02  0.49999986164E+02 0.  0.
         12    1    1    2    0    0  0.11341403634E+02  0.12743417780E+02  0.26938799456E+02  0.31886063559E+02  0.00000000000E+00 0. -1.
         11    1    3    3    0    0 -0.95273129119E+01 -0.54179988331E+01 -0.36158337840E+02  0.37782929986E+02  0.51100000000E-03 0.  1.
        -11    1    3    3    0    0 -0.93064374064E+01 -0.68276323644E+01  0.76514902129E+01  0.13848163909E+02  0.51100000000E-03 0. -1.
         12    1    3    3    0    0  0.74923466841E+01 -0.49778658263E+00  0.15680481707E+01  0.76708425471E+01  0.00000000000E+00 0. -1.
</event>
<event>
 7    1  0.4673733E-013  0.5930192E+02  0.7816164E-02  0.1266605E+00
        -11   -1    0    0    0    0  0.00000000000E+00  0.00000000000E+00  0.45593999997E+02  0.45594000000E+02  0.51100000000E-03 0.  1.
         11   -1    0    0    0    0 -0.00000000000E+00 -0.00000000000E+00 -0.45593999997E+02  0.45594000000E+02  0.51100000000E-03 0. -1.
    9900012    2    1    2    0    0 -0.10593007248E+02 -0.23527390777E+02  0.18734258186E+02  0.59301916059E+02  0.49999948992E+02 0.  0.
         12    1    1    2    0    0  0.10593007248E+02  0.23527390777E+02 -0.18734258186E+02  0.31886083941E+02  0.00000000000E+00 0. -1.
         11    1    3    3    0    0 -0.24623140808E+02 -0.77128661705E+01  0.85481193085E+01  0.27181937234E+02  0.51100000000E-03 0.  1.
        -11    1    3    3    0    0  0.14076033148E+02 -0.20825892626E+02  0.66972492272E+01  0.26013566851E+02  0.51100000000E-03 0. -1.
        -12    1    3    3    0    0 -0.45899588252E-01  0.50113680196E+01  0.34888896505E+01  0.61064119738E+01  0.00000000000E+00 0.  1.
</event>
<event>
 7    1  0.4673733E-013  0.5930193E+02  0.7816164E-02  0.1266605E+00
        -11   -1    0    0    0    0  0.00000000000E+00  0.00000000000E+00  0.45593999997E+02  0.45594000000E+02  0.51100000000E-03 0.  1.
         11   -1    0    0    0    0 -0.00000000000E+00 -0.00000000000E+00 -0.45593999997E+02  0.45594000000E+02  0.51100000000E-03 0. -1.
    9900012    2    1    2    0    0  0.25274561723E+02  0.55038262436E+01  0.18644730639E+02  0.59301928523E+02  0.49999971723E+02 0.  0.
         12    1    1    2    0    0 -0.25274561723E+02 -0.55038262436E+01 -0.18644730639E+02  0.31886071477E+02  0.00000000000E+00 0. -1.
         11    1    3    3    0    0 -0.50719116882E+01  0.15176828690E+01  0.21737480039E+02  0.22372878406E+02  0.51100000000E-03 0. -1.
        -11    1    3    3    0    0  0.22113936432E+02 -0.30692808958E+01  0.56170730574E+01  0.23021689332E+02  0.51100000000E-03 0.  1.
         12    1    3    3    0    0  0.82325369797E+01  0.70554242704E+01 -0.87098224572E+01  0.13907360785E+02  0.00000000000E+00 0. -1.
</event>
<event>
 7    1  0.4673733E-013  0.5930193E+02  0.7816164E-02  0.1266605E+00
        -11   -1    0    0    0    0  0.00000000000E+00  0.00000000000E+00  0.45593999997E+02  0.45594000000E+02  0.51100000000E-03 0.  1.
         11   -1    0    0    0    0 -0.00000000000E+00 -0.00000000000E+00 -0.45593999997E+02  0.45594000000E+02  0.51100000000E-03 0. -1.
    9900012    2    1    2    0    0 -0.20400134359E+02 -0.15595056661E+02  0.18903704093E+02  0.59301932469E+02  0.49999978920E+02 0.  0.
         12    1    1    2    0    0  0.20400134359E+02  0.15595056661E+02 -0.18903704093E+02  0.31886067531E+02  0.00000000000E+00 0. -1.
         11    1    3    3    0    0 -0.23827023594E+02 -0.78378550454E+01  0.12966463574E+02  0.28236292301E+02  0.51100000000E-03 0. -1.
        -11    1    3    3    0    0  0.14132412646E+02 -0.11029162491E+02 -0.89842918840E+00  0.17949225268E+02  0.51100000000E-03 0.  1.
        -12    1    3    3    0    0 -0.10705523412E+02  0.32719608747E+01  0.68356697075E+01  0.13116414900E+02  0.00000000000E+00 0.  1.
</event>
<event>
 7    1  0.4673733E-013  0.5930194E+02  0.7816164E-02  0.1266605E+00
        -11   -1    0    0    0    0  0.00000000000E+00  0.00000000000E+00  0.45593999997E+02  0.45594000000E+02  0.51100000000E-03 0.  1.
         11   -1    0    0    0    0 -0.00000000000E+00 -0.00000000000E+00 -0.45593999997E+02  0.45594000000E+02  0.51100000000E-03 0. -1.
    9900012    2    1    2    0    0 -0.10869983586E+02  0.15477381081E+02  0.25671288848E+02  0.59301938164E+02  0.49999989306E+02 0.  0.
         12    1    1    2    0    0  0.10869983586E+02 -0.15477381081E+02 -0.25671288848E+02  0.31886061836E+02  0.00000000000E+00 0. -1.
         11    1    3    3    0    0 -0.39790784208E+00  0.19027699499E+02 -0.97318579691E+01  0.21375704402E+02  0.51100000000E-03 0. -1.
        -11    1    3    3    0    0 -0.35342584458E+01 -0.42849371158E+01  0.86612259352E+01  0.10289242140E+02  0.51100000000E-03 0.  1.
         12    1    3    3    0    0 -0.69378172978E+01  0.73461869777E+00  0.26741920882E+02  0.27636991622E+02  0.00000000000E+00 0. -1.
</event>
<event>
 7    1  0.4673733E-013  0.5930189E+02  0.7816164E-02  0.1266605E+00
        -11   -1    0    0    0    0  0.00000000000E+00  0.00000000000E+00  0.45593999997E+02  0.45594000000E+02  0.51100000000E-03 0.  1.
         11   -1    0    0    0    0 -0.00000000000E+00 -0.00000000000E+00 -0.45593999997E+02  0.45594000000E+02  0.51100000000E-03 0. -1.
    9900012    2    1    2    0    0 -0.26319619577E+02  0.17697777894E+02 -0.32848146959E+01  0.59301894489E+02  0.49999909654E+02 0.  0.
         12    1    1    2    0    0  0.26319619577E+02 -0.17697777894E+02  0.32848146959E+01  0.31886105511E+02  0.00000000000E+00 0. -1.
         11    1    3    3    0    0 -0.92414029809E+01 -0.29892195908E+01  0.15993207337E+02  0.18711537724E+02  0.51100000000E-03 0. -1.
        -11    1    3    3    0    0 -0.12576342326E+02  0.25595941617E+02 -0.12665314200E+02  0.31204595777E+02  0.51100000000E-03 0.  1.
         12    1    3    3    0    0 -0.45018742703E+01 -0.49089441324E+01 -0.66127078333E+01  0.93857609883E+01  0.00000000000E+00 0. -1.
</event>
<event>
 7    1  0.4673733E-013  0.5930196E+02  0.7816164E-02  0.1266605E+00
        -11   -1    0    0    0    0  0.00000000000E+00  0.00000000000E+00  0.45593999997E+02  0.45594000000E+02  0.51100000000E-03 0. -1.
         11   -1    0    0    0    0 -0.00000000000E+00 -0.00000000000E+00 -0.45593999997E+02  0.45594000000E+02  0.51100000000E-03 0.  1.
    9900012    2    1    2    0    0 -0.15107162266E+02 -0.12396064431E+02 -0.25195854568E+02  0.59301955208E+02  0.50000020390E+02 0.  0.
         12    1    1    2    0    0  0.15107162266E+02  0.12396064431E+02  0.25195854568E+02  0.31886044792E+02  0.00000000000E+00 0. -1.
         11    1    3    3    0    0  0.11929554448E+02  0.67400080741E+01 -0.55895116893E+01  0.14798128914E+02  0.51100000000E-03 0. -1.
        -11    1    3    3    0    0 -0.13084788113E+02 -0.21856750076E+02 -0.14995392005E+02  0.29559955776E+02  0.51100000000E-03 0.  1.
         12    1    3    3    0    0 -0.13951928601E+02  0.27206775706E+01 -0.46109508734E+01  0.14943870519E+02  0.00000000000E+00 0. -1.
</event>
<event>
 7    1  0.4673733E-013  0.5930195E+02  0.7816164E-02  0.1266605E+00
        -11   -1    0    0    0    0  0.00000000000E+00  0.00000000000E+00  0.45593999997E+02  0.45594000000E+02  0.51100000000E-03 0. -1.
         11   -1    0    0    0    0 -0.00000000000E+00 -0.00000000000E+00 -0.45593999997E+02  0.45594000000E+02  0.51100000000E-03 0.  1.
    9900012    2    1    2    0    0 -0.31390902299E+02 -0.55948198039E+01 -0.17107813883E+00  0.59301952526E+02  0.50000015499E+02 0.  0.
         12    1    1    2    0    0  0.31390902299E+02  0.55948198039E+01  0.17107813883E+00  0.31886047474E+02  0.00000000000E+00 0. -1.
         11    1    3    3    0    0 -0.19256402470E+01 -0.18211662652E+02  0.36282086361E+01  0.18669136163E+02  0.51100000000E-03 0. -1.
        -11    1    3    3    0    0 -0.39030123596E+01  0.13363232273E+02 -0.55789889458E+01  0.14997819848E+02  0.51100000000E-03 0.  1.
        -12    1    3    3    0    0 -0.25562249692E+02 -0.74638942457E+00  0.17797021709E+01  0.25634996515E+02  0.00000000000E+00 0.  1.
</event>
<event>
 7    1  0.4673733E-013  0.5930193E+02  0.7816164E-02  0.1266605E+00
        -11   -1    0    0    0    0  0.00000000000E+00  0.00000000000E+00  0.45593999997E+02  0.45594000000E+02  0.51100000000E-03 0. -1.
         11   -1    0    0    0    0 -0.00000000000E+00 -0.00000000000E+00 -0.45593999997E+02  0.45594000000E+02  0.51100000000E-03 0.  1.
    9900012    2    1    2    0    0  0.24917394530E+02 -0.18696273358E+02  0.68039729614E+01  0.59301933518E+02  0.49999980832E+02 0.  0.
         12    1    1    2    0    0 -0.24917394530E+02  0.18696273358E+02 -0.68039729614E+01  0.31886066482E+02  0.00000000000E+00 0. -1.
         11    1    3    3    0    0  0.35949466281E+02 -0.13941729418E+02  0.12461307013E+02  0.40521847413E+02  0.51100000000E-03 0. -1.
        -11    1    3    3    0    0 -0.15761113672E+00 -0.40142073355E+01 -0.67195046453E+01  0.78288214146E+01  0.51100000000E-03 0.  1.
         12    1    3    3    0    0 -0.10874460614E+02 -0.74033660491E+00  0.10621705934E+01  0.10951264690E+02  0.00000000000E+00 0. -1.
</event>
<event>
 7    1  0.4673733E-013  0.5930192E+02  0.7816164E-02  0.1266605E+00
        -11   -1    0    0    0    0  0.00000000000E+00  0.00000000000E+00  0.45593999997E+02  0.45594000000E+02  0.51100000000E-03 0.  1.
         11   -1    0    0    0    0 -0.00000000000E+00 -0.00000000000E+00 -0.45593999997E+02  0.45594000000E+02  0.51100000000E-03 0. -1.
    9900012    2    1    2    0    0  0.13725896181E+02  0.26645170331E+02  0.10879185275E+02  0.59301921530E+02  0.49999958970E+02 0.  0.
         12    1    1    2    0    0 -0.13725896181E+02 -0.26645170331E+02 -0.10879185275E+02  0.31886078470E+02  0.00000000000E+00 0. -1.
         11    1    3    3    0    0  0.36902340747E+01 -0.92717828982E+01  0.84548676618E+01  0.13079318525E+02  0.51100000000E-03 0. -1.
        -11    1    3    3    0    0  0.47385205661E+01  0.39459849809E+02  0.27759303523E+01  0.39840169599E+02  0.51100000000E-03 0.  1.
        -12    1    3    3    0    0  0.52971415399E+01 -0.35428965799E+01 -0.35161273937E+00  0.63824334065E+01  0.00000000000E+00 0.  1.
</event>
<event>
 7    1  0.4673733E-013  0.5930193E+02  0.7816164E-02  0.1266605E+00
        -11   -1    0    0    0    0  0.00000000000E+00  0.00000000000E+00  0.45593999997E+02  0.45594000000E+02  0.51100000000E-03 0. -1.
         11   -1    0    0    0    0 -0.00000000000E+00 -0.00000000000E+00 -0.45593999997E+02  0.45594000000E+02  0.51100000000E-03 0.  1.
    9900012    2    1    2    0    0  0.27786452673E+02  0.32516971434E+01 -0.15299053183E+02  0.59301929142E+02  0.49999972853E+02 0.  0.
         12    1    1    2    0    0 -0.27786452673E+02 -0.32516971434E+01  0.15299053183E+02  0.31886070858E+02  0.00000000000E+00 0. -1.
         11    1    3    3    0    0  0.12435702096E+02  0.14418413490E+02  0.59880811336E+01  0.19959820894E+02  0.51100000000E-03 0. -1.
        -11    1    3    3    0    0 -0.62330950687E+01 -0.82158384688E+01 -0.25873098627E+01  0.10632292719E+02  0.51100000000E-03 0.  1.
         12    1    3    3    0    0  0.21583845646E+02 -0.29508778782E+01 -0.18699824453E+02  0.28709815529E+02  0.00000000000E+00 0. -1.
</event>
<event>
 7    1  0.4673733E-013  0.5930195E+02  0.7816164E-02  0.1266605E+00
        -11   -1    0    0    0    0  0.00000000000E+00  0.00000000000E+00  0.45593999997E+02  0.45594000000E+02  0.51100000000E-03 0.  1.
         11   -1    0    0    0    0 -0.00000000000E+00 -0.00000000000E+00 -0.45593999997E+02  0.45594000000E+02  0.51100000000E-03 0. -1.
    9900012    2    1    2    0    0 -0.37452785459E+01 -0.19734861032E+02  0.24763445939E+02  0.59301951231E+02  0.50000013137E+02 0.  0.
         12    1    1    2    0    0  0.37452785459E+01  0.19734861032E+02 -0.24763445939E+02  0.31886048769E+02  0.00000000000E+00 0. -1.
         11    1    3    3    0    0  0.13302275337E+02 -0.14631707465E+01  0.71238914769E+01  0.15160515420E+02  0.51100000000E-03 0. -1.
        -11    1    3    3    0    0 -0.14202570759E+02  0.57715338549E+01  0.23571337885E+01  0.15510631811E+02  0.51100000000E-03 0.  1.
         12    1    3    3    0    0 -0.28449831232E+01 -0.24043224141E+02  0.15282420673E+02  0.28630804000E+02  0.00000000000E+00 0. -1.
</event>
<event>
 7    1  0.4673733E-013  0.5930194E+02  0.7816164E-02  0.1266605E+00
        -11   -1    0    0    0    0  0.00000000000E+00  0.00000000000E+00  0.45593999997E+02  0.45594000000E+02  0.51100000000E-03 0.  1.
         11   -1    0    0    0    0 -0.00000000000E+00 -0.00000000000E+00 -0.45593999997E+02  0.45594000000E+02  0.51100000000E-03 0. -1.
    9900012    2    1    2    0    0  0.21513521615E+02  0.21923456833E+02  0.85587016068E+01  0.59301938076E+02  0.49999989146E+02 0.  0.
         12    1    1    2    0    0 -0.21513521615E+02 -0.21923456833E+02 -0.85587016068E+01  0.31886061924E+02  0.00000000000E+00 0. -1.
         11    1    3    3    0    0  0.17141645100E+02  0.20968005083E+01 -0.59818493235E+01  0.18276079741E+02  0.51100000000E-03 0. -1.
        -11    1    3    3    0    0 -0.43495678169E+00 -0.16473152794E+01  0.18575608917E+02  0.18653580941E+02  0.51100000000E-03 0.  1.
        -12    1    3    3    0    0  0.48068332970E+01  0.21473971605E+02 -0.40350579869E+01  0.22372277394E+02  0.00000000000E+00 0.  1.
</event>
<event>
 7    1  0.4673733E-013  0.5930193E+02  0.7816164E-02  0.1266605E+00
        -11   -1    0    0    0    0  0.00000000000E+00  0.00000000000E+00  0.45593999997E+02  0.45594000000E+02  0.51100000000E-03 0.  1.
         11   -1    0    0    0    0 -0.00000000000E+00 -0.00000000000E+00 -0.45593999997E+02  0.45594000000E+02  0.51100000000E-03 0. -1.
    9900012    2    1    2    0    0  0.40178150854E+01 -0.85106604187E+01  0.30465510317E+02  0.59301929410E+02  0.49999973340E+02 0.  0.
         12    1    1    2    0    0 -0.40178150854E+01  0.85106604187E+01 -0.30465510317E+02  0.31886070590E+02  0.00000000000E+00 0. -1.
         11    1    3    3    0    0 -0.27964492357E+01  0.25995573473E+01  0.95257305277E+01  0.10262425107E+02  0.51100000000E-03 0. -1.
        -11    1    3    3    0    0  0.19470863779E+02 -0.34335649327E+01  0.26641716896E+02  0.33176572817E+02  0.51100000000E-03 0.  1.
        -12    1    3    3    0    0 -0.12656599458E+02 -0.76766528333E+01 -0.57019371064E+01  0.15862931486E+02  0.00000000000E+00 0.  1.
</event>
<event>
 7    1  0.4673733E-013  0.5930197E+02  0.7816164E-02  0.1266605E+00
        -11   -1    0    0    0    0  0.00000000000E+00  0.00000000000E+00  0.45593999997E+02  0.45594000000E+02  0.51100000000E-03 0.  1.
         11   -1    0    0    0    0 -0.00000000000E+00 -0.00000000000E+00 -0.45593999997E+02  0.45594000000E+02  0.51100000000E-03 0. -1.
    9900012    2    1    2    0    0  0.14998972766E+02 -0.47188802698E+01  0.27739542049E+02  0.59301965312E+02  0.50000038818E+02 0.  0.
         12    1    1    2    0    0 -0.14998972766E+02  0.47188802698E+01 -0.27739542049E+02  0.31886034688E+02  0.00000000000E+00 0. -1.
         11    1    3    3    0    0 -0.23588553485E+01 -0.21527259673E+01 -0.44572329381E+01  0.54831882488E+01  0.51100000000E-03 0. -1.
        -11    1    3    3    0    0  0.15287228363E+02  0.11216939811E+02  0.34809147852E+02  0.39638313085E+02  0.51100000000E-03 0.  1.
        -12    1    3    3    0    0  0.20705997509E+01 -0.13783094113E+02 -0.26123728653E+01  0.14180463979E+02  0.00000000000E+00 0.  1.
</event>
<event>
 7    1  0.4673733E-013  0.5930195E+02  0.7816164E-02  0.1266605E+00
        -11   -1    0    0    0    0  0.00000000000E+00  0.00000000000E+00  0.45593999997E+02  0.45594000000E+02  0.51100000000E-03 0. -1.
         11   -1    0    0    0    0 -0.00000000000E+00 -0.00000000000E+00 -0.45593999997E+02  0.45594000000E+02  0.51100000000E-03 0.  1.
    9900012    2    1    2    0    0 -0.97285900453E+01  0.23244459758E+02 -0.19538936576E+02  0.59301946368E+02  0.50000004267E+02 0.  0.
         12    1    1    2    0    0  0.97285900453E+01 -0.23244459758E+02  0.19538936576E+02  0.31886053632E+02  0.00000000000E+00 0. -1.
         11    1    3    3    0    0 -0.35964196363E+01 -0.92367893532E+01  0.41691226534E+01  0.10753329518E+02  0.51100000000E-03 0. -1.
        -11    1    3    3    0    0  0.55312651545E+01  0.27247473521E+02 -0.22388403878E+02  0.35696783272E+02  0.51100000000E-03 0.  1.
        -12    1    3    3    0    0 -0.11663435564E+02  0.52337755910E+01 -0.13196553512E+01  0.12851833578E+02  0.00000000000E+00 0.  1.
</event>
<event>
 7    1  0.4673733E-013  0.5930198E+02  0.7816164E-02  0.1266605E+00
        -11   -1    0    0    0    0  0.00000000000E+00  0.00000000000E+00  0.45593999997E+02  0.45594000000E+02  0.51100000000E-03 0.  1.
         11   -1    0    0    0    0 -0.00000000000E+00 -0.00000000000E+00 -0.45593999997E+02  0.45594000000E+02  0.51100000000E-03 0. -1.
    9900012    2    1    2    0    0  0.30823865785E+02  0.47036402151E+01 -0.66695751510E+01  0.59301981655E+02  0.50000068623E+02 0.  0.
         12    1    1    2    0    0 -0.30823865785E+02 -0.47036402151E+01  0.66695751510E+01  0.31886018345E+02  0.00000000000E+00 0. -1.
         11    1    3    3    0    0 -0.11847488860E+02  0.36664397590E+00 -0.18440789178E+01  0.11995751223E+02  0.51100000000E-03 0. -1.
        -11    1    3    3    0    0  0.21433824608E+02  0.11867310325E+02 -0.17192129675E+01  0.24560081131E+02  0.51100000000E-03 0.  1.
         12    1    3    3    0    0  0.21237530036E+02 -0.75303140856E+01 -0.31062832657E+01  0.22746149301E+02  0.00000000000E+00 0. -1.
</event>
<event>
 7    1  0.4673733E-013  0.5930190E+02  0.7816164E-02  0.1266605E+00
        -11   -1    0    0    0    0  0.00000000000E+00  0.00000000000E+00  0.45593999997E+02  0.45594000000E+02  0.51100000000E-03 0.  1.
         11   -1    0    0    0    0 -0.00000000000E+00 -0.00000000000E+00 -0.45593999997E+02  0.45594000000E+02  0.51100000000E-03 0. -1.
    9900012    2    1    2    0    0 -0.31353208096E+01 -0.51485341818E+01  0.31311109350E+02  0.59301902567E+02  0.49999924385E+02 0.  0.
         12    1    1    2    0    0  0.31353208096E+01  0.51485341818E+01 -0.31311109350E+02  0.31886097433E+02  0.00000000000E+00 0. -1.
         11    1    3    3    0    0 -0.14961518263E+02 -0.12021164843E+02  0.17872271388E+02  0.26225436464E+02  0.51100000000E-03 0. -1.
        -11    1    3    3    0    0  0.18312223317E+02  0.10616747227E+02  0.49157911722E+01  0.21730574029E+02  0.51100000000E-03 0.  1.
        -12    1    3    3    0    0 -0.64860258636E+01 -0.37441165662E+01  0.85230467899E+01  0.11345892074E+02  0.00000000000E+00 0.  1.
</event>
<event>
 7    1  0.4673733E-013  0.5930193E+02  0.7816164E-02  0.1266605E+00
        -11   -1    0    0    0    0  0.00000000000E+00  0.00000000000E+00  0.45593999997E+02  0.45594000000E+02  0.51100000000E-03 0.  1.
         11   -1    0    0    0    0 -0.00000000000E+00 -0.00000000000E+00 -0.45593999997E+02  0.45594000000E+02  0.51100000000E-03 0. -1.
    9900012    2    1    2    0    0 -0.21034432525E+02 -0.20676229084E+02  0.12114764908E+02  0.59301932046E+02  0.49999978149E+02 0.  0.
         12    1    1    2    0    0  0.21034432525E+02  0.20676229084E+02 -0.12114764908E+02  0.31886067954E+02  0.00000000000E+00 0. -1.
         11    1    3    3    0    0  0.75543018034E+01 -0.97093116826E+01 -0.11059117991E+02  0.16542137107E+02  0.51100000000E-03 0. -1.
        -11    1    3    3    0    0 -0.66593133061E+01  0.53918661398E+01  0.59209645775E+01  0.10415205037E+02  0.51100000000E-03 0.  1.
         12    1    3    3    0    0 -0.21929421022E+02 -0.16358783541E+02  0.17252918321E+02  0.32344589902E+02  0.00000000000E+00 0. -1.
</event>
<event>
 7    1  0.4673733E-013  0.5930195E+02  0.7816164E-02  0.1266605E+00
        -11   -1    0    0    0    0  0.00000000000E+00  0.00000000000E+00  0.45593999997E+02  0.45594000000E+02  0.51100000000E-03 0.  1.
         11   -1    0    0    0    0 -0.00000000000E+00 -0.00000000000E+00 -0.45593999997E+02  0.45594000000E+02  0.51100000000E-03 0. -1.
    9900012    2    1    2    0    0  0.24604285243E+02  0.11053361198E+02  0.17005072619E+02  0.59301950686E+02  0.50000012143E+02 0.  0.
         12    1    1    2    0    0 -0.24604285243E+02 -0.11053361198E+02 -0.17005072619E+02  0.31886049314E+02  0.00000000000E+00 0. -1.
         11    1    3    3    0    0  0.25518242387E+02 -0.11477161187E+01  0.19737604589E+02  0.32281124237E+02  0.51100000000E-03 0. -1.
        -11    1    3    3    0    0 -0.64972205450E+01  0.75437429249E+01  0.88662210273E+01  0.13331609344E+02  0.51100000000E-03 0.  1.
         12    1    3    3    0    0  0.55832634011E+01  0.46573343921E+01 -0.11598752998E+02  0.13689217105E+02  0.00000000000E+00 0. -1.
</event>
<event>
 7    1  0.4673733E-013  0.5930199E+02  0.7816164E-02  0.1266605E+00
        -11   -1    0    0    0    0  0.00000000000E+00  0.00000000000E+00  0.45593999997E+02  0.45594000000E+02  0.51100000000E-03 0.  1.
         11   -1    0    0    0    0 -0.00000000000E+00 -0.00000000000E+00 -0.45593999997E+02  0.45594000000E+02  0.51100000000E-03 0. -1.
    9900012    2    1    2    0    0  0.77030473259E+01  0.30898477039E+02 -0.16324171440E+01  0.59301990416E+02  0.50000084602E+02 0.  0.
         12    1    1    2    0    0 -0.77030473259E+01 -0.30898477039E+02  0.16324171440E+01  0.31886009584E+02  0.00000000000E+00 0. -1.
         11    1    3    3    0    0  0.14376976573E+02 -0.57441083343E+01 -0.48826395614E+01  0.16233681200E+02  0.51100000000E-03 0. -1.
        -11    1    3    3    0    0 -0.51956517610E+01  0.23669011223E+02  0.12305678469E+02  0.27178053873E+02  0.51100000000E-03 0.  1.
        -12    1    3    3    0    0 -0.14782774863E+01  0.12973574151E+02 -0.90554560520E+01  0.15890255344E+02  0.00000000000E+00 0.  1.
</event>
<event>
 7    1  0.4673733E-013  0.5930190E+02  0.7816164E-02  0.1266605E+00
        -11   -1    0    0    0    0  0.00000000000E+00  0.00000000000E+00  0.45593999997E+02  0.45594000000E+02  0.51100000000E-03 0. -1.
         11   -1    0    0    0    0 -0.00000000000E+00 -0.00000000000E+00 -0.45593999997E+02  0.45594000000E+02  0.51100000000E-03 0.  1.
    9900012    2    1    2    0    0 -0.47857510243E+01 -0.15714591927E+02 -0.27328951044E+02  0.59301899934E+02  0.49999919583E+02 0.  0.
         12    1    1    2    0    0  0.47857510243E+01  0.15714591927E+02  0.27328951044E+02  0.31886100066E+02  0.00000000000E+00 0. -1.
         11    1    3    3    0    0  0.13932851465E+02 -0.11955590925E+02 -0.25653405861E+02  0.31546120789E+02  0.51100000000E-03 0. -1.
        -11    1    3    3    0    0 -0.83188427542E+01 -0.86763634383E+01  0.64789676114E+01  0.13655015520E+02  0.51100000000E-03 0.  1.
        -12    1    3    3    0    0 -0.10399759735E+02  0.49173624362E+01 -0.81545127942E+01  0.14100763624E+02  0.00000000000E+00 0.  1.
</event>
<event>
 7    1  0.4673733E-013  0.5930194E+02  0.7816164E-02  0.1266605E+00
        -11   -1    0    0    0    0  0.00000000000E+00  0.00000000000E+00  0.45593999997E+02  0.45594000000E+02  0.51100000000E-03 0.  1.
         11   -1    0    0    0    0 -0.00000000000E+00 -0.00000000000E+00 -0.45593999997E+02  0.45594000000E+02  0.51100000000E-03 0. -1.
    9900012    2    1    2    0    0  0.10911017494E+02  0.23558715478E+02  0.18511012621E+02  0.59301937747E+02  0.49999988546E+02 0.  0.
         12    1    1    2    0    0 -0.10911017494E+02 -0.23558715478E+02 -0.18511012621E+02  0.31886062253E+02  0.00000000000E+00 0. -1.
         11    1    3    3    0    0  0.22995153970E+02  0.97990901254E+01  0.30017632842E+01  0.25175580559E+02  0.51100000000E-03 0. -1.
        -11    1    3    3    0    0 -0.58305502123E+01  0.14680971759E+02  0.20635773759E+02  0.25987716454E+02  0.51100000000E-03 0.  1.
         12    1    3    3    0    0 -0.62535862637E+01 -0.92134640657E+00 -0.51265244222E+01  0.81386407348E+01  0.00000000000E+00 0. -1.
</event>
<event>
 7    1  0.4673733E-013  0.5930195E+02  0.7816164E-02  0.1266605E+00
        -11   -1    0    0    0    0  0.00000000000E+00  0.00000000000E+00  0.45593999997E+02  0.45594000000E+02  0.51100000000E-03 0. -1.
         11   -1    0    0    0    0 -0.00000000000E+00 -0.00000000000E+00 -0.45593999997E+02  0.45594000000E+02  0.51100000000E-03 0.  1.
    9900012    2    1    2    0    0  0.28050705751E+02  0.11680860059E+02 -0.96661958605E+01  0.59301954035E+02  0.50000018251E+02 0.  0.
         12    1    1    2    0    0 -0.28050705751E+02 -0.11680860059E+02  0.96661958605E+01  0.31886045965E+02  0.00000000000E+00 0. -1.
         11    1    3    3    0    0  0.14406733510E+02  0.27275882644E+02  0.49789088726E+01  0.31246076206E+02  0.51100000000E-03 0.  1.
        -11    1    3    3    0    0  0.11665984719E+02 -0.16034787449E+02 -0.84805743888E+01  0.21566866954E+02  0.51100000000E-03 0. -1.
        -12    1    3    3    0    0  0.19779875221E+01  0.43976486359E+00 -0.61645303443E+01  0.64890108752E+01  0.00000000000E+00 0.  1.
</event>
<event>
 7    1  0.4673733E-013  0.5930192E+02  0.7816164E-02  0.1266605E+00
        -11   -1    0    0    0    0  0.00000000000E+00  0.00000000000E+00  0.45593999997E+02  0.45594000000E+02  0.51100000000E-03 0.  1.
         11   -1    0    0    0    0 -0.00000000000E+00 -0.00000000000E+00 -0.45593999997E+02  0.45594000000E+02  0.51100000000E-03 0. -1.
    9900012    2    1    2    0    0 -0.14930740594E+02 -0.51417168727E+01  0.27701222620E+02  0.59301921506E+02  0.49999958926E+02 0.  0.
         12    1    1    2    0    0  0.14930740594E+02  0.51417168727E+01 -0.27701222620E+02  0.31886078494E+02  0.00000000000E+00 0. -1.
         11    1    3    3    0    0  0.58444269715E+01 -0.20170425630E+01 -0.42566176925E+01  0.75063028029E+01  0.51100000000E-03 0. -1.
        -11    1    3    3    0    0 -0.10925914901E+02  0.76946056341E+01  0.34452564405E+02  0.36953508178E+02  0.51100000000E-03 0.  1.
         12    1    3    3    0    0 -0.98492526643E+01 -0.10819279944E+02 -0.24947240925E+01  0.14842110525E+02  0.00000000000E+00 0. -1.
</event>
<event>
 7    1  0.4673733E-013  0.5930192E+02  0.7816164E-02  0.1266605E+00
        -11   -1    0    0    0    0  0.00000000000E+00  0.00000000000E+00  0.45593999997E+02  0.45594000000E+02  0.51100000000E-03 0.  1.
         11   -1    0    0    0    0 -0.00000000000E+00 -0.00000000000E+00 -0.45593999997E+02  0.45594000000E+02  0.51100000000E-03 0. -1.
    9900012    2    1    2    0    0  0.23385013390E+02  0.20242678379E+02  0.77522514890E+01  0.59301917106E+02  0.49999950901E+02 0.  0.
         12    1    1    2    0    0 -0.23385013390E+02 -0.20242678379E+02 -0.77522514890E+01  0.31886082894E+02  0.00000000000E+00 0. -1.
         11    1    3    3    0    0  0.31451048435E+01  0.59602312020E+01 -0.11052665068E+02  0.12945170753E+02  0.51100000000E-03 0. -1.
        -11    1    3    3    0    0 -0.19938960005E+01  0.19434495552E+02  0.92192376409E+01  0.21602536461E+02  0.51100000000E-03 0.  1.
        -12    1    3    3    0    0  0.22233804547E+02 -0.51520483748E+01  0.95856789162E+01  0.24754209892E+02  0.00000000000E+00 0.  1.
</event>
<event>
 7    1  0.4673733E-013  0.5930194E+02  0.7816164E-02  0.1266605E+00
        -11   -1    0    0    0    0  0.00000000000E+00  0.00000000000E+00  0.45593999997E+02  0.45594000000E+02  0.51100000000E-03 0. -1.
         11   -1    0    0    0    0 -0.00000000000E+00 -0.00000000000E+00 -0.45593999997E+02  0.45594000000E+02  0.51100000000E-03 0.  1.
    9900012    2    1    2    0    0  0.27126286917E+02 -0.16382427657E+02 -0.35357643537E+01  0.59301937097E+02  0.49999987361E+02 0.  0.
         12    1    1    2    0    0 -0.27126286917E+02  0.16382427657E+02  0.35357643537E+01  0.31886062903E+02  0.00000000000E+00 0. -1.
         11    1    3    3    0    0  0.56997122773E+01  0.71996646112E+01 -0.68576270790E+01  0.11460756518E+02  0.51100000000E-03 0. -1.
        -11    1    3    3    0    0  0.84114388451E+01 -0.27264544145E+02 -0.86111582037E+01  0.29803686294E+02  0.51100000000E-03 0.  1.
        -12    1    3    3    0    0  0.13015135795E+02  0.36824518763E+01  0.11933020929E+02  0.18037494285E+02  0.00000000000E+00 0.  1.
</event>
<event>
 7    1  0.4673733E-013  0.5930196E+02  0.7816164E-02  0.1266605E+00
        -11   -1    0    0    0    0  0.00000000000E+00  0.00000000000E+00  0.45593999997E+02  0.45594000000E+02  0.51100000000E-03 0.  1.
         11   -1    0    0    0    0 -0.00000000000E+00 -0.00000000000E+00 -0.45593999997E+02  0.45594000000E+02  0.51100000000E-03 0. -1.
    9900012    2    1    2    0    0  0.63638330260E+01 -0.46049072972E+01  0.30903336177E+02  0.59301957146E+02  0.50000023925E+02 0.  0.
         12    1    1    2    0    0 -0.63638330260E+01  0.46049072972E+01 -0.30903336177E+02  0.31886042854E+02  0.00000000000E+00 0. -1.
         11    1    3    3    0    0  0.21709882237E+02 -0.83365389471E+01  0.28363589614E+02  0.36678468948E+02  0.51100000000E-03 0. -1.
        -11    1    3    3    0    0 -0.40272890554E+01  0.70806819778E+01  0.62312251165E+01  0.10255890070E+02  0.51100000000E-03 0.  1.
         12    1    3    3    0    0 -0.11318760155E+02 -0.33490503279E+01 -0.36914785534E+01  0.12367598128E+02  0.00000000000E+00 0. -1.
</event>
<event>
 7    1  0.4673733E-013  0.5930195E+02  0.7816164E-02  0.1266605E+00
        -11   -1    0    0    0    0  0.00000000000E+00  0.00000000000E+00  0.45593999997E+02  0.45594000000E+02  0.51100000000E-03 0.  1.
         11   -1    0    0    0    0 -0.00000000000E+00 -0.00000000000E+00 -0.45593999997E+02  0.45594000000E+02  0.51100000000E-03 0. -1.
    9900012    2    1    2    0    0 -0.74055096418E+01  0.17080540345E+02  0.25886946436E+02  0.59301946194E+02  0.50000003952E+02 0.  0.
         12    1    1    2    0    0  0.74055096418E+01 -0.17080540345E+02 -0.25886946436E+02  0.31886053806E+02  0.00000000000E+00 0. -1.
         11    1    3    3    0    0  0.33740000927E+01  0.28196747070E+02  0.19391500563E+01  0.28464025105E+02  0.51100000000E-03 0. -1.
        -11    1    3    3    0    0 -0.80194523333E+01 -0.48086155504E+01  0.21644348000E+02  0.23577790394E+02  0.51100000000E-03 0.  1.
         12    1    3    3    0    0 -0.27600574013E+01 -0.63075911750E+01  0.23034483794E+01  0.72601306962E+01  0.00000000000E+00 0. -1.
</event>
<event>
 7    1  0.4673733E-013  0.5930197E+02  0.7816164E-02  0.1266605E+00
        -11   -1    0    0    0    0  0.00000000000E+00  0.00000000000E+00  0.45593999997E+02  0.45594000000E+02  0.51100000000E-03 0. -1.
         11   -1    0    0    0    0 -0.00000000000E+00 -0.00000000000E+00 -0.45593999997E+02  0.45594000000E+02  0.51100000000E-03 0.  1.
    9900012    2    1    2    0    0 -0.30833484197E+02 -0.78834751259E+01  0.19662548813E+01  0.59301967226E+02  0.50000042308E+02 0.  0.
         12    1    1    2    0    0  0.30833484197E+02  0.78834751259E+01 -0.19662548813E+01  0.31886032774E+02  0.00000000000E+00 0. -1.
         11    1    3    3    0    0 -0.23271583443E+02 -0.12326124959E+02 -0.12013427706E+02  0.28945161910E+02  0.51100000000E-03 0.  1.
        -11    1    3    3    0    0 -0.14834754414E+02  0.14377739819E+01  0.16364266677E+02  0.22134280126E+02  0.51100000000E-03 0. -1.
         12    1    3    3    0    0  0.72728536596E+01  0.30048758513E+01 -0.23845840896E+01  0.82225251910E+01  0.00000000000E+00 0. -1.
</event>
<event>
 7    1  0.4673733E-013  0.5930193E+02  0.7816164E-02  0.1266605E+00
        -11   -1    0    0    0    0  0.00000000000E+00  0.00000000000E+00  0.45593999997E+02  0.45594000000E+02  0.51100000000E-03 0.  1.
         11   -1    0    0    0    0 -0.00000000000E+00 -0.00000000000E+00 -0.45593999997E+02  0.45594000000E+02  0.51100000000E-03 0. -1.
    9900012    2    1    2    0    0  0.15839319484E+02  0.22880482964E+02  0.15566651424E+02  0.59301934408E+02  0.49999982456E+02 0.  0.
         12    1    1    2    0    0 -0.15839319484E+02 -0.22880482964E+02 -0.15566651424E+02  0.31886065592E+02  0.00000000000E+00 0. -1.
         11    1    3    3    0    0 -0.10302637006E+02  0.15940764521E+02 -0.34084553065E+01  0.19283927780E+02  0.51100000000E-03 0. -1.
        -11    1    3    3    0    0  0.16984968307E+02 -0.57184208307E+01  0.16183839504E+02  0.24147590906E+02  0.51100000000E-03 0.  1.
         12    1    3    3    0    0  0.91569881828E+01  0.12658139274E+02  0.27912672267E+01  0.15870415722E+02  0.00000000000E+00 0. -1.
</event>
<event>
 7    1  0.4673733E-013  0.5930197E+02  0.7816164E-02  0.1266605E+00
        -11   -1    0    0    0    0  0.00000000000E+00  0.00000000000E+00  0.45593999997E+02  0.45594000000E+02  0.51100000000E-03 0.  1.
         11   -1    0    0    0    0 -0.00000000000E+00 -0.00000000000E+00 -0.45593999997E+02  0.45594000000E+02  0.51100000000E-03 0. -1.
    9900012    2    1    2    0    0 -0.28292467830E+02 -0.70112254208E+01  0.12926636499E+02  0.59301969375E+02  0.50000046227E+02 0.  0.
         12    1    1    2    0    0  0.28292467830E+02  0.70112254208E+01 -0.12926636499E+02  0.31886030625E+02  0.00000000000E+00 0. -1.
         11    1    3    3    0    0 -0.18464993469E+02 -0.43283725883E+00  0.28467469820E+02  0.33934350887E+02  0.51100000000E-03 0. -1.
        -11    1    3    3    0    0 -0.12643080372E+02  0.54137839838E-01 -0.81311131338E+01  0.15032145996E+02  0.51100000000E-03 0.  1.
         12    1    3    3    0    0  0.28156060104E+01 -0.66325260018E+01 -0.74097201874E+01  0.10335472492E+02  0.00000000000E+00 0. -1.
</event>
<event>
 7    1  0.4673733E-013  0.5930197E+02  0.7816164E-02  0.1266605E+00
        -11   -1    0    0    0    0  0.00000000000E+00  0.00000000000E+00  0.45593999997E+02  0.45594000000E+02  0.51100000000E-03 0.  1.
         11   -1    0    0    0    0 -0.00000000000E+00 -0.00000000000E+00 -0.45593999997E+02  0.45594000000E+02  0.51100000000E-03 0. -1.
    9900012    2    1    2    0    0 -0.19900978518E+02 -0.18282841152E+02  0.16923588759E+02  0.59301967274E+02  0.50000042396E+02 0.  0.
         12    1    1    2    0    0  0.19900978518E+02  0.18282841152E+02 -0.16923588759E+02  0.31886032726E+02  0.00000000000E+00 0. -1.
         11    1    3    3    0    0 -0.82757451773E+01  0.15782026639E+02  0.39940557779E+01  0.18262332954E+02  0.51100000000E-03 0.  1.
        -11    1    3    3    0    0 -0.14222067384E+02 -0.33350558527E+02  0.12030512602E+02  0.38200264246E+02  0.51100000000E-03 0. -1.
        -12    1    3    3    0    0  0.25968340440E+01 -0.71430926400E+00  0.89902037838E+00  0.28393700741E+01  0.00000000000E+00 0.  1.
</event>
<event>
 7    1  0.4673733E-013  0.5930194E+02  0.7816164E-02  0.1266605E+00
        -11   -1    0    0    0    0  0.00000000000E+00  0.00000000000E+00  0.45593999997E+02  0.45594000000E+02  0.51100000000E-03 0.  1.
         11   -1    0    0    0    0 -0.00000000000E+00 -0.00000000000E+00 -0.45593999997E+02  0.45594000000E+02  0.51100000000E-03 0. -1.
    9900012    2    1    2    0    0  0.67158930776E+01 -0.12462609930E+02  0.28570982907E+02  0.59301938306E+02  0.49999989565E+02 0.  0.
         12    1    1    2    0    0 -0.67158930776E+01  0.12462609930E+02 -0.28570982907E+02  0.31886061694E+02  0.00000000000E+00 0. -1.
         11    1    3    3    0    0 -0.43042528459E+01 -0.75260028032E+01 -0.95850606766E+01  0.12924422586E+02  0.51100000000E-03 0. -1.
        -11    1    3    3    0    0  0.13670686788E+02 -0.33292413473E+01  0.82485706157E+01  0.16309826568E+02  0.51100000000E-03 0.  1.
         12    1    3    3    0    0 -0.26505408649E+01 -0.16073657797E+01  0.29907472967E+02  0.30067689152E+02  0.00000000000E+00 0. -1.
</event>
<event>
 7    1  0.4673733E-013  0.5930194E+02  0.7816164E-02  0.1266605E+00
        -11   -1    0    0    0    0  0.00000000000E+00  0.00000000000E+00  0.45593999997E+02  0.45594000000E+02  0.51100000000E-03 0.  1.
         11   -1    0    0    0    0 -0.00000000000E+00 -0.00000000000E+00 -0.45593999997E+02  0.45594000000E+02  0.51100000000E-03 0. -1.
    9900012    2    1    2    0    0 -0.20858741893E+02 -0.68201413186E+01  0.23132646625E+02  0.59301940650E+02  0.49999993840E+02 0.  0.
         12    1    1    2    0    0  0.20858741893E+02  0.68201413186E+01 -0.23132646625E+02  0.31886059350E+02  0.00000000000E+00 0. -1.
         11    1    3    3    0    0  0.51325804206E+01 -0.99585009581E+01  0.16251484460E+02  0.19738942994E+02  0.51100000000E-03 0. -1.
        -11    1    3    3    0    0  0.22209778677E+01  0.80629053041E+01 -0.35474431552E+01  0.90844668436E+01  0.51100000000E-03 0.  1.
        -12    1    3    3    0    0 -0.28212300182E+02 -0.49245456646E+01  0.10428605320E+02  0.30478530812E+02  0.00000000000E+00 0.  1.
</event>
<event>
 7    1  0.4673733E-013  0.5930194E+02  0.7816164E-02  0.1266605E+00
        -11   -1    0    0    0    0  0.00000000000E+00  0.00000000000E+00  0.45593999997E+02  0.45594000000E+02  0.51100000000E-03 0.  1.
         11   -1    0    0    0    0 -0.00000000000E+00 -0.00000000000E+00 -0.45593999997E+02  0.45594000000E+02  0.51100000000E-03 0. -1.
    9900012    2    1    2    0    0 -0.78384443558E+01  0.26431652934E+02  0.16020225005E+02  0.59301935709E+02  0.49999984829E+02 0.  0.
         12    1    1    2    0    0  0.78384443558E+01 -0.26431652934E+02 -0.16020225005E+02  0.31886064291E+02  0.00000000000E+00 0. -1.
         11    1    3    3    0    0 -0.19224421314E+02  0.19876164130E+02  0.23651169574E+02  0.36387059483E+02  0.51100000000E-03 0.  1.
        -11    1    3    3    0    0  0.15506808335E+02  0.58045077473E+01 -0.32875849165E+01  0.16880806550E+02  0.51100000000E-03 0. -1.
         12    1    3    3    0    0 -0.41208313772E+01  0.75098105618E+00 -0.43433596520E+01  0.60340696758E+01  0.00000000000E+00 0. -1.
</event>
<event>
 7    1  0.4673733E-013  0.5930194E+02  0.7816164E-02  0.1266605E+00
        -11   -1    0    0    0    0  0.00000000000E+00  0.00000000000E+00  0.45593999997E+02  0.45594000000E+02  0.51100000000E-03 0.  1.
         11   -1    0    0    0    0 -0.00000000000E+00 -0.00000000000E+00 -0.45593999997E+02  0.45594000000E+02  0.51100000000E-03 0. -1.
    9900012    2    1    2    0    0 -0.25680548116E+02 -0.18900521399E+02  0.18696726030E-01  0.59301943325E+02  0.49999998719E+02 0.  0.
         12    1    1    2    0    0  0.25680548116E+02  0.18900521399E+02 -0.18696726030E-01  0.31886056675E+02  0.00000000000E+00 0. -1.
         11    1    3    3    0    0  0.37231785301E+01  0.59263754067E+01  0.17141747249E+01  0.72057184983E+01  0.51100000000E-03 0. -1.
        -11    1    3    3    0    0 -0.72756980158E+01 -0.23099865479E+02 -0.12673718494E+02  0.27334277153E+02  0.51100000000E-03 0.  1.
         12    1    3    3    0    0 -0.22128028630E+02 -0.17270313275E+01  0.10978240495E+02  0.24761947674E+02  0.00000000000E+00 0. -1.
</event>
<event>
 7    1  0.4673733E-013  0.5930195E+02  0.7816164E-02  0.1266605E+00
        -11   -1    0    0    0    0  0.00000000000E+00  0.00000000000E+00  0.45593999997E+02  0.45594000000E+02  0.51100000000E-03 0.  1.
         11   -1    0    0    0    0 -0.00000000000E+00 -0.00000000000E+00 -0.45593999997E+02  0.45594000000E+02  0.51100000000E-03 0. -1.
    9900012    2    1    2    0    0  0.35763399275E+01 -0.23415064088E+02  0.21346298487E+02  0.59301954579E+02  0.50000019243E+02 0.  0.
         12    1    1    2    0    0 -0.35763399275E+01  0.23415064088E+02 -0.21346298487E+02  0.31886045421E+02  0.00000000000E+00 0. -1.
         11    1    3    3    0    0 -0.16600567474E+02  0.36134491943E+01  0.10322758263E+02  0.19879516945E+02  0.51100000000E-03 0. -1.
        -11    1    3    3    0    0  0.20068155281E+02 -0.21885721882E+02  0.29371533144E+01  0.29838608354E+02  0.51100000000E-03 0.  1.
        -12    1    3    3    0    0  0.10875212071E+00 -0.51427914000E+01  0.80863869096E+01  0.95838292795E+01  0.00000000000E+00 0.  1.
</event>
<event>
 7    1  0.4673733E-013  0.5930194E+02  0.7816164E-02  0.1266605E+00
        -11   -1    0    0    0    0  0.00000000000E+00  0.00000000000E+00  0.45593999997E+02  0.45594000000E+02  0.51100000000E-03 0.  1.
         11   -1    0    0    0    0 -0.00000000000E+00 -0.00000000000E+00 -0.45593999997E+02  0.45594000000E+02  0.51100000000E-03 0. -1.
    9900012    2    1    2    0    0  0.42991622096E+01  0.25980499013E+02  0.17979200745E+02  0.59301940599E+02  0.49999993748E+02 0.  0.
         12    1    1    2    0    0 -0.42991622096E+01 -0.25980499013E+02 -0.17979200745E+02  0.31886059401E+02  0.00000000000E+00 0. -1.
         11    1    3    3    0    0  0.87007219508E+01  0.73166072506E+01  0.42086476025E+01  0.12122211804E+02  0.51100000000E-03 0. -1.
        -11    1    3    3    0    0 -0.20198786397E+02  0.20643183288E+02  0.11548549208E+02  0.31104677739E+02  0.51100000000E-03 0.  1.
        -12    1    3    3    0    0  0.15797226656E+02 -0.19792915256E+01  0.22220039341E+01  0.16075051056E+02  0.00000000000E+00 0.  1.
</event>
<event>
 7    1  0.4673733E-013  0.5930196E+02  0.7816164E-02  0.1266605E+00
        -11   -1    0    0    0    0  0.00000000000E+00  0.00000000000E+00  0.45593999997E+02  0.45594000000E+02  0.51100000000E-03 0.  1.
         11   -1    0    0    0    0 -0.00000000000E+00 -0.00000000000E+00 -0.45593999997E+02  0.45594000000E+02  0.51100000000E-03 0. -1.
    9900012    2    1    2    0    0 -0.61976727514E+00 -0.90394168332E+01  0.30571629529E+02  0.59301957596E+02  0.50000024744E+02 0.  0.
         12    1    1    2    0    0  0.61976727514E+00  0.90394168332E+01 -0.30571629529E+02  0.31886042404E+02  0.00000000000E+00 0. -1.
         11    1    3    3    0    0  0.89164506471E+01 -0.77669967061E+01  0.11133128930E+01  0.11877238561E+02  0.51100000000E-03 0. -1.
        -11    1    3    3    0    0 -0.20608764011E+02  0.46623132457E+01  0.80667828550E+01  0.22617057827E+02  0.51100000000E-03 0.  1.
        -12    1    3    3    0    0  0.11072546089E+02 -0.59347333728E+01  0.21391533781E+02  0.24807661208E+02  0.00000000000E+00 0.  1.
</event>
<event>
 7    1  0.4673733E-013  0.5930193E+02  0.7816164E-02  0.1266605E+00
        -11   -1    0    0    0    0  0.00000000000E+00  0.00000000000E+00  0.45593999997E+02  0.45594000000E+02  0.51100000000E-03 0.  1.
         11   -1    0    0    0    0 -0.00000000000E+00 -0.00000000000E+00 -0.45593999997E+02  0.45594000000E+02  0.51100000000E-03 0. -1.
    9900012    2    1    2    0    0 -0.17650375734E+02  0.16292382686E+02  0.20970066686E+02  0.59301934172E+02  0.49999982026E+02 0.  0.
         12    1    1    2    0    0  0.17650375734E+02 -0.16292382686E+02 -0.20970066686E+02  0.31886065828E+02  0.00000000000E+00 0. -1.
         11    1    3    3    0    0 -0.92940872825E+01 -0.40313728397E+01 -0.11886363672E+02  0.15617863714E+02  0.51100000000E-03 0. -1.
        -11    1    3    3    0    0 -0.10580974451E+02  0.80573250783E+01  0.26591451541E+02  0.29731848295E+02  0.51100000000E-03 0.  1.
         12    1    3    3    0    0  0.22246859995E+01  0.12266430447E+02  0.62649788168E+01  0.13952222163E+02  0.00000000000E+00 0. -1.
</event>
<event>
 7    1  0.4673733E-013  0.5930194E+02  0.7816164E-02  0.1266605E+00
        -11   -1    0    0    0    0  0.00000000000E+00  0.00000000000E+00  0.45593999997E+02  0.45594000000E+02  0.51100000000E-03 0.  1.
         11   -1    0    0    0    0 -0.00000000000E+00 -0.00000000000E+00 -0.45593999997E+02  0.45594000000E+02  0.51100000000E-03 0. -1.
    9900012    2    1    2    0    0  0.15151614297E+02 -0.24303128674E+02  0.14018114811E+02  0.59301936869E+02  0.49999986944E+02 0.  0.
         12    1    1    2    0    0 -0.15151614297E+02  0.24303128674E+02 -0.14018114811E+02  0.31886063131E+02  0.00000000000E+00 0. -1.
         11    1    3    3    0    0  0.14205386018E+01 -0.63353064256E+01 -0.17261620771E+02  0.18442277227E+02  0.51100000000E-03 0. -1.
        -11    1    3    3    0    0  0.40504035610E+01 -0.15794704075E+02  0.20780949506E+02  0.26414509430E+02  0.51100000000E-03 0.  1.
        -12    1    3    3    0    0  0.96806721342E+01 -0.21731181735E+01  0.10498786076E+02  0.14445150211E+02  0.00000000000E+00 0.  1.
</event>
<event>
 7    1  0.4673733E-013  0.5930193E+02  0.7816164E-02  0.1266605E+00
        -11   -1    0    0    0    0  0.00000000000E+00  0.00000000000E+00  0.45593999997E+02  0.45594000000E+02  0.51100000000E-03 0.  1.
         11   -1    0    0    0    0 -0.00000000000E+00 -0.00000000000E+00 -0.45593999997E+02  0.45594000000E+02  0.51100000000E-03 0. -1.
    9900012    2    1    2    0    0  0.31388584165E+02  0.26327015565E+01 -0.49545282527E+01  0.59301926495E+02  0.49999968024E+02 0.  0.
         12    1    1    2    0    0 -0.31388584165E+02 -0.26327015565E+01  0.49545282527E+01  0.31886073505E+02  0.00000000000E+00 0. -1.
         11    1    3    3    0    0  0.15699821905E+02 -0.17709820467E+01 -0.13947869676E+02  0.21075195231E+02  0.51100000000E-03 0.  1.
        -11    1    3    3    0    0 -0.82241915832E+00  0.94112568101E+01  0.16811635498E+02  0.19284170099E+02  0.51100000000E-03 0. -1.
        -12    1    3    3    0    0  0.16511181418E+02 -0.50075732069E+01 -0.78182940744E+01  0.18942561165E+02  0.00000000000E+00 0.  1.
</event>
<event>
 7    1  0.4673733E-013  0.5930196E+02  0.7816164E-02  0.1266605E+00
        -11   -1    0    0    0    0  0.00000000000E+00  0.00000000000E+00  0.45593999997E+02  0.45594000000E+02  0.51100000000E-03 0.  1.
         11   -1    0    0    0    0 -0.00000000000E+00 -0.00000000000E+00 -0.45593999997E+02  0.45594000000E+02  0.51100000000E-03 0. -1.
    9900012    2    1    2    0    0 -0.16326146195E+02 -0.19728539464E+02  0.18998986739E+02  0.59301955779E+02  0.50000021431E+02 0.  0.
         12    1    1    2    0    0  0.16326146195E+02  0.19728539464E+02 -0.18998986739E+02  0.31886044221E+02  0.00000000000E+00 0. -1.
         11    1    3    3    0    0 -0.23684247133E+01 -0.19332807603E+02 -0.11533284795E+02  0.22635890613E+02  0.51100000000E-03 0. -1.
        -11    1    3    3    0    0  0.89547649874E+00  0.36322521365E+01  0.12039292234E+02  0.12607128599E+02  0.51100000000E-03 0.  1.
         12    1    3    3    0    0 -0.14853197981E+02 -0.40279839970E+01  0.18492979300E+02  0.24058936567E+02  0.00000000000E+00 0. -1.
</event>
<event>
 7    1  0.4673733E-013  0.5930194E+02  0.7816164E-02  0.1266605E+00
        -11   -1    0    0    0    0  0.00000000000E+00  0.00000000000E+00  0.45593999997E+02  0.45594000000E+02  0.51100000000E-03 0.  1.
         11   -1    0    0    0    0 -0.00000000000E+00 -0.00000000000E+00 -0.45593999997E+02  0.45594000000E+02  0.51100000000E-03 0. -1.
    9900012    2    1    2    0    0  0.14610417037E+02 -0.14128431492E+02  0.24569168278E+02  0.59301938903E+02  0.49999990653E+02 0.  0.
         12    1    1    2    0    0 -0.14610417037E+02  0.14128431492E+02 -0.24569168278E+02  0.31886061097E+02  0.00000000000E+00 0. -1.
         11    1    3    3    0    0  0.49964217630E+01  0.73017951046E+01 -0.28611243391E+01  0.92987351252E+01  0.51100000000E-03 0. -1.
        -11    1    3    3    0    0 -0.92100290647E+01 -0.14784787202E+02  0.24144491617E+02  0.29771984208E+02  0.51100000000E-03 0.  1.
        -12    1    3    3    0    0  0.18824024338E+02 -0.66454393944E+01  0.32858010001E+01  0.20231219569E+02  0.00000000000E+00 0.  1.
</event>
<event>
 7    1  0.4673733E-013  0.5930195E+02  0.7816164E-02  0.1266605E+00
        -11   -1    0    0    0    0  0.00000000000E+00  0.00000000000E+00  0.45593999997E+02  0.45594000000E+02  0.51100000000E-03 0. -1.
         11   -1    0    0    0    0 -0.00000000000E+00 -0.00000000000E+00 -0.45593999997E+02  0.45594000000E+02  0.51100000000E-03 0.  1.
    9900012    2    1    2    0    0  0.10439984994E+02  0.14410115181E+02 -0.26458938449E+02  0.59301950855E+02  0.50000012451E+02 0.  0.
         12    1    1    2    0    0 -0.10439984994E+02 -0.14410115181E+02  0.26458938449E+02  0.31886049145E+02  0.00000000000E+00 0. -1.
         11    1    3    3    0    0  0.71746423243E+01 -0.75424895237E+01 -0.22252922154E+01  0.10645025430E+02  0.51100000000E-03 0. -1.
        -11    1    3    3    0    0  0.53222918558E+01  0.26889824464E+02 -0.30104842568E+02  0.40714751585E+02  0.51100000000E-03 0.  1.
        -12    1    3    3    0    0 -0.20569491857E+01 -0.49372197593E+01  0.58711963345E+01  0.79421738399E+01  0.00000000000E+00 0.  1.
</event>
<event>
 7    1  0.4673733E-013  0.5930186E+02  0.7816164E-02  0.1266605E+00
        -11   -1    0    0    0    0  0.00000000000E+00  0.00000000000E+00  0.45593999997E+02  0.45594000000E+02  0.51100000000E-03 0. -1.
         11   -1    0    0    0    0 -0.00000000000E+00 -0.00000000000E+00 -0.45593999997E+02  0.45594000000E+02  0.51100000000E-03 0.  1.
    9900012    2    1    2    0    0 -0.11006382412E+02 -0.83205941620E+01 -0.28746364937E+02  0.59301855076E+02  0.49999837773E+02 0.  0.
         12    1    1    2    0    0  0.11006382412E+02  0.83205941620E+01  0.28746364937E+02  0.31886144924E+02  0.00000000000E+00 0. -1.
         11    1    3    3    0    0 -0.16278920874E+02 -0.45792254443E+01  0.23286670359E+01  0.17070303481E+02  0.51100000000E-03 0. -1.
        -11    1    3    3    0    0  0.73337670883E+01  0.89355780351E+01 -0.25940857270E+02  0.28399943146E+02  0.51100000000E-03 0.  1.
        -12    1    3    3    0    0 -0.20612286263E+01 -0.12676946753E+02 -0.51341747033E+01  0.13831608450E+02  0.00000000000E+00 0.  1.
</event>
<event>
 7    1  0.4673733E-013  0.5930194E+02  0.7816164E-02  0.1266605E+00
        -11   -1    0    0    0    0  0.00000000000E+00  0.00000000000E+00  0.45593999997E+02  0.45594000000E+02  0.51100000000E-03 0. -1.
         11   -1    0    0    0    0 -0.00000000000E+00 -0.00000000000E+00 -0.45593999997E+02  0.45594000000E+02  0.51100000000E-03 0.  1.
    9900012    2    1    2    0    0  0.27135398965E+01 -0.16204676518E+02 -0.27327016223E+02  0.59301942616E+02  0.49999997426E+02 0.  0.
         12    1    1    2    0    0 -0.27135398965E+01  0.16204676518E+02  0.27327016223E+02  0.31886057384E+02  0.00000000000E+00 0. -1.
         11    1    3    3    0    0 -0.92514266183E+01 -0.79744026191E+01  0.11860218012E+02  0.17024827845E+02  0.51100000000E-03 0. -1.
        -11    1    3    3    0    0  0.10203435579E+02 -0.81367815433E+01 -0.37926042353E+02  0.40108627505E+02  0.51100000000E-03 0.  1.
        -12    1    3    3    0    0  0.17615309363E+01 -0.93492355793E-01 -0.12611918819E+01  0.21684872660E+01  0.00000000000E+00 0.  1.
</event>
<event>
 7    1  0.4673733E-013  0.5930195E+02  0.7816164E-02  0.1266605E+00
        -11   -1    0    0    0    0  0.00000000000E+00  0.00000000000E+00  0.45593999997E+02  0.45594000000E+02  0.51100000000E-03 0. -1.
         11   -1    0    0    0    0 -0.00000000000E+00 -0.00000000000E+00 -0.45593999997E+02  0.45594000000E+02  0.51100000000E-03 0.  1.
    9900012    2    1    2    0    0 -0.10794535425E+02  0.43232571069E+01 -0.29690191598E+02  0.59301952515E+02  0.50000015479E+02 0.  0.
         12    1    1    2    0    0  0.10794535425E+02 -0.43232571069E+01  0.29690191598E+02  0.31886047485E+02  0.00000000000E+00 0. -1.
         11    1    3    3    0    0 -0.81630676465E+00  0.33352849828E+01 -0.61180425452E+00  0.34878055217E+01  0.51100000000E-03 0. -1.
        -11    1    3    3    0    0 -0.19942819256E+01 -0.21528603054E+02 -0.22119618553E+02  0.30931140216E+02  0.51100000000E-03 0.  1.
        -12    1    3    3    0    0 -0.79839467350E+01  0.22516575178E+02 -0.69587687903E+01  0.24883006778E+02  0.00000000000E+00 0.  1.
</event>
<event>
 7    1  0.4673733E-013  0.5930177E+02  0.7816164E-02  0.1266605E+00
        -11   -1    0    0    0    0  0.00000000000E+00  0.00000000000E+00  0.45593999997E+02  0.45594000000E+02  0.51100000000E-03 0.  1.
         11   -1    0    0    0    0 -0.00000000000E+00 -0.00000000000E+00 -0.45593999997E+02  0.45594000000E+02  0.51100000000E-03 0. -1.
    9900012    2    1    2    0    0 -0.13722573504E+02 -0.26152167185E+02  0.12020254489E+02  0.59301774290E+02  0.49999690438E+02 0.  0.
         12    1    1    2    0    0  0.13722573504E+02  0.26152167185E+02 -0.12020254489E+02  0.31886225710E+02  0.00000000000E+00 0. -1.
         11    1    3    3    0    0  0.30247511945E+01 -0.19096820672E+02 -0.91632522522E+01  0.21396328462E+02  0.51100000000E-03 0. -1.
        -11    1    3    3    0    0 -0.18391848418E+02 -0.14293314352E+02  0.19294840431E+02  0.30246483944E+02  0.51100000000E-03 0.  1.
         12    1    3    3    0    0  0.16445237197E+01  0.72379678393E+01  0.18886663098E+01  0.76589618837E+01  0.00000000000E+00 0. -1.
</event>
<event>
 7    1  0.4673733E-013  0.5930193E+02  0.7816164E-02  0.1266605E+00
        -11   -1    0    0    0    0  0.00000000000E+00  0.00000000000E+00  0.45593999997E+02  0.45594000000E+02  0.51100000000E-03 0.  1.
         11   -1    0    0    0    0 -0.00000000000E+00 -0.00000000000E+00 -0.45593999997E+02  0.45594000000E+02  0.51100000000E-03 0. -1.
    9900012    2    1    2    0    0  0.18954966250E+02 -0.13836869704E+02  0.21586377686E+02  0.59301930779E+02  0.49999975838E+02 0.  0.
         12    1    1    2    0    0 -0.18954966250E+02  0.13836869704E+02 -0.21586377686E+02  0.31886069221E+02  0.00000000000E+00 0. -1.
         11    1    3    3    0    0  0.20623179699E+02 -0.18636416389E+02 -0.23022929319E+01  0.27891434343E+02  0.51100000000E-03 0. -1.
        -11    1    3    3    0    0  0.69536028419E+01  0.84903412956E+01  0.13879522127E+02  0.17694056136E+02  0.51100000000E-03 0.  1.
         12    1    3    3    0    0 -0.86218162906E+01 -0.36907946104E+01  0.10009148491E+02  0.13716440300E+02  0.00000000000E+00 0. -1.
</event>
<event>
 7    1  0.4673733E-013  0.5930196E+02  0.7816164E-02  0.1266605E+00
        -11   -1    0    0    0    0  0.00000000000E+00  0.00000000000E+00  0.45593999997E+02  0.45594000000E+02  0.51100000000E-03 0. -1.
         11   -1    0    0    0    0 -0.00000000000E+00 -0.00000000000E+00 -0.45593999997E+02  0.45594000000E+02  0.51100000000E-03 0.  1.
    9900012    2    1    2    0    0  0.12355179853E+02  0.24877588731E+02 -0.15658050607E+02  0.59301961691E+02  0.50000032213E+02 0.  0.
         12    1    1    2    0    0 -0.12355179853E+02 -0.24877588731E+02  0.15658050607E+02  0.31886038309E+02  0.00000000000E+00 0. -1.
         11    1    3    3    0    0  0.14891871041E+02  0.28858030853E+01  0.33746927545E+01  0.15539762996E+02  0.51100000000E-03 0. -1.
        -11    1    3    3    0    0 -0.11252058269E+02  0.25387021918E+02 -0.20196546501E+02  0.34336717781E+02  0.51100000000E-03 0.  1.
        -12    1    3    3    0    0  0.87153670808E+01 -0.33952362723E+01  0.11638031398E+01  0.94254809133E+01  0.00000000000E+00 0.  1.
</event>
<event>
 7    1  0.4673733E-013  0.5930186E+02  0.7816164E-02  0.1266605E+00
        -11   -1    0    0    0    0  0.00000000000E+00  0.00000000000E+00  0.45593999997E+02  0.45594000000E+02  0.51100000000E-03 0. -1.
         11   -1    0    0    0    0 -0.00000000000E+00 -0.00000000000E+00 -0.45593999997E+02  0.45594000000E+02  0.51100000000E-03 0.  1.
    9900012    2    1    2    0    0 -0.11250970694E+02  0.42155281900E+01 -0.29535924220E+02  0.59301861334E+02  0.49999849186E+02 0.  0.
         12    1    1    2    0    0  0.11250970694E+02 -0.42155281900E+01  0.29535924220E+02  0.31886138666E+02  0.00000000000E+00 0. -1.
         11    1    3    3    0    0 -0.18862467353E+02 -0.12653815632E+01  0.14206531149E+01  0.18958167651E+02  0.51100000000E-03 0. -1.
        -11    1    3    3    0    0  0.80345228777E+01 -0.58450741274E+01 -0.26257215542E+02  0.28074184186E+02  0.51100000000E-03 0.  1.
         12    1    3    3    0    0 -0.42302621890E+00  0.11325983881E+02 -0.46993617931E+01  0.12269509497E+02  0.00000000000E+00 0. -1.
</event>
<event>
 7    1  0.4673733E-013  0.5930195E+02  0.7816164E-02  0.1266605E+00
        -11   -1    0    0    0    0  0.00000000000E+00  0.00000000000E+00  0.45593999997E+02  0.45594000000E+02  0.51100000000E-03 0. -1.
         11   -1    0    0    0    0 -0.00000000000E+00 -0.00000000000E+00 -0.45593999997E+02  0.45594000000E+02  0.51100000000E-03 0.  1.
    9900012    2    1    2    0    0  0.19475103521E+02 -0.81900128503E+00 -0.25234296008E+02  0.59301951087E+02  0.50000012875E+02 0.  0.
         12    1    1    2    0    0 -0.19475103521E+02  0.81900128503E+00  0.25234296008E+02  0.31886048913E+02  0.00000000000E+00 0. -1.
         11    1    3    3    0    0  0.86365617049E+01 -0.22084774642E+02 -0.25841775920E+02  0.35073135760E+02  0.51100000000E-03 0. -1.
        -11    1    3    3    0    0  0.11384547412E+01  0.54000510484E+01  0.10952106599E+01  0.56263769136E+01  0.51100000000E-03 0.  1.
         12    1    3    3    0    0  0.97000870747E+01  0.15865722309E+02 -0.48773074765E+00  0.18602438413E+02  0.00000000000E+00 0. -1.
</event>
<event>
 7    1  0.4673733E-013  0.5930194E+02  0.7816164E-02  0.1266605E+00
        -11   -1    0    0    0    0  0.00000000000E+00  0.00000000000E+00  0.45593999997E+02  0.45594000000E+02  0.51100000000E-03 0. -1.
         11   -1    0    0    0    0 -0.00000000000E+00 -0.00000000000E+00 -0.45593999997E+02  0.45594000000E+02  0.51100000000E-03 0.  1.
    9900012    2    1    2    0    0  0.26238625423E+02 -0.16283326145E+02 -0.79441066366E+01  0.59301937140E+02  0.49999987439E+02 0.  0.
         12    1    1    2    0    0 -0.26238625423E+02  0.16283326145E+02  0.79441066366E+01  0.31886062860E+02  0.00000000000E+00 0. -1.
         11    1    3    3    0    0  0.11976197288E+02 -0.21197238526E+02  0.13332018585E+02  0.27757790661E+02  0.51100000000E-03 0. -1.
        -11    1    3    3    0    0 -0.19250932269E+01  0.61805322698E+01 -0.94598025640E+01  0.11462671062E+02  0.51100000000E-03 0.  1.
         12    1    3    3    0    0  0.16187521361E+02 -0.12666198895E+01 -0.11816322657E+02  0.20081475417E+02  0.00000000000E+00 0. -1.
</event>
<event>
 7    1  0.4673733E-013  0.5930196E+02  0.7816164E-02  0.1266605E+00
        -11   -1    0    0    0    0  0.00000000000E+00  0.00000000000E+00  0.45593999997E+02  0.45594000000E+02  0.51100000000E-03 0.  1.
         11   -1    0    0    0    0 -0.00000000000E+00 -0.00000000000E+00 -0.45593999997E+02  0.45594000000E+02  0.51100000000E-03 0. -1.
    9900012    2    1    2    0    0  0.17533787034E+01  0.31837721747E+02 -0.70107763546E-01  0.59301956375E+02  0.50000022519E+02 0.  0.
         12    1    1    2    0    0 -0.17533787034E+01 -0.31837721747E+02  0.70107763546E-01  0.31886043625E+02  0.00000000000E+00 0. -1.
         11    1    3    3    0    0 -0.12348222151E+02  0.16634725852E+02 -0.13195565395E+02  0.24562484419E+02  0.51100000000E-03 0. -1.
        -11    1    3    3    0    0  0.75863818980E+01  0.11197338698E+02  0.20207382820E+02  0.24316083256E+02  0.51100000000E-03 0.  1.
         12    1    3    3    0    0  0.65152189567E+01  0.40056571968E+01 -0.70819251876E+01  0.10423388700E+02  0.00000000000E+00 0. -1.
</event>
<event>
 7    1  0.4673733E-013  0.5930195E+02  0.7816164E-02  0.1266605E+00
        -11   -1    0    0    0    0  0.00000000000E+00  0.00000000000E+00  0.45593999997E+02  0.45594000000E+02  0.51100000000E-03 0.  1.
         11   -1    0    0    0    0 -0.00000000000E+00 -0.00000000000E+00 -0.45593999997E+02  0.45594000000E+02  0.51100000000E-03 0. -1.
    9900012    2    1    2    0    0  0.16506389648E+02  0.14124879635E+02  0.23339823387E+02  0.59301945373E+02  0.50000002454E+02 0.  0.
         12    1    1    2    0    0 -0.16506389648E+02 -0.14124879635E+02 -0.23339823387E+02  0.31886054627E+02  0.00000000000E+00 0. -1.
         11    1    3    3    0    0  0.10432176841E+02 -0.13674999963E+02 -0.28362677652E+01  0.17432164316E+02  0.51100000000E-03 0. -1.
        -11    1    3    3    0    0  0.40060559619E+01  0.56848816485E+01  0.15984166087E+02  0.17431578514E+02  0.51100000000E-03 0.  1.
         12    1    3    3    0    0  0.20681568450E+01  0.22114997949E+02  0.10191925066E+02  0.24438202544E+02  0.00000000000E+00 0. -1.
</event>
<event>
 7    1  0.4673733E-013  0.5930195E+02  0.7816164E-02  0.1266605E+00
        -11   -1    0    0    0    0  0.00000000000E+00  0.00000000000E+00  0.45593999997E+02  0.45594000000E+02  0.51100000000E-03 0.  1.
         11   -1    0    0    0    0 -0.00000000000E+00 -0.00000000000E+00 -0.45593999997E+02  0.45594000000E+02  0.51100000000E-03 0. -1.
    9900012    2    1    2    0    0  0.13570393712E+02  0.16000933399E+02  0.24011140232E+02  0.59301948028E+02  0.50000007295E+02 0.  0.
         12    1    1    2    0    0 -0.13570393712E+02 -0.16000933399E+02 -0.24011140232E+02  0.31886051972E+02  0.00000000000E+00 0. -1.
         11    1    3    3    0    0  0.11045946703E+02  0.21070505312E+02  0.12088660776E+02  0.26685480178E+02  0.51100000000E-03 0. -1.
        -11    1    3    3    0    0 -0.26485464986E+01 -0.14401721781E+02 -0.23143545947E+01  0.14825000042E+02  0.51100000000E-03 0.  1.
         12    1    3    3    0    0  0.51729935077E+01  0.93321498668E+01  0.14236834051E+02  0.17791467808E+02  0.00000000000E+00 0. -1.
</event>
<event>
 7    1  0.4673733E-013  0.5930194E+02  0.7816164E-02  0.1266605E+00
        -11   -1    0    0    0    0  0.00000000000E+00  0.00000000000E+00  0.45593999997E+02  0.45594000000E+02  0.51100000000E-03 0.  1.
         11   -1    0    0    0    0 -0.00000000000E+00 -0.00000000000E+00 -0.45593999997E+02  0.45594000000E+02  0.51100000000E-03 0. -1.
    9900012    2    1    2    0    0  0.10471672513E+02 -0.11253003640E+02  0.27936261973E+02  0.59301941147E+02  0.49999994746E+02 0.  0.
         12    1    1    2    0    0 -0.10471672513E+02  0.11253003640E+02 -0.27936261973E+02  0.31886058853E+02  0.00000000000E+00 0. -1.
         11    1    3    3    0    0  0.10801748274E+02 -0.49485107911E+01 -0.18623844941E+01  0.12026387699E+02  0.51100000000E-03 0. -1.
        -11    1    3    3    0    0 -0.59470459185E+01  0.12886261668E+02  0.42157460643E+01  0.14805256164E+02  0.51100000000E-03 0.  1.
        -12    1    3    3    0    0  0.56169701569E+01 -0.19190754517E+02  0.25582900403E+02  0.32470297284E+02  0.00000000000E+00 0.  1.
</event>
<event>
 7    1  0.4673733E-013  0.5930195E+02  0.7816164E-02  0.1266605E+00
        -11   -1    0    0    0    0  0.00000000000E+00  0.00000000000E+00  0.45593999997E+02  0.45594000000E+02  0.51100000000E-03 0. -1.
         11   -1    0    0    0    0 -0.00000000000E+00 -0.00000000000E+00 -0.45593999997E+02  0.45594000000E+02  0.51100000000E-03 0.  1.
    9900012    2    1    2    0    0 -0.27871708137E+02  0.14830547079E+02 -0.44657459892E+01  0.59301950882E+02  0.50000012500E+02 0.  0.
         12    1    1    2    0    0  0.27871708137E+02 -0.14830547079E+02  0.44657459892E+01  0.31886049118E+02  0.00000000000E+00 0. -1.
         11    1    3    3    0    0 -0.12161335190E+01 -0.11832212153E+01 -0.10072440592E+01  0.19732040027E+01  0.51100000000E-03 0. -1.
        -11    1    3    3    0    0 -0.18432316261E+02  0.17686007999E+02  0.19981736020E+02  0.32431696476E+02  0.51100000000E-03 0.  1.
        -12    1    3    3    0    0 -0.82232583570E+01 -0.16722397047E+01 -0.23440237950E+02  0.24897050403E+02  0.00000000000E+00 0.  1.
</event>
<event>
 7    1  0.4673733E-013  0.5930197E+02  0.7816164E-02  0.1266605E+00
        -11   -1    0    0    0    0  0.00000000000E+00  0.00000000000E+00  0.45593999997E+02  0.45594000000E+02  0.51100000000E-03 0. -1.
         11   -1    0    0    0    0 -0.00000000000E+00 -0.00000000000E+00 -0.45593999997E+02  0.45594000000E+02  0.51100000000E-03 0.  1.
    9900012    2    1    2    0    0 -0.74230632709E+01 -0.25786898550E+02 -0.17223623141E+02  0.59301965451E+02  0.50000039071E+02 0.  0.
         12    1    1    2    0    0  0.74230632709E+01  0.25786898550E+02  0.17223623141E+02  0.31886034549E+02  0.00000000000E+00 0. -1.
         11    1    3    3    0    0 -0.12847032417E+01 -0.13530684710E+02  0.91000714276E+01  0.16356686443E+02  0.51100000000E-03 0. -1.
        -11    1    3    3    0    0 -0.10144877512E+02  0.82098643522E+01 -0.93121317470E+01  0.16032348872E+02  0.51100000000E-03 0.  1.
        -12    1    3    3    0    0  0.40065174824E+01 -0.20466078192E+02 -0.17011562822E+02  0.26912930137E+02  0.00000000000E+00 0.  1.
</event>
<event>
 7    1  0.4673733E-013  0.5930194E+02  0.7816164E-02  0.1266605E+00
        -11   -1    0    0    0    0  0.00000000000E+00  0.00000000000E+00  0.45593999997E+02  0.45594000000E+02  0.51100000000E-03 0. -1.
         11   -1    0    0    0    0 -0.00000000000E+00 -0.00000000000E+00 -0.45593999997E+02  0.45594000000E+02  0.51100000000E-03 0.  1.
    9900012    2    1    2    0    0  0.31692320536E+02 -0.15965829137E+01  0.31254626263E+01  0.59301940748E+02  0.49999994019E+02 0.  0.
         12    1    1    2    0    0 -0.31692320536E+02  0.15965829137E+01 -0.31254626263E+01  0.31886059252E+02  0.00000000000E+00 0. -1.
         11    1    3    3    0    0  0.11557217193E+02 -0.16539022688E+01  0.15380275743E+02  0.19309519521E+02  0.51100000000E-03 0. -1.
        -11    1    3    3    0    0  0.13789144628E+02 -0.12101100117E+02 -0.17456688758E+02  0.25324160722E+02  0.51100000000E-03 0.  1.
        -12    1    3    3    0    0  0.63459587153E+01  0.12158419472E+02  0.52018756414E+01  0.14668260506E+02  0.00000000000E+00 0.  1.
</event>
<event>
 7    1  0.4673733E-013  0.5930198E+02  0.7816164E-02  0.1266605E+00
        -11   -1    0    0    0    0  0.00000000000E+00  0.00000000000E+00  0.45593999997E+02  0.45594000000E+02  0.51100000000E-03 0. -1.
         11   -1    0    0    0    0 -0.00000000000E+00 -0.00000000000E+00 -0.45593999997E+02  0.45594000000E+02  0.51100000000E-03 0.  1.
    9900012    2    1    2    0    0  0.54818988531E+01 -0.82462006755E+00 -0.31400432518E+02  0.59301978367E+02  0.50000062626E+02 0.  0.
         12    1    1    2    0    0 -0.54818988531E+01  0.82462006755E+00  0.31400432518E+02  0.31886021633E+02  0.00000000000E+00 0. -1.
         11    1    3    3    0    0  0.15460709223E+02  0.11909035135E+02 -0.61547399311E+01  0.20463124674E+02  0.51100000000E-03 0. -1.
        -11    1    3    3    0    0 -0.69420802226E+01 -0.11563002410E+02 -0.10387609261E+00  0.13487264106E+02  0.51100000000E-03 0.  1.
        -12    1    3    3    0    0 -0.30367301476E+01 -0.11706527929E+01 -0.25141816494E+02  0.25351589587E+02  0.00000000000E+00 0.  1.
</event>
<event>
 7    1  0.4673733E-013  0.5930188E+02  0.7816164E-02  0.1266605E+00
        -11   -1    0    0    0    0  0.00000000000E+00  0.00000000000E+00  0.45593999997E+02  0.45594000000E+02  0.51100000000E-03 0. -1.
         11   -1    0    0    0    0 -0.00000000000E+00 -0.00000000000E+00 -0.45593999997E+02  0.45594000000E+02  0.51100000000E-03 0.  1.
    9900012    2    1    2    0    0 -0.53239435767E+00  0.22308952841E+02 -0.22776120385E+02  0.59301882638E+02  0.49999888041E+02 0.  0.
         12    1    1    2    0    0  0.53239435767E+00 -0.22308952841E+02  0.22776120385E+02  0.31886117362E+02  0.00000000000E+00 0. -1.
         11    1    3    3    0    0 -0.16426173181E+01  0.91631815689E+01  0.51242207446E+01  0.10626369400E+02  0.51100000000E-03 0. -1.
        -11    1    3    3    0    0  0.18027320292E+02 -0.27404516608E+00 -0.15490318150E+02  0.23769924996E+02  0.51100000000E-03 0.  1.
        -12    1    3    3    0    0 -0.16917097332E+02  0.13419816438E+02 -0.12410022980E+02  0.24905588243E+02  0.00000000000E+00 0.  1.
</event>
<event>
 7    1  0.4673733E-013  0.5930195E+02  0.7816164E-02  0.1266605E+00
        -11   -1    0    0    0    0  0.00000000000E+00  0.00000000000E+00  0.45593999997E+02  0.45594000000E+02  0.51100000000E-03 0.  1.
         11   -1    0    0    0    0 -0.00000000000E+00 -0.00000000000E+00 -0.45593999997E+02  0.45594000000E+02  0.51100000000E-03 0. -1.
    9900012    2    1    2    0    0 -0.51173511861E+01 -0.19883223059E+02  0.24396520862E+02  0.59301951757E+02  0.50000014097E+02 0.  0.
         12    1    1    2    0    0  0.51173511861E+01  0.19883223059E+02 -0.24396520862E+02  0.31886048243E+02  0.00000000000E+00 0. -1.
         11    1    3    3    0    0  0.75300569812E+01  0.29249899866E+01 -0.11306440673E+02  0.13895788050E+02  0.51100000000E-03 0. -1.
        -11    1    3    3    0    0 -0.10843560864E+02 -0.21032244238E+02  0.25060926336E+02  0.34467203817E+02  0.51100000000E-03 0.  1.
         12    1    3    3    0    0 -0.18038473037E+01 -0.17759688074E+01  0.10642035199E+02  0.10938959890E+02  0.00000000000E+00 0. -1.
</event>
<event>
 7    1  0.4673733E-013  0.5930197E+02  0.7816164E-02  0.1266605E+00
        -11   -1    0    0    0    0  0.00000000000E+00  0.00000000000E+00  0.45593999997E+02  0.45594000000E+02  0.51100000000E-03 0.  1.
         11   -1    0    0    0    0 -0.00000000000E+00 -0.00000000000E+00 -0.45593999997E+02  0.45594000000E+02  0.51100000000E-03 0. -1.
    9900012    2    1    2    0    0 -0.10486707149E+02 -0.27159767315E+02 -0.13003656348E+02  0.59301967543E+02  0.50000042886E+02 0.  0.
         12    1    1    2    0    0  0.10486707149E+02  0.27159767315E+02  0.13003656348E+02  0.31886032457E+02  0.00000000000E+00 0. -1.
         11    1    3    3    0    0  0.33652959649E+01  0.65984678754E+00  0.64908543873E+01  0.73411038443E+01  0.51100000000E-03 0.  1.
        -11    1    3    3    0    0 -0.14925652264E+02 -0.18902031198E+02 -0.29783459598E+02  0.38302954779E+02  0.51100000000E-03 0. -1.
         12    1    3    3    0    0  0.10736491500E+01 -0.89175829041E+01  0.10288948862E+02  0.13657908919E+02  0.00000000000E+00 0. -1.
</event>
<event>
 7    1  0.4673733E-013  0.5930189E+02  0.7816164E-02  0.1266605E+00
        -11   -1    0    0    0    0  0.00000000000E+00  0.00000000000E+00  0.45593999997E+02  0.45594000000E+02  0.51100000000E-03 0.  1.
         11   -1    0    0    0    0 -0.00000000000E+00 -0.00000000000E+00 -0.45593999997E+02  0.45594000000E+02  0.51100000000E-03 0. -1.
    9900012    2    1    2    0    0  0.28604658599E+02 -0.81045448909E+01  0.11524493238E+02  0.59301888825E+02  0.49999899324E+02 0.  0.
         12    1    1    2    0    0 -0.28604658599E+02  0.81045448909E+01 -0.11524493238E+02  0.31886111175E+02  0.00000000000E+00 0. -1.
         11    1    3    3    0    0  0.12970384437E+02 -0.57609979762E+01 -0.30839788077E+01  0.14523460182E+02  0.51100000000E-03 0. -1.
        -11    1    3    3    0    0  0.97141960084E+01 -0.95592423050E+00  0.28225393496E+02  0.29865569365E+02  0.51100000000E-03 0.  1.
        -12    1    3    3    0    0  0.59200781539E+01 -0.13876226842E+01 -0.13616921450E+02  0.14912859278E+02  0.00000000000E+00 0.  1.
</event>
<event>
 7    1  0.4673733E-013  0.5930195E+02  0.7816164E-02  0.1266605E+00
        -11   -1    0    0    0    0  0.00000000000E+00  0.00000000000E+00  0.45593999997E+02  0.45594000000E+02  0.51100000000E-03 0.  1.
         11   -1    0    0    0    0 -0.00000000000E+00 -0.00000000000E+00 -0.45593999997E+02  0.45594000000E+02  0.51100000000E-03 0. -1.
    9900012    2    1    2    0    0  0.27710900975E+02  0.56254366545E+01  0.14737056361E+02  0.59301946614E+02  0.50000004716E+02 0.  0.
         12    1    1    2    0    0 -0.27710900975E+02 -0.56254366545E+01 -0.14737056361E+02  0.31886053386E+02  0.00000000000E+00 0. -1.
         11    1    3    3    0    0  0.53196481239E+01  0.64077408069E+00 -0.16381133097E+01  0.56029155858E+01  0.51100000000E-03 0. -1.
        -11    1    3    3    0    0 -0.13461417146E+02  0.32570231587E+01  0.10379238211E+02  0.17307412791E+02  0.51100000000E-03 0.  1.
        -12    1    3    3    0    0  0.35852669996E+02  0.17276394152E+01  0.59959314594E+01  0.36391618237E+02  0.00000000000E+00 0.  1.
</event>
<event>
 7    1  0.4673733E-013  0.5930191E+02  0.7816164E-02  0.1266605E+00
        -11   -1    0    0    0    0  0.00000000000E+00  0.00000000000E+00  0.45593999997E+02  0.45594000000E+02  0.51100000000E-03 0.  1.
         11   -1    0    0    0    0 -0.00000000000E+00 -0.00000000000E+00 -0.45593999997E+02  0.45594000000E+02  0.51100000000E-03 0. -1.
    9900012    2    1    2    0    0 -0.26496900093E+02  0.16602277215E+02 -0.62451281820E+01  0.59301906648E+02  0.49999931828E+02 0.  0.
         12    1    1    2    0    0  0.26496900093E+02 -0.16602277215E+02  0.62451281820E+01  0.31886093352E+02  0.00000000000E+00 0. -1.
         11    1    3    3    0    0 -0.29481972151E+02 -0.16443776150E+01  0.31986259027E+01  0.29700536487E+02  0.51100000000E-03 0.  1.
        -11    1    3    3    0    0  0.56414292979E+01  0.21726413934E+02 -0.43142505163E+01  0.22857723962E+02  0.51100000000E-03 0. -1.
        -12    1    3    3    0    0 -0.26563572397E+01 -0.34797591035E+01 -0.51295035684E+01  0.67436461993E+01  0.00000000000E+00 0.  1.
</event>
<event>
 7    1  0.4673733E-013  0.5930190E+02  0.7816164E-02  0.1266605E+00
        -11   -1    0    0    0    0  0.00000000000E+00  0.00000000000E+00  0.45593999997E+02  0.45594000000E+02  0.51100000000E-03 0. -1.
         11   -1    0    0    0    0 -0.00000000000E+00 -0.00000000000E+00 -0.45593999997E+02  0.45594000000E+02  0.51100000000E-03 0.  1.
    9900012    2    1    2    0    0  0.13860281042E+02 -0.13286049025E+02 -0.25457750659E+02  0.59301897104E+02  0.49999914423E+02 0.  0.
         12    1    1    2    0    0 -0.13860281042E+02  0.13286049025E+02  0.25457750659E+02  0.31886102896E+02  0.00000000000E+00 0. -1.
         11    1    3    3    0    0 -0.19078217186E+01  0.72374870209E+01 -0.27496163226E+02  0.28496666376E+02  0.51100000000E-03 0. -1.
        -11    1    3    3    0    0  0.13129295598E+02 -0.22829981741E+02 -0.71896909507E+00  0.26345841911E+02  0.51100000000E-03 0.  1.
        -12    1    3    3    0    0  0.26388071633E+01  0.23064456955E+01  0.27573816628E+01  0.44593888175E+01  0.00000000000E+00 0.  1.
</event>
<event>
 7    1  0.4673733E-013  0.5930178E+02  0.7816164E-02  0.1266605E+00
        -11   -1    0    0    0    0  0.00000000000E+00  0.00000000000E+00  0.45593999997E+02  0.45594000000E+02  0.51100000000E-03 0. -1.
         11   -1    0    0    0    0 -0.00000000000E+00 -0.00000000000E+00 -0.45593999997E+02  0.45594000000E+02  0.51100000000E-03 0.  1.
    9900012    2    1    2    0    0 -0.20736840692E+02 -0.23054286732E+02  0.74306236433E+01  0.59301782502E+02  0.49999705414E+02 0.  0.
         12    1    1    2    0    0  0.20736840692E+02  0.23054286732E+02 -0.74306236433E+01  0.31886217498E+02  0.00000000000E+00 0. -1.
         11    1    3    3    0    0  0.87615213666E+01 -0.18801542069E+00 -0.96025618692E+01  0.13000338502E+02  0.51100000000E-03 0. -1.
        -11    1    3    3    0    0 -0.16157942873E+02 -0.76489182224E+01 -0.26483811661E+01  0.18072049992E+02  0.51100000000E-03 0.  1.
         12    1    3    3    0    0 -0.13340419186E+02 -0.15217353089E+02  0.19681566679E+02  0.28229394007E+02  0.00000000000E+00 0. -1.
</event>
<event>
 7    1  0.4673733E-013  0.5930197E+02  0.7816164E-02  0.1266605E+00
        -11   -1    0    0    0    0  0.00000000000E+00  0.00000000000E+00  0.45593999997E+02  0.45594000000E+02  0.51100000000E-03 0. -1.
         11   -1    0    0    0    0 -0.00000000000E+00 -0.00000000000E+00 -0.45593999997E+02  0.45594000000E+02  0.51100000000E-03 0.  1.
    9900012    2    1    2    0    0 -0.14902980237E+02 -0.20274137938E+02  0.19585189752E+02  0.59301966276E+02  0.50000040575E+02 0.  0.
         12    1    1    2    0    0  0.14902980237E+02  0.20274137938E+02 -0.19585189752E+02  0.31886033724E+02  0.00000000000E+00 0. -1.
         11    1    3    3    0    0  0.35040398309E+01 -0.13486366602E+02  0.10566165252E+02  0.17487259009E+02  0.51100000000E-03 0. -1.
        -11    1    3    3    0    0 -0.27641117035E+02 -0.12079203185E+02  0.72745985728E+01  0.31029957866E+02  0.51100000000E-03 0.  1.
        -12    1    3    3    0    0  0.92340969671E+01  0.52914318491E+01  0.17444259269E+01  0.10784749400E+02  0.00000000000E+00 0.  1.
</event>
<event>
 7    1  0.4673733E-013  0.5930170E+02  0.7816164E-02  0.1266606E+00
        -11   -1    0    0    0    0  0.00000000000E+00  0.00000000000E+00  0.45593999997E+02  0.45594000000E+02  0.51100000000E-03 0.  1.
         11   -1    0    0    0    0 -0.00000000000E+00 -0.00000000000E+00 -0.45593999997E+02  0.45594000000E+02  0.51100000000E-03 0. -1.
    9900012    2    1    2    0    0 -0.17129966576E+01 -0.66319562657E+01  0.31141912313E+02  0.59301703508E+02  0.49999561348E+02 0.  0.
         12    1    1    2    0    0  0.17129966576E+01  0.66319562657E+01 -0.31141912313E+02  0.31886296492E+02  0.00000000000E+00 0. -1.
         11    1    3    3    0    0  0.42330481381E+01  0.42340723044E+01 -0.84161168848E+01  0.10328460122E+02  0.51100000000E-03 0. -1.
        -11    1    3    3    0    0 -0.15415108977E+02 -0.94626962728E+01  0.18663166457E+02  0.25990036321E+02  0.51100000000E-03 0.  1.
        -12    1    3    3    0    0  0.94690641815E+01 -0.14033322972E+01  0.20894862741E+02  0.22983207065E+02  0.00000000000E+00 0.  1.
</event>
<event>
 7    1  0.4673733E-013  0.5930195E+02  0.7816164E-02  0.1266605E+00
        -11   -1    0    0    0    0  0.00000000000E+00  0.00000000000E+00  0.45593999997E+02  0.45594000000E+02  0.51100000000E-03 0. -1.
         11   -1    0    0    0    0 -0.00000000000E+00 -0.00000000000E+00 -0.45593999997E+02  0.45594000000E+02  0.51100000000E-03 0.  1.
    9900012    2    1    2    0    0  0.94597498654E+01  0.11135073419E+02 -0.28341554272E+02  0.59301946213E+02  0.50000003985E+02 0.  0.
         12    1    1    2    0    0 -0.94597498654E+01 -0.11135073419E+02  0.28341554272E+02  0.31886053787E+02  0.00000000000E+00 0. -1.
         11    1    3    3    0    0  0.21514218079E-01 -0.13828081146E+02 -0.23739565213E+02  0.27473318835E+02  0.51100000000E-03 0. -1.
        -11    1    3    3    0    0  0.13979452511E+02  0.20234839360E+02 -0.16813177013E+01  0.24651585058E+02  0.51100000000E-03 0.  1.
        -12    1    3    3    0    0 -0.45412168635E+01  0.47283152052E+01 -0.29206713575E+01  0.71770423198E+01  0.00000000000E+00 0.  1.
</event>
<event>
 7    1  0.4673733E-013  0.5930194E+02  0.7816164E-02  0.1266605E+00
        -11   -1    0    0    0    0  0.00000000000E+00  0.00000000000E+00  0.45593999997E+02  0.45594000000E+02  0.51100000000E-03 0. -1.
         11   -1    0    0    0    0 -0.00000000000E+00 -0.00000000000E+00 -0.45593999997E+02  0.45594000000E+02  0.51100000000E-03 0.  1.
    9900012    2    1    2    0    0 -0.46961656962E+01 -0.31414744382E+02  0.27893746064E+01  0.59301941173E+02  0.49999994794E+02 0.  0.
         12    1    1    2    0    0  0.46961656962E+01  0.31414744382E+02 -0.27893746064E+01  0.31886058827E+02  0.00000000000E+00 0. -1.
         11    1    3    3    0    0 -0.18682632790E+01  0.20944551061E+01 -0.96338305290E+01  0.10034333102E+02  0.51100000000E-03 0.  1.
        -11    1    3    3    0    0 -0.26963936360E+01 -0.40470008309E+02  0.11977599484E+02  0.42291311174E+02  0.51100000000E-03 0. -1.
         12    1    3    3    0    0 -0.13150878118E+00  0.69608088211E+01  0.44560565092E+00  0.69762968973E+01  0.00000000000E+00 0. -1.
</event>
<event>
 7    1  0.4673733E-013  0.5930196E+02  0.7816164E-02  0.1266605E+00
        -11   -1    0    0    0    0  0.00000000000E+00  0.00000000000E+00  0.45593999997E+02  0.45594000000E+02  0.51100000000E-03 0. -1.
         11   -1    0    0    0    0 -0.00000000000E+00 -0.00000000000E+00 -0.45593999997E+02  0.45594000000E+02  0.51100000000E-03 0.  1.
    9900012    2    1    2    0    0  0.11541879095E+02  0.44705938935E+01 -0.29385682641E+02  0.59301960310E+02  0.50000029695E+02 0.  0.
         12    1    1    2    0    0 -0.11541879095E+02 -0.44705938935E+01  0.29385682641E+02  0.31886039690E+02  0.00000000000E+00 0. -1.
         11    1    3    3    0    0  0.10648423916E+02 -0.45787972775E+01 -0.44615040306E+01  0.12420118150E+02  0.51100000000E-03 0. -1.
        -11    1    3    3    0    0  0.65319846243E+01  0.22936666029E+02 -0.19940598470E+02  0.31086732528E+02  0.51100000000E-03 0.  1.
        -12    1    3    3    0    0 -0.56385294447E+01 -0.13887274858E+02 -0.49835801404E+01  0.15795109632E+02  0.00000000000E+00 0.  1.
</event>
<event>
 7    1  0.4673733E-013  0.5930194E+02  0.7816164E-02  0.1266605E+00
        -11   -1    0    0    0    0  0.00000000000E+00  0.00000000000E+00  0.45593999997E+02  0.45594000000E+02  0.51100000000E-03 0. -1.
         11   -1    0    0    0    0 -0.00000000000E+00 -0.00000000000E+00 -0.45593999997E+02  0.45594000000E+02  0.51100000000E-03 0.  1.
    9900012    2    1    2    0    0 -0.19604921931E+02  0.20069693578E+02  0.15151741786E+02  0.59301939670E+02  0.49999992053E+02 0.  0.
         12    1    1    2    0    0  0.19604921931E+02 -0.20069693578E+02 -0.15151741786E+02  0.31886060330E+02  0.00000000000E+00 0. -1.
         11    1    3    3    0    0  0.37241887239E+01  0.28707104559E+01  0.22649192598E+02  0.23132152640E+02  0.51100000000E-03 0. -1.
        -11    1    3    3    0    0 -0.24050954668E+02  0.13214582959E+02  0.23283123408E+00  0.27443174632E+02  0.51100000000E-03 0.  1.
         12    1    3    3    0    0  0.72184401370E+00  0.39844001631E+01 -0.77302820459E+01  0.87266123982E+01  0.00000000000E+00 0. -1.
</event>
<event>
 7    1  0.4673733E-013  0.5930223E+02  0.7816164E-02  0.1266604E+00
        -11   -1    0    0    0    0  0.00000000000E+00  0.00000000000E+00  0.45593999997E+02  0.45594000000E+02  0.51100000000E-03 0.  1.
         11   -1    0    0    0    0 -0.00000000000E+00 -0.00000000000E+00 -0.45593999997E+02  0.45594000000E+02  0.51100000000E-03 0. -1.
    9900012    2    1    2    0    0  0.21325261134E+02 -0.18112632348E+02  0.15292750643E+02  0.59302228326E+02  0.50000518489E+02 0.  0.
         12    1    1    2    0    0 -0.21325261134E+02  0.18112632348E+02 -0.15292750643E+02  0.31885771674E+02  0.00000000000E+00 0. -1.
         11    1    3    3    0    0  0.57358535034E+01 -0.98487942476E+01 -0.21923561720E+01  0.11606256476E+02  0.51100000000E-03 0. -1.
        -11    1    3    3    0    0  0.87617336144E+01  0.13697198128E+02  0.18557451367E+02  0.24673066570E+02  0.51100000000E-03 0.  1.
        -12    1    3    3    0    0  0.68276740162E+01 -0.21961036228E+02 -0.10723445521E+01  0.23022905280E+02  0.00000000000E+00 0.  1.
</event>
<event>
 7    1  0.4673733E-013  0.5930196E+02  0.7816164E-02  0.1266605E+00
        -11   -1    0    0    0    0  0.00000000000E+00  0.00000000000E+00  0.45593999997E+02  0.45594000000E+02  0.51100000000E-03 0.  1.
         11   -1    0    0    0    0 -0.00000000000E+00 -0.00000000000E+00 -0.45593999997E+02  0.45594000000E+02  0.51100000000E-03 0. -1.
    9900012    2    1    2    0    0 -0.16299765813E+02 -0.10409088480E+02  0.25351292606E+02  0.59301960338E+02  0.50000029745E+02 0.  0.
         12    1    1    2    0    0  0.16299765813E+02  0.10409088480E+02 -0.25351292606E+02  0.31886039662E+02  0.00000000000E+00 0. -1.
         11    1    3    3    0    0 -0.32569174353E+01  0.44442162534E+01 -0.59807478651E+01  0.81319071917E+01  0.51100000000E-03 0. -1.
        -11    1    3    3    0    0 -0.18726313427E+02 -0.23039508648E+02  0.27573784937E+02  0.40519222467E+02  0.51100000000E-03 0.  1.
        -12    1    3    3    0    0  0.56834650491E+01  0.81862039146E+01  0.37582555341E+01  0.10650830679E+02  0.00000000000E+00 0.  1.
</event>
<event>
 7    1  0.4673733E-013  0.5930195E+02  0.7816164E-02  0.1266605E+00
        -11   -1    0    0    0    0  0.00000000000E+00  0.00000000000E+00  0.45593999997E+02  0.45594000000E+02  0.51100000000E-03 0. -1.
         11   -1    0    0    0    0 -0.00000000000E+00 -0.00000000000E+00 -0.45593999997E+02  0.45594000000E+02  0.51100000000E-03 0.  1.
    9900012    2    1    2    0    0 -0.14043255617E+00 -0.21378683649E+02 -0.23656974986E+02  0.59301948169E+02  0.50000007553E+02 0.  0.
         12    1    1    2    0    0  0.14043255617E+00  0.21378683649E+02  0.23656974986E+02  0.31886051831E+02  0.00000000000E+00 0. -1.
         11    1    3    3    0    0  0.10713365617E+02  0.47540157262E+01 -0.23067059511E+01  0.11945616810E+02  0.51100000000E-03 0. -1.
        -11    1    3    3    0    0 -0.21231675539E+02 -0.22373376322E+02 -0.12801087633E+02  0.33394907682E+02  0.51100000000E-03 0.  1.
        -12    1    3    3    0    0  0.10377877366E+02 -0.37593230528E+01 -0.85491814020E+01  0.13961423677E+02  0.00000000000E+00 0.  1.
</event>
<event>
 7    1  0.4673733E-013  0.5930229E+02  0.7816164E-02  0.1266604E+00
        -11   -1    0    0    0    0  0.00000000000E+00  0.00000000000E+00  0.45593999997E+02  0.45594000000E+02  0.51100000000E-03 0.  1.
         11   -1    0    0    0    0 -0.00000000000E+00 -0.00000000000E+00 -0.45593999997E+02  0.45594000000E+02  0.51100000000E-03 0. -1.
    9900012    2    1    2    0    0  0.71647043618E+01 -0.29982661035E+02 -0.81489427210E+01  0.59302294444E+02  0.50000639071E+02 0.  0.
         12    1    1    2    0    0 -0.71647043618E+01  0.29982661035E+02  0.81489427210E+01  0.31885705556E+02  0.00000000000E+00 0. -1.
         11    1    3    3    0    0  0.64151390819E+01  0.79835691381E+01  0.88044455213E+01  0.13505911551E+02  0.51100000000E-03 0. -1.
        -11    1    3    3    0    0  0.24136106035E+01 -0.15856807454E+02  0.25820336630E+01  0.16245945859E+02  0.51100000000E-03 0.  1.
         12    1    3    3    0    0 -0.16640453236E+01 -0.22109422720E+02 -0.19535421905E+02  0.29550437033E+02  0.00000000000E+00 0. -1.
</event>
<event>
 7    1  0.4673733E-013  0.5930194E+02  0.7816164E-02  0.1266605E+00
        -11   -1    0    0    0    0  0.00000000000E+00  0.00000000000E+00  0.45593999997E+02  0.45594000000E+02  0.51100000000E-03 0. -1.
         11   -1    0    0    0    0 -0.00000000000E+00 -0.00000000000E+00 -0.45593999997E+02  0.45594000000E+02  0.51100000000E-03 0.  1.
    9900012    2    1    2    0    0  0.20538950136E+02 -0.41884860725E+01  0.24027671788E+02  0.59301938785E+02  0.49999990438E+02 0.  0.
         12    1    1    2    0    0 -0.20538950136E+02  0.41884860725E+01 -0.24027671788E+02  0.31886061215E+02  0.00000000000E+00 0. -1.
         11    1    3    3    0    0  0.25651075187E+02  0.12307287469E+02  0.20223999321E+02  0.34906405313E+02  0.51100000000E-03 0. -1.
        -11    1    3    3    0    0  0.50396826790E+01 -0.37838895057E+01 -0.27253730796E+01  0.68661401078E+01  0.51100000000E-03 0.  1.
         12    1    3    3    0    0 -0.10151807730E+02 -0.12711884036E+02  0.65290455469E+01  0.17529393363E+02  0.00000000000E+00 0. -1.
</event>
<event>
 7    1  0.4673733E-013  0.5930194E+02  0.7816164E-02  0.1266605E+00
        -11   -1    0    0    0    0  0.00000000000E+00  0.00000000000E+00  0.45593999997E+02  0.45594000000E+02  0.51100000000E-03 0. -1.
         11   -1    0    0    0    0 -0.00000000000E+00 -0.00000000000E+00 -0.45593999997E+02  0.45594000000E+02  0.51100000000E-03 0.  1.
    9900012    2    1    2    0    0 -0.52110757203E+01  0.17831984212E+02 -0.25914976676E+02  0.59301937414E+02  0.49999987939E+02 0.  0.
         12    1    1    2    0    0  0.52110757203E+01 -0.17831984212E+02  0.25914976676E+02  0.31886062586E+02  0.00000000000E+00 0. -1.
         11    1    3    3    0    0 -0.61268454750E+01  0.19604946538E+02  0.67577124470E+01  0.21623108981E+02  0.51100000000E-03 0. -1.
        -11    1    3    3    0    0  0.67693994777E+01  0.56329611159E+01 -0.11397664541E+02  0.14403533506E+02  0.51100000000E-03 0.  1.
         12    1    3    3    0    0 -0.58536297230E+01 -0.74059234422E+01 -0.21275024582E+02  0.23275294927E+02  0.00000000000E+00 0. -1.
</event>
<event>
 7    1  0.4673733E-013  0.5930194E+02  0.7816164E-02  0.1266605E+00
        -11   -1    0    0    0    0  0.00000000000E+00  0.00000000000E+00  0.45593999997E+02  0.45594000000E+02  0.51100000000E-03 0. -1.
         11   -1    0    0    0    0 -0.00000000000E+00 -0.00000000000E+00 -0.45593999997E+02  0.45594000000E+02  0.51100000000E-03 0.  1.
    9900012    2    1    2    0    0 -0.55715144622E+00  0.29641915165E+02 -0.11737440252E+02  0.59301936335E+02  0.49999985970E+02 0.  0.
         12    1    1    2    0    0  0.55715144622E+00 -0.29641915165E+02  0.11737440252E+02  0.31886063665E+02  0.00000000000E+00 0. -1.
         11    1    3    3    0    0 -0.89524909702E+00  0.16583353547E+02  0.14933591439E+02  0.22334306332E+02  0.51100000000E-03 0. -1.
        -11    1    3    3    0    0 -0.29001932718E+01  0.18147945872E+02 -0.14594169131E+02  0.23468038547E+02  0.51100000000E-03 0.  1.
         12    1    3    3    0    0  0.32382909226E+01 -0.50893842536E+01 -0.12076862559E+02  0.13499591455E+02  0.00000000000E+00 0. -1.
</event>
<event>
 7    1  0.4673733E-013  0.5930194E+02  0.7816164E-02  0.1266605E+00
        -11   -1    0    0    0    0  0.00000000000E+00  0.00000000000E+00  0.45593999997E+02  0.45594000000E+02  0.51100000000E-03 0.  1.
         11   -1    0    0    0    0 -0.00000000000E+00 -0.00000000000E+00 -0.45593999997E+02  0.45594000000E+02  0.51100000000E-03 0. -1.
    9900012    2    1    2    0    0  0.27727985187E+02  0.15742633291E+02 -0.22207937764E+00  0.59301937453E+02  0.49999988010E+02 0.  0.
         12    1    1    2    0    0 -0.27727985187E+02 -0.15742633291E+02  0.22207937764E+00  0.31886062547E+02  0.00000000000E+00 0. -1.
         11    1    3    3    0    0 -0.12085730208E+02  0.73519241003E+01  0.79578131572E+01  0.16230910423E+02  0.51100000000E-03 0. -1.
        -11    1    3    3    0    0  0.33970057696E+02  0.56429543919E+01 -0.25944938533E+01  0.34533160191E+02  0.51100000000E-03 0.  1.
         12    1    3    3    0    0  0.58436576997E+01  0.27477547989E+01 -0.55853986815E+01  0.85378668400E+01  0.00000000000E+00 0. -1.
</event>
<event>
 7    1  0.4673733E-013  0.5930195E+02  0.7816164E-02  0.1266605E+00
        -11   -1    0    0    0    0  0.00000000000E+00  0.00000000000E+00  0.45593999997E+02  0.45594000000E+02  0.51100000000E-03 0. -1.
         11   -1    0    0    0    0 -0.00000000000E+00 -0.00000000000E+00 -0.45593999997E+02  0.45594000000E+02  0.51100000000E-03 0.  1.
    9900012    2    1    2    0    0  0.12240850873E+02 -0.17604268045E+01 -0.29390182351E+02  0.59301947387E+02  0.50000006126E+02 0.  0.
         12    1    1    2    0    0 -0.12240850873E+02  0.17604268045E+01  0.29390182351E+02  0.31886052613E+02  0.00000000000E+00 0. -1.
         11    1    3    3    0    0 -0.26074498843E+01 -0.18336173325E+02 -0.33792406638E-01  0.18520669246E+02  0.51100000000E-03 0.  1.
        -11    1    3    3    0    0  0.12128454844E+02  0.13610868879E+02 -0.31369559350E+02  0.36282288001E+02  0.51100000000E-03 0. -1.
         12    1    3    3    0    0  0.27198459142E+01  0.29648776418E+01  0.20131694051E+01  0.44989901402E+01  0.00000000000E+00 0. -1.
</event>
<event>
 7    1  0.4673733E-013  0.5930197E+02  0.7816164E-02  0.1266605E+00
        -11   -1    0    0    0    0  0.00000000000E+00  0.00000000000E+00  0.45593999997E+02  0.45594000000E+02  0.51100000000E-03 0.  1.
         11   -1    0    0    0    0 -0.00000000000E+00 -0.00000000000E+00 -0.45593999997E+02  0.45594000000E+02  0.51100000000E-03 0. -1.
    9900012    2    1    2    0    0  0.11339491507E+02  0.27743856820E+02  0.10881774665E+02  0.59301973613E+02  0.50000053956E+02 0.  0.
         12    1    1    2    0    0 -0.11339491507E+02 -0.27743856820E+02 -0.10881774665E+02  0.31886026387E+02  0.00000000000E+00 0. -1.
         11    1    3    3    0    0 -0.14149746891E+02  0.56927620237E+00  0.15544983651E+02  0.21028217457E+02  0.51100000000E-03 0. -1.
        -11    1    3    3    0    0  0.13325495327E+02  0.18972321720E+02 -0.44135378236E+01  0.23600786715E+02  0.51100000000E-03 0.  1.
         12    1    3    3    0    0  0.12163743071E+02  0.82022588974E+01 -0.24967116250E+00  0.14672969441E+02  0.00000000000E+00 0. -1.
</event>
<event>
 7    1  0.4673733E-013  0.5930196E+02  0.7816164E-02  0.1266605E+00
        -11   -1    0    0    0    0  0.00000000000E+00  0.00000000000E+00  0.45593999997E+02  0.45594000000E+02  0.51100000000E-03 0.  1.
         11   -1    0    0    0    0 -0.00000000000E+00 -0.00000000000E+00 -0.45593999997E+02  0.45594000000E+02  0.51100000000E-03 0. -1.
    9900012    2    1    2    0    0 -0.20915077705E+02 -0.75979597789E+01  0.22837477110E+02  0.59301955577E+02  0.50000021063E+02 0.  0.
         12    1    1    2    0    0  0.20915077705E+02  0.75979597789E+01 -0.22837477110E+02  0.31886044423E+02  0.00000000000E+00 0. -1.
         11    1    3    3    0    0  0.41769609216E+00 -0.11253328207E+02 -0.82568889596E+01  0.13963813280E+02  0.51100000000E-03 0. -1.
        -11    1    3    3    0    0  0.13078937465E+01  0.86162558267E+01  0.37370134831E+01  0.94823900235E+01  0.51100000000E-03 0.  1.
         12    1    3    3    0    0 -0.22640667543E+02 -0.49608873984E+01  0.27357352586E+02  0.35855752274E+02  0.00000000000E+00 0. -1.
</event>
<event>
 7    1  0.4673733E-013  0.5930198E+02  0.7816164E-02  0.1266605E+00
        -11   -1    0    0    0    0  0.00000000000E+00  0.00000000000E+00  0.45593999997E+02  0.45594000000E+02  0.51100000000E-03 0. -1.
         11   -1    0    0    0    0 -0.00000000000E+00 -0.00000000000E+00 -0.45593999997E+02  0.45594000000E+02  0.51100000000E-03 0.  1.
    9900012    2    1    2    0    0 -0.14844819526E+02 -0.20466040506E+02 -0.19429128396E+02  0.59301976244E+02  0.50000058754E+02 0.  0.
         12    1    1    2    0    0  0.14844819526E+02  0.20466040506E+02  0.19429128396E+02  0.31886023756E+02  0.00000000000E+00 0. -1.
         11    1    3    3    0    0 -0.66293527422E+01  0.11428826196E+02  0.79985104839E+01  0.15444822958E+02  0.51100000000E-03 0. -1.
        -11    1    3    3    0    0 -0.38729233734E+01 -0.18884103800E+02 -0.10115839747E+02  0.21770142990E+02  0.51100000000E-03 0.  1.
         12    1    3    3    0    0 -0.43425434106E+01 -0.13010762902E+02 -0.17311799133E+02  0.22087010295E+02  0.00000000000E+00 0. -1.
</event>
<event>
 7    1  0.4673733E-013  0.5930196E+02  0.7816164E-02  0.1266605E+00
        -11   -1    0    0    0    0  0.00000000000E+00  0.00000000000E+00  0.45593999997E+02  0.45594000000E+02  0.51100000000E-03 0. -1.
         11   -1    0    0    0    0 -0.00000000000E+00 -0.00000000000E+00 -0.45593999997E+02  0.45594000000E+02  0.51100000000E-03 0.  1.
    9900012    2    1    2    0    0  0.24503245436E+02 -0.74410232087E+01 -0.18998469953E+02  0.59301957225E+02  0.50000024068E+02 0.  0.
         12    1    1    2    0    0 -0.24503245436E+02  0.74410232087E+01  0.18998469953E+02  0.31886042775E+02  0.00000000000E+00 0. -1.
         11    1    3    3    0    0  0.25759936238E+02 -0.23300827819E+02 -0.18277003939E+02  0.39249863252E+02  0.51100000000E-03 0. -1.
        -11    1    3    3    0    0 -0.10467212870E+01  0.12790473814E+02 -0.58247165081E+01  0.14093231301E+02  0.51100000000E-03 0.  1.
         12    1    3    3    0    0 -0.20996951457E+00  0.30693307961E+01  0.51032504942E+01  0.59588626717E+01  0.00000000000E+00 0. -1.
</event>
<event>
 7    1  0.4673733E-013  0.5930194E+02  0.7816164E-02  0.1266605E+00
        -11   -1    0    0    0    0  0.00000000000E+00  0.00000000000E+00  0.45593999997E+02  0.45594000000E+02  0.51100000000E-03 0.  1.
         11   -1    0    0    0    0 -0.00000000000E+00 -0.00000000000E+00 -0.45593999997E+02  0.45594000000E+02  0.51100000000E-03 0. -1.
    9900012    2    1    2    0    0 -0.17059394706E+02 -0.16010574561E+02  0.21664702605E+02  0.59301940593E+02  0.49999993736E+02 0.  0.
         12    1    1    2    0    0  0.17059394706E+02  0.16010574561E+02 -0.21664702605E+02  0.31886059407E+02  0.00000000000E+00 0. -1.
         11    1    3    3    0    0  0.66535417583E+01 -0.22557269962E+01  0.25348169165E+02  0.26303756433E+02  0.51100000000E-03 0.  1.
        -11    1    3    3    0    0 -0.25519072693E+02 -0.15834968417E+02 -0.35223898166E+01  0.30238659464E+02  0.51100000000E-03 0. -1.
         12    1    3    3    0    0  0.18061362285E+01  0.20801208521E+01 -0.16107674268E+00  0.27595246968E+01  0.00000000000E+00 0. -1.
</event>
<event>
 7    1  0.4673733E-013  0.5930215E+02  0.7816164E-02  0.1266604E+00
        -11   -1    0    0    0    0  0.00000000000E+00  0.00000000000E+00  0.45593999997E+02  0.45594000000E+02  0.51100000000E-03 0. -1.
         11   -1    0    0    0    0 -0.00000000000E+00 -0.00000000000E+00 -0.45593999997E+02  0.45594000000E+02  0.51100000000E-03 0.  1.
    9900012    2    1    2    0    0  0.18315281234E+02  0.36443864543E+01 -0.25845237678E+02  0.59302150632E+02  0.50000376795E+02 0.  0.
         12    1    1    2    0    0 -0.18315281234E+02 -0.36443864543E+01  0.25845237678E+02  0.31885849368E+02  0.00000000000E+00 0. -1.
         11    1    3    3    0    0 -0.11208981844E+02  0.29375228680E+01 -0.26296921664E+02  0.28736708299E+02  0.51100000000E-03 0. -1.
        -11    1    3    3    0    0  0.17477520585E+02  0.32716008474E+01  0.28765997270E+01  0.18012271488E+02  0.51100000000E-03 0.  1.
         12    1    3    3    0    0  0.12046742493E+02 -0.25647372612E+01 -0.24249157401E+01  0.12553170845E+02  0.00000000000E+00 0. -1.
</event>
<event>
 7    1  0.4673733E-013  0.5930195E+02  0.7816164E-02  0.1266605E+00
        -11   -1    0    0    0    0  0.00000000000E+00  0.00000000000E+00  0.45593999997E+02  0.45594000000E+02  0.51100000000E-03 0.  1.
         11   -1    0    0    0    0 -0.00000000000E+00 -0.00000000000E+00 -0.45593999997E+02  0.45594000000E+02  0.51100000000E-03 0. -1.
    9900012    2    1    2    0    0  0.53868818176E+01 -0.19705119252E+02  0.24482846971E+02  0.59301952640E+02  0.50000015706E+02 0.  0.
         12    1    1    2    0    0 -0.53868818176E+01  0.19705119252E+02 -0.24482846971E+02  0.31886047360E+02  0.00000000000E+00 0. -1.
         11    1    3    3    0    0  0.20743766559E+01 -0.10319461310E+01 -0.99596013614E+00  0.25218818731E+01  0.51100000000E-03 0. -1.
        -11    1    3    3    0    0 -0.13642790284E+02 -0.86560937180E+01  0.32154895426E+02  0.35985983178E+02  0.51100000000E-03 0.  1.
        -12    1    3    3    0    0  0.16955295445E+02 -0.10017079403E+02 -0.66760883184E+01  0.20794087588E+02  0.00000000000E+00 0.  1.
</event>
<event>
 7    1  0.4673733E-013  0.5930194E+02  0.7816164E-02  0.1266605E+00
        -11   -1    0    0    0    0  0.00000000000E+00  0.00000000000E+00  0.45593999997E+02  0.45594000000E+02  0.51100000000E-03 0. -1.
         11   -1    0    0    0    0 -0.00000000000E+00 -0.00000000000E+00 -0.45593999997E+02  0.45594000000E+02  0.51100000000E-03 0.  1.
    9900012    2    1    2    0    0 -0.91575231333E+01  0.30484968963E+02 -0.18781433255E+01  0.59301937450E+02  0.49999988004E+02 0.  0.
         12    1    1    2    0    0  0.91575231333E+01 -0.30484968963E+02  0.18781433255E+01  0.31886062550E+02  0.00000000000E+00 0. -1.
         11    1    3    3    0    0  0.69425833749E+01  0.81707311343E+01 -0.15095258769E+02  0.18515592044E+02  0.51100000000E-03 0.  1.
        -11    1    3    3    0    0 -0.17924904974E+02  0.25426680898E+02  0.17088691041E+02  0.35494248571E+02  0.51100000000E-03 0. -1.
         12    1    3    3    0    0  0.18247984658E+01 -0.31124430699E+01 -0.38715755977E+01  0.52920968352E+01  0.00000000000E+00 0. -1.
</event>
<event>
 7    1  0.4673733E-013  0.5930195E+02  0.7816164E-02  0.1266605E+00
        -11   -1    0    0    0    0  0.00000000000E+00  0.00000000000E+00  0.45593999997E+02  0.45594000000E+02  0.51100000000E-03 0.  1.
         11   -1    0    0    0    0 -0.00000000000E+00 -0.00000000000E+00 -0.45593999997E+02  0.45594000000E+02  0.51100000000E-03 0. -1.
    9900012    2    1    2    0    0 -0.10419013435E+01  0.18101677224E+02  0.26229063853E+02  0.59301951839E+02  0.50000014245E+02 0.  0.
         12    1    1    2    0    0  0.10419013435E+01 -0.18101677224E+02 -0.26229063853E+02  0.31886048161E+02  0.00000000000E+00 0. -1.
         11    1    3    3    0    0 -0.15612822342E+02  0.20509204001E+01 -0.88162895472E+00  0.15771612658E+02  0.51100000000E-03 0. -1.
        -11    1    3    3    0    0  0.13265104480E+02  0.21435113915E+02  0.12982039056E+02  0.28354196228E+02  0.51100000000E-03 0.  1.
         12    1    3    3    0    0  0.13058165177E+01 -0.53843570916E+01  0.14128653752E+02  0.15176142952E+02  0.00000000000E+00 0. -1.
</event>
<event>
 7    1  0.4673733E-013  0.5930197E+02  0.7816164E-02  0.1266605E+00
        -11   -1    0    0    0    0  0.00000000000E+00  0.00000000000E+00  0.45593999997E+02  0.45594000000E+02  0.51100000000E-03 0. -1.
         11   -1    0    0    0    0 -0.00000000000E+00 -0.00000000000E+00 -0.45593999997E+02  0.45594000000E+02  0.51100000000E-03 0.  1.
    9900012    2    1    2    0    0  0.24343458403E+02  0.19879301832E+02  0.53785116187E+01  0.59301968645E+02  0.50000044896E+02 0.  0.
         12    1    1    2    0    0 -0.24343458403E+02 -0.19879301832E+02 -0.53785116187E+01  0.31886031355E+02  0.00000000000E+00 0. -1.
         11    1    3    3    0    0  0.15248143867E+02  0.21801795059E+02  0.17338579070E+02  0.31756109390E+02  0.51100000000E-03 0. -1.
        -11    1    3    3    0    0  0.15705689739E+02 -0.54118442084E+01 -0.11194813018E+02  0.20031989084E+02  0.51100000000E-03 0.  1.
         12    1    3    3    0    0 -0.66103752030E+01  0.34893509816E+01 -0.76525443318E+00  0.75138701708E+01  0.00000000000E+00 0. -1.
</event>
<event>
 7    1  0.4673733E-013  0.5930198E+02  0.7816164E-02  0.1266605E+00
        -11   -1    0    0    0    0  0.00000000000E+00  0.00000000000E+00  0.45593999997E+02  0.45594000000E+02  0.51100000000E-03 0. -1.
         11   -1    0    0    0    0 -0.00000000000E+00 -0.00000000000E+00 -0.45593999997E+02  0.45594000000E+02  0.51100000000E-03 0.  1.
    9900012    2    1    2    0    0  0.14225319647E+02  0.21821915146E+02 -0.18389198245E+02  0.59301979368E+02  0.50000064452E+02 0.  0.
         12    1    1    2    0    0 -0.14225319647E+02 -0.21821915146E+02  0.18389198245E+02  0.31886020632E+02  0.00000000000E+00 0. -1.
         11    1    3    3    0    0  0.15036139827E+02 -0.10028779715E+02  0.34389631762E+01  0.18398054013E+02  0.51100000000E-03 0. -1.
        -11    1    3    3    0    0 -0.31794940215E+01  0.18644674770E+02 -0.53529028574E+01  0.19656720193E+02  0.51100000000E-03 0.  1.
         12    1    3    3    0    0  0.23686738407E+01  0.13206020091E+02 -0.16475258564E+02  0.21247205161E+02  0.00000000000E+00 0. -1.
</event>
<event>
 7    1  0.4673733E-013  0.5930192E+02  0.7816164E-02  0.1266605E+00
        -11   -1    0    0    0    0  0.00000000000E+00  0.00000000000E+00  0.45593999997E+02  0.45594000000E+02  0.51100000000E-03 0.  1.
         11   -1    0    0    0    0 -0.00000000000E+00 -0.00000000000E+00 -0.45593999997E+02  0.45594000000E+02  0.51100000000E-03 0. -1.
    9900012    2    1    2    0    0 -0.14219566459E+02  0.25321866930E+02  0.13165439691E+02  0.59301924397E+02  0.49999964199E+02 0.  0.
         12    1    1    2    0    0  0.14219566459E+02 -0.25321866930E+02 -0.13165439691E+02  0.31886075603E+02  0.00000000000E+00 0. -1.
         11    1    3    3    0    0  0.57052467838E+00  0.17120013851E+02  0.64655790636E+01  0.18309125746E+02  0.51100000000E-03 0. -1.
        -11    1    3    3    0    0 -0.12959186161E+02  0.79705896655E+01  0.21355869162E+02  0.26221059351E+02  0.51100000000E-03 0.  1.
        -12    1    3    3    0    0 -0.18309049765E+01  0.23126341263E+00 -0.14656008534E+02  0.14771739300E+02  0.00000000000E+00 0.  1.
</event>
<event>
 7    1  0.4673733E-013  0.5930195E+02  0.7816164E-02  0.1266605E+00
        -11   -1    0    0    0    0  0.00000000000E+00  0.00000000000E+00  0.45593999997E+02  0.45594000000E+02  0.51100000000E-03 0. -1.
         11   -1    0    0    0    0 -0.00000000000E+00 -0.00000000000E+00 -0.45593999997E+02  0.45594000000E+02  0.51100000000E-03 0.  1.
    9900012    2    1    2    0    0 -0.16061531729E+02 -0.26378999851E+02 -0.79306727385E+01  0.59301952821E+02  0.50000016036E+02 0.  0.
         12    1    1    2    0    0  0.16061531729E+02  0.26378999851E+02  0.79306727385E+01  0.31886047179E+02  0.00000000000E+00 0. -1.
         11    1    3    3    0    0  0.11986845297E+02 -0.18535712412E+00 -0.26741388962E+01  0.12282908310E+02  0.51100000000E-03 0. -1.
        -11    1    3    3    0    0 -0.31213457487E+02 -0.19274596423E+02  0.16795042553E+01  0.36723435711E+02  0.51100000000E-03 0.  1.
        -12    1    3    3    0    0  0.31650804610E+01 -0.69190463039E+01 -0.69360380975E+01  0.10295608800E+02  0.00000000000E+00 0.  1.
</event>
<event>
 7    1  0.4673733E-013  0.5930191E+02  0.7816164E-02  0.1266605E+00
        -11   -1    0    0    0    0  0.00000000000E+00  0.00000000000E+00  0.45593999997E+02  0.45594000000E+02  0.51100000000E-03 0.  1.
         11   -1    0    0    0    0 -0.00000000000E+00 -0.00000000000E+00 -0.45593999997E+02  0.45594000000E+02  0.51100000000E-03 0. -1.
    9900012    2    1    2    0    0 -0.30107917662E+02 -0.83088727384E+01 -0.64186341673E+01  0.59301906845E+02  0.49999932188E+02 0.  0.
         12    1    1    2    0    0  0.30107917662E+02  0.83088727384E+01  0.64186341673E+01  0.31886093155E+02  0.00000000000E+00 0. -1.
         11    1    3    3    0    0  0.71553794311E+01  0.10964550531E+02 -0.48082953215E+01  0.13947778580E+02  0.51100000000E-03 0. -1.
        -11    1    3    3    0    0 -0.34040539004E+02 -0.16315459365E+02  0.43091372170E+01  0.37993699133E+02  0.51100000000E-03 0.  1.
         12    1    3    3    0    0 -0.32227580887E+01 -0.29579639049E+01 -0.59194760628E+01  0.73604291329E+01  0.00000000000E+00 0. -1.
</event>
<event>
 7    1  0.4673733E-013  0.5930193E+02  0.7816164E-02  0.1266605E+00
        -11   -1    0    0    0    0  0.00000000000E+00  0.00000000000E+00  0.45593999997E+02  0.45594000000E+02  0.51100000000E-03 0. -1.
         11   -1    0    0    0    0 -0.00000000000E+00 -0.00000000000E+00 -0.45593999997E+02  0.45594000000E+02  0.51100000000E-03 0.  1.
    9900012    2    1    2    0    0  0.20409374012E+02 -0.12349186290E+02 -0.21158370258E+02  0.59301928094E+02  0.49999970941E+02 0.  0.
         12    1    1    2    0    0 -0.20409374012E+02  0.12349186290E+02  0.21158370258E+02  0.31886071906E+02  0.00000000000E+00 0. -1.
         11    1    3    3    0    0 -0.17174365768E+01 -0.14366277192E+02 -0.55976944561E+01  0.15513661471E+02  0.51100000000E-03 0. -1.
        -11    1    3    3    0    0  0.21778101011E+02  0.88325440227E+01 -0.23557441547E+02  0.33275404882E+02  0.51100000000E-03 0.  1.
         12    1    3    3    0    0  0.34870957811E+00 -0.68154531209E+01  0.79967657451E+01  0.10512861741E+02  0.00000000000E+00 0. -1.
</event>
<event>
 7    1  0.4673733E-013  0.5930193E+02  0.7816164E-02  0.1266605E+00
        -11   -1    0    0    0    0  0.00000000000E+00  0.00000000000E+00  0.45593999997E+02  0.45594000000E+02  0.51100000000E-03 0.  1.
         11   -1    0    0    0    0 -0.00000000000E+00 -0.00000000000E+00 -0.45593999997E+02  0.45594000000E+02  0.51100000000E-03 0. -1.
    9900012    2    1    2    0    0  0.13640519978E+02 -0.27815930121E+02  0.75452906200E+01  0.59301934637E+02  0.49999982874E+02 0.  0.
         12    1    1    2    0    0 -0.13640519978E+02  0.27815930121E+02 -0.75452906200E+01  0.31886065363E+02  0.00000000000E+00 0. -1.
         11    1    3    3    0    0  0.90436333427E+01 -0.16207501523E+02 -0.20517560604E+02  0.27666599051E+02  0.51100000000E-03 0. -1.
        -11    1    3    3    0    0  0.59989308088E+01 -0.11713631579E+02  0.24624863034E+02  0.27920963725E+02  0.51100000000E-03 0.  1.
         12    1    3    3    0    0 -0.14020441733E+01  0.10520298096E+00  0.34379881900E+01  0.37143718615E+01  0.00000000000E+00 0. -1.
</event>
<event>
 7    1  0.4673733E-013  0.5930198E+02  0.7816164E-02  0.1266605E+00
        -11   -1    0    0    0    0  0.00000000000E+00  0.00000000000E+00  0.45593999997E+02  0.45594000000E+02  0.51100000000E-03 0.  1.
         11   -1    0    0    0    0 -0.00000000000E+00 -0.00000000000E+00 -0.45593999997E+02  0.45594000000E+02  0.51100000000E-03 0. -1.
    9900012    2    1    2    0    0  0.24861404654E+02  0.14472313114E+02  0.13754314271E+02  0.59301977211E+02  0.50000060518E+02 0.  0.
         12    1    1    2    0    0 -0.24861404654E+02 -0.14472313114E+02 -0.13754314271E+02  0.31886022789E+02  0.00000000000E+00 0. -1.
         11    1    3    3    0    0  0.23210885624E+01 -0.13586515003E+02  0.36693454835E+01  0.14263412586E+02  0.51100000000E-03 0. -1.
        -11    1    3    3    0    0  0.16930162680E+02  0.23236290951E+02 -0.40995679370E+01  0.29040697014E+02  0.51100000000E-03 0.  1.
        -12    1    3    3    0    0  0.56101534117E+01  0.48225371663E+01  0.14184536724E+02  0.15997867611E+02  0.00000000000E+00 0.  1.
</event>
<event>
 7    1  0.4673733E-013  0.5930194E+02  0.7816164E-02  0.1266605E+00
        -11   -1    0    0    0    0  0.00000000000E+00  0.00000000000E+00  0.45593999997E+02  0.45594000000E+02  0.51100000000E-03 0.  1.
         11   -1    0    0    0    0 -0.00000000000E+00 -0.00000000000E+00 -0.45593999997E+02  0.45594000000E+02  0.51100000000E-03 0. -1.
    9900012    2    1    2    0    0  0.11898794173E+02 -0.18547216711E+02  0.23046481736E+02  0.59301939238E+02  0.49999991265E+02 0.  0.
         12    1    1    2    0    0 -0.11898794173E+02  0.18547216711E+02 -0.23046481736E+02  0.31886060762E+02  0.00000000000E+00 0. -1.
         11    1    3    3    0    0 -0.71726938379E+01 -0.75858966427E+01  0.75035538101E+01  0.12856775833E+02  0.51100000000E-03 0. -1.
        -11    1    3    3    0    0  0.13136628511E+02 -0.14097893415E+02 -0.88070011705E+01  0.21186903437E+02  0.51100000000E-03 0.  1.
        -12    1    3    3    0    0  0.59348595002E+01  0.31365733471E+01  0.24349929096E+02  0.25258259969E+02  0.00000000000E+00 0.  1.
</event>
<event>
 7    1  0.4673733E-013  0.5930180E+02  0.7816164E-02  0.1266605E+00
        -11   -1    0    0    0    0  0.00000000000E+00  0.00000000000E+00  0.45593999997E+02  0.45594000000E+02  0.51100000000E-03 0.  1.
         11   -1    0    0    0    0 -0.00000000000E+00 -0.00000000000E+00 -0.45593999997E+02  0.45594000000E+02  0.51100000000E-03 0. -1.
    9900012    2    1    2    0    0  0.17383137409E+02 -0.84761999485E+01  0.25351731700E+02  0.59301800290E+02  0.49999737856E+02 0.  0.
         12    1    1    2    0    0 -0.17383137409E+02  0.84761999485E+01 -0.25351731700E+02  0.31886199710E+02  0.00000000000E+00 0. -1.
         11    1    3    3    0    0  0.58532711231E+01 -0.82737580117E+01 -0.72028678219E+01  0.12433710613E+02  0.51100000000E-03 0. -1.
        -11    1    3    3    0    0  0.18733400865E+02  0.94731310625E+01  0.16048944147E+02  0.26424404035E+02  0.51100000000E-03 0.  1.
        -12    1    3    3    0    0 -0.72035345794E+01 -0.96755729993E+01  0.16505655375E+02  0.20443685643E+02  0.00000000000E+00 0.  1.
</event>
<event>
 7    1  0.4673733E-013  0.5930195E+02  0.7816164E-02  0.1266605E+00
        -11   -1    0    0    0    0  0.00000000000E+00  0.00000000000E+00  0.45593999997E+02  0.45594000000E+02  0.51100000000E-03 0.  1.
         11   -1    0    0    0    0 -0.00000000000E+00 -0.00000000000E+00 -0.45593999997E+02  0.45594000000E+02  0.51100000000E-03 0. -1.
    9900012    2    1    2    0    0 -0.24866532977E+02 -0.24561543416E+01  0.19807654287E+02  0.59301947802E+02  0.50000006884E+02 0.  0.
         12    1    1    2    0    0  0.24866532977E+02  0.24561543416E+01 -0.19807654287E+02  0.31886052198E+02  0.00000000000E+00 0. -1.
         11    1    3    3    0    0  0.96986102336E+01  0.33966428839E+01 -0.45840387689E+01  0.11252272439E+02  0.51100000000E-03 0. -1.
        -11    1    3    3    0    0 -0.24083224257E+02 -0.73847138462E+01  0.27218071605E+02  0.37085834376E+02  0.51100000000E-03 0.  1.
        -12    1    3    3    0    0 -0.10481918954E+02  0.15319166207E+01 -0.28263785499E+01  0.10963840987E+02  0.00000000000E+00 0.  1.
</event>
<event>
 7    1  0.4673733E-013  0.5930192E+02  0.7816164E-02  0.1266605E+00
        -11   -1    0    0    0    0  0.00000000000E+00  0.00000000000E+00  0.45593999997E+02  0.45594000000E+02  0.51100000000E-03 0.  1.
         11   -1    0    0    0    0 -0.00000000000E+00 -0.00000000000E+00 -0.45593999997E+02  0.45594000000E+02  0.51100000000E-03 0. -1.
    9900012    2    1    2    0    0 -0.43273665458E+01 -0.18659361187E+02  0.25491656120E+02  0.59301915373E+02  0.49999947740E+02 0.  0.
         12    1    1    2    0    0  0.43273665458E+01  0.18659361187E+02 -0.25491656120E+02  0.31886084627E+02  0.00000000000E+00 0. -1.
         11    1    3    3    0    0  0.29430131484E+01  0.17206659971E+01 -0.77504614100E+01  0.84670933734E+01  0.51100000000E-03 0. -1.
        -11    1    3    3    0    0 -0.14247534481E+02 -0.25885213959E+02  0.26315105177E+02  0.39566669069E+02  0.51100000000E-03 0.  1.
        -12    1    3    3    0    0  0.69771547863E+01  0.55051867743E+01  0.69270123526E+01  0.11268152930E+02  0.00000000000E+00 0.  1.
</event>
<event>
 7    1  0.4673733E-013  0.5930195E+02  0.7816164E-02  0.1266605E+00
        -11   -1    0    0    0    0  0.00000000000E+00  0.00000000000E+00  0.45593999997E+02  0.45594000000E+02  0.51100000000E-03 0.  1.
         11   -1    0    0    0    0 -0.00000000000E+00 -0.00000000000E+00 -0.45593999997E+02  0.45594000000E+02  0.51100000000E-03 0. -1.
    9900012    2    1    2    0    0  0.10469185022E+02  0.17607270236E+02  0.24435642479E+02  0.59301946253E+02  0.50000004058E+02 0.  0.
         12    1    1    2    0    0 -0.10469185022E+02 -0.17607270236E+02 -0.24435642479E+02  0.31886053747E+02  0.00000000000E+00 0. -1.
         11    1    3    3    0    0 -0.14599425168E+02 -0.14678824156E+00 -0.90948183757E+00  0.14628462650E+02  0.51100000000E-03 0. -1.
        -11    1    3    3    0    0  0.22158619081E+02  0.81305472126E+01  0.85595329432E+01  0.25107285835E+02  0.51100000000E-03 0.  1.
         12    1    3    3    0    0  0.29099911092E+01  0.96235112649E+01  0.16785591374E+02  0.19566197768E+02  0.00000000000E+00 0. -1.
</event>
<event>
 7    1  0.4673733E-013  0.5930195E+02  0.7816164E-02  0.1266605E+00
        -11   -1    0    0    0    0  0.00000000000E+00  0.00000000000E+00  0.45593999997E+02  0.45594000000E+02  0.51100000000E-03 0.  1.
         11   -1    0    0    0    0 -0.00000000000E+00 -0.00000000000E+00 -0.45593999997E+02  0.45594000000E+02  0.51100000000E-03 0. -1.
    9900012    2    1    2    0    0  0.17579916148E+02  0.24403770760E+02  0.10588794782E+02  0.59301952048E+02  0.50000014627E+02 0.  0.
         12    1    1    2    0    0 -0.17579916148E+02 -0.24403770760E+02 -0.10588794782E+02  0.31886047952E+02  0.00000000000E+00 0. -1.
         11    1    3    3    0    0  0.24621938775E+02  0.22496554413E+02  0.30739827009E+01  0.33493047031E+02  0.51100000000E-03 0.  1.
        -11    1    3    3    0    0 -0.10359238316E+02  0.79956038438E+01 -0.27982599404E+01  0.13381844352E+02  0.51100000000E-03 0. -1.
         12    1    3    3    0    0  0.33172156885E+01 -0.60883874973E+01  0.10313072022E+02  0.12427060665E+02  0.00000000000E+00 0. -1.
</event>
<event>
 7    1  0.4673733E-013  0.5930195E+02  0.7816164E-02  0.1266605E+00
        -11   -1    0    0    0    0  0.00000000000E+00  0.00000000000E+00  0.45593999997E+02  0.45594000000E+02  0.51100000000E-03 0.  1.
         11   -1    0    0    0    0 -0.00000000000E+00 -0.00000000000E+00 -0.45593999997E+02  0.45594000000E+02  0.51100000000E-03 0. -1.
    9900012    2    1    2    0    0  0.17137927900E+02 -0.53944233239E+01  0.26342207324E+02  0.59301948780E+02  0.50000008667E+02 0.  0.
         12    1    1    2    0    0 -0.17137927900E+02  0.53944233239E+01 -0.26342207324E+02  0.31886051220E+02  0.00000000000E+00 0. -1.
         11    1    3    3    0    0  0.63704565026E+01 -0.82117470030E+01 -0.70656565963E+01  0.12567378736E+02  0.51100000000E-03 0. -1.
        -11    1    3    3    0    0  0.11951990103E+01 -0.10699717790E+02  0.26836255512E+02  0.28915343187E+02  0.51100000000E-03 0.  1.
        -12    1    3    3    0    0  0.95722723867E+01  0.13517041469E+02  0.65716084080E+01  0.17819226857E+02  0.00000000000E+00 0.  1.
</event>
<event>
 7    1  0.4673733E-013  0.5930200E+02  0.7816164E-02  0.1266605E+00
        -11   -1    0    0    0    0  0.00000000000E+00  0.00000000000E+00  0.45593999997E+02  0.45594000000E+02  0.51100000000E-03 0. -1.
         11   -1    0    0    0    0 -0.00000000000E+00 -0.00000000000E+00 -0.45593999997E+02  0.45594000000E+02  0.51100000000E-03 0.  1.
    9900012    2    1    2    0    0  0.28714666642E+02  0.13624411046E+02 -0.25612682407E+01  0.59302003831E+02  0.50000109066E+02 0.  0.
         12    1    1    2    0    0 -0.28714666642E+02 -0.13624411046E+02  0.25612682407E+01  0.31885996169E+02  0.00000000000E+00 0. -1.
         11    1    3    3    0    0  0.19087010120E+01 -0.79763072973E+01 -0.91646130766E+01  0.12298567021E+02  0.51100000000E-03 0. -1.
        -11    1    3    3    0    0  0.22740045743E+02  0.29432195106E+02  0.80681939656E+01  0.38058632967E+02  0.51100000000E-03 0.  1.
        -12    1    3    3    0    0  0.40659198871E+01 -0.78314767632E+01 -0.14648491297E+01  0.89448038432E+01  0.00000000000E+00 0.  1.
</event>
<event>
 7    1  0.4673733E-013  0.5930195E+02  0.7816164E-02  0.1266605E+00
        -11   -1    0    0    0    0  0.00000000000E+00  0.00000000000E+00  0.45593999997E+02  0.45594000000E+02  0.51100000000E-03 0. -1.
         11   -1    0    0    0    0 -0.00000000000E+00 -0.00000000000E+00 -0.45593999997E+02  0.45594000000E+02  0.51100000000E-03 0.  1.
    9900012    2    1    2    0    0 -0.21812082174E+02  0.13361751982E+02 -0.19037248185E+02  0.59301950335E+02  0.50000011503E+02 0.  0.
         12    1    1    2    0    0  0.21812082174E+02 -0.13361751982E+02  0.19037248185E+02  0.31886049665E+02  0.00000000000E+00 0. -1.
         11    1    3    3    0    0 -0.46793529389E+01 -0.66057726360E+01 -0.12179710539E+01  0.81863318889E+01  0.51100000000E-03 0. -1.
        -11    1    3    3    0    0 -0.19531256064E+02  0.28009301430E+02 -0.23076467324E+02  0.41213035249E+02  0.51100000000E-03 0.  1.
        -12    1    3    3    0    0  0.23985268294E+01 -0.80417768122E+01  0.52571901931E+01  0.99025831971E+01  0.00000000000E+00 0.  1.
</event>
<event>
 7    1  0.4673733E-013  0.5930197E+02  0.7816164E-02  0.1266605E+00
        -11   -1    0    0    0    0  0.00000000000E+00  0.00000000000E+00  0.45593999997E+02  0.45594000000E+02  0.51100000000E-03 0.  1.
         11   -1    0    0    0    0 -0.00000000000E+00 -0.00000000000E+00 -0.45593999997E+02  0.45594000000E+02  0.51100000000E-03 0. -1.
    9900012    2    1    2    0    0  0.72387835170E+01 -0.41137198722E+01  0.30779799329E+02  0.59301972892E+02  0.50000052641E+02 0.  0.
         12    1    1    2    0    0 -0.72387835170E+01  0.41137198722E+01 -0.30779799329E+02  0.31886027108E+02  0.00000000000E+00 0. -1.
         11    1    3    3    0    0  0.22956673241E+01  0.18122384867E+02  0.10710369839E+02  0.21175527009E+02  0.51100000000E-03 0. -1.
        -11    1    3    3    0    0 -0.61442216998E+01 -0.67476928161E+01  0.16341793671E+02  0.18717292520E+02  0.51100000000E-03 0.  1.
         12    1    3    3    0    0  0.11087337893E+02 -0.15488411923E+02  0.37276358187E+01  0.19409153363E+02  0.00000000000E+00 0. -1.
</event>
<event>
 7    1  0.4673733E-013  0.5930194E+02  0.7816164E-02  0.1266605E+00
        -11   -1    0    0    0    0  0.00000000000E+00  0.00000000000E+00  0.45593999997E+02  0.45594000000E+02  0.51100000000E-03 0.  1.
         11   -1    0    0    0    0 -0.00000000000E+00 -0.00000000000E+00 -0.45593999997E+02  0.45594000000E+02  0.51100000000E-03 0. -1.
    9900012    2    1    2    0    0 -0.82507071545E+01  0.30663054716E+02  0.29023872766E+01  0.59301938077E+02  0.49999989148E+02 0.  0.
         12    1    1    2    0    0  0.82507071545E+01 -0.30663054716E+02 -0.29023872766E+01  0.31886061923E+02  0.00000000000E+00 0. -1.
         11    1    3    3    0    0  0.33684932570E+01 -0.79284577738E+01 -0.96813401903E+01  0.12958994468E+02  0.51100000000E-03 0. -1.
        -11    1    3    3    0    0 -0.50576457928E+01  0.37076222786E+02  0.12954359039E+02  0.39598503701E+02  0.51100000000E-03 0.  1.
        -12    1    3    3    0    0 -0.65615546186E+01  0.15152897038E+01 -0.37063157217E+00  0.67444399072E+01  0.00000000000E+00 0.  1.
</event>
<event>
 7    1  0.4673733E-013  0.5930204E+02  0.7816164E-02  0.1266604E+00
        -11   -1    0    0    0    0  0.00000000000E+00  0.00000000000E+00  0.45593999997E+02  0.45594000000E+02  0.51100000000E-03 0.  1.
         11   -1    0    0    0    0 -0.00000000000E+00 -0.00000000000E+00 -0.45593999997E+02  0.45594000000E+02  0.51100000000E-03 0. -1.
    9900012    2    1    2    0    0 -0.98525996105E+01 -0.60119755773E+01  0.29723677640E+02  0.59302037855E+02  0.50000171119E+02 0.  0.
         12    1    1    2    0    0  0.98525996105E+01  0.60119755773E+01 -0.29723677640E+02  0.31885962145E+02  0.00000000000E+00 0. -1.
         11    1    3    3    0    0 -0.17130633927E+01 -0.12388919577E+02  0.37737254304E+02  0.39755757786E+02  0.51100000000E-03 0. -1.
        -11    1    3    3    0    0  0.13183765990E+01  0.80569504406E+01 -0.44688498325E+01  0.93071578017E+01  0.51100000000E-03 0.  1.
         12    1    3    3    0    0 -0.94579128168E+01 -0.16800064411E+01 -0.35447268317E+01  0.10239122267E+02  0.00000000000E+00 0. -1.
</event>
<event>
 7    1  0.4673733E-013  0.5930192E+02  0.7816164E-02  0.1266605E+00
        -11   -1    0    0    0    0  0.00000000000E+00  0.00000000000E+00  0.45593999997E+02  0.45594000000E+02  0.51100000000E-03 0. -1.
         11   -1    0    0    0    0 -0.00000000000E+00 -0.00000000000E+00 -0.45593999997E+02  0.45594000000E+02  0.51100000000E-03 0.  1.
    9900012    2    1    2    0    0  0.62545479535E+01 -0.12593741517E+02 -0.28618187445E+02  0.59301916074E+02  0.49999949018E+02 0.  0.
         12    1    1    2    0    0 -0.62545479535E+01  0.12593741517E+02  0.28618187445E+02  0.31886083926E+02  0.00000000000E+00 0. -1.
         11    1    3    3    0    0  0.19677678556E+02 -0.12998348546E+02 -0.67070744365E+01  0.24518420545E+02  0.51100000000E-03 0. -1.
        -11    1    3    3    0    0 -0.19294239415E+02 -0.37028637213E+01 -0.17866830108E+02  0.26555648980E+02  0.51100000000E-03 0.  1.
         12    1    3    3    0    0  0.58711088132E+01  0.41074707499E+01 -0.40442829002E+01  0.82278465490E+01  0.00000000000E+00 0. -1.
</event>
<event>
 7    1  0.4673733E-013  0.5930193E+02  0.7816164E-02  0.1266605E+00
        -11   -1    0    0    0    0  0.00000000000E+00  0.00000000000E+00  0.45593999997E+02  0.45594000000E+02  0.51100000000E-03 0. -1.
         11   -1    0    0    0    0 -0.00000000000E+00 -0.00000000000E+00 -0.45593999997E+02  0.45594000000E+02  0.51100000000E-03 0.  1.
    9900012    2    1    2    0    0  0.15199941152E+02 -0.17382664148E+02 -0.21989226109E+02  0.59301932686E+02  0.49999979315E+02 0.  0.
         12    1    1    2    0    0 -0.15199941152E+02  0.17382664148E+02  0.21989226109E+02  0.31886067314E+02  0.00000000000E+00 0. -1.
         11    1    3    3    0    0 -0.89566092159E+01 -0.77534549214E+01  0.22162419155E+01  0.12051914385E+02  0.51100000000E-03 0.  1.
        -11    1    3    3    0    0  0.21936353336E+02  0.75926184674E+01 -0.13644093616E+02  0.26926060680E+02  0.51100000000E-03 0. -1.
        -12    1    3    3    0    0  0.22201970324E+01 -0.17221827694E+02 -0.10561374408E+02  0.20323957621E+02  0.00000000000E+00 0.  1.
</event>
<event>
 7    1  0.4673733E-013  0.5930208E+02  0.7816164E-02  0.1266604E+00
        -11   -1    0    0    0    0  0.00000000000E+00  0.00000000000E+00  0.45593999997E+02  0.45594000000E+02  0.51100000000E-03 0. -1.
         11   -1    0    0    0    0 -0.00000000000E+00 -0.00000000000E+00 -0.45593999997E+02  0.45594000000E+02  0.51100000000E-03 0.  1.
    9900012    2    1    2    0    0  0.46691851076E+01 -0.20610467951E+02 -0.23877171711E+02  0.59302078222E+02  0.50000244738E+02 0.  0.
         12    1    1    2    0    0 -0.46691851076E+01  0.20610467951E+02  0.23877171711E+02  0.31885921778E+02  0.00000000000E+00 0. -1.
         11    1    3    3    0    0  0.15626679262E+02  0.31779507590E+01 -0.11079671231E+02  0.19417816319E+02  0.51100000000E-03 0. -1.
        -11    1    3    3    0    0 -0.14886698463E+02 -0.58347740500E+01 -0.14291044462E+02  0.21445100406E+02  0.51100000000E-03 0.  1.
         12    1    3    3    0    0  0.39292043090E+01 -0.17953644660E+02  0.14935439817E+01  0.18439161497E+02  0.00000000000E+00 0. -1.
</event>
<event>
 7    1  0.4673733E-013  0.5930204E+02  0.7816164E-02  0.1266604E+00
        -11   -1    0    0    0    0  0.00000000000E+00  0.00000000000E+00  0.45593999997E+02  0.45594000000E+02  0.51100000000E-03 0.  1.
         11   -1    0    0    0    0 -0.00000000000E+00 -0.00000000000E+00 -0.45593999997E+02  0.45594000000E+02  0.51100000000E-03 0. -1.
    9900012    2    1    2    0    0 -0.23620368680E+02  0.88029960286E+01  0.19526902062E+02  0.59302039770E+02  0.50000174611E+02 0.  0.
         12    1    1    2    0    0  0.23620368680E+02 -0.88029960286E+01 -0.19526902062E+02  0.31885960230E+02  0.00000000000E+00 0. -1.
         11    1    3    3    0    0  0.13576190604E+01 -0.73321725619E+01  0.10039069113E+02  0.12505470519E+02  0.51100000000E-03 0. -1.
        -11    1    3    3    0    0 -0.22204655458E+02 -0.63865191534E+01  0.39687202890E+01  0.23443231260E+02  0.51100000000E-03 0.  1.
        -12    1    3    3    0    0 -0.27733322823E+01  0.22521687744E+02  0.55191126597E+01  0.23353337991E+02  0.00000000000E+00 0.  1.
</event>
<event>
 7    1  0.4673733E-013  0.5930193E+02  0.7816164E-02  0.1266605E+00
        -11   -1    0    0    0    0  0.00000000000E+00  0.00000000000E+00  0.45593999997E+02  0.45594000000E+02  0.51100000000E-03 0. -1.
         11   -1    0    0    0    0 -0.00000000000E+00 -0.00000000000E+00 -0.45593999997E+02  0.45594000000E+02  0.51100000000E-03 0.  1.
    9900012    2    1    2    0    0  0.20775660064E+02  0.15183950918E+02  0.18829263720E+02  0.59301927981E+02  0.49999970735E+02 0.  0.
         12    1    1    2    0    0 -0.20775660064E+02 -0.15183950918E+02 -0.18829263720E+02  0.31886072019E+02  0.00000000000E+00 0. -1.
         11    1    3    3    0    0 -0.76811158437E+01 -0.49373810130E+01  0.14026374481E+01  0.92382175740E+01  0.51100000000E-03 0. -1.
        -11    1    3    3    0    0  0.23128224278E+02  0.17022885065E+02 -0.28616940245E+01  0.28859706637E+02  0.51100000000E-03 0.  1.
        -12    1    3    3    0    0  0.53285516292E+01  0.30984468659E+01  0.20288320296E+02  0.21204003770E+02  0.00000000000E+00 0.  1.
</event>
<event>
 7    1  0.4673733E-013  0.5930195E+02  0.7816164E-02  0.1266605E+00
        -11   -1    0    0    0    0  0.00000000000E+00  0.00000000000E+00  0.45593999997E+02  0.45594000000E+02  0.51100000000E-03 0.  1.
         11   -1    0    0    0    0 -0.00000000000E+00 -0.00000000000E+00 -0.45593999997E+02  0.45594000000E+02  0.51100000000E-03 0. -1.
    9900012    2    1    2    0    0  0.89418784205E+01  0.15550088357E+02  0.26362054465E+02  0.59301947356E+02  0.50000006069E+02 0.  0.
         12    1    1    2    0    0 -0.89418784205E+01 -0.15550088357E+02 -0.26362054465E+02  0.31886052644E+02  0.00000000000E+00 0. -1.
         11    1    3    3    0    0  0.12747940244E+01 -0.14028099579E+02  0.84875922898E+01  0.16445421878E+02  0.51100000000E-03 0. -1.
        -11    1    3    3    0    0 -0.10459487676E+01  0.29005223820E+02  0.17946477982E+02  0.34124376769E+02  0.51100000000E-03 0.  1.
        -12    1    3    3    0    0  0.87130331637E+01  0.57296411694E+00 -0.72015806848E-01  0.87321487085E+01  0.00000000000E+00 0.  1.
</event>
<event>
 7    1  0.4673733E-013  0.5930200E+02  0.7816164E-02  0.1266605E+00
        -11   -1    0    0    0    0  0.00000000000E+00  0.00000000000E+00  0.45593999997E+02  0.45594000000E+02  0.51100000000E-03 0.  1.
         11   -1    0    0    0    0 -0.00000000000E+00 -0.00000000000E+00 -0.45593999997E+02  0.45594000000E+02  0.51100000000E-03 0. -1.
    9900012    2    1    2    0    0 -0.23108543773E+02  0.21740853334E+02 -0.31697675753E+01  0.59302001106E+02  0.50000104097E+02 0.  0.
         12    1    1    2    0    0  0.23108543773E+02 -0.21740853334E+02  0.31697675753E+01  0.31885998894E+02  0.00000000000E+00 0. -1.
         11    1    3    3    0    0 -0.70456295844E+01 -0.12166639728E+02  0.69678130790E+01  0.15691349141E+02  0.51100000000E-03 0.  1.
        -11    1    3    3    0    0  0.37065106323E+01  0.13336355884E+02 -0.23895103212E+01  0.14046578557E+02  0.51100000000E-03 0. -1.
         12    1    3    3    0    0 -0.19769424821E+02  0.20571137178E+02 -0.77480703330E+01  0.29564073407E+02  0.00000000000E+00 0. -1.
</event>
<event>
 7    1  0.4673733E-013  0.5930190E+02  0.7816164E-02  0.1266605E+00
        -11   -1    0    0    0    0  0.00000000000E+00  0.00000000000E+00  0.45593999997E+02  0.45594000000E+02  0.51100000000E-03 0.  1.
         11   -1    0    0    0    0 -0.00000000000E+00 -0.00000000000E+00 -0.45593999997E+02  0.45594000000E+02  0.51100000000E-03 0. -1.
    9900012    2    1    2    0    0  0.10314523915E+02  0.20057775537E+02  0.22539295700E+02  0.59301896229E+02  0.49999912826E+02 0.  0.
         12    1    1    2    0    0 -0.10314523915E+02 -0.20057775537E+02 -0.22539295700E+02  0.31886103771E+02  0.00000000000E+00 0. -1.
         11    1    3    3    0    0 -0.78881368155E+01 -0.34884184346E+01 -0.11065244442E+01  0.86957554130E+01  0.51100000000E-03 0. -1.
        -11    1    3    3    0    0  0.61940240879E+01  0.52011325559E+01  0.27215104512E+02  0.28391541489E+02  0.51100000000E-03 0.  1.
         12    1    3    3    0    0  0.12008636642E+02  0.18345061415E+02 -0.35692843685E+01  0.22214599327E+02  0.00000000000E+00 0. -1.
</event>
<event>
 7    1  0.4673733E-013  0.5930217E+02  0.7816164E-02  0.1266604E+00
        -11   -1    0    0    0    0  0.00000000000E+00  0.00000000000E+00  0.45593999997E+02  0.45594000000E+02  0.51100000000E-03 0. -1.
         11   -1    0    0    0    0 -0.00000000000E+00 -0.00000000000E+00 -0.45593999997E+02  0.45594000000E+02  0.51100000000E-03 0.  1.
    9900012    2    1    2    0    0 -0.17276055467E+02  0.11918362286E+02 -0.24004095882E+02  0.59302171312E+02  0.50000414509E+02 0.  0.
         12    1    1    2    0    0  0.17276055467E+02 -0.11918362286E+02  0.24004095882E+02  0.31885828688E+02  0.00000000000E+00 0. -1.
         11    1    3    3    0    0 -0.10401071601E+02  0.15913102496E+02 -0.15332809868E+02  0.24423435062E+02  0.51100000000E-03 0. -1.
        -11    1    3    3    0    0 -0.90074275372E+01 -0.13070541386E+02  0.64340157404E+01  0.17128028543E+02  0.51100000000E-03 0.  1.
        -12    1    3    3    0    0  0.21324436720E+01  0.90758011756E+01 -0.15105301754E+02  0.17750707706E+02  0.00000000000E+00 0.  1.
</event>
<event>
 7    1  0.4673733E-013  0.5930193E+02  0.7816164E-02  0.1266605E+00
        -11   -1    0    0    0    0  0.00000000000E+00  0.00000000000E+00  0.45593999997E+02  0.45594000000E+02  0.51100000000E-03 0.  1.
         11   -1    0    0    0    0 -0.00000000000E+00 -0.00000000000E+00 -0.45593999997E+02  0.45594000000E+02  0.51100000000E-03 0. -1.
    9900012    2    1    2    0    0 -0.60493911158E+01  0.21020960905E+02  0.23200124596E+02  0.59301926057E+02  0.49999967225E+02 0.  0.
         12    1    1    2    0    0  0.60493911158E+01 -0.21020960905E+02 -0.23200124596E+02  0.31886073943E+02  0.00000000000E+00 0. -1.
         11    1    3    3    0    0 -0.94290884190E+01 -0.11962334126E+02  0.12847591938E+02  0.19926509103E+02  0.51100000000E-03 0. -1.
        -11    1    3    3    0    0  0.10204911412E+00  0.20486288654E+02 -0.31044550835E+01  0.20720426599E+02  0.51100000000E-03 0.  1.
         12    1    3    3    0    0  0.32776481891E+01  0.12497006377E+02  0.13456987742E+02  0.18654990354E+02  0.00000000000E+00 0. -1.
</event>
<event>
 7    1  0.4673733E-013  0.5930197E+02  0.7816164E-02  0.1266605E+00
        -11   -1    0    0    0    0  0.00000000000E+00  0.00000000000E+00  0.45593999997E+02  0.45594000000E+02  0.51100000000E-03 0.  1.
         11   -1    0    0    0    0 -0.00000000000E+00 -0.00000000000E+00 -0.45593999997E+02  0.45594000000E+02  0.51100000000E-03 0. -1.
    9900012    2    1    2    0    0  0.70990218587E+01  0.28697241195E+02  0.11949532462E+02  0.59301967171E+02  0.50000042207E+02 0.  0.
         12    1    1    2    0    0 -0.70990218587E+01 -0.28697241195E+02 -0.11949532462E+02  0.31886032829E+02  0.00000000000E+00 0. -1.
         11    1    3    3    0    0 -0.15727952802E+02  0.68659902874E+01  0.23904758886E+01  0.17326993311E+02  0.51100000000E-03 0. -1.
        -11    1    3    3    0    0  0.17697514028E+02 -0.66948172235E+00  0.54851541628E+01  0.18540149002E+02  0.51100000000E-03 0.  1.
         12    1    3    3    0    0  0.51294606328E+01  0.22500732630E+02  0.40739024101E+01  0.23434824858E+02  0.00000000000E+00 0. -1.
</event>
<event>
 7    1  0.4673733E-013  0.5930196E+02  0.7816164E-02  0.1266605E+00
        -11   -1    0    0    0    0  0.00000000000E+00  0.00000000000E+00  0.45593999997E+02  0.45594000000E+02  0.51100000000E-03 0.  1.
         11   -1    0    0    0    0 -0.00000000000E+00 -0.00000000000E+00 -0.45593999997E+02  0.45594000000E+02  0.51100000000E-03 0. -1.
    9900012    2    1    2    0    0 -0.50765739963E+00 -0.28430999959E+02  0.14427058615E+02  0.59301960814E+02  0.50000030613E+02 0.  0.
         12    1    1    2    0    0  0.50765739963E+00  0.28430999959E+02 -0.14427058615E+02  0.31886039186E+02  0.00000000000E+00 0. -1.
         11    1    3    3    0    0  0.68802360388E+01  0.14137167647E+01  0.23168725435E+02  0.24210040925E+02  0.51100000000E-03 0. -1.
        -11    1    3    3    0    0  0.18588988036E+00 -0.19375253474E+02  0.20153058216E+00  0.19377193219E+02  0.51100000000E-03 0.  1.
         12    1    3    3    0    0 -0.75737833188E+01 -0.10469463250E+02 -0.89431974024E+01  0.15714726669E+02  0.00000000000E+00 0. -1.
</event>
<event>
 7    1  0.4673733E-013  0.5930195E+02  0.7816164E-02  0.1266605E+00
        -11   -1    0    0    0    0  0.00000000000E+00  0.00000000000E+00  0.45593999997E+02  0.45594000000E+02  0.51100000000E-03 0.  1.
         11   -1    0    0    0    0 -0.00000000000E+00 -0.00000000000E+00 -0.45593999997E+02  0.45594000000E+02  0.51100000000E-03 0. -1.
    9900012    2    1    2    0    0 -0.18270444671E+02 -0.13470384201E+02  0.22393292606E+02  0.59301953636E+02  0.50000017523E+02 0.  0.
         12    1    1    2    0    0  0.18270444671E+02  0.13470384201E+02 -0.22393292606E+02  0.31886046364E+02  0.00000000000E+00 0. -1.
         11    1    3    3    0    0  0.56877662646E+01  0.74223831641E+01 -0.92400816062E+00  0.93966083380E+01  0.51100000000E-03 0. -1.
        -11    1    3    3    0    0 -0.14118234477E+02 -0.27571664193E+02  0.11231324865E+02  0.32949413797E+02  0.51100000000E-03 0.  1.
         12    1    3    3    0    0 -0.98399764583E+01  0.66788968277E+01  0.12085975902E+02  0.16955931500E+02  0.00000000000E+00 0. -1.
</event>
<event>
 7    1  0.4673733E-013  0.5930194E+02  0.7816164E-02  0.1266605E+00
        -11   -1    0    0    0    0  0.00000000000E+00  0.00000000000E+00  0.45593999997E+02  0.45594000000E+02  0.51100000000E-03 0.  1.
         11   -1    0    0    0    0 -0.00000000000E+00 -0.00000000000E+00 -0.45593999997E+02  0.45594000000E+02  0.51100000000E-03 0. -1.
    9900012    2    1    2    0    0  0.30075644872E+02  0.19167093277E+01  0.10416466611E+02  0.59301937751E+02  0.49999988553E+02 0.  0.
         12    1    1    2    0    0 -0.30075644872E+02 -0.19167093277E+01 -0.10416466611E+02  0.31886062249E+02  0.00000000000E+00 0. -1.
         11    1    3    3    0    0  0.40291396045E+02  0.88753609665E+01  0.27726042875E+01  0.41350404621E+02  0.51100000000E-03 0. -1.
        -11    1    3    3    0    0  0.14185532980E+01 -0.36277174635E+01  0.32627823422E+01  0.50811786357E+01  0.51100000000E-03 0.  1.
         12    1    3    3    0    0 -0.11634304471E+02 -0.33309341752E+01  0.43810799809E+01  0.12870354494E+02  0.00000000000E+00 0. -1.
</event>
<event>
 7    1  0.4673733E-013  0.5930194E+02  0.7816164E-02  0.1266605E+00
        -11   -1    0    0    0    0  0.00000000000E+00  0.00000000000E+00  0.45593999997E+02  0.45594000000E+02  0.51100000000E-03 0. -1.
         11   -1    0    0    0    0 -0.00000000000E+00 -0.00000000000E+00 -0.45593999997E+02  0.45594000000E+02  0.51100000000E-03 0.  1.
    9900012    2    1    2    0    0 -0.29457413526E+02  0.12342826939E+01 -0.12143243212E+02  0.59301936883E+02  0.49999986970E+02 0.  0.
         12    1    1    2    0    0  0.29457413526E+02 -0.12342826939E+01  0.12143243212E+02  0.31886063117E+02  0.00000000000E+00 0. -1.
         11    1    3    3    0    0  0.21503888022E+01  0.95090446920E+01 -0.25042585234E+01  0.10065655168E+02  0.51100000000E-03 0. -1.
        -11    1    3    3    0    0 -0.37879235281E+02 -0.21900840839E+00 -0.57610429906E+01  0.38315454411E+02  0.51100000000E-03 0.  1.
        -12    1    3    3    0    0  0.62714329530E+01 -0.80557535897E+01 -0.38779416978E+01  0.10920827304E+02  0.00000000000E+00 0.  1.
</event>
<event>
 7    1  0.4673733E-013  0.5930197E+02  0.7816164E-02  0.1266605E+00
        -11   -1    0    0    0    0  0.00000000000E+00  0.00000000000E+00  0.45593999997E+02  0.45594000000E+02  0.51100000000E-03 0. -1.
         11   -1    0    0    0    0 -0.00000000000E+00 -0.00000000000E+00 -0.45593999997E+02  0.45594000000E+02  0.51100000000E-03 0.  1.
    9900012    2    1    2    0    0 -0.27877922502E+02  0.14011079311E+02 -0.65749428954E+01  0.59301972016E+02  0.50000051044E+02 0.  0.
         12    1    1    2    0    0  0.27877922502E+02 -0.14011079311E+02  0.65749428954E+01  0.31886027984E+02  0.00000000000E+00 0. -1.
         11    1    3    3    0    0 -0.31651698627E+02  0.20046996320E+02  0.39397295352E+01  0.37672716340E+02  0.51100000000E-03 0. -1.
        -11    1    3    3    0    0  0.56742249266E+01  0.19761110785E+01  0.22694080101E+01  0.64227763848E+01  0.51100000000E-03 0.  1.
        -12    1    3    3    0    0 -0.19004488022E+01 -0.80120280873E+01 -0.12784080441E+02  0.15206479291E+02  0.00000000000E+00 0.  1.
</event>
<event>
 7    1  0.4673733E-013  0.5930197E+02  0.7816164E-02  0.1266605E+00
        -11   -1    0    0    0    0  0.00000000000E+00  0.00000000000E+00  0.45593999997E+02  0.45594000000E+02  0.51100000000E-03 0. -1.
         11   -1    0    0    0    0 -0.00000000000E+00 -0.00000000000E+00 -0.45593999997E+02  0.45594000000E+02  0.51100000000E-03 0.  1.
    9900012    2    1    2    0    0 -0.81601007192E+01  0.29996427763E+02  0.70954780885E+01  0.59301972784E+02  0.50000052445E+02 0.  0.
         12    1    1    2    0    0  0.81601007192E+01 -0.29996427763E+02 -0.70954780885E+01  0.31886027216E+02  0.00000000000E+00 0. -1.
         11    1    3    3    0    0 -0.14901555874E+01  0.35520719018E+02 -0.60054280557E+01  0.36055612734E+02  0.51100000000E-03 0.  1.
        -11    1    3    3    0    0  0.95665820927E+00 -0.31657761101E+01  0.14731847601E+02  0.15098498843E+02  0.51100000000E-03 0. -1.
        -12    1    3    3    0    0 -0.76266033411E+01 -0.23585151450E+01 -0.16309414572E+01  0.81478612070E+01  0.00000000000E+00 0.  1.
</event>
<event>
 7    1  0.4673733E-013  0.5930196E+02  0.7816164E-02  0.1266605E+00
        -11   -1    0    0    0    0  0.00000000000E+00  0.00000000000E+00  0.45593999997E+02  0.45594000000E+02  0.51100000000E-03 0.  1.
         11   -1    0    0    0    0 -0.00000000000E+00 -0.00000000000E+00 -0.45593999997E+02  0.45594000000E+02  0.51100000000E-03 0. -1.
    9900012    2    1    2    0    0 -0.41278848616E+01 -0.31024244503E+02 -0.60972554056E+01  0.59301957538E+02  0.50000024639E+02 0.  0.
         12    1    1    2    0    0  0.41278848616E+01  0.31024244503E+02  0.60972554056E+01  0.31886042462E+02  0.00000000000E+00 0. -1.
         11    1    3    3    0    0  0.32404773182E+01 -0.51603612940E+01 -0.19860670576E+02  0.20774413539E+02  0.51100000000E-03 0. -1.
        -11    1    3    3    0    0  0.82192667951E+01 -0.14100885121E+02  0.46055481062E+01  0.16958843754E+02  0.51100000000E-03 0.  1.
         12    1    3    3    0    0 -0.15587628975E+02 -0.11762998088E+02  0.91578670639E+01  0.21568700245E+02  0.00000000000E+00 0. -1.
</event>
<event>
 7    1  0.4673733E-013  0.5930191E+02  0.7816164E-02  0.1266605E+00
        -11   -1    0    0    0    0  0.00000000000E+00  0.00000000000E+00  0.45593999997E+02  0.45594000000E+02  0.51100000000E-03 0.  1.
         11   -1    0    0    0    0 -0.00000000000E+00 -0.00000000000E+00 -0.45593999997E+02  0.45594000000E+02  0.51100000000E-03 0. -1.
    9900012    2    1    2    0    0  0.27801136547E+02  0.12231490170E+02 -0.97061851894E+01  0.59301912501E+02  0.49999942502E+02 0.  0.
         12    1    1    2    0    0 -0.27801136547E+02 -0.12231490170E+02  0.97061851894E+01  0.31886087499E+02  0.00000000000E+00 0. -1.
         11    1    3    3    0    0 -0.12253029617E+02  0.25414389358E+01 -0.31042438933E+01  0.12893098040E+02  0.51100000000E-03 0. -1.
        -11    1    3    3    0    0  0.40479872062E+02  0.59302639540E+01 -0.90515370582E+01  0.41901293489E+02  0.51100000000E-03 0.  1.
        -12    1    3    3    0    0 -0.42570589778E+00  0.37597872805E+01  0.24495957621E+01  0.45075209710E+01  0.00000000000E+00 0.  1.
</event>
<event>
 7    1  0.4673733E-013  0.5930197E+02  0.7816164E-02  0.1266605E+00
        -11   -1    0    0    0    0  0.00000000000E+00  0.00000000000E+00  0.45593999997E+02  0.45594000000E+02  0.51100000000E-03 0.  1.
         11   -1    0    0    0    0 -0.00000000000E+00 -0.00000000000E+00 -0.45593999997E+02  0.45594000000E+02  0.51100000000E-03 0. -1.
    9900012    2    1    2    0    0 -0.19722695195E+01  0.10900170895E+02  0.29900084183E+02  0.59301974743E+02  0.50000056016E+02 0.  0.
         12    1    1    2    0    0  0.19722695195E+01 -0.10900170895E+02 -0.29900084183E+02  0.31886025257E+02  0.00000000000E+00 0. -1.
         11    1    3    3    0    0 -0.11563937644E+02 -0.15580322296E+02  0.17145408252E+02  0.25892781254E+02  0.51100000000E-03 0. -1.
        -11    1    3    3    0    0  0.11768269077E+02  0.20957704305E+02  0.67500348976E+01  0.24965586278E+02  0.51100000000E-03 0.  1.
         12    1    3    3    0    0 -0.21766009528E+01  0.55227888859E+01  0.60046410333E+01  0.84436072105E+01  0.00000000000E+00 0. -1.
</event>
<event>
 7    1  0.4673733E-013  0.5930195E+02  0.7816164E-02  0.1266605E+00
        -11   -1    0    0    0    0  0.00000000000E+00  0.00000000000E+00  0.45593999997E+02  0.45594000000E+02  0.51100000000E-03 0. -1.
         11   -1    0    0    0    0 -0.00000000000E+00 -0.00000000000E+00 -0.45593999997E+02  0.45594000000E+02  0.51100000000E-03 0.  1.
    9900012    2    1    2    0    0 -0.19165499620E+02  0.20115575944E+02 -0.15645047434E+02  0.59301948497E+02  0.50000008151E+02 0.  0.
         12    1    1    2    0    0  0.19165499620E+02 -0.20115575944E+02  0.15645047434E+02  0.31886051503E+02  0.00000000000E+00 0. -1.
         11    1    3    3    0    0 -0.17882800109E+02 -0.50249883967E+01 -0.24170192408E+02  0.30483491424E+02  0.51100000000E-03 0. -1.
        -11    1    3    3    0    0 -0.77648084047E-01  0.16533224989E+02  0.10906670453E+02  0.19806792228E+02  0.51100000000E-03 0.  1.
        -12    1    3    3    0    0 -0.12050514273E+01  0.86073393514E+01 -0.23815254790E+01  0.90116648440E+01  0.00000000000E+00 0.  1.
</event>
<event>
 7    1  0.4673733E-013  0.5930195E+02  0.7816164E-02  0.1266605E+00
        -11   -1    0    0    0    0  0.00000000000E+00  0.00000000000E+00  0.45593999997E+02  0.45594000000E+02  0.51100000000E-03 0. -1.
         11   -1    0    0    0    0 -0.00000000000E+00 -0.00000000000E+00 -0.45593999997E+02  0.45594000000E+02  0.51100000000E-03 0.  1.
    9900012    2    1    2    0    0 -0.97452265560E+01 -0.39040283759E+01 -0.30108291742E+02  0.59301951173E+02  0.50000013032E+02 0.  0.
         12    1    1    2    0    0  0.97452265560E+01  0.39040283759E+01  0.30108291742E+02  0.31886048827E+02  0.00000000000E+00 0. -1.
         11    1    3    3    0    0  0.13614148444E+02 -0.17118487299E+01 -0.22329132672E+02  0.26208121452E+02  0.51100000000E-03 0.  1.
        -11    1    3    3    0    0 -0.20634482371E+02 -0.99184094465E+01 -0.93883080231E+01  0.24744636519E+02  0.51100000000E-03 0. -1.
         12    1    3    3    0    0 -0.27248926298E+01  0.77262298004E+01  0.16091489530E+01  0.83491932021E+01  0.00000000000E+00 0. -1.
</event>
<event>
 7    1  0.4673733E-013  0.5930185E+02  0.7816164E-02  0.1266605E+00
        -11   -1    0    0    0    0  0.00000000000E+00  0.00000000000E+00  0.45593999997E+02  0.45594000000E+02  0.51100000000E-03 0. -1.
         11   -1    0    0    0    0 -0.00000000000E+00 -0.00000000000E+00 -0.45593999997E+02  0.45594000000E+02  0.51100000000E-03 0.  1.
    9900012    2    1    2    0    0 -0.28356167328E+02  0.10947568191E+02  0.96335524285E+01  0.59301846152E+02  0.49999821498E+02 0.  0.
         12    1    1    2    0    0  0.28356167328E+02 -0.10947568191E+02 -0.96335524285E+01  0.31886153848E+02  0.00000000000E+00 0. -1.
         11    1    3    3    0    0  0.80383090825E+01  0.75354791092E+00  0.30148701256E+01  0.86181024300E+01  0.51100000000E-03 0. -1.
        -11    1    3    3    0    0 -0.40412803971E+02  0.11845522123E+02 -0.76129375551E+00  0.42119955930E+02  0.51100000000E-03 0.  1.
        -12    1    3    3    0    0  0.40183275606E+01 -0.16515018427E+01  0.73799760584E+01  0.85637877918E+01  0.00000000000E+00 0.  1.
</event>
<event>
 7    1  0.4673733E-013  0.5930195E+02  0.7816164E-02  0.1266605E+00
        -11   -1    0    0    0    0  0.00000000000E+00  0.00000000000E+00  0.45593999997E+02  0.45594000000E+02  0.51100000000E-03 0.  1.
         11   -1    0    0    0    0 -0.00000000000E+00 -0.00000000000E+00 -0.45593999997E+02  0.45594000000E+02  0.51100000000E-03 0. -1.
    9900012    2    1    2    0    0 -0.31369447764E+02  0.39118767841E+00  0.57030394095E+01  0.59301953846E+02  0.50000017906E+02 0.  0.
         12    1    1    2    0    0  0.31369447764E+02 -0.39118767841E+00 -0.57030394095E+01  0.31886046154E+02  0.00000000000E+00 0. -1.
         11    1    3    3    0    0 -0.10544871946E+02 -0.50934928172E+01 -0.59968297003E+01  0.13156745804E+02  0.51100000000E-03 0. -1.
        -11    1    3    3    0    0  0.27785334843E+01  0.37333511155E+01  0.20403572441E+02  0.20927587713E+02  0.51100000000E-03 0.  1.
        -12    1    3    3    0    0 -0.23603109303E+02  0.17513293801E+01 -0.87037033315E+01  0.25217620329E+02  0.00000000000E+00 0.  1.
</event>
<event>
 7    1  0.4673733E-013  0.5930191E+02  0.7816164E-02  0.1266605E+00
        -11   -1    0    0    0    0  0.00000000000E+00  0.00000000000E+00  0.45593999997E+02  0.45594000000E+02  0.51100000000E-03 0.  1.
         11   -1    0    0    0    0 -0.00000000000E+00 -0.00000000000E+00 -0.45593999997E+02  0.45594000000E+02  0.51100000000E-03 0. -1.
    9900012    2    1    2    0    0  0.32398362977E+01 -0.20107095287E+02  0.24534275239E+02  0.59301913980E+02  0.49999945201E+02 0.  0.
         12    1    1    2    0    0 -0.32398362977E+01  0.20107095287E+02 -0.24534275239E+02  0.31886086020E+02  0.00000000000E+00 0. -1.
         11    1    3    3    0    0  0.96225412087E+00 -0.21914987223E+02  0.23563893050E+02  0.32193938155E+02  0.51100000000E-03 0. -1.
        -11    1    3    3    0    0 -0.75893275001E+01  0.11031320321E+02  0.21030442973E+01  0.13553992604E+02  0.51100000000E-03 0.  1.
         12    1    3    3    0    0  0.98669096770E+01 -0.92234283846E+01 -0.11326621077E+01  0.13553983222E+02  0.00000000000E+00 0. -1.
</event>
<event>
 7    1  0.4673733E-013  0.5930192E+02  0.7816164E-02  0.1266605E+00
        -11   -1    0    0    0    0  0.00000000000E+00  0.00000000000E+00  0.45593999997E+02  0.45594000000E+02  0.51100000000E-03 0.  1.
         11   -1    0    0    0    0 -0.00000000000E+00 -0.00000000000E+00 -0.45593999997E+02  0.45594000000E+02  0.51100000000E-03 0. -1.
    9900012    2    1    2    0    0 -0.13311254231E+02 -0.97230416571E+01  0.27294592550E+02  0.59301924501E+02  0.49999964387E+02 0.  0.
         12    1    1    2    0    0  0.13311254231E+02  0.97230416571E+01 -0.27294592550E+02  0.31886075499E+02  0.00000000000E+00 0. -1.
         11    1    3    3    0    0 -0.99269974237E+01 -0.10639887142E+02 -0.35650449826E+01  0.14982056676E+02  0.51100000000E-03 0. -1.
        -11    1    3    3    0    0  0.15297512310E+01  0.10047633331E+02  0.32290759924E+02  0.33852448229E+02  0.51100000000E-03 0.  1.
        -12    1    3    3    0    0 -0.49140080385E+01 -0.91307878464E+01 -0.14311223909E+01  0.10467419596E+02  0.00000000000E+00 0.  1.
</event>
<event>
 7    1  0.4673733E-013  0.5930196E+02  0.7816164E-02  0.1266605E+00
        -11   -1    0    0    0    0  0.00000000000E+00  0.00000000000E+00  0.45593999997E+02  0.45594000000E+02  0.51100000000E-03 0.  1.
         11   -1    0    0    0    0 -0.00000000000E+00 -0.00000000000E+00 -0.45593999997E+02  0.45594000000E+02  0.51100000000E-03 0. -1.
    9900012    2    1    2    0    0  0.80877625378E+01  0.17863728662E+01  0.30791503174E+02  0.59301957621E+02  0.50000024791E+02 0.  0.
         12    1    1    2    0    0 -0.80877625378E+01 -0.17863728662E+01 -0.30791503174E+02  0.31886042379E+02  0.00000000000E+00 0. -1.
         11    1    3    3    0    0 -0.38851872340E+01 -0.10888322046E+02  0.52093939177E+00  0.11572450689E+02  0.51100000000E-03 0. -1.
        -11    1    3    3    0    0  0.10345532028E+01  0.12539983960E+02  0.33935172869E+02  0.36192781821E+02  0.51100000000E-03 0.  1.
        -12    1    3    3    0    0  0.10938396569E+02  0.13471095239E+00 -0.36646090863E+01  0.11536725111E+02  0.00000000000E+00 0.  1.
</event>
<event>
 7    1  0.4673733E-013  0.5930201E+02  0.7816164E-02  0.1266605E+00
        -11   -1    0    0    0    0  0.00000000000E+00  0.00000000000E+00  0.45593999997E+02  0.45594000000E+02  0.51100000000E-03 0. -1.
         11   -1    0    0    0    0 -0.00000000000E+00 -0.00000000000E+00 -0.45593999997E+02  0.45594000000E+02  0.51100000000E-03 0.  1.
    9900012    2    1    2    0    0 -0.29277738313E+01  0.57227912738E+01 -0.31231296550E+02  0.59302014305E+02  0.50000128168E+02 0.  0.
         12    1    1    2    0    0  0.29277738313E+01 -0.57227912738E+01  0.31231296550E+02  0.31885985695E+02  0.00000000000E+00 0. -1.
         11    1    3    3    0    0 -0.84165141844E+01  0.90864628455E+01  0.34631077960E+01  0.12860584510E+02  0.51100000000E-03 0. -1.
        -11    1    3    3    0    0  0.17255793087E+02 -0.37772341664E+01 -0.27368789801E+02  0.32574231356E+02  0.51100000000E-03 0.  1.
         12    1    3    3    0    0 -0.11767052734E+02  0.41356259472E+00 -0.73256145451E+01  0.13867198439E+02  0.00000000000E+00 0. -1.
</event>
<event>
 7    1  0.4673733E-013  0.5930197E+02  0.7816164E-02  0.1266605E+00
        -11   -1    0    0    0    0  0.00000000000E+00  0.00000000000E+00  0.45593999997E+02  0.45594000000E+02  0.51100000000E-03 0.  1.
         11   -1    0    0    0    0 -0.00000000000E+00 -0.00000000000E+00 -0.45593999997E+02  0.45594000000E+02  0.51100000000E-03 0. -1.
    9900012    2    1    2    0    0  0.19551322585E+02  0.24888328603E+02  0.38776328301E+01  0.59301966195E+02  0.50000040427E+02 0.  0.
         12    1    1    2    0    0 -0.19551322585E+02 -0.24888328603E+02 -0.38776328301E+01  0.31886033805E+02  0.00000000000E+00 0. -1.
         11    1    3    3    0    0 -0.17785847402E+01 -0.11393565602E+02 -0.76962107401E+01  0.13863922995E+02  0.51100000000E-03 0.  1.
        -11    1    3    3    0    0  0.18114698569E+02  0.32871744412E+02  0.57627148604E+01  0.37972394812E+02  0.51100000000E-03 0. -1.
        -12    1    3    3    0    0  0.32152087563E+01  0.34101497932E+01  0.58111287098E+01  0.74656483871E+01  0.00000000000E+00 0.  1.
</event>
<event>
 7    1  0.4673733E-013  0.5930194E+02  0.7816164E-02  0.1266605E+00
        -11   -1    0    0    0    0  0.00000000000E+00  0.00000000000E+00  0.45593999997E+02  0.45594000000E+02  0.51100000000E-03 0. -1.
         11   -1    0    0    0    0 -0.00000000000E+00 -0.00000000000E+00 -0.45593999997E+02  0.45594000000E+02  0.51100000000E-03 0.  1.
    9900012    2    1    2    0    0 -0.20589095663E+02 -0.23309328132E+02  0.70345740244E+01  0.59301939254E+02  0.49999991294E+02 0.  0.
         12    1    1    2    0    0  0.20589095663E+02  0.23309328132E+02 -0.70345740244E+01  0.31886060746E+02  0.00000000000E+00 0. -1.
         11    1    3    3    0    0 -0.23383198678E+02 -0.83277471559E+01  0.17702823176E+02  0.30487953388E+02  0.51100000000E-03 0.  1.
        -11    1    3    3    0    0  0.20201083904E+01 -0.51373380768E+01 -0.16463545936E+02  0.17364372302E+02  0.51100000000E-03 0. -1.
         12    1    3    3    0    0  0.77399462501E+00 -0.98442428993E+01  0.57952967835E+01  0.11449613563E+02  0.00000000000E+00 0. -1.
</event>
<event>
 7    1  0.4673733E-013  0.5930182E+02  0.7816164E-02  0.1266605E+00
        -11   -1    0    0    0    0  0.00000000000E+00  0.00000000000E+00  0.45593999997E+02  0.45594000000E+02  0.51100000000E-03 0. -1.
         11   -1    0    0    0    0 -0.00000000000E+00 -0.00000000000E+00 -0.45593999997E+02  0.45594000000E+02  0.51100000000E-03 0.  1.
    9900012    2    1    2    0    0 -0.24621787780E+02 -0.10583917078E+02 -0.17276488374E+02  0.59301815144E+02  0.49999764946E+02 0.  0.
         12    1    1    2    0    0  0.24621787780E+02  0.10583917078E+02  0.17276488374E+02  0.31886184856E+02  0.00000000000E+00 0. -1.
         11    1    3    3    0    0 -0.11496516767E+02  0.80532889278E+01  0.45772778268E+00  0.14044033442E+02  0.51100000000E-03 0. -1.
        -11    1    3    3    0    0  0.59350713776E+01 -0.16812257341E+02  0.17810359770E+01  0.17917844696E+02  0.51100000000E-03 0.  1.
        -12    1    3    3    0    0 -0.19060342390E+02 -0.18249486649E+01 -0.19515252133E+02  0.27339937006E+02  0.00000000000E+00 0.  1.
</event>
<event>
 7    1  0.4673733E-013  0.5930189E+02  0.7816164E-02  0.1266605E+00
        -11   -1    0    0    0    0  0.00000000000E+00  0.00000000000E+00  0.45593999997E+02  0.45594000000E+02  0.51100000000E-03 0.  1.
         11   -1    0    0    0    0 -0.00000000000E+00 -0.00000000000E+00 -0.45593999997E+02  0.45594000000E+02  0.51100000000E-03 0. -1.
    9900012    2    1    2    0    0  0.12943644340E+02  0.26939477629E+02 -0.11110847580E+02  0.59301885190E+02  0.49999892694E+02 0.  0.
         12    1    1    2    0    0 -0.12943644340E+02 -0.26939477629E+02  0.11110847580E+02  0.31886114810E+02  0.00000000000E+00 0. -1.
         11    1    3    3    0    0  0.69641955503E+01  0.13777378240E+02 -0.88654498037E+01  0.17802032786E+02  0.51100000000E-03 0. -1.
        -11    1    3    3    0    0 -0.13947377858E+02  0.15587319770E+02  0.18998425741E+01  0.21002459113E+02  0.51100000000E-03 0.  1.
        -12    1    3    3    0    0  0.19926826648E+02 -0.24252203805E+01 -0.41452403508E+01  0.20497393291E+02  0.00000000000E+00 0.  1.
</event>
<event>
 7    1  0.4673733E-013  0.5930190E+02  0.7816164E-02  0.1266605E+00
        -11   -1    0    0    0    0  0.00000000000E+00  0.00000000000E+00  0.45593999997E+02  0.45594000000E+02  0.51100000000E-03 0.  1.
         11   -1    0    0    0    0 -0.00000000000E+00 -0.00000000000E+00 -0.45593999997E+02  0.45594000000E+02  0.51100000000E-03 0. -1.
    9900012    2    1    2    0    0 -0.67635043148E+01 -0.27814897214E+02  0.14046704085E+02  0.59301899685E+02  0.49999919129E+02 0.  0.
         12    1    1    2    0    0  0.67635043148E+01  0.27814897214E+02 -0.14046704085E+02  0.31886100315E+02  0.00000000000E+00 0. -1.
         11    1    3    3    0    0 -0.88335636463E+01  0.16134595184E+01 -0.24878713821E+01  0.93179720211E+01  0.51100000000E-03 0. -1.
        -11    1    3    3    0    0 -0.27218992979E+01 -0.35734426813E+02  0.52843997492E+01  0.36225445151E+02  0.51100000000E-03 0.  1.
        -12    1    3    3    0    0  0.47919586295E+01  0.63060700797E+01  0.11250175718E+02  0.13758482513E+02  0.00000000000E+00 0.  1.
</event>
<event>
 7    1  0.4673733E-013  0.5930195E+02  0.7816164E-02  0.1266605E+00
        -11   -1    0    0    0    0  0.00000000000E+00  0.00000000000E+00  0.45593999997E+02  0.45594000000E+02  0.51100000000E-03 0. -1.
         11   -1    0    0    0    0 -0.00000000000E+00 -0.00000000000E+00 -0.45593999997E+02  0.45594000000E+02  0.51100000000E-03 0.  1.
    9900012    2    1    2    0    0 -0.15210534951E+02 -0.12734098264E+02 -0.24964029082E+02  0.59301946934E+02  0.50000005301E+02 0.  0.
         12    1    1    2    0    0  0.15210534951E+02  0.12734098264E+02  0.24964029082E+02  0.31886053066E+02  0.00000000000E+00 0. -1.
         11    1    3    3    0    0 -0.11295622843E+02 -0.39451425633E+01 -0.10308842554E+02  0.15793273262E+02  0.51100000000E-03 0. -1.
        -11    1    3    3    0    0  0.38935676124E+01 -0.19528046731E+02  0.42944047072E+01  0.20370232937E+02  0.51100000000E-03 0.  1.
        -12    1    3    3    0    0 -0.78084797209E+01  0.10739091030E+02 -0.18949591235E+02  0.23138440735E+02  0.00000000000E+00 0.  1.
</event>
<event>
 7    1  0.4673733E-013  0.5930193E+02  0.7816164E-02  0.1266605E+00
        -11   -1    0    0    0    0  0.00000000000E+00  0.00000000000E+00  0.45593999997E+02  0.45594000000E+02  0.51100000000E-03 0.  1.
         11   -1    0    0    0    0 -0.00000000000E+00 -0.00000000000E+00 -0.45593999997E+02  0.45594000000E+02  0.51100000000E-03 0. -1.
    9900012    2    1    2    0    0  0.27338971731E+02  0.62504782207E+01  0.15173441885E+02  0.59301934204E+02  0.49999982084E+02 0.  0.
         12    1    1    2    0    0 -0.27338971731E+02 -0.62504782207E+01 -0.15173441885E+02  0.31886065796E+02  0.00000000000E+00 0. -1.
         11    1    3    3    0    0 -0.77915262874E+01 -0.29072616248E+01 -0.90125232989E+01  0.12263181827E+02  0.51100000000E-03 0. -1.
        -11    1    3    3    0    0  0.28083036589E+02  0.12772328579E+02  0.13347311216E+02  0.33614580740E+02  0.51100000000E-03 0.  1.
         12    1    3    3    0    0  0.70474614292E+01 -0.36145887335E+01  0.10838653968E+02  0.13424171637E+02  0.00000000000E+00 0. -1.
</event>
<event>
 7    1  0.4673733E-013  0.5930202E+02  0.7816164E-02  0.1266605E+00
        -11   -1    0    0    0    0  0.00000000000E+00  0.00000000000E+00  0.45593999997E+02  0.45594000000E+02  0.51100000000E-03 0.  1.
         11   -1    0    0    0    0 -0.00000000000E+00 -0.00000000000E+00 -0.45593999997E+02  0.45594000000E+02  0.51100000000E-03 0. -1.
    9900012    2    1    2    0    0 -0.12242828313E+02  0.13281030473E+02  0.26276289717E+02  0.59302015355E+02  0.50000130083E+02 0.  0.
         12    1    1    2    0    0  0.12242828313E+02 -0.13281030473E+02 -0.26276289717E+02  0.31885984645E+02  0.00000000000E+00 0. -1.
         11    1    3    3    0    0  0.94628653008E+01  0.15694665014E+02  0.41126254612E+01  0.18782492328E+02  0.51100000000E-03 0. -1.
        -11    1    3    3    0    0 -0.22383996770E+02  0.66069677383E+01  0.21005779611E+02  0.31399651454E+02  0.51100000000E-03 0.  1.
         12    1    3    3    0    0  0.67830315597E+00 -0.90206022797E+01  0.11578846443E+01  0.91198715730E+01  0.00000000000E+00 0. -1.
</event>
<event>
 7    1  0.4673733E-013  0.5930197E+02  0.7816164E-02  0.1266605E+00
        -11   -1    0    0    0    0  0.00000000000E+00  0.00000000000E+00  0.45593999997E+02  0.45594000000E+02  0.51100000000E-03 0.  1.
         11   -1    0    0    0    0 -0.00000000000E+00 -0.00000000000E+00 -0.45593999997E+02  0.45594000000E+02  0.51100000000E-03 0. -1.
    9900012    2    1    2    0    0 -0.31513428422E+02  0.37285366709E+01  0.31178392377E+01  0.59301967350E+02  0.50000042534E+02 0.  0.
         12    1    1    2    0    0  0.31513428422E+02 -0.37285366709E+01 -0.31178392377E+01  0.31886032650E+02  0.00000000000E+00 0. -1.
         11    1    3    3    0    0 -0.74621866728E+01 -0.20741798282E+01 -0.13129788874E+02  0.15243943323E+02  0.51100000000E-03 0. -1.
        -11    1    3    3    0    0 -0.27350474845E+02  0.14981540213E+02  0.12866156989E+02  0.33734744957E+02  0.51100000000E-03 0.  1.
        -12    1    3    3    0    0  0.32992330952E+01 -0.91788237141E+01  0.33814711235E+01  0.10323279070E+02  0.00000000000E+00 0.  1.
</event>
<event>
 7    1  0.4673733E-013  0.5930193E+02  0.7816164E-02  0.1266605E+00
        -11   -1    0    0    0    0  0.00000000000E+00  0.00000000000E+00  0.45593999997E+02  0.45594000000E+02  0.51100000000E-03 0. -1.
         11   -1    0    0    0    0 -0.00000000000E+00 -0.00000000000E+00 -0.45593999997E+02  0.45594000000E+02  0.51100000000E-03 0.  1.
    9900012    2    1    2    0    0  0.78014356360E+01 -0.28725022807E+02 -0.11433804385E+02  0.59301933827E+02  0.49999981397E+02 0.  0.
         12    1    1    2    0    0 -0.78014356360E+01  0.28725022807E+02  0.11433804385E+02  0.31886066173E+02  0.00000000000E+00 0. -1.
         11    1    3    3    0    0 -0.13480908173E+02 -0.27953738687E+02  0.37932018530E+01  0.31265552487E+02  0.51100000000E-03 0. -1.
        -11    1    3    3    0    0  0.81928007305E+01  0.42972224557E+01 -0.80893628217E+01  0.12289259366E+02  0.51100000000E-03 0.  1.
         12    1    3    3    0    0  0.13089543079E+02 -0.50685065760E+01 -0.71376434164E+01  0.15747121974E+02  0.00000000000E+00 0. -1.
</event>
<event>
 7    1  0.4673733E-013  0.5930192E+02  0.7816164E-02  0.1266605E+00
        -11   -1    0    0    0    0  0.00000000000E+00  0.00000000000E+00  0.45593999997E+02  0.45594000000E+02  0.51100000000E-03 0. -1.
         11   -1    0    0    0    0 -0.00000000000E+00 -0.00000000000E+00 -0.45593999997E+02  0.45594000000E+02  0.51100000000E-03 0.  1.
    9900012    2    1    2    0    0  0.50453326706E+01 -0.25563977525E+02 -0.18377973647E+02  0.59301917707E+02  0.49999951997E+02 0.  0.
         12    1    1    2    0    0 -0.50453326706E+01  0.25563977525E+02  0.18377973647E+02  0.31886082293E+02  0.00000000000E+00 0. -1.
         11    1    3    3    0    0  0.52034312924E+01  0.72479183616E+01  0.31173967157E+01  0.94512528448E+01  0.51100000000E-03 0. -1.
        -11    1    3    3    0    0  0.23864451558E+01 -0.36174187685E+02 -0.10000581343E+02  0.37606895679E+02  0.51100000000E-03 0.  1.
        -12    1    3    3    0    0 -0.25445437776E+01  0.33622917990E+01 -0.11494789020E+02  0.12243769183E+02  0.00000000000E+00 0.  1.
</event>
<event>
 7    1  0.4673733E-013  0.5930194E+02  0.7816164E-02  0.1266605E+00
        -11   -1    0    0    0    0  0.00000000000E+00  0.00000000000E+00  0.45593999997E+02  0.45594000000E+02  0.51100000000E-03 0.  1.
         11   -1    0    0    0    0 -0.00000000000E+00 -0.00000000000E+00 -0.45593999997E+02  0.45594000000E+02  0.51100000000E-03 0. -1.
    9900012    2    1    2    0    0  0.21330852085E+01  0.21798444026E+02  0.23173225843E+02  0.59301943323E+02  0.49999998714E+02 0.  0.
         12    1    1    2    0    0 -0.21330852085E+01 -0.21798444026E+02 -0.23173225843E+02  0.31886056677E+02  0.00000000000E+00 0. -1.
         11    1    3    3    0    0  0.10010327547E+02 -0.71210632919E+01  0.82336156794E+01  0.14788800743E+02  0.51100000000E-03 0. -1.
        -11    1    3    3    0    0 -0.53218213391E+01  0.19496232815E+02 -0.62735911624E+01  0.21160879535E+02  0.51100000000E-03 0.  1.
        -12    1    3    3    0    0 -0.25554209990E+01  0.94232745030E+01  0.21213201326E+02  0.23352263045E+02  0.00000000000E+00 0.  1.
</event>
<event>
 7    1  0.4673733E-013  0.5930193E+02  0.7816164E-02  0.1266605E+00
        -11   -1    0    0    0    0  0.00000000000E+00  0.00000000000E+00  0.45593999997E+02  0.45594000000E+02  0.51100000000E-03 0.  1.
         11   -1    0    0    0    0 -0.00000000000E+00 -0.00000000000E+00 -0.45593999997E+02  0.45594000000E+02  0.51100000000E-03 0. -1.
    9900012    2    1    2    0    0  0.18835038235E+02  0.12846930251E+02  0.22291690270E+02  0.59301925652E+02  0.49999966488E+02 0.  0.
         12    1    1    2    0    0 -0.18835038235E+02 -0.12846930251E+02 -0.22291690270E+02  0.31886074348E+02  0.00000000000E+00 0. -1.
         11    1    3    3    0    0 -0.12506278061E+02 -0.30927050903E+01  0.74548290686E+01  0.14884431209E+02  0.51100000000E-03 0. -1.
        -11    1    3    3    0    0  0.34126894795E+02  0.10452745107E+02  0.13147541691E+02  0.38036333700E+02  0.51100000000E-03 0.  1.
        -12    1    3    3    0    0 -0.27855784982E+01  0.54868902350E+01  0.16893195108E+01  0.63811607432E+01  0.00000000000E+00 0.  1.
</event>
<event>
 7    1  0.4673733E-013  0.5930193E+02  0.7816164E-02  0.1266605E+00
        -11   -1    0    0    0    0  0.00000000000E+00  0.00000000000E+00  0.45593999997E+02  0.45594000000E+02  0.51100000000E-03 0.  1.
         11   -1    0    0    0    0 -0.00000000000E+00 -0.00000000000E+00 -0.45593999997E+02  0.45594000000E+02  0.51100000000E-03 0. -1.
    9900012    2    1    2    0    0  0.35020164076E+01 -0.25718551282E+01  0.31588647717E+02  0.59301933728E+02  0.49999981216E+02 0.  0.
         12    1    1    2    0    0 -0.35020164076E+01  0.25718551282E+01 -0.31588647717E+02  0.31886066272E+02  0.00000000000E+00 0. -1.
         11    1    3    3    0    0  0.14842178823E+02  0.67824925083E+01 -0.20920561976E+01  0.16452026508E+02  0.51100000000E-03 0. -1.
        -11    1    3    3    0    0 -0.15771427296E+02 -0.12941928541E+02  0.23014260201E+02  0.30755285825E+02  0.51100000000E-03 0.  1.
        -12    1    3    3    0    0  0.44312648810E+01  0.35875809047E+01  0.10666443713E+02  0.12094621395E+02  0.00000000000E+00 0.  1.
</event>
<event>
 7    1  0.4673733E-013  0.5930199E+02  0.7816164E-02  0.1266605E+00
        -11   -1    0    0    0    0  0.00000000000E+00  0.00000000000E+00  0.45593999997E+02  0.45594000000E+02  0.51100000000E-03 0.  1.
         11   -1    0    0    0    0 -0.00000000000E+00 -0.00000000000E+00 -0.45593999997E+02  0.45594000000E+02  0.51100000000E-03 0. -1.
    9900012    2    1    2    0    0 -0.25437635050E+02 -0.12057198686E+02  0.14975580110E+02  0.59301994971E+02  0.50000092907E+02 0.  0.
         12    1    1    2    0    0  0.25437635050E+02  0.12057198686E+02 -0.14975580110E+02  0.31886005029E+02  0.00000000000E+00 0. -1.
         11    1    3    3    0    0 -0.10941027360E+02  0.13738333462E+02 -0.36917083091E+01  0.17946492596E+02  0.51100000000E-03 0. -1.
        -11    1    3    3    0    0 -0.13182293652E+02 -0.11788433491E+02  0.20605759509E+02  0.27153956531E+02  0.51100000000E-03 0.  1.
        -12    1    3    3    0    0 -0.13143140388E+01 -0.14007098657E+02 -0.19384710903E+01  0.14201545843E+02  0.00000000000E+00 0.  1.
</event>
<event>
 7    1  0.4673733E-013  0.5930188E+02  0.7816164E-02  0.1266605E+00
        -11   -1    0    0    0    0  0.00000000000E+00  0.00000000000E+00  0.45593999997E+02  0.45594000000E+02  0.51100000000E-03 0. -1.
         11   -1    0    0    0    0 -0.00000000000E+00 -0.00000000000E+00 -0.45593999997E+02  0.45594000000E+02  0.51100000000E-03 0.  1.
    9900012    2    1    2    0    0 -0.21968122466E+02 -0.18466635988E+02  0.13896394208E+02  0.59301877292E+02  0.49999878289E+02 0.  0.
         12    1    1    2    0    0  0.21968122466E+02  0.18466635988E+02 -0.13896394208E+02  0.31886122708E+02  0.00000000000E+00 0. -1.
         11    1    3    3    0    0 -0.17838704217E+02 -0.20492886170E+01  0.60024558073E+01  0.18932734297E+02  0.51100000000E-03 0. -1.
        -11    1    3    3    0    0  0.12153366749E+02 -0.13435386097E+02  0.13820724431E+02  0.22786538723E+02  0.51100000000E-03 0.  1.
        -12    1    3    3    0    0 -0.16282784997E+02 -0.29819612735E+01 -0.59267860303E+01  0.17582604271E+02  0.00000000000E+00 0.  1.
</event>
<event>
 7    1  0.4673733E-013  0.5930194E+02  0.7816164E-02  0.1266605E+00
        -11   -1    0    0    0    0  0.00000000000E+00  0.00000000000E+00  0.45593999997E+02  0.45594000000E+02  0.51100000000E-03 0.  1.
         11   -1    0    0    0    0 -0.00000000000E+00 -0.00000000000E+00 -0.45593999997E+02  0.45594000000E+02  0.51100000000E-03 0. -1.
    9900012    2    1    2    0    0  0.84012880978E+00  0.24477080534E+02  0.20417825816E+02  0.59301938799E+02  0.49999990463E+02 0.  0.
         12    1    1    2    0    0 -0.84012880978E+00 -0.24477080534E+02 -0.20417825816E+02  0.31886061201E+02  0.00000000000E+00 0. -1.
         11    1    3    3    0    0  0.74833988496E+01 -0.10466917926E+02  0.14236742773E+01  0.12945442361E+02  0.51100000000E-03 0. -1.
        -11    1    3    3    0    0 -0.61906912005E+01  0.26350268836E+02  0.17981660802E+01  0.27127379652E+02  0.51100000000E-03 0.  1.
         12    1    3    3    0    0 -0.45257883925E+00  0.85937296236E+01  0.17195985459E+02  0.19229116785E+02  0.00000000000E+00 0. -1.
</event>
<event>
 7    1  0.4673733E-013  0.5930198E+02  0.7816164E-02  0.1266605E+00
        -11   -1    0    0    0    0  0.00000000000E+00  0.00000000000E+00  0.45593999997E+02  0.45594000000E+02  0.51100000000E-03 0.  1.
         11   -1    0    0    0    0 -0.00000000000E+00 -0.00000000000E+00 -0.45593999997E+02  0.45594000000E+02  0.51100000000E-03 0. -1.
    9900012    2    1    2    0    0  0.10247258146E+02  0.19909251345E+02  0.22700964988E+02  0.59301977984E+02  0.50000061928E+02 0.  0.
         12    1    1    2    0    0 -0.10247258146E+02 -0.19909251345E+02 -0.22700964988E+02  0.31886022016E+02  0.00000000000E+00 0. -1.
         11    1    3    3    0    0 -0.12358984495E+02  0.68213058572E+01 -0.71772695747E+01  0.15836284607E+02  0.51100000000E-03 0. -1.
        -11    1    3    3    0    0  0.13567306560E+02  0.18015137763E+01  0.47744511255E+01  0.14495262778E+02  0.51100000000E-03 0.  1.
         12    1    3    3    0    0  0.90389360807E+01  0.11286431711E+02  0.25103783437E+02  0.28970430599E+02  0.00000000000E+00 0. -1.
</event>
<event>
 7    1  0.4673733E-013  0.5930192E+02  0.7816164E-02  0.1266605E+00
        -11   -1    0    0    0    0  0.00000000000E+00  0.00000000000E+00  0.45593999997E+02  0.45594000000E+02  0.51100000000E-03 0.  1.
         11   -1    0    0    0    0 -0.00000000000E+00 -0.00000000000E+00 -0.45593999997E+02  0.45594000000E+02  0.51100000000E-03 0. -1.
    9900012    2    1    2    0    0 -0.29201996454E+02  0.12639314366E+02 -0.20526724988E+01  0.59301916376E+02  0.49999949569E+02 0.  0.
         12    1    1    2    0    0  0.29201996454E+02 -0.12639314366E+02  0.20526724988E+01  0.31886083624E+02  0.00000000000E+00 0. -1.
         11    1    3    3    0    0 -0.21803356495E+01 -0.69193990559E+01  0.11908212964E+02  0.13944084161E+02  0.51100000000E-03 0. -1.
        -11    1    3    3    0    0 -0.31501711649E+02  0.11039521637E+02 -0.92299037512E+01  0.34632643536E+02  0.51100000000E-03 0.  1.
         12    1    3    3    0    0  0.44800508445E+01  0.85191917844E+01 -0.47309817115E+01  0.10725188678E+02  0.00000000000E+00 0. -1.
</event>
<event>
 7    1  0.4673733E-013  0.5930194E+02  0.7816164E-02  0.1266605E+00
        -11   -1    0    0    0    0  0.00000000000E+00  0.00000000000E+00  0.45593999997E+02  0.45594000000E+02  0.51100000000E-03 0.  1.
         11   -1    0    0    0    0 -0.00000000000E+00 -0.00000000000E+00 -0.45593999997E+02  0.45594000000E+02  0.51100000000E-03 0. -1.
    9900012    2    1    2    0    0 -0.10820219607E+02  0.15952088919E+02  0.25400285294E+02  0.59301940565E+02  0.49999993686E+02 0.  0.
         12    1    1    2    0    0  0.10820219607E+02 -0.15952088919E+02 -0.25400285294E+02  0.31886059435E+02  0.00000000000E+00 0. -1.
         11    1    3    3    0    0 -0.67776829441E+01 -0.74779041898E+01  0.92032557348E+01  0.13658548735E+02  0.51100000000E-03 0. -1.
        -11    1    3    3    0    0  0.12896689541E+02  0.68872074407E+01 -0.32809528299E+01  0.14984087533E+02  0.51100000000E-03 0.  1.
        -12    1    3    3    0    0 -0.16939226205E+02  0.16542785668E+02  0.19477982390E+02  0.30659304298E+02  0.00000000000E+00 0.  1.
</event>
<event>
 7    1  0.4673733E-013  0.5930194E+02  0.7816164E-02  0.1266605E+00
        -11   -1    0    0    0    0  0.00000000000E+00  0.00000000000E+00  0.45593999997E+02  0.45594000000E+02  0.51100000000E-03 0.  1.
         11   -1    0    0    0    0 -0.00000000000E+00 -0.00000000000E+00 -0.45593999997E+02  0.45594000000E+02  0.51100000000E-03 0. -1.
    9900012    2    1    2    0    0 -0.60801687013E+01  0.31050294749E+02  0.39536396694E+01  0.59301944708E+02  0.50000001240E+02 0.  0.
         12    1    1    2    0    0  0.60801687013E+01 -0.31050294749E+02 -0.39536396694E+01  0.31886055292E+02  0.00000000000E+00 0. -1.
         11    1    3    3    0    0  0.11533529820E+02  0.13608456136E+02 -0.18507350165E+02  0.25704754403E+02  0.51100000000E-03 0. -1.
        -11    1    3    3    0    0 -0.52245240617E+01  0.67843446693E+01  0.90231754411E+01  0.12439480679E+02  0.51100000000E-03 0.  1.
         12    1    3    3    0    0 -0.12389174459E+02  0.10657493944E+02  0.13437814393E+02  0.21157709626E+02  0.00000000000E+00 0. -1.
</event>
<event>
 7    1  0.4673733E-013  0.5930192E+02  0.7816164E-02  0.1266605E+00
        -11   -1    0    0    0    0  0.00000000000E+00  0.00000000000E+00  0.45593999997E+02  0.45594000000E+02  0.51100000000E-03 0. -1.
         11   -1    0    0    0    0 -0.00000000000E+00 -0.00000000000E+00 -0.45593999997E+02  0.45594000000E+02  0.51100000000E-03 0.  1.
    9900012    2    1    2    0    0  0.12034807521E+02  0.28606490827E+02 -0.73180876983E+01  0.59301916561E+02  0.49999949908E+02 0.  0.
         12    1    1    2    0    0 -0.12034807521E+02 -0.28606490827E+02  0.73180876983E+01  0.31886083439E+02  0.00000000000E+00 0. -1.
         11    1    3    3    0    0  0.34237241072E+01  0.23399100646E+02  0.72596767718E+01  0.24737475717E+02  0.51100000000E-03 0. -1.
        -11    1    3    3    0    0  0.10358136435E+02  0.57494779385E+01 -0.23039700063E+02  0.25907050512E+02  0.51100000000E-03 0.  1.
         12    1    3    3    0    0 -0.17470530209E+01 -0.54208775732E+00  0.84619355925E+01  0.86573903323E+01  0.00000000000E+00 0. -1.
</event>
<event>
 7    1  0.4673733E-013  0.5930195E+02  0.7816164E-02  0.1266605E+00
        -11   -1    0    0    0    0  0.00000000000E+00  0.00000000000E+00  0.45593999997E+02  0.45594000000E+02  0.51100000000E-03 0. -1.
         11   -1    0    0    0    0 -0.00000000000E+00 -0.00000000000E+00 -0.45593999997E+02  0.45594000000E+02  0.51100000000E-03 0.  1.
    9900012    2    1    2    0    0  0.95051834628E+01 -0.26686202480E+02 -0.14636195225E+02  0.59301950917E+02  0.50000012564E+02 0.  0.
         12    1    1    2    0    0 -0.95051834628E+01  0.26686202480E+02  0.14636195225E+02  0.31886049083E+02  0.00000000000E+00 0. -1.
         11    1    3    3    0    0 -0.73059794395E+01 -0.12357474169E+02 -0.36268511303E+01  0.14806706345E+02  0.51100000000E-03 0. -1.
        -11    1    3    3    0    0  0.18570843881E+02  0.26807871532E+01 -0.18018684863E+02  0.26014147433E+02  0.51100000000E-03 0.  1.
        -12    1    3    3    0    0 -0.17596809783E+01 -0.17009515464E+02  0.70093407682E+01  0.18481097139E+02  0.00000000000E+00 0.  1.
</event>
<event>
 7    1  0.4673733E-013  0.5930194E+02  0.7816164E-02  0.1266605E+00
        -11   -1    0    0    0    0  0.00000000000E+00  0.00000000000E+00  0.45593999997E+02  0.45594000000E+02  0.51100000000E-03 0.  1.
         11   -1    0    0    0    0 -0.00000000000E+00 -0.00000000000E+00 -0.45593999997E+02  0.45594000000E+02  0.51100000000E-03 0. -1.
    9900012    2    1    2    0    0  0.68644843416E+01  0.30987431067E+02 -0.30624794755E+01  0.59301940194E+02  0.49999993008E+02 0.  0.
         12    1    1    2    0    0 -0.68644843416E+01 -0.30987431067E+02  0.30624794755E+01  0.31886059806E+02  0.00000000000E+00 0. -1.
         11    1    3    3    0    0  0.17094370341E+02  0.74611718741E+01 -0.12378779875E+02  0.22385727028E+02  0.51100000000E-03 0. -1.
        -11    1    3    3    0    0 -0.10867481566E+01  0.99391845988E+01  0.16292085379E+02  0.19115450774E+02  0.51100000000E-03 0.  1.
        -12    1    3    3    0    0 -0.91431378433E+01  0.13587074594E+02 -0.69757849793E+01  0.17800762392E+02  0.00000000000E+00 0.  1.
</event>
<event>
 7    1  0.4673733E-013  0.5930193E+02  0.7816164E-02  0.1266605E+00
        -11   -1    0    0    0    0  0.00000000000E+00  0.00000000000E+00  0.45593999997E+02  0.45594000000E+02  0.51100000000E-03 0. -1.
         11   -1    0    0    0    0 -0.00000000000E+00 -0.00000000000E+00 -0.45593999997E+02  0.45594000000E+02  0.51100000000E-03 0.  1.
    9900012    2    1    2    0    0  0.16494982200E+02  0.64963749757E+01 -0.26503468840E+02  0.59301934294E+02  0.49999982248E+02 0.  0.
         12    1    1    2    0    0 -0.16494982200E+02 -0.64963749757E+01  0.26503468840E+02  0.31886065706E+02  0.00000000000E+00 0. -1.
         11    1    3    3    0    0 -0.61161222268E+01  0.50529191874E+01  0.71473805670E+01  0.10678201751E+02  0.51100000000E-03 0. -1.
        -11    1    3    3    0    0  0.28552474817E+02  0.21094660124E+01 -0.30623177434E+02  0.41922221571E+02  0.51100000000E-03 0.  1.
        -12    1    3    3    0    0 -0.59413703899E+01 -0.66601022411E+00 -0.30276719730E+01  0.67015109717E+01  0.00000000000E+00 0.  1.
</event>
<event>
 7    1  0.4673733E-013  0.5930199E+02  0.7816164E-02  0.1266605E+00
        -11   -1    0    0    0    0  0.00000000000E+00  0.00000000000E+00  0.45593999997E+02  0.45594000000E+02  0.51100000000E-03 0.  1.
         11   -1    0    0    0    0 -0.00000000000E+00 -0.00000000000E+00 -0.45593999997E+02  0.45594000000E+02  0.51100000000E-03 0. -1.
    9900012    2    1    2    0    0 -0.18857210846E+02  0.16692515583E+02  0.19557182781E+02  0.59301986206E+02  0.50000076922E+02 0.  0.
         12    1    1    2    0    0  0.18857210846E+02 -0.16692515583E+02 -0.19557182781E+02  0.31886013794E+02  0.00000000000E+00 0. -1.
         11    1    3    3    0    0  0.54492824063E+01 -0.49138506361E+01  0.18368387231E+02  0.19779743591E+02  0.51100000000E-03 0. -1.
        -11    1    3    3    0    0 -0.62708195406E+01  0.20330102166E+02 -0.10629971714E+01  0.21301788541E+02  0.51100000000E-03 0.  1.
        -12    1    3    3    0    0 -0.18035673712E+02  0.12762640529E+01  0.22517927212E+01  0.18220454073E+02  0.00000000000E+00 0.  1.
</event>
<event>
 7    1  0.4673733E-013  0.5930195E+02  0.7816164E-02  0.1266605E+00
        -11   -1    0    0    0    0  0.00000000000E+00  0.00000000000E+00  0.45593999997E+02  0.45594000000E+02  0.51100000000E-03 0.  1.
         11   -1    0    0    0    0 -0.00000000000E+00 -0.00000000000E+00 -0.45593999997E+02  0.45594000000E+02  0.51100000000E-03 0. -1.
    9900012    2    1    2    0    0 -0.11458088484E+02 -0.13081887417E+02  0.26726324344E+02  0.59301953160E+02  0.50000016656E+02 0.  0.
         12    1    1    2    0    0  0.11458088484E+02  0.13081887417E+02 -0.26726324344E+02  0.31886046840E+02  0.00000000000E+00 0. -1.
         11    1    3    3    0    0 -0.67723494273E+01  0.41112886406E+01  0.42831356196E+01  0.90062568278E+01  0.51100000000E-03 0. -1.
        -11    1    3    3    0    0 -0.65197702100E+01 -0.28621456089E+02  0.56395064121E+01  0.29891456724E+02  0.51100000000E-03 0.  1.
        -12    1    3    3    0    0  0.18340311532E+01  0.11428280032E+02  0.16803682313E+02  0.20404239609E+02  0.00000000000E+00 0.  1.
</event>
<event>
 7    1  0.4673733E-013  0.5930190E+02  0.7816164E-02  0.1266605E+00
        -11   -1    0    0    0    0  0.00000000000E+00  0.00000000000E+00  0.45593999997E+02  0.45594000000E+02  0.51100000000E-03 0. -1.
         11   -1    0    0    0    0 -0.00000000000E+00 -0.00000000000E+00 -0.45593999997E+02  0.45594000000E+02  0.51100000000E-03 0.  1.
    9900012    2    1    2    0    0 -0.75253407051E+01  0.25261195667E+02 -0.17943375505E+02  0.59301898266E+02  0.49999916542E+02 0.  0.
         12    1    1    2    0    0  0.75253407051E+01 -0.25261195667E+02  0.17943375505E+02  0.31886101734E+02  0.00000000000E+00 0. -1.
         11    1    3    3    0    0 -0.14349541864E+02  0.79600977792E+01  0.78875240433E+01  0.18206744469E+02  0.51100000000E-03 0. -1.
        -11    1    3    3    0    0  0.13247786409E+02  0.20789828009E+02 -0.19851049622E+02  0.31650986789E+02  0.51100000000E-03 0.  1.
        -12    1    3    3    0    0 -0.64235852500E+01 -0.34887301214E+01 -0.59798499267E+01  0.94441670077E+01  0.00000000000E+00 0.  1.
</event>
<event>
 7    1  0.4673733E-013  0.5930198E+02  0.7816164E-02  0.1266605E+00
        -11   -1    0    0    0    0  0.00000000000E+00  0.00000000000E+00  0.45593999997E+02  0.45594000000E+02  0.51100000000E-03 0. -1.
         11   -1    0    0    0    0 -0.00000000000E+00 -0.00000000000E+00 -0.45593999997E+02  0.45594000000E+02  0.51100000000E-03 0.  1.
    9900012    2    1    2    0    0  0.19488650650E+02 -0.68265176853E+01  0.24296289436E+02  0.59301975974E+02  0.50000058262E+02 0.  0.
         12    1    1    2    0    0 -0.19488650650E+02  0.68265176853E+01 -0.24296289436E+02  0.31886024026E+02  0.00000000000E+00 0. -1.
         11    1    3    3    0    0  0.95570353846E+01 -0.81667928188E+01  0.22422709878E+02  0.25706251163E+02  0.51100000000E-03 0. -1.
        -11    1    3    3    0    0  0.86259351567E+01  0.34551289896E+01 -0.14397608504E+02  0.17135804754E+02  0.51100000000E-03 0.  1.
        -12    1    3    3    0    0  0.13056801085E+01 -0.21148538562E+01  0.16271188061E+02  0.16459920057E+02  0.00000000000E+00 0.  1.
</event>
<event>
 7    1  0.4673733E-013  0.5930195E+02  0.7816164E-02  0.1266605E+00
        -11   -1    0    0    0    0  0.00000000000E+00  0.00000000000E+00  0.45593999997E+02  0.45594000000E+02  0.51100000000E-03 0.  1.
         11   -1    0    0    0    0 -0.00000000000E+00 -0.00000000000E+00 -0.45593999997E+02  0.45594000000E+02  0.51100000000E-03 0. -1.
    9900012    2    1    2    0    0  0.20828819435E+02  0.20014806947E+02  0.13501410425E+02  0.59301948196E+02  0.50000007602E+02 0.  0.
         12    1    1    2    0    0 -0.20828819435E+02 -0.20014806947E+02 -0.13501410425E+02  0.31886051804E+02  0.00000000000E+00 0. -1.
         11    1    3    3    0    0  0.88769762995E+01 -0.11234846197E+02 -0.28212374470E+01  0.14593897981E+02  0.51100000000E-03 0. -1.
        -11    1    3    3    0    0 -0.40824385815E+01  0.20758841885E+02  0.29947825219E+01  0.21367371008E+02  0.51100000000E-03 0.  1.
         12    1    3    3    0    0  0.16034281717E+02  0.10490811259E+02  0.13327865350E+02  0.23340679207E+02  0.00000000000E+00 0. -1.
</event>
<event>
 7    1  0.4673733E-013  0.5930196E+02  0.7816164E-02  0.1266605E+00
        -11   -1    0    0    0    0  0.00000000000E+00  0.00000000000E+00  0.45593999997E+02  0.45594000000E+02  0.51100000000E-03 0.  1.
         11   -1    0    0    0    0 -0.00000000000E+00 -0.00000000000E+00 -0.45593999997E+02  0.45594000000E+02  0.51100000000E-03 0. -1.
    9900012    2    1    2    0    0 -0.64630024331E+01  0.11422616616E+02  0.29059820985E+02  0.59301956556E+02  0.50000022849E+02 0.  0.
         12    1    1    2    0    0  0.64630024331E+01 -0.11422616616E+02 -0.29059820985E+02  0.31886043444E+02  0.00000000000E+00 0. -1.
         11    1    3    3    0    0 -0.27075103224E+02  0.19485269239E+01  0.16057066752E+02  0.31538664600E+02  0.51100000000E-03 0. -1.
        -11    1    3    3    0    0  0.47824115868E+01  0.25734382867E+01  0.82072295238E+01  0.98413750015E+01  0.51100000000E-03 0.  1.
         12    1    3    3    0    0  0.15829689204E+02  0.69006514051E+01  0.47955247090E+01  0.17921916955E+02  0.00000000000E+00 0. -1.
</event>
<event>
 7    1  0.4673733E-013  0.5930196E+02  0.7816164E-02  0.1266605E+00
        -11   -1    0    0    0    0  0.00000000000E+00  0.00000000000E+00  0.45593999997E+02  0.45594000000E+02  0.51100000000E-03 0.  1.
         11   -1    0    0    0    0 -0.00000000000E+00 -0.00000000000E+00 -0.45593999997E+02  0.45594000000E+02  0.51100000000E-03 0. -1.
    9900012    2    1    2    0    0  0.17178407633E+02  0.11207505130E+02  0.24413385179E+02  0.59301964876E+02  0.50000038022E+02 0.  0.
         12    1    1    2    0    0 -0.17178407633E+02 -0.11207505130E+02 -0.24413385179E+02  0.31886035124E+02  0.00000000000E+00 0. -1.
         11    1    3    3    0    0  0.26316760594E+01 -0.11055780125E+02 -0.74617973977E+01  0.13595382073E+02  0.51100000000E-03 0. -1.
        -11    1    3    3    0    0  0.18559962198E+02  0.19120638058E+02  0.21850264591E+02  0.34460195291E+02  0.51100000000E-03 0.  1.
        -12    1    3    3    0    0 -0.40132306250E+01  0.31426471977E+01  0.10024917985E+02  0.11246387512E+02  0.00000000000E+00 0.  1.
</event>
<event>
 7    1  0.4673733E-013  0.5930194E+02  0.7816164E-02  0.1266605E+00
        -11   -1    0    0    0    0  0.00000000000E+00  0.00000000000E+00  0.45593999997E+02  0.45594000000E+02  0.51100000000E-03 0. -1.
         11   -1    0    0    0    0 -0.00000000000E+00 -0.00000000000E+00 -0.45593999997E+02  0.45594000000E+02  0.51100000000E-03 0.  1.
    9900012    2    1    2    0    0 -0.30798636254E+02 -0.78491148884E+01  0.25604951101E+01  0.59301941372E+02  0.49999995156E+02 0.  0.
         12    1    1    2    0    0  0.30798636254E+02  0.78491148884E+01 -0.25604951101E+01  0.31886058628E+02  0.00000000000E+00 0. -1.
         11    1    3    3    0    0 -0.29565023543E+02  0.39187181908E+01  0.21071266604E+02  0.36516369561E+02  0.51100000000E-03 0. -1.
        -11    1    3    3    0    0 -0.25665489992E+01 -0.26252425938E+01 -0.30432522733E+01  0.47686955346E+01  0.51100000000E-03 0.  1.
         12    1    3    3    0    0  0.13329362886E+01 -0.91425904854E+01 -0.15467519220E+02  0.18016876276E+02  0.00000000000E+00 0. -1.
</event>
<event>
 7    1  0.4673733E-013  0.5930194E+02  0.7816164E-02  0.1266605E+00
        -11   -1    0    0    0    0  0.00000000000E+00  0.00000000000E+00  0.45593999997E+02  0.45594000000E+02  0.51100000000E-03 0.  1.
         11   -1    0    0    0    0 -0.00000000000E+00 -0.00000000000E+00 -0.45593999997E+02  0.45594000000E+02  0.51100000000E-03 0. -1.
    9900012    2    1    2    0    0  0.31240196419E+02  0.61834981393E+01 -0.15922501596E+01  0.59301940631E+02  0.49999993805E+02 0.  0.
         12    1    1    2    0    0 -0.31240196419E+02 -0.61834981393E+01  0.15922501596E+01  0.31886059369E+02  0.00000000000E+00 0. -1.
         11    1    3    3    0    0 -0.46367579640E+01 -0.23609189988E+01  0.99703088186E+01  0.11246355905E+02  0.51100000000E-03 0. -1.
        -11    1    3    3    0    0  0.15093069254E+02  0.19771916207E+01 -0.19606547720E+02  0.24821900410E+02  0.51100000000E-03 0.  1.
        -12    1    3    3    0    0  0.20783885129E+02  0.65672255174E+01  0.80439887413E+01  0.23233684317E+02  0.00000000000E+00 0.  1.
</event>
<event>
 7    1  0.4673733E-013  0.5930195E+02  0.7816164E-02  0.1266605E+00
        -11   -1    0    0    0    0  0.00000000000E+00  0.00000000000E+00  0.45593999997E+02  0.45594000000E+02  0.51100000000E-03 0.  1.
         11   -1    0    0    0    0 -0.00000000000E+00 -0.00000000000E+00 -0.45593999997E+02  0.45594000000E+02  0.51100000000E-03 0. -1.
    9900012    2    1    2    0    0  0.28320142618E+02  0.16587973562E+01 -0.14558096580E+02  0.59301948777E+02  0.50000008661E+02 0.  0.
         12    1    1    2    0    0 -0.28320142618E+02 -0.16587973562E+01  0.14558096580E+02  0.31886051223E+02  0.00000000000E+00 0. -1.
         11    1    3    3    0    0  0.55521118775E+01 -0.32132985420E+01 -0.26785132201E+02  0.27542595032E+02  0.51100000000E-03 0. -1.
        -11    1    3    3    0    0  0.20298901406E+02  0.10723472719E+02  0.93879729022E+01  0.24802667214E+02  0.51100000000E-03 0.  1.
        -12    1    3    3    0    0  0.24691293346E+01 -0.58513768211E+01  0.28390627185E+01  0.69566865312E+01  0.00000000000E+00 0.  1.
</event>
<event>
 7    1  0.4673733E-013  0.5930194E+02  0.7816164E-02  0.1266605E+00
        -11   -1    0    0    0    0  0.00000000000E+00  0.00000000000E+00  0.45593999997E+02  0.45594000000E+02  0.51100000000E-03 0.  1.
         11   -1    0    0    0    0 -0.00000000000E+00 -0.00000000000E+00 -0.45593999997E+02  0.45594000000E+02  0.51100000000E-03 0. -1.
    9900012    2    1    2    0    0 -0.14335090329E+02  0.24902097469E+02  0.13824298903E+02  0.59301944847E+02  0.50000001493E+02 0.  0.
         12    1    1    2    0    0  0.14335090329E+02 -0.24902097469E+02 -0.13824298903E+02  0.31886055153E+02  0.00000000000E+00 0. -1.
         11    1    3    3    0    0  0.40202325938E+01 -0.21070275838E+01 -0.67429740531E+01  0.81283168423E+01  0.51100000000E-03 0. -1.
        -11    1    3    3    0    0 -0.25647323991E+02  0.13465917721E+02  0.21011846356E+02  0.35785665503E+02  0.51100000000E-03 0.  1.
        -12    1    3    3    0    0  0.72920010687E+01  0.13543207332E+02 -0.44457339977E+00  0.15387962501E+02  0.00000000000E+00 0.  1.
</event>
<event>
 7    1  0.4673733E-013  0.5930194E+02  0.7816164E-02  0.1266605E+00
        -11   -1    0    0    0    0  0.00000000000E+00  0.00000000000E+00  0.45593999997E+02  0.45594000000E+02  0.51100000000E-03 0.  1.
         11   -1    0    0    0    0 -0.00000000000E+00 -0.00000000000E+00 -0.45593999997E+02  0.45594000000E+02  0.51100000000E-03 0. -1.
    9900012    2    1    2    0    0  0.95707572782E+01  0.12962509574E+01  0.30388170541E+02  0.59301943952E+02  0.49999999862E+02 0.  0.
         12    1    1    2    0    0 -0.95707572782E+01 -0.12962509574E+01 -0.30388170541E+02  0.31886056048E+02  0.00000000000E+00 0. -1.
         11    1    3    3    0    0  0.34371344887E+01 -0.27019796768E+01 -0.12940965460E+02  0.13659545196E+02  0.51100000000E-03 0. -1.
        -11    1    3    3    0    0  0.67786174818E+01  0.75724600932E+01  0.36726068255E+02  0.38106376062E+02  0.51100000000E-03 0.  1.
         12    1    3    3    0    0 -0.64499469224E+00 -0.35742294590E+01  0.66030677470E+01  0.75360226944E+01  0.00000000000E+00 0. -1.
</event>
<event>
 7    1  0.4673733E-013  0.5930195E+02  0.7816164E-02  0.1266605E+00
        -11   -1    0    0    0    0  0.00000000000E+00  0.00000000000E+00  0.45593999997E+02  0.45594000000E+02  0.51100000000E-03 0. -1.
         11   -1    0    0    0    0 -0.00000000000E+00 -0.00000000000E+00 -0.45593999997E+02  0.45594000000E+02  0.51100000000E-03 0.  1.
    9900012    2    1    2    0    0  0.28118753756E+02 -0.10048989283E+02 -0.11183642228E+02  0.59301947377E+02  0.50000006108E+02 0.  0.
         12    1    1    2    0    0 -0.28118753756E+02  0.10048989283E+02  0.11183642228E+02  0.31886052623E+02  0.00000000000E+00 0. -1.
         11    1    3    3    0    0  0.30763270252E+02  0.72629629460E+01 -0.61549597747E+01  0.32202685563E+02  0.51100000000E-03 0. -1.
        -11    1    3    3    0    0 -0.35550645730E+00 -0.15681058973E+02 -0.11891491131E+02  0.19683230348E+02  0.51100000000E-03 0.  1.
         12    1    3    3    0    0 -0.22890100390E+01 -0.16308932556E+01  0.68628086773E+01  0.74160314664E+01  0.00000000000E+00 0. -1.
</event>
<event>
 7    1  0.4673733E-013  0.5930196E+02  0.7816164E-02  0.1266605E+00
        -11   -1    0    0    0    0  0.00000000000E+00  0.00000000000E+00  0.45593999997E+02  0.45594000000E+02  0.51100000000E-03 0.  1.
         11   -1    0    0    0    0 -0.00000000000E+00 -0.00000000000E+00 -0.45593999997E+02  0.45594000000E+02  0.51100000000E-03 0. -1.
    9900012    2    1    2    0    0 -0.22967039978E+02  0.89373251456E+01  0.20232622477E+02  0.59301957311E+02  0.50000024225E+02 0.  0.
         12    1    1    2    0    0  0.22967039978E+02 -0.89373251456E+01 -0.20232622477E+02  0.31886042689E+02  0.00000000000E+00 0. -1.
         11    1    3    3    0    0  0.10138397182E+02 -0.30963888427E+00 -0.88577736483E+01  0.13466370258E+02  0.51100000000E-03 0. -1.
        -11    1    3    3    0    0 -0.21321886990E+02  0.19332130708E+01  0.15619676077E+02  0.26501593511E+02  0.51100000000E-03 0.  1.
         12    1    3    3    0    0 -0.11783550169E+02  0.73137509591E+01  0.13470720048E+02  0.19333993542E+02  0.00000000000E+00 0. -1.
</event>
<event>
 7    1  0.4673733E-013  0.5930202E+02  0.7816164E-02  0.1266604E+00
        -11   -1    0    0    0    0  0.00000000000E+00  0.00000000000E+00  0.45593999997E+02  0.45594000000E+02  0.51100000000E-03 0.  1.
         11   -1    0    0    0    0 -0.00000000000E+00 -0.00000000000E+00 -0.45593999997E+02  0.45594000000E+02  0.51100000000E-03 0. -1.
    9900012    2    1    2    0    0 -0.24139246899E+01  0.10317512824E+02  0.30073864751E+02  0.59302024332E+02  0.50000146455E+02 0.  0.
         12    1    1    2    0    0  0.24139246899E+01 -0.10317512824E+02 -0.30073864751E+02  0.31885975668E+02  0.00000000000E+00 0. -1.
         11    1    3    3    0    0  0.86020357798E+01 -0.17558443782E+02  0.16921608779E+02  0.25857973848E+02  0.51100000000E-03 0. -1.
        -11    1    3    3    0    0 -0.42184093708E+01  0.12783276973E+02  0.95471779238E+01  0.16503204366E+02  0.51100000000E-03 0.  1.
         12    1    3    3    0    0 -0.67975510988E+01  0.15092679633E+02  0.36050780476E+01  0.16940846117E+02  0.00000000000E+00 0. -1.
</event>
<event>
 7    1  0.4673733E-013  0.5930195E+02  0.7816164E-02  0.1266605E+00
        -11   -1    0    0    0    0  0.00000000000E+00  0.00000000000E+00  0.45593999997E+02  0.45594000000E+02  0.51100000000E-03 0.  1.
         11   -1    0    0    0    0 -0.00000000000E+00 -0.00000000000E+00 -0.45593999997E+02  0.45594000000E+02  0.51100000000E-03 0. -1.
    9900012    2    1    2    0    0 -0.36440284136E+01  0.31602893700E+02 -0.21675955213E+01  0.59301948134E+02  0.50000007488E+02 0.  0.
         12    1    1    2    0    0  0.36440284136E+01 -0.31602893700E+02  0.21675955213E+01  0.31886051866E+02  0.00000000000E+00 0. -1.
         11    1    3    3    0    0  0.12892107606E+02  0.27591416289E+02  0.43554987030E+01  0.30764639776E+02  0.51100000000E-03 0.  1.
        -11    1    3    3    0    0 -0.89331336243E+01  0.51730768678E+01  0.73518341703E+01  0.12673242149E+02  0.51100000000E-03 0. -1.
         12    1    3    3    0    0 -0.76030023949E+01 -0.11615994574E+01 -0.13874928395E+02  0.15864066209E+02  0.00000000000E+00 0. -1.
</event>
<event>
 7    1  0.4673733E-013  0.5930194E+02  0.7816164E-02  0.1266605E+00
        -11   -1    0    0    0    0  0.00000000000E+00  0.00000000000E+00  0.45593999997E+02  0.45594000000E+02  0.51100000000E-03 0.  1.
         11   -1    0    0    0    0 -0.00000000000E+00 -0.00000000000E+00 -0.45593999997E+02  0.45594000000E+02  0.51100000000E-03 0. -1.
    9900012    2    1    2    0    0 -0.12406585143E+02 -0.27959275928E+02  0.90042491330E+01  0.59301937719E+02  0.49999988495E+02 0.  0.
         12    1    1    2    0    0  0.12406585143E+02  0.27959275928E+02 -0.90042491330E+01  0.31886062281E+02  0.00000000000E+00 0. -1.
         11    1    3    3    0    0  0.13813763491E+02 -0.14654880037E+01 -0.61839880807E+01  0.15205572193E+02  0.51100000000E-03 0. -1.
        -11    1    3    3    0    0 -0.13634763976E+02 -0.22563386027E+02  0.16081920340E+02  0.30881083850E+02  0.51100000000E-03 0.  1.
        -12    1    3    3    0    0 -0.12585584658E+02 -0.39304018969E+01 -0.89368312609E+00  0.13215281676E+02  0.00000000000E+00 0.  1.
</event>
<event>
 7    1  0.4673733E-013  0.5930197E+02  0.7816164E-02  0.1266605E+00
        -11   -1    0    0    0    0  0.00000000000E+00  0.00000000000E+00  0.45593999997E+02  0.45594000000E+02  0.51100000000E-03 0. -1.
         11   -1    0    0    0    0 -0.00000000000E+00 -0.00000000000E+00 -0.45593999997E+02  0.45594000000E+02  0.51100000000E-03 0.  1.
    9900012    2    1    2    0    0  0.76234572073E+01  0.30758958156E+02  0.35338460307E+01  0.59301973681E+02  0.50000054081E+02 0.  0.
         12    1    1    2    0    0 -0.76234572073E+01 -0.30758958156E+02 -0.35338460307E+01  0.31886026319E+02  0.00000000000E+00 0. -1.
         11    1    3    3    0    0 -0.57716839848E+01  0.20416076187E+02  0.11635412113E+02  0.24197341139E+02  0.51100000000E-03 0.  1.
        -11    1    3    3    0    0  0.16489826254E+02 -0.49363400472E+01  0.65295946338E+00  0.17225219281E+02  0.51100000000E-03 0. -1.
        -12    1    3    3    0    0 -0.30946850619E+01  0.15279222016E+02 -0.87545255459E+01  0.17879413262E+02  0.00000000000E+00 0.  1.
</event>
<event>
 7    1  0.4673733E-013  0.5930194E+02  0.7816164E-02  0.1266605E+00
        -11   -1    0    0    0    0  0.00000000000E+00  0.00000000000E+00  0.45593999997E+02  0.45594000000E+02  0.51100000000E-03 0. -1.
         11   -1    0    0    0    0 -0.00000000000E+00 -0.00000000000E+00 -0.45593999997E+02  0.45594000000E+02  0.51100000000E-03 0.  1.
    9900012    2    1    2    0    0  0.26478603477E+02 -0.17359279222E+02  0.37761883262E+01  0.59301943243E+02  0.49999998570E+02 0.  0.
         12    1    1    2    0    0 -0.26478603477E+02  0.17359279222E+02 -0.37761883262E+01  0.31886056757E+02  0.00000000000E+00 0. -1.
         11    1    3    3    0    0  0.98741541455E+00 -0.25109807102E+01 -0.14603650049E+02  0.14850811707E+02  0.51100000000E-03 0. -1.
        -11    1    3    3    0    0  0.16871665931E+02 -0.22019209734E+02  0.72920666504E+01  0.28682275797E+02  0.51100000000E-03 0.  1.
         12    1    3    3    0    0  0.86195221318E+01  0.71709112219E+01  0.11087771725E+02  0.15768855740E+02  0.00000000000E+00 0. -1.
</event>
<event>
 7    1  0.4673733E-013  0.5930194E+02  0.7816164E-02  0.1266605E+00
        -11   -1    0    0    0    0  0.00000000000E+00  0.00000000000E+00  0.45593999997E+02  0.45594000000E+02  0.51100000000E-03 0. -1.
         11   -1    0    0    0    0 -0.00000000000E+00 -0.00000000000E+00 -0.45593999997E+02  0.45594000000E+02  0.51100000000E-03 0.  1.
    9900012    2    1    2    0    0  0.90513345964E+01  0.29430859009E+02  0.82836412607E+01  0.59301939840E+02  0.49999992363E+02 0.  0.
         12    1    1    2    0    0 -0.90513345964E+01 -0.29430859009E+02 -0.82836412607E+01  0.31886060160E+02  0.00000000000E+00 0. -1.
         11    1    3    3    0    0  0.15410452436E+02  0.15440379075E+02 -0.16579308948E+00  0.21815472442E+02  0.51100000000E-03 0.  1.
        -11    1    3    3    0    0 -0.12290788774E+02  0.22737507603E+02  0.46883504043E+01  0.26268581432E+02  0.51100000000E-03 0. -1.
        -12    1    3    3    0    0  0.59316709344E+01 -0.87470276686E+01  0.37610839459E+01  0.11217885967E+02  0.00000000000E+00 0.  1.
</event>
<event>
 7    1  0.4673733E-013  0.5930194E+02  0.7816164E-02  0.1266605E+00
        -11   -1    0    0    0    0  0.00000000000E+00  0.00000000000E+00  0.45593999997E+02  0.45594000000E+02  0.51100000000E-03 0.  1.
         11   -1    0    0    0    0 -0.00000000000E+00 -0.00000000000E+00 -0.45593999997E+02  0.45594000000E+02  0.51100000000E-03 0. -1.
    9900012    2    1    2    0    0 -0.22331428961E+02 -0.85652754604E+01  0.21087062227E+02  0.59301939463E+02  0.49999991676E+02 0.  0.
         12    1    1    2    0    0  0.22331428961E+02  0.85652754604E+01 -0.21087062227E+02  0.31886060537E+02  0.00000000000E+00 0. -1.
         11    1    3    3    0    0  0.49374668781E+01  0.10124241157E+02  0.20374650476E+02  0.23281005573E+02  0.51100000000E-03 0. -1.
        -11    1    3    3    0    0 -0.23100601614E+02 -0.16339312330E+02  0.59633801314E+01  0.28916653077E+02  0.51100000000E-03 0.  1.
         12    1    3    3    0    0 -0.41682942258E+01 -0.23502042876E+01 -0.52509683804E+01  0.71042808136E+01  0.00000000000E+00 0. -1.
</event>
<event>
 7    1  0.4673733E-013  0.5930195E+02  0.7816164E-02  0.1266605E+00
        -11   -1    0    0    0    0  0.00000000000E+00  0.00000000000E+00  0.45593999997E+02  0.45594000000E+02  0.51100000000E-03 0. -1.
         11   -1    0    0    0    0 -0.00000000000E+00 -0.00000000000E+00 -0.45593999997E+02  0.45594000000E+02  0.51100000000E-03 0.  1.
    9900012    2    1    2    0    0 -0.41953277570E+01 -0.17025680095E+01 -0.31562965229E+02  0.59301948397E+02  0.50000007968E+02 0.  0.
         12    1    1    2    0    0  0.41953277570E+01  0.17025680095E+01  0.31562965229E+02  0.31886051603E+02  0.00000000000E+00 0. -1.
         11    1    3    3    0    0 -0.89805670503E+01  0.23301321971E+01  0.85824542637E+01  0.12638774547E+02  0.51100000000E-03 0. -1.
        -11    1    3    3    0    0  0.13546966997E+01  0.79671483325E+01 -0.28390809840E+02  0.29518616827E+02  0.51100000000E-03 0.  1.
         12    1    3    3    0    0  0.34305425936E+01 -0.11999848539E+02 -0.11754609652E+02  0.17144557023E+02  0.00000000000E+00 0. -1.
</event>
<event>
 7    1  0.4673733E-013  0.5930194E+02  0.7816164E-02  0.1266605E+00
        -11   -1    0    0    0    0  0.00000000000E+00  0.00000000000E+00  0.45593999997E+02  0.45594000000E+02  0.51100000000E-03 0. -1.
         11   -1    0    0    0    0 -0.00000000000E+00 -0.00000000000E+00 -0.45593999997E+02  0.45594000000E+02  0.51100000000E-03 0.  1.
    9900012    2    1    2    0    0 -0.26655219918E+02  0.13028548266E+02 -0.11682331751E+02  0.59301942013E+02  0.49999996326E+02 0.  0.
         12    1    1    2    0    0  0.26655219918E+02 -0.13028548266E+02  0.11682331751E+02  0.31886057987E+02  0.00000000000E+00 0. -1.
         11    1    3    3    0    0  0.17039534719E+01  0.59198961745E+01 -0.21133495568E+01  0.65126703250E+01  0.51100000000E-03 0. -1.
        -11    1    3    3    0    0 -0.23316798167E+02 -0.42572529102E+01 -0.24006154000E+02  0.33735629670E+02  0.51100000000E-03 0.  1.
        -12    1    3    3    0    0 -0.50423752234E+01  0.11365905001E+02  0.14437171806E+02  0.19053642018E+02  0.00000000000E+00 0.  1.
</event>
<event>
 7    1  0.4673733E-013  0.5930192E+02  0.7816164E-02  0.1266605E+00
        -11   -1    0    0    0    0  0.00000000000E+00  0.00000000000E+00  0.45593999997E+02  0.45594000000E+02  0.51100000000E-03 0.  1.
         11   -1    0    0    0    0 -0.00000000000E+00 -0.00000000000E+00 -0.45593999997E+02  0.45594000000E+02  0.51100000000E-03 0. -1.
    9900012    2    1    2    0    0  0.17294597831E+02 -0.81902621396E+01  0.25505651799E+02  0.59301924956E+02  0.49999965218E+02 0.  0.
         12    1    1    2    0    0 -0.17294597831E+02  0.81902621396E+01 -0.25505651799E+02  0.31886075044E+02  0.00000000000E+00 0. -1.
         11    1    3    3    0    0  0.21336122650E+02  0.11637724064E+02  0.97745419911E+01  0.26195580209E+02  0.51100000000E-03 0. -1.
        -11    1    3    3    0    0  0.45184835381E+01 -0.20054678083E+02  0.10714298097E+02  0.23181953983E+02  0.51100000000E-03 0.  1.
        -12    1    3    3    0    0 -0.85600083571E+01  0.22669188026E+00  0.50168117106E+01  0.99243907633E+01  0.00000000000E+00 0.  1.
</event>
<event>
 7    1  0.4673733E-013  0.5930194E+02  0.7816164E-02  0.1266605E+00
        -11   -1    0    0    0    0  0.00000000000E+00  0.00000000000E+00  0.45593999997E+02  0.45594000000E+02  0.51100000000E-03 0. -1.
         11   -1    0    0    0    0 -0.00000000000E+00 -0.00000000000E+00 -0.45593999997E+02  0.45594000000E+02  0.51100000000E-03 0.  1.
    9900012    2    1    2    0    0  0.55650220878E+01 -0.10950179042E+02 -0.29425238554E+02  0.59301944179E+02  0.50000000275E+02 0.  0.
         12    1    1    2    0    0 -0.55650220878E+01  0.10950179042E+02  0.29425238554E+02  0.31886055821E+02  0.00000000000E+00 0. -1.
         11    1    3    3    0    0 -0.20646093824E+01 -0.17682539969E+02  0.49690794829E+00  0.17809597115E+02  0.51100000000E-03 0. -1.
        -11    1    3    3    0    0  0.11747205776E+02  0.11042550225E+02 -0.31447408318E+02  0.35339414953E+02  0.51100000000E-03 0.  1.
        -12    1    3    3    0    0 -0.41175743060E+01 -0.43101892982E+01  0.15252618155E+01  0.61529321106E+01  0.00000000000E+00 0.  1.
</event>
<event>
 7    1  0.4673733E-013  0.5930193E+02  0.7816164E-02  0.1266605E+00
        -11   -1    0    0    0    0  0.00000000000E+00  0.00000000000E+00  0.45593999997E+02  0.45594000000E+02  0.51100000000E-03 0.  1.
         11   -1    0    0    0    0 -0.00000000000E+00 -0.00000000000E+00 -0.45593999997E+02  0.45594000000E+02  0.51100000000E-03 0. -1.
    9900012    2    1    2    0    0 -0.17163597720E+02 -0.25701543244E+02  0.78462274956E+01  0.59301926273E+02  0.49999967619E+02 0.  0.
         12    1    1    2    0    0  0.17163597720E+02  0.25701543244E+02 -0.78462274956E+01  0.31886073727E+02  0.00000000000E+00 0. -1.
         11    1    3    3    0    0 -0.21013729112E+02 -0.34512828774E+02 -0.44873488916E+01  0.40655239041E+02  0.51100000000E-03 0. -1.
        -11    1    3    3    0    0 -0.21891610588E+01  0.31486450652E+01  0.51868256060E-01  0.38352421651E+01  0.51100000000E-03 0.  1.
         12    1    3    3    0    0  0.60392924504E+01  0.56626404646E+01  0.12281708131E+02  0.14811445066E+02  0.00000000000E+00 0. -1.
</event>
<event>
 7    1  0.4673733E-013  0.5930194E+02  0.7816164E-02  0.1266605E+00
        -11   -1    0    0    0    0  0.00000000000E+00  0.00000000000E+00  0.45593999997E+02  0.45594000000E+02  0.51100000000E-03 0.  1.
         11   -1    0    0    0    0 -0.00000000000E+00 -0.00000000000E+00 -0.45593999997E+02  0.45594000000E+02  0.51100000000E-03 0. -1.
    9900012    2    1    2    0    0  0.11894783981E+02 -0.24939294998E+01  0.29479061016E+02  0.59301943350E+02  0.49999998764E+02 0.  0.
         12    1    1    2    0    0 -0.11894783981E+02  0.24939294998E+01 -0.29479061016E+02  0.31886056650E+02  0.00000000000E+00 0. -1.
         11    1    3    3    0    0  0.86291244085E+01 -0.11280500790E+01 -0.97239836538E+01  0.13049526558E+02  0.51100000000E-03 0. -1.
        -11    1    3    3    0    0 -0.44685174060E+01 -0.10318514127E+02  0.27038908325E+02  0.29283817122E+02  0.51100000000E-03 0.  1.
        -12    1    3    3    0    0  0.77341769787E+01  0.89526347059E+01  0.12164136345E+02  0.16968599669E+02  0.00000000000E+00 0.  1.
</event>
<event>
 7    1  0.4673733E-013  0.5930193E+02  0.7816164E-02  0.1266605E+00
        -11   -1    0    0    0    0  0.00000000000E+00  0.00000000000E+00  0.45593999997E+02  0.45594000000E+02  0.51100000000E-03 0.  1.
         11   -1    0    0    0    0 -0.00000000000E+00 -0.00000000000E+00 -0.45593999997E+02  0.45594000000E+02  0.51100000000E-03 0. -1.
    9900012    2    1    2    0    0 -0.14074095258E+02  0.23901607440E+02  0.15727511892E+02  0.59301927400E+02  0.49999969675E+02 0.  0.
         12    1    1    2    0    0  0.14074095258E+02 -0.23901607440E+02 -0.15727511892E+02  0.31886072600E+02  0.00000000000E+00 0. -1.
         11    1    3    3    0    0 -0.16027628122E+02 -0.79795237440E+01 -0.29516255641E+01  0.18145791692E+02  0.51100000000E-03 0. -1.
        -11    1    3    3    0    0  0.60782277030E+01  0.23400697312E+02  0.20322280036E+02  0.31583738741E+02  0.51100000000E-03 0.  1.
         12    1    3    3    0    0 -0.41246948393E+01  0.84804338715E+01 -0.16431425800E+01  0.95723969675E+01  0.00000000000E+00 0. -1.
</event>
<event>
 7    1  0.4673733E-013  0.5930192E+02  0.7816164E-02  0.1266605E+00
        -11   -1    0    0    0    0  0.00000000000E+00  0.00000000000E+00  0.45593999997E+02  0.45594000000E+02  0.51100000000E-03 0. -1.
         11   -1    0    0    0    0 -0.00000000000E+00 -0.00000000000E+00 -0.45593999997E+02  0.45594000000E+02  0.51100000000E-03 0.  1.
    9900012    2    1    2    0    0 -0.71978128364E+01 -0.20153274261E+02  0.23638081966E+02  0.59301923225E+02  0.49999962060E+02 0.  0.
         12    1    1    2    0    0  0.71978128364E+01  0.20153274261E+02 -0.23638081966E+02  0.31886076775E+02  0.00000000000E+00 0. -1.
         11    1    3    3    0    0  0.17985655708E+01  0.51500661482E+01  0.54987013933E+01  0.77455623887E+01  0.51100000000E-03 0.  1.
        -11    1    3    3    0    0 -0.68270609048E+00 -0.21929881489E+02  0.29698358990E+02  0.36923953156E+02  0.51100000000E-03 0. -1.
        -12    1    3    3    0    0 -0.83136723168E+01 -0.33734589203E+01 -0.11558978417E+02  0.14632407680E+02  0.00000000000E+00 0.  1.
</event>
<event>
 7    1  0.4673733E-013  0.5930197E+02  0.7816164E-02  0.1266605E+00
        -11   -1    0    0    0    0  0.00000000000E+00  0.00000000000E+00  0.45593999997E+02  0.45594000000E+02  0.51100000000E-03 0.  1.
         11   -1    0    0    0    0 -0.00000000000E+00 -0.00000000000E+00 -0.45593999997E+02  0.45594000000E+02  0.51100000000E-03 0. -1.
    9900012    2    1    2    0    0  0.37464144742E+01 -0.26262014316E+01  0.31556086588E+02  0.59301966128E+02  0.50000040305E+02 0.  0.
         12    1    1    2    0    0 -0.37464144742E+01  0.26262014316E+01 -0.31556086588E+02  0.31886033872E+02  0.00000000000E+00 0. -1.
         11    1    3    3    0    0  0.10408508990E+02  0.78804017074E+01  0.23773404156E+02  0.27122177934E+02  0.51100000000E-03 0.  1.
        -11    1    3    3    0    0  0.22837990916E+01 -0.69629310626E+01 -0.97401550238E+01  0.12188878842E+02  0.51100000000E-03 0. -1.
         12    1    3    3    0    0 -0.89458936076E+01 -0.35436720764E+01  0.17522837455E+02  0.19990909352E+02  0.00000000000E+00 0. -1.
</event>
<event>
 7    1  0.4673733E-013  0.5930195E+02  0.7816164E-02  0.1266605E+00
        -11   -1    0    0    0    0  0.00000000000E+00  0.00000000000E+00  0.45593999997E+02  0.45594000000E+02  0.51100000000E-03 0.  1.
         11   -1    0    0    0    0 -0.00000000000E+00 -0.00000000000E+00 -0.45593999997E+02  0.45594000000E+02  0.51100000000E-03 0. -1.
    9900012    2    1    2    0    0  0.49253158339E+01 -0.11218723181E+02  0.29438099213E+02  0.59301950211E+02  0.50000011276E+02 0.  0.
         12    1    1    2    0    0 -0.49253158339E+01  0.11218723181E+02 -0.29438099213E+02  0.31886049789E+02  0.00000000000E+00 0. -1.
         11    1    3    3    0    0 -0.10095578341E+02 -0.19917726666E+02  0.22309707768E+02  0.31565164320E+02  0.51100000000E-03 0.  1.
        -11    1    3    3    0    0 -0.24230722915E+00  0.90029206930E+01 -0.29114165485E+01  0.94650747688E+01  0.51100000000E-03 0. -1.
        -12    1    3    3    0    0  0.15263201404E+02 -0.30391720803E+00  0.10039807994E+02  0.18271711122E+02  0.00000000000E+00 0.  1.
</event>
<event>
 7    1  0.4673733E-013  0.5930193E+02  0.7816164E-02  0.1266605E+00
        -11   -1    0    0    0    0  0.00000000000E+00  0.00000000000E+00  0.45593999997E+02  0.45594000000E+02  0.51100000000E-03 0.  1.
         11   -1    0    0    0    0 -0.00000000000E+00 -0.00000000000E+00 -0.45593999997E+02  0.45594000000E+02  0.51100000000E-03 0. -1.
    9900012    2    1    2    0    0  0.29950311846E+02  0.39318583122E+01  0.10209827101E+02  0.59301933154E+02  0.49999980169E+02 0.  0.
         12    1    1    2    0    0 -0.29950311846E+02 -0.39318583122E+01 -0.10209827101E+02  0.31886066846E+02  0.00000000000E+00 0. -1.
         11    1    3    3    0    0  0.22908360313E+02  0.14288365068E+02  0.19848422260E+02  0.33509852506E+02  0.51100000000E-03 0. -1.
        -11    1    3    3    0    0  0.74833199533E+01 -0.11002765460E+02  0.25751286590E+01  0.13553310044E+02  0.51100000000E-03 0.  1.
         12    1    3    3    0    0 -0.44136841947E+00  0.64625870356E+00 -0.12213723817E+02  0.12238770603E+02  0.00000000000E+00 0. -1.
</event>
<event>
 7    1  0.4673733E-013  0.5930197E+02  0.7816164E-02  0.1266605E+00
        -11   -1    0    0    0    0  0.00000000000E+00  0.00000000000E+00  0.45593999997E+02  0.45594000000E+02  0.51100000000E-03 0. -1.
         11   -1    0    0    0    0 -0.00000000000E+00 -0.00000000000E+00 -0.45593999997E+02  0.45594000000E+02  0.51100000000E-03 0.  1.
    9900012    2    1    2    0    0  0.90084495031E+01  0.30218890573E+02 -0.47313429664E+01  0.59301966754E+02  0.50000041447E+02 0.  0.
         12    1    1    2    0    0 -0.90084495031E+01 -0.30218890573E+02  0.47313429664E+01  0.31886033246E+02  0.00000000000E+00 0. -1.
         11    1    3    3    0    0  0.23058291523E+02  0.13380127980E+02  0.10083003580E+02  0.28502273491E+02  0.51100000000E-03 0.  1.
        -11    1    3    3    0    0 -0.15704660589E+02  0.18202712872E+02 -0.11031457843E+02  0.26451241607E+02  0.51100000000E-03 0. -1.
        -12    1    3    3    0    0  0.16548185687E+01 -0.13639502798E+01 -0.37828887031E+01  0.43484516556E+01  0.00000000000E+00 0.  1.
</event>
<event>
 7    1  0.4673733E-013  0.5930194E+02  0.7816164E-02  0.1266605E+00
        -11   -1    0    0    0    0  0.00000000000E+00  0.00000000000E+00  0.45593999997E+02  0.45594000000E+02  0.51100000000E-03 0. -1.
         11   -1    0    0    0    0 -0.00000000000E+00 -0.00000000000E+00 -0.45593999997E+02  0.45594000000E+02  0.51100000000E-03 0.  1.
    9900012    2    1    2    0    0 -0.11973087316E+01 -0.31002219653E+02  0.73586477707E+01  0.59301939274E+02  0.49999991330E+02 0.  0.
         12    1    1    2    0    0  0.11973087316E+01  0.31002219653E+02 -0.73586477707E+01  0.31886060726E+02  0.00000000000E+00 0. -1.
         11    1    3    3    0    0 -0.58022610781E+00  0.34289960143E+01  0.16358455541E+02  0.16724046877E+02  0.51100000000E-03 0. -1.
        -11    1    3    3    0    0 -0.57790399361E+00 -0.30062412950E+02  0.26023684626E+01  0.30180373876E+02  0.51100000000E-03 0.  1.
        -12    1    3    3    0    0 -0.39178630153E-01 -0.43688027175E+01 -0.11602176232E+02  0.12397518521E+02  0.00000000000E+00 0.  1.
</event>
<event>
 7    1  0.4673733E-013  0.5930189E+02  0.7816164E-02  0.1266605E+00
        -11   -1    0    0    0    0  0.00000000000E+00  0.00000000000E+00  0.45593999997E+02  0.45594000000E+02  0.51100000000E-03 0.  1.
         11   -1    0    0    0    0 -0.00000000000E+00 -0.00000000000E+00 -0.45593999997E+02  0.45594000000E+02  0.51100000000E-03 0. -1.
    9900012    2    1    2    0    0 -0.15127600438E+01 -0.54234480886E+01  0.31385055805E+02  0.59301890799E+02  0.49999902923E+02 0.  0.
         12    1    1    2    0    0  0.15127600438E+01  0.54234480886E+01 -0.31385055805E+02  0.31886109201E+02  0.00000000000E+00 0. -1.
         11    1    3    3    0    0  0.67532989798E+00  0.50157242233E+01  0.40333403757E+00  0.50770304866E+01  0.51100000000E-03 0. -1.
        -11    1    3    3    0    0  0.15444355447E+02 -0.17270367267E+02  0.25678463422E+02  0.34585794550E+02  0.51100000000E-03 0.  1.
        -12    1    3    3    0    0 -0.17632445389E+02  0.68311949553E+01  0.53032583455E+01  0.19639065762E+02  0.00000000000E+00 0.  1.
</event>
<event>
 7    1  0.4673733E-013  0.5930193E+02  0.7816164E-02  0.1266605E+00
        -11   -1    0    0    0    0  0.00000000000E+00  0.00000000000E+00  0.45593999997E+02  0.45594000000E+02  0.51100000000E-03 0.  1.
         11   -1    0    0    0    0 -0.00000000000E+00 -0.00000000000E+00 -0.45593999997E+02  0.45594000000E+02  0.51100000000E-03 0. -1.
    9900012    2    1    2    0    0 -0.20307957193E+02 -0.28699942235E+01  0.24414579185E+02  0.59301926724E+02  0.49999968442E+02 0.  0.
         12    1    1    2    0    0  0.20307957193E+02  0.28699942235E+01 -0.24414579185E+02  0.31886073276E+02  0.00000000000E+00 0. -1.
         11    1    3    3    0    0 -0.44874415742E+01  0.10925123888E+02  0.59431957044E+01  0.13221839482E+02  0.51100000000E-03 0. -1.
        -11    1    3    3    0    0 -0.25714035868E+02 -0.16156088929E+02  0.19123511640E+02  0.35887874663E+02  0.51100000000E-03 0.  1.
        -12    1    3    3    0    0  0.98935202493E+01  0.23609708178E+01 -0.65212815916E+00  0.10192212579E+02  0.00000000000E+00 0.  1.
</event>
<event>
 7    1  0.4673733E-013  0.5930197E+02  0.7816164E-02  0.1266605E+00
        -11   -1    0    0    0    0  0.00000000000E+00  0.00000000000E+00  0.45593999997E+02  0.45594000000E+02  0.51100000000E-03 0.  1.
         11   -1    0    0    0    0 -0.00000000000E+00 -0.00000000000E+00 -0.45593999997E+02  0.45594000000E+02  0.51100000000E-03 0. -1.
    9900012    2    1    2    0    0 -0.89901061309E+01  0.16360307367E+02  0.25850289074E+02  0.59301966841E+02  0.50000041606E+02 0.  0.
         12    1    1    2    0    0  0.89901061309E+01 -0.16360307367E+02 -0.25850289074E+02  0.31886033159E+02  0.00000000000E+00 0. -1.
         11    1    3    3    0    0  0.13205183403E+02  0.41195276849E+01  0.18386737405E+01  0.13954501010E+02  0.51100000000E-03 0. -1.
        -11    1    3    3    0    0 -0.26062111712E+02  0.35519140648E+01  0.94376983138E+01  0.27944944267E+02  0.51100000000E-03 0.  1.
        -12    1    3    3    0    0  0.38668221777E+01  0.86888656176E+01  0.14573917020E+02  0.17402521564E+02  0.00000000000E+00 0.  1.
</event>
<event>
 7    1  0.4673733E-013  0.5930189E+02  0.7816164E-02  0.1266605E+00
        -11   -1    0    0    0    0  0.00000000000E+00  0.00000000000E+00  0.45593999997E+02  0.45594000000E+02  0.51100000000E-03 0. -1.
         11   -1    0    0    0    0 -0.00000000000E+00 -0.00000000000E+00 -0.45593999997E+02  0.45594000000E+02  0.51100000000E-03 0.  1.
    9900012    2    1    2    0    0  0.10653046596E+02  0.29424625348E+02 -0.61178613447E+01  0.59301886940E+02  0.49999895886E+02 0.  0.
         12    1    1    2    0    0 -0.10653046596E+02 -0.29424625348E+02  0.61178613447E+01  0.31886113060E+02  0.00000000000E+00 0. -1.
         11    1    3    3    0    0 -0.10348984620E+02 -0.43456167628E+01 -0.12727689613E+02  0.16969972035E+02  0.51100000000E-03 0. -1.
        -11    1    3    3    0    0  0.18238911583E+02  0.26180787059E+02  0.19480779232E-01  0.31907552187E+02  0.51100000000E-03 0.  1.
         12    1    3    3    0    0  0.27631196322E+01  0.75894550512E+01  0.65903474890E+01  0.10424362719E+02  0.00000000000E+00 0. -1.
</event>
<event>
 7    1  0.4673733E-013  0.5930189E+02  0.7816164E-02  0.1266605E+00
        -11   -1    0    0    0    0  0.00000000000E+00  0.00000000000E+00  0.45593999997E+02  0.45594000000E+02  0.51100000000E-03 0. -1.
         11   -1    0    0    0    0 -0.00000000000E+00 -0.00000000000E+00 -0.45593999997E+02  0.45594000000E+02  0.51100000000E-03 0.  1.
    9900012    2    1    2    0    0  0.88478547634E+01  0.13451426164E+02 -0.27522697446E+02  0.59301885868E+02  0.49999893930E+02 0.  0.
         12    1    1    2    0    0 -0.88478547634E+01 -0.13451426164E+02  0.27522697446E+02  0.31886114132E+02  0.00000000000E+00 0. -1.
         11    1    3    3    0    0 -0.22527688074E+00  0.19979602021E+02 -0.25201934052E+02  0.32161665486E+02  0.51100000000E-03 0. -1.
        -11    1    3    3    0    0  0.16748700520E+01 -0.13722778847E+02 -0.73535514844E+01  0.15658689877E+02  0.51100000000E-03 0.  1.
         12    1    3    3    0    0  0.73982615921E+01  0.71946029898E+01  0.50327880906E+01  0.11481530505E+02  0.00000000000E+00 0. -1.
</event>
<event>
 7    1  0.4673733E-013  0.5930193E+02  0.7816164E-02  0.1266605E+00
        -11   -1    0    0    0    0  0.00000000000E+00  0.00000000000E+00  0.45593999997E+02  0.45594000000E+02  0.51100000000E-03 0. -1.
         11   -1    0    0    0    0 -0.00000000000E+00 -0.00000000000E+00 -0.45593999997E+02  0.45594000000E+02  0.51100000000E-03 0.  1.
    9900012    2    1    2    0    0 -0.23391897267E+02 -0.15836323560E+02 -0.14790247291E+02  0.59301930682E+02  0.49999975660E+02 0.  0.
         12    1    1    2    0    0  0.23391897267E+02  0.15836323560E+02  0.14790247291E+02  0.31886069318E+02  0.00000000000E+00 0. -1.
         11    1    3    3    0    0 -0.14063751942E+02  0.93420023187E+01 -0.16358491754E+02  0.23508772379E+02  0.51100000000E-03 0.  1.
        -11    1    3    3    0    0 -0.88232296365E+00 -0.14841189401E+02  0.11794454164E+02  0.18977580087E+02  0.51100000000E-03 0. -1.
        -12    1    3    3    0    0 -0.84458223614E+01 -0.10337136477E+02 -0.10226209701E+02  0.16815578216E+02  0.00000000000E+00 0.  1.
</event>
<event>
 7    1  0.4673733E-013  0.5930194E+02  0.7816164E-02  0.1266605E+00
        -11   -1    0    0    0    0  0.00000000000E+00  0.00000000000E+00  0.45593999997E+02  0.45594000000E+02  0.51100000000E-03 0. -1.
         11   -1    0    0    0    0 -0.00000000000E+00 -0.00000000000E+00 -0.45593999997E+02  0.45594000000E+02  0.51100000000E-03 0.  1.
    9900012    2    1    2    0    0  0.11734723842E+01 -0.10636466563E+02 -0.30036799603E+02  0.59301940526E+02  0.49999993613E+02 0.  0.
         12    1    1    2    0    0 -0.11734723842E+01  0.10636466563E+02  0.30036799603E+02  0.31886059474E+02  0.00000000000E+00 0. -1.
         11    1    3    3    0    0 -0.14405894803E+02 -0.16464819946E+02 -0.14052965267E+02  0.26002037113E+02  0.51100000000E-03 0.  1.
        -11    1    3    3    0    0  0.20993193938E+02  0.73289157102E+01 -0.16455146975E+02  0.27662231643E+02  0.51100000000E-03 0. -1.
         12    1    3    3    0    0 -0.54138267511E+01 -0.15005623271E+01  0.47131263864E+00  0.56376717705E+01  0.00000000000E+00 0. -1.
</event>
<event>
 7    1  0.4673733E-013  0.5930195E+02  0.7816164E-02  0.1266605E+00
        -11   -1    0    0    0    0  0.00000000000E+00  0.00000000000E+00  0.45593999997E+02  0.45594000000E+02  0.51100000000E-03 0.  1.
         11   -1    0    0    0    0 -0.00000000000E+00 -0.00000000000E+00 -0.45593999997E+02  0.45594000000E+02  0.51100000000E-03 0. -1.
    9900012    2    1    2    0    0 -0.24494488333E+02  0.37024512652E+01 -0.20075654758E+02  0.59301952613E+02  0.50000015657E+02 0.  0.
         12    1    1    2    0    0  0.24494488333E+02 -0.37024512652E+01  0.20075654758E+02  0.31886047387E+02  0.00000000000E+00 0. -1.
         11    1    3    3    0    0 -0.19493139520E+01  0.42956000926E+01  0.12707544105E+02  0.13554839817E+02  0.51100000000E-03 0. -1.
        -11    1    3    3    0    0 -0.10456170697E+02 -0.86114180419E+01 -0.50638473609E+01  0.14461347679E+02  0.51100000000E-03 0.  1.
         12    1    3    3    0    0 -0.12089003684E+02  0.80182692145E+01 -0.27719351501E+02  0.31285765116E+02  0.00000000000E+00 0. -1.
</event>
<event>
 7    1  0.4673733E-013  0.5930197E+02  0.7816164E-02  0.1266605E+00
        -11   -1    0    0    0    0  0.00000000000E+00  0.00000000000E+00  0.45593999997E+02  0.45594000000E+02  0.51100000000E-03 0. -1.
         11   -1    0    0    0    0 -0.00000000000E+00 -0.00000000000E+00 -0.45593999997E+02  0.45594000000E+02  0.51100000000E-03 0.  1.
    9900012    2    1    2    0    0 -0.16645428037E+02  0.23085049164E+02 -0.14378070352E+02  0.59301973648E+02  0.50000054021E+02 0.  0.
         12    1    1    2    0    0  0.16645428037E+02 -0.23085049164E+02  0.14378070352E+02  0.31886026352E+02  0.00000000000E+00 0. -1.
         11    1    3    3    0    0 -0.18439878147E+02  0.13228382805E+02 -0.82597526467E+01  0.24150418874E+02  0.51100000000E-03 0. -1.
        -11    1    3    3    0    0  0.84670888312E+01  0.14689028053E+02  0.80448805314E+01  0.18766439232E+02  0.51100000000E-03 0.  1.
         12    1    3    3    0    0 -0.66726387210E+01 -0.48323616944E+01 -0.14163198237E+02  0.16385115543E+02  0.00000000000E+00 0. -1.
</event>
<event>
 7    1  0.4673733E-013  0.5930203E+02  0.7816164E-02  0.1266604E+00
        -11   -1    0    0    0    0  0.00000000000E+00  0.00000000000E+00  0.45593999997E+02  0.45594000000E+02  0.51100000000E-03 0.  1.
         11   -1    0    0    0    0 -0.00000000000E+00 -0.00000000000E+00 -0.45593999997E+02  0.45594000000E+02  0.51100000000E-03 0. -1.
    9900012    2    1    2    0    0 -0.18864405201E+02  0.25703307551E+02 -0.43480287388E+00  0.59302033554E+02  0.50000163274E+02 0.  0.
         12    1    1    2    0    0  0.18864405201E+02 -0.25703307551E+02  0.43480287388E+00  0.31885966446E+02  0.00000000000E+00 0. -1.
         11    1    3    3    0    0 -0.15593069604E+02  0.22466280928E+02 -0.77020780384E+01  0.28411258416E+02  0.51100000000E-03 0. -1.
        -11    1    3    3    0    0  0.82230877828E+01 -0.45511443675E+01  0.12854873721E+02  0.15924191231E+02  0.51100000000E-03 0.  1.
        -12    1    3    3    0    0 -0.11494423380E+02  0.77881709909E+01 -0.55875985561E+01  0.14966583907E+02  0.00000000000E+00 0.  1.
</event>
<event>
 7    1  0.4673733E-013  0.5930194E+02  0.7816164E-02  0.1266605E+00
        -11   -1    0    0    0    0  0.00000000000E+00  0.00000000000E+00  0.45593999997E+02  0.45594000000E+02  0.51100000000E-03 0.  1.
         11   -1    0    0    0    0 -0.00000000000E+00 -0.00000000000E+00 -0.45593999997E+02  0.45594000000E+02  0.51100000000E-03 0. -1.
    9900012    2    1    2    0    0 -0.82255853587E+01 -0.86448113165E+01  0.29569030073E+02  0.59301944166E+02  0.50000000252E+02 0.  0.
         12    1    1    2    0    0  0.82255853587E+01  0.86448113165E+01 -0.29569030073E+02  0.31886055834E+02  0.00000000000E+00 0. -1.
         11    1    3    3    0    0 -0.82216424278E+01 -0.22921142858E+02  0.11450701548E+02  0.26908971744E+02  0.51100000000E-03 0. -1.
        -11    1    3    3    0    0 -0.11145530564E+02  0.54236611727E+01  0.63509453541E+01  0.13927435486E+02  0.51100000000E-03 0.  1.
         12    1    3    3    0    0  0.11141587633E+02  0.88526703691E+01  0.11767383171E+02  0.18465536936E+02  0.00000000000E+00 0. -1.
</event>
<event>
 7    1  0.4673733E-013  0.5930195E+02  0.7816164E-02  0.1266605E+00
        -11   -1    0    0    0    0  0.00000000000E+00  0.00000000000E+00  0.45593999997E+02  0.45594000000E+02  0.51100000000E-03 0. -1.
         11   -1    0    0    0    0 -0.00000000000E+00 -0.00000000000E+00 -0.45593999997E+02  0.45594000000E+02  0.51100000000E-03 0.  1.
    9900012    2    1    2    0    0 -0.29030172142E+02 -0.13070194752E+01 -0.13124828798E+02  0.59301947791E+02  0.50000006862E+02 0.  0.
         12    1    1    2    0    0  0.29030172142E+02  0.13070194752E+01  0.13124828798E+02  0.31886052209E+02  0.00000000000E+00 0. -1.
         11    1    3    3    0    0 -0.22785939950E+02  0.37142744268E+00 -0.31963501809E+01  0.23012033211E+02  0.51100000000E-03 0. -1.
        -11    1    3    3    0    0 -0.24917891514E+01 -0.21288842104E+01 -0.22718245975E+02  0.22953428101E+02  0.51100000000E-03 0.  1.
         12    1    3    3    0    0 -0.37524430410E+01  0.45043729248E+00  0.12789767358E+02  0.13336486479E+02  0.00000000000E+00 0. -1.
</event>
<event>
 7    1  0.4673733E-013  0.5930194E+02  0.7816164E-02  0.1266605E+00
        -11   -1    0    0    0    0  0.00000000000E+00  0.00000000000E+00  0.45593999997E+02  0.45594000000E+02  0.51100000000E-03 0. -1.
         11   -1    0    0    0    0 -0.00000000000E+00 -0.00000000000E+00 -0.45593999997E+02  0.45594000000E+02  0.51100000000E-03 0.  1.
    9900012    2    1    2    0    0  0.22784292693E+02 -0.70988904884E+01  0.21147163549E+02  0.59301940886E+02  0.49999994270E+02 0.  0.
         12    1    1    2    0    0 -0.22784292693E+02  0.70988904884E+01 -0.21147163549E+02  0.31886059114E+02  0.00000000000E+00 0. -1.
         11    1    3    3    0    0  0.13965161437E-01  0.13284928019E+02 -0.13166403625E+01  0.13350020584E+02  0.51100000000E-03 0. -1.
        -11    1    3    3    0    0  0.19465708529E+02 -0.25351220148E+02  0.23784926553E+02  0.39841196053E+02  0.51100000000E-03 0.  1.
        -12    1    3    3    0    0  0.33046190025E+01  0.49674016409E+01 -0.13211226422E+01  0.61107242492E+01  0.00000000000E+00 0.  1.
</event>
<event>
 7    1  0.4673733E-013  0.5930195E+02  0.7816164E-02  0.1266605E+00
        -11   -1    0    0    0    0  0.00000000000E+00  0.00000000000E+00  0.45593999997E+02  0.45594000000E+02  0.51100000000E-03 0.  1.
         11   -1    0    0    0    0 -0.00000000000E+00 -0.00000000000E+00 -0.45593999997E+02  0.45594000000E+02  0.51100000000E-03 0. -1.
    9900012    2    1    2    0    0  0.43787481980E+01  0.94747290315E+01  0.30129326272E+02  0.59301949326E+02  0.50000009663E+02 0.  0.
         12    1    1    2    0    0 -0.43787481980E+01 -0.94747290315E+01 -0.30129326272E+02  0.31886050674E+02  0.00000000000E+00 0. -1.
         11    1    3    3    0    0 -0.59818274576E+01  0.39830396710E+01 -0.11558954303E+02  0.13610888641E+02  0.51100000000E-03 0. -1.
        -11    1    3    3    0    0  0.10170894443E+02  0.97721636895E+01  0.28066618156E+02  0.31411420406E+02  0.51100000000E-03 0.  1.
         12    1    3    3    0    0  0.18968121276E+00 -0.42804743290E+01  0.13621662419E+02  0.14279640279E+02  0.00000000000E+00 0. -1.
</event>
<event>
 7    1  0.4673733E-013  0.5930187E+02  0.7816164E-02  0.1266605E+00
        -11   -1    0    0    0    0  0.00000000000E+00  0.00000000000E+00  0.45593999997E+02  0.45594000000E+02  0.51100000000E-03 0.  1.
         11   -1    0    0    0    0 -0.00000000000E+00 -0.00000000000E+00 -0.45593999997E+02  0.45594000000E+02  0.51100000000E-03 0. -1.
    9900012    2    1    2    0    0  0.28068577274E+02 -0.15032364207E+02  0.17054557482E+01  0.59301865346E+02  0.49999856503E+02 0.  0.
         12    1    1    2    0    0 -0.28068577274E+02  0.15032364207E+02 -0.17054557482E+01  0.31886134654E+02  0.00000000000E+00 0. -1.
         11    1    3    3    0    0  0.14717686304E+02 -0.26372815583E+02  0.10293079872E+02  0.31907415838E+02  0.51100000000E-03 0. -1.
        -11    1    3    3    0    0  0.17221469313E+02  0.94400017106E+01 -0.23041765030E+01  0.19773767148E+02  0.51100000000E-03 0.  1.
         12    1    3    3    0    0 -0.38705783432E+01  0.19004496653E+01 -0.62834476203E+01  0.76206823604E+01  0.00000000000E+00 0. -1.
</event>
<event>
 7    1  0.4673733E-013  0.5930180E+02  0.7816164E-02  0.1266605E+00
        -11   -1    0    0    0    0  0.00000000000E+00  0.00000000000E+00  0.45593999997E+02  0.45594000000E+02  0.51100000000E-03 0. -1.
         11   -1    0    0    0    0 -0.00000000000E+00 -0.00000000000E+00 -0.45593999997E+02  0.45594000000E+02  0.51100000000E-03 0.  1.
    9900012    2    1    2    0    0 -0.22950861412E+01 -0.20921402927E+02 -0.23953231626E+02  0.59301798813E+02  0.49999735162E+02 0.  0.
         12    1    1    2    0    0  0.22950861412E+01  0.20921402927E+02  0.23953231626E+02  0.31886201187E+02  0.00000000000E+00 0. -1.
         11    1    3    3    0    0 -0.39531034887E+01  0.45391412609E+01  0.25780503427E+01  0.65480664635E+01  0.51100000000E-03 0. -1.
        -11    1    3    3    0    0  0.45531186522E+01 -0.33711934230E+02 -0.12542324052E+02  0.36256520681E+02  0.51100000000E-03 0.  1.
        -12    1    3    3    0    0 -0.28951013046E+01  0.82513900429E+01 -0.13988957918E+02  0.16497211668E+02  0.00000000000E+00 0.  1.
</event>
<event>
 7    1  0.4673733E-013  0.5930210E+02  0.7816164E-02  0.1266604E+00
        -11   -1    0    0    0    0  0.00000000000E+00  0.00000000000E+00  0.45593999997E+02  0.45594000000E+02  0.51100000000E-03 0. -1.
         11   -1    0    0    0    0 -0.00000000000E+00 -0.00000000000E+00 -0.45593999997E+02  0.45594000000E+02  0.51100000000E-03 0.  1.
    9900012    2    1    2    0    0  0.30138748958E+02  0.76316143988E+01  0.70798875305E+01  0.59302101322E+02  0.50000286866E+02 0.  0.
         12    1    1    2    0    0 -0.30138748958E+02 -0.76316143988E+01 -0.70798875305E+01  0.31885898678E+02  0.00000000000E+00 0. -1.
         11    1    3    3    0    0 -0.10172916184E+02 -0.15897725294E+00  0.78286635254E+01  0.12837502495E+02  0.51100000000E-03 0. -1.
        -11    1    3    3    0    0  0.23696490668E+02  0.26850913497E+01 -0.11023916333E+02  0.26272801851E+02  0.51100000000E-03 0.  1.
         12    1    3    3    0    0  0.16615174474E+02  0.51055003021E+01  0.10275140338E+02  0.20191796976E+02  0.00000000000E+00 0. -1.
</event>
<event>
 7    1  0.4673733E-013  0.5930191E+02  0.7816164E-02  0.1266605E+00
        -11   -1    0    0    0    0  0.00000000000E+00  0.00000000000E+00  0.45593999997E+02  0.45594000000E+02  0.51100000000E-03 0.  1.
         11   -1    0    0    0    0 -0.00000000000E+00 -0.00000000000E+00 -0.45593999997E+02  0.45594000000E+02  0.51100000000E-03 0. -1.
    9900012    2    1    2    0    0  0.26117822047E+01 -0.31755291496E+02 -0.12258778197E+01  0.59301910232E+02  0.49999938365E+02 0.  0.
         12    1    1    2    0    0 -0.26117822047E+01  0.31755291496E+02  0.12258778197E+01  0.31886089768E+02  0.00000000000E+00 0. -1.
         11    1    3    3    0    0  0.41447647193E+01  0.63091153678E+01  0.96720864810E+01  0.12269199993E+02  0.51100000000E-03 0. -1.
        -11    1    3    3    0    0 -0.10007222136E+02 -0.31865197637E+02 -0.23299195586E+01  0.33480798090E+02  0.51100000000E-03 0.  1.
        -12    1    3    3    0    0  0.84742396215E+01 -0.61992092261E+01 -0.85680447420E+01  0.13551912149E+02  0.00000000000E+00 0.  1.
</event>
<event>
 7    1  0.4673733E-013  0.5930196E+02  0.7816164E-02  0.1266605E+00
        -11   -1    0    0    0    0  0.00000000000E+00  0.00000000000E+00  0.45593999997E+02  0.45594000000E+02  0.51100000000E-03 0. -1.
         11   -1    0    0    0    0 -0.00000000000E+00 -0.00000000000E+00 -0.45593999997E+02  0.45594000000E+02  0.51100000000E-03 0.  1.
    9900012    2    1    2    0    0 -0.41430947987E+01 -0.21494789306E+02 -0.23184658750E+02  0.59301959118E+02  0.50000027520E+02 0.  0.
         12    1    1    2    0    0  0.41430947987E+01  0.21494789306E+02  0.23184658750E+02  0.31886040882E+02  0.00000000000E+00 0. -1.
         11    1    3    3    0    0  0.50981844934E+01 -0.24840821796E+02 -0.15352815401E+02  0.29644001984E+02  0.51100000000E-03 0. -1.
        -11    1    3    3    0    0  0.55481068993E+01  0.94732301877E+01  0.15743718470E+01  0.11090636922E+02  0.51100000000E-03 0.  1.
        -12    1    3    3    0    0 -0.14789386191E+02 -0.61271976972E+01 -0.94062151952E+01  0.18567320212E+02  0.00000000000E+00 0.  1.
</event>
<event>
 7    1  0.4673733E-013  0.5930194E+02  0.7816164E-02  0.1266605E+00
        -11   -1    0    0    0    0  0.00000000000E+00  0.00000000000E+00  0.45593999997E+02  0.45594000000E+02  0.51100000000E-03 0. -1.
         11   -1    0    0    0    0 -0.00000000000E+00 -0.00000000000E+00 -0.45593999997E+02  0.45594000000E+02  0.51100000000E-03 0.  1.
    9900012    2    1    2    0    0  0.18777573887E+02 -0.30754831826E+01 -0.25586416413E+02  0.59301943757E+02  0.49999999507E+02 0.  0.
         12    1    1    2    0    0 -0.18777573887E+02  0.30754831826E+01  0.25586416413E+02  0.31886056243E+02  0.00000000000E+00 0. -1.
         11    1    3    3    0    0  0.70216621049E+01  0.30146896421E+00  0.13984353458E+01  0.71659084511E+01  0.51100000000E-03 0. -1.
        -11    1    3    3    0    0  0.44889303665E+01 -0.22349092569E+02 -0.75298391901E+01  0.24006893031E+02  0.51100000000E-03 0.  1.
        -12    1    3    3    0    0  0.72669814151E+01  0.18972140423E+02 -0.19455012568E+02  0.28129142275E+02  0.00000000000E+00 0.  1.
</event>
<event>
 7    1  0.4673733E-013  0.5930172E+02  0.7816164E-02  0.1266606E+00
        -11   -1    0    0    0    0  0.00000000000E+00  0.00000000000E+00  0.45593999997E+02  0.45594000000E+02  0.51100000000E-03 0.  1.
         11   -1    0    0    0    0 -0.00000000000E+00 -0.00000000000E+00 -0.45593999997E+02  0.45594000000E+02  0.51100000000E-03 0. -1.
    9900012    2    1    2    0    0  0.23786358383E+02  0.18606772590E+02 -0.10233865383E+02  0.59301720317E+02  0.49999592004E+02 0.  0.
         12    1    1    2    0    0 -0.23786358383E+02 -0.18606772590E+02  0.10233865383E+02  0.31886279683E+02  0.00000000000E+00 0. -1.
         11    1    3    3    0    0 -0.16090182432E+01  0.25634310735E+02 -0.14843827512E+01  0.25727615882E+02  0.51100000000E-03 0. -1.
        -11    1    3    3    0    0  0.15451169199E+02 -0.13518888534E+02 -0.59056414702E+01  0.21362948726E+02  0.51100000000E-03 0.  1.
        -12    1    3    3    0    0  0.99442074265E+01  0.64913503881E+01 -0.28438411618E+01  0.12211155709E+02  0.00000000000E+00 0.  1.
</event>
<event>
 7    1  0.4673733E-013  0.5930192E+02  0.7816164E-02  0.1266605E+00
        -11   -1    0    0    0    0  0.00000000000E+00  0.00000000000E+00  0.45593999997E+02  0.45594000000E+02  0.51100000000E-03 0. -1.
         11   -1    0    0    0    0 -0.00000000000E+00 -0.00000000000E+00 -0.45593999997E+02  0.45594000000E+02  0.51100000000E-03 0.  1.
    9900012    2    1    2    0    0  0.61288886962E+01  0.63432343278E+01 -0.30641840577E+02  0.59301916949E+02  0.49999950614E+02 0.  0.
         12    1    1    2    0    0 -0.61288886962E+01 -0.63432343278E+01  0.30641840577E+02  0.31886083051E+02  0.00000000000E+00 0. -1.
         11    1    3    3    0    0  0.12607224486E+02  0.24251491501E+02 -0.27428795886E+02  0.38722290651E+02  0.51100000000E-03 0.  1.
        -11    1    3    3    0    0 -0.15683174393E+01 -0.13167090839E+02 -0.36095338634E+01  0.13742657521E+02  0.51100000000E-03 0. -1.
        -12    1    3    3    0    0 -0.49100183499E+01 -0.47411663339E+01  0.39648917183E+00  0.68369687776E+01  0.00000000000E+00 0.  1.
</event>
<event>
 7    1  0.4673733E-013  0.5930193E+02  0.7816164E-02  0.1266605E+00
        -11   -1    0    0    0    0  0.00000000000E+00  0.00000000000E+00  0.45593999997E+02  0.45594000000E+02  0.51100000000E-03 0. -1.
         11   -1    0    0    0    0 -0.00000000000E+00 -0.00000000000E+00 -0.45593999997E+02  0.45594000000E+02  0.51100000000E-03 0.  1.
    9900012    2    1    2    0    0 -0.93147429911E+01 -0.26740082828E+02 -0.14660322067E+02  0.59301929221E+02  0.49999972995E+02 0.  0.
         12    1    1    2    0    0  0.93147429911E+01  0.26740082828E+02  0.14660322067E+02  0.31886070779E+02  0.00000000000E+00 0. -1.
         11    1    3    3    0    0 -0.16507718344E+02 -0.25928703350E+02  0.68608085864E+01  0.31494017163E+02  0.51100000000E-03 0. -1.
        -11    1    3    3    0    0 -0.59828255687E+00  0.47435500872E+01 -0.16132741678E+02  0.16826305707E+02  0.51100000000E-03 0.  1.
         12    1    3    3    0    0  0.77912579095E+01 -0.55549295649E+01 -0.53883889757E+01  0.10981606351E+02  0.00000000000E+00 0. -1.
</event>
<event>
 7    1  0.4673733E-013  0.5930195E+02  0.7816164E-02  0.1266605E+00
        -11   -1    0    0    0    0  0.00000000000E+00  0.00000000000E+00  0.45593999997E+02  0.45594000000E+02  0.51100000000E-03 0.  1.
         11   -1    0    0    0    0 -0.00000000000E+00 -0.00000000000E+00 -0.45593999997E+02  0.45594000000E+02  0.51100000000E-03 0. -1.
    9900012    2    1    2    0    0  0.31265411603E+02  0.34302578257E+01  0.52371212216E+01  0.59301951795E+02  0.50000014165E+02 0.  0.
         12    1    1    2    0    0 -0.31265411603E+02 -0.34302578257E+01 -0.52371212216E+01  0.31886048205E+02  0.00000000000E+00 0. -1.
         11    1    3    3    0    0  0.13285439080E+02 -0.15313335010E+01 -0.22105657299E+02  0.25836175389E+02  0.51100000000E-03 0. -1.
        -11    1    3    3    0    0  0.10120786846E+02  0.50880087685E+01  0.17852844574E+02  0.21143372939E+02  0.51100000000E-03 0.  1.
         12    1    3    3    0    0  0.78591856767E+01 -0.12641744177E+00  0.94899339469E+01  0.12322403466E+02  0.00000000000E+00 0. -1.
</event>
<event>
 7    1  0.4673733E-013  0.5930193E+02  0.7816164E-02  0.1266605E+00
        -11   -1    0    0    0    0  0.00000000000E+00  0.00000000000E+00  0.45593999997E+02  0.45594000000E+02  0.51100000000E-03 0. -1.
         11   -1    0    0    0    0 -0.00000000000E+00 -0.00000000000E+00 -0.45593999997E+02  0.45594000000E+02  0.51100000000E-03 0.  1.
    9900012    2    1    2    0    0  0.25552399686E+02  0.74426810795E+01 -0.17561405278E+02  0.59301928014E+02  0.49999970795E+02 0.  0.
         12    1    1    2    0    0 -0.25552399686E+02 -0.74426810795E+01  0.17561405278E+02  0.31886071986E+02  0.00000000000E+00 0. -1.
         11    1    3    3    0    0  0.14218044833E+02 -0.61786260927E+01 -0.28811570690E+02  0.32717500288E+02  0.51100000000E-03 0.  1.
        -11    1    3    3    0    0  0.23536219784E+01  0.14534889768E+02  0.90845842267E+01  0.17301220414E+02  0.51100000000E-03 0. -1.
        -12    1    3    3    0    0  0.89807328745E+01 -0.91358259554E+00  0.21655811846E+01  0.92832073116E+01  0.00000000000E+00 0.  1.
</event>
<event>
 7    1  0.4673733E-013  0.5930193E+02  0.7816164E-02  0.1266605E+00
        -11   -1    0    0    0    0  0.00000000000E+00  0.00000000000E+00  0.45593999997E+02  0.45594000000E+02  0.51100000000E-03 0.  1.
         11   -1    0    0    0    0 -0.00000000000E+00 -0.00000000000E+00 -0.45593999997E+02  0.45594000000E+02  0.51100000000E-03 0. -1.
    9900012    2    1    2    0    0 -0.10311969575E+02 -0.10371532533E+02  0.28334009840E+02  0.59301929103E+02  0.49999972782E+02 0.  0.
         12    1    1    2    0    0  0.10311969575E+02  0.10371532533E+02 -0.28334009840E+02  0.31886070897E+02  0.00000000000E+00 0. -1.
         11    1    3    3    0    0 -0.89971224918E+01 -0.20351136645E+02 -0.27178548983E+01  0.22416594554E+02  0.51100000000E-03 0. -1.
        -11    1    3    3    0    0  0.71432714643E+01  0.85869595771E+01  0.19890152657E+02  0.22811847251E+02  0.51100000000E-03 0.  1.
        -12    1    3    3    0    0 -0.84581185475E+01  0.13926445355E+01  0.11161712081E+02  0.14073487299E+02  0.00000000000E+00 0.  1.
</event>
<event>
 7    1  0.4673733E-013  0.5930194E+02  0.7816164E-02  0.1266605E+00
        -11   -1    0    0    0    0  0.00000000000E+00  0.00000000000E+00  0.45593999997E+02  0.45594000000E+02  0.51100000000E-03 0.  1.
         11   -1    0    0    0    0 -0.00000000000E+00 -0.00000000000E+00 -0.45593999997E+02  0.45594000000E+02  0.51100000000E-03 0. -1.
    9900012    2    1    2    0    0  0.21094904393E+02 -0.96803453110E+01  0.21863598856E+02  0.59301936718E+02  0.49999986668E+02 0.  0.
         12    1    1    2    0    0 -0.21094904393E+02  0.96803453110E+01 -0.21863598856E+02  0.31886063282E+02  0.00000000000E+00 0. -1.
         11    1    3    3    0    0 -0.69119276674E+01  0.20762285369E+01  0.10674831272E+02  0.12885553615E+02  0.51100000000E-03 0.  1.
        -11    1    3    3    0    0  0.21393891845E+02 -0.21598955316E+02  0.15081412873E+02  0.33936153193E+02  0.51100000000E-03 0. -1.
        -12    1    3    3    0    0  0.66129402155E+01  0.98423814683E+01 -0.38926452883E+01  0.12480229910E+02  0.00000000000E+00 0.  1.
</event>
<event>
 7    1  0.4673733E-013  0.5930190E+02  0.7816164E-02  0.1266605E+00
        -11   -1    0    0    0    0  0.00000000000E+00  0.00000000000E+00  0.45593999997E+02  0.45594000000E+02  0.51100000000E-03 0. -1.
         11   -1    0    0    0    0 -0.00000000000E+00 -0.00000000000E+00 -0.45593999997E+02  0.45594000000E+02  0.51100000000E-03 0.  1.
    9900012    2    1    2    0    0 -0.22287280707E+01 -0.15110805433E+02 -0.27989630716E+02  0.59301904327E+02  0.49999927595E+02 0.  0.
         12    1    1    2    0    0  0.22287280707E+01  0.15110805433E+02  0.27989630716E+02  0.31886095673E+02  0.00000000000E+00 0. -1.
         11    1    3    3    0    0 -0.76577208162E+01  0.10219988017E+02  0.79115233371E+01  0.15022684345E+02  0.51100000000E-03 0. -1.
        -11    1    3    3    0    0  0.24423493987E+01 -0.11807331354E+02 -0.17371984337E+02  0.21146252253E+02  0.51100000000E-03 0.  1.
         12    1    3    3    0    0  0.29866433468E+01 -0.13523462095E+02 -0.18529169716E+02  0.23132967728E+02  0.00000000000E+00 0. -1.
</event>
<event>
 7    1  0.4673733E-013  0.5930191E+02  0.7816164E-02  0.1266605E+00
        -11   -1    0    0    0    0  0.00000000000E+00  0.00000000000E+00  0.45593999997E+02  0.45594000000E+02  0.51100000000E-03 0. -1.
         11   -1    0    0    0    0 -0.00000000000E+00 -0.00000000000E+00 -0.45593999997E+02  0.45594000000E+02  0.51100000000E-03 0.  1.
    9900012    2    1    2    0    0 -0.25070133761E+02 -0.17005660489E+02 -0.99508113196E+01  0.59301909908E+02  0.49999937773E+02 0.  0.
         12    1    1    2    0    0  0.25070133761E+02  0.17005660489E+02  0.99508113196E+01  0.31886090092E+02  0.00000000000E+00 0. -1.
         11    1    3    3    0    0 -0.10773786109E+02 -0.18515189633E+02  0.17580235300E+02  0.27711935836E+02  0.51100000000E-03 0. -1.
        -11    1    3    3    0    0 -0.72261046642E+01 -0.72609498213E+00 -0.85870268544E+01  0.11246369770E+02  0.51100000000E-03 0.  1.
         12    1    3    3    0    0 -0.70702429872E+01  0.22356241261E+01 -0.18944019765E+02  0.20343604302E+02  0.00000000000E+00 0. -1.
</event>
<event>
 7    1  0.4673733E-013  0.5930191E+02  0.7816164E-02  0.1266605E+00
        -11   -1    0    0    0    0  0.00000000000E+00  0.00000000000E+00  0.45593999997E+02  0.45594000000E+02  0.51100000000E-03 0.  1.
         11   -1    0    0    0    0 -0.00000000000E+00 -0.00000000000E+00 -0.45593999997E+02  0.45594000000E+02  0.51100000000E-03 0. -1.
    9900012    2    1    2    0    0  0.31250946530E+01 -0.32064744634E+01  0.31570156362E+02  0.59301914198E+02  0.49999945597E+02 0.  0.
         12    1    1    2    0    0 -0.31250946530E+01  0.32064744634E+01 -0.31570156362E+02  0.31886085802E+02  0.00000000000E+00 0. -1.
         11    1    3    3    0    0 -0.53020032953E+01  0.92088770339E+00 -0.10869423451E+02  0.12128628922E+02  0.51100000000E-03 0. -1.
        -11    1    3    3    0    0  0.62618471605E+01 -0.11094683037E+02  0.31945749520E+02  0.34392348484E+02  0.51100000000E-03 0.  1.
        -12    1    3    3    0    0  0.21652507879E+01  0.69673208704E+01  0.10493830292E+02  0.12780936792E+02  0.00000000000E+00 0.  1.
</event>
<event>
 7    1  0.4673733E-013  0.5930195E+02  0.7816164E-02  0.1266605E+00
        -11   -1    0    0    0    0  0.00000000000E+00  0.00000000000E+00  0.45593999997E+02  0.45594000000E+02  0.51100000000E-03 0.  1.
         11   -1    0    0    0    0 -0.00000000000E+00 -0.00000000000E+00 -0.45593999997E+02  0.45594000000E+02  0.51100000000E-03 0. -1.
    9900012    2    1    2    0    0 -0.11936240480E+02 -0.88270682591E+01  0.28219302584E+02  0.59301952751E+02  0.50000015909E+02 0.  0.
         12    1    1    2    0    0  0.11936240480E+02  0.88270682591E+01 -0.28219302584E+02  0.31886047249E+02  0.00000000000E+00 0. -1.
         11    1    3    3    0    0  0.45664344895E+00  0.15670289798E+01 -0.13012998459E+01  0.20874588890E+01  0.51100000000E-03 0. -1.
        -11    1    3    3    0    0 -0.22369279913E+02 -0.15111817664E+02  0.35550882048E+02  0.44638738015E+02  0.51100000000E-03 0.  1.
        -12    1    3    3    0    0  0.99763959841E+01  0.47177204251E+01 -0.60302796185E+01  0.12575755847E+02  0.00000000000E+00 0.  1.
</event>
<event>
 7    1  0.4673733E-013  0.5930193E+02  0.7816164E-02  0.1266605E+00
        -11   -1    0    0    0    0  0.00000000000E+00  0.00000000000E+00  0.45593999997E+02  0.45594000000E+02  0.51100000000E-03 0.  1.
         11   -1    0    0    0    0 -0.00000000000E+00 -0.00000000000E+00 -0.45593999997E+02  0.45594000000E+02  0.51100000000E-03 0. -1.
    9900012    2    1    2    0    0 -0.12859056186E+02  0.48202481285E+01  0.28777272070E+02  0.59301929282E+02  0.49999973107E+02 0.  0.
         12    1    1    2    0    0  0.12859056186E+02 -0.48202481285E+01 -0.28777272070E+02  0.31886070718E+02  0.00000000000E+00 0. -1.
         11    1    3    3    0    0  0.13888069180E+02  0.10648843781E+02  0.10675079921E+02  0.20499601728E+02  0.51100000000E-03 0. -1.
        -11    1    3    3    0    0 -0.10288249621E+02 -0.54336057775E+01  0.19038342677E+02  0.22312118773E+02  0.51100000000E-03 0.  1.
         12    1    3    3    0    0 -0.16458875746E+02 -0.39498987506E+00 -0.93615052781E+00  0.16490208780E+02  0.00000000000E+00 0. -1.
</event>
<event>
 7    1  0.4673733E-013  0.5930189E+02  0.7816164E-02  0.1266605E+00
        -11   -1    0    0    0    0  0.00000000000E+00  0.00000000000E+00  0.45593999997E+02  0.45594000000E+02  0.51100000000E-03 0.  1.
         11   -1    0    0    0    0 -0.00000000000E+00 -0.00000000000E+00 -0.45593999997E+02  0.45594000000E+02  0.51100000000E-03 0. -1.
    9900012    2    1    2    0    0  0.26089429038E+02 -0.10134121619E+02  0.15276301772E+02  0.59301888221E+02  0.49999898222E+02 0.  0.
         12    1    1    2    0    0 -0.26089429038E+02  0.10134121619E+02 -0.15276301772E+02  0.31886111779E+02  0.00000000000E+00 0. -1.
         11    1    3    3    0    0 -0.62182416968E+00 -0.48425844632E+01  0.49471861526E+01  0.69506791518E+01  0.51100000000E-03 0. -1.
        -11    1    3    3    0    0  0.38439678330E+02 -0.79355240503E+01  0.88722813930E+01  0.40240511794E+02  0.51100000000E-03 0.  1.
        -12    1    3    3    0    0 -0.11728425122E+02  0.26439868942E+01  0.14568342264E+01  0.12110697276E+02  0.00000000000E+00 0.  1.
</event>
<event>
 7    1  0.4673733E-013  0.5930195E+02  0.7816164E-02  0.1266605E+00
        -11   -1    0    0    0    0  0.00000000000E+00  0.00000000000E+00  0.45593999997E+02  0.45594000000E+02  0.51100000000E-03 0.  1.
         11   -1    0    0    0    0 -0.00000000000E+00 -0.00000000000E+00 -0.45593999997E+02  0.45594000000E+02  0.51100000000E-03 0. -1.
    9900012    2    1    2    0    0 -0.68004888573E+01 -0.24177396184E+01  0.31058463881E+02  0.59301948312E+02  0.50000007814E+02 0.  0.
         12    1    1    2    0    0  0.68004888573E+01  0.24177396184E+01 -0.31058463881E+02  0.31886051688E+02  0.00000000000E+00 0. -1.
         11    1    3    3    0    0 -0.59056459576E+01 -0.15620471771E+02  0.69235429422E+01  0.18077921331E+02  0.51100000000E-03 0. -1.
        -11    1    3    3    0    0 -0.76350729585E+00  0.20219038522E+02  0.26918237909E+02  0.33674678833E+02  0.51100000000E-03 0.  1.
        -12    1    3    3    0    0 -0.13133560389E+00 -0.70163063691E+01 -0.27833169701E+01  0.75493481481E+01  0.00000000000E+00 0.  1.
</event>
<event>
 7    1  0.4673733E-013  0.5930191E+02  0.7816164E-02  0.1266605E+00
        -11   -1    0    0    0    0  0.00000000000E+00  0.00000000000E+00  0.45593999997E+02  0.45594000000E+02  0.51100000000E-03 0.  1.
         11   -1    0    0    0    0 -0.00000000000E+00 -0.00000000000E+00 -0.45593999997E+02  0.45594000000E+02  0.51100000000E-03 0. -1.
    9900012    2    1    2    0    0  0.18805474693E+02  0.48193519602E+01  0.25295267078E+02  0.59301912622E+02  0.49999942723E+02 0.  0.
         12    1    1    2    0    0 -0.18805474693E+02 -0.48193519602E+01 -0.25295267078E+02  0.31886087378E+02  0.00000000000E+00 0. -1.
         11    1    3    3    0    0  0.47087109505E+01  0.10973347456E+02 -0.10331372755E+02  0.15789983422E+02  0.51100000000E-03 0. -1.
        -11    1    3    3    0    0 -0.26392737945E+01 -0.70497742717E+01  0.66839028898E+01  0.10066759238E+02  0.51100000000E-03 0.  1.
         12    1    3    3    0    0  0.16736037537E+02  0.89577877621E+00  0.28942736943E+02  0.33445169962E+02  0.00000000000E+00 0. -1.
</event>
<event>
 7    1  0.4673733E-013  0.5930193E+02  0.7816164E-02  0.1266605E+00
        -11   -1    0    0    0    0  0.00000000000E+00  0.00000000000E+00  0.45593999997E+02  0.45594000000E+02  0.51100000000E-03 0. -1.
         11   -1    0    0    0    0 -0.00000000000E+00 -0.00000000000E+00 -0.45593999997E+02  0.45594000000E+02  0.51100000000E-03 0.  1.
    9900012    2    1    2    0    0 -0.18604989386E+01  0.14489964013E+01 -0.31798751401E+02  0.59301927217E+02  0.49999969341E+02 0.  0.
         12    1    1    2    0    0  0.18604989386E+01 -0.14489964013E+01  0.31798751401E+02  0.31886072783E+02  0.00000000000E+00 0. -1.
         11    1    3    3    0    0 -0.37212313173E+00  0.18020167839E+02 -0.28616447372E+01  0.18249765353E+02  0.51100000000E-03 0.  1.
        -11    1    3    3    0    0 -0.66651043885E+01 -0.20650994747E+02 -0.17607541104E+02  0.27944815343E+02  0.51100000000E-03 0. -1.
        -12    1    3    3    0    0  0.51767285816E+01  0.40798233094E+01 -0.11329565560E+02  0.13107346521E+02  0.00000000000E+00 0.  1.
</event>
<event>
 7    1  0.4673733E-013  0.5930196E+02  0.7816164E-02  0.1266605E+00
        -11   -1    0    0    0    0  0.00000000000E+00  0.00000000000E+00  0.45593999997E+02  0.45594000000E+02  0.51100000000E-03 0. -1.
         11   -1    0    0    0    0 -0.00000000000E+00 -0.00000000000E+00 -0.45593999997E+02  0.45594000000E+02  0.51100000000E-03 0.  1.
    9900012    2    1    2    0    0  0.28581031129E+02 -0.11801845523E+02 -0.77820864644E+01  0.59301956535E+02  0.50000022810E+02 0.  0.
         12    1    1    2    0    0 -0.28581031129E+02  0.11801845523E+02  0.77820864644E+01  0.31886043465E+02  0.00000000000E+00 0. -1.
         11    1    3    3    0    0 -0.42074593805E+01  0.24964690320E+01  0.15347126721E+02  0.16108052983E+02  0.51100000000E-03 0. -1.
        -11    1    3    3    0    0  0.10437518050E+02 -0.16560203590E+01 -0.45878891526E+01  0.11520977112E+02  0.51100000000E-03 0.  1.
         12    1    3    3    0    0  0.22350972459E+02 -0.12642294196E+02 -0.18541324032E+02  0.31672926440E+02  0.00000000000E+00 0. -1.
</event>
<event>
 7    1  0.4673733E-013  0.5930193E+02  0.7816164E-02  0.1266605E+00
        -11   -1    0    0    0    0  0.00000000000E+00  0.00000000000E+00  0.45593999997E+02  0.45594000000E+02  0.51100000000E-03 0. -1.
         11   -1    0    0    0    0 -0.00000000000E+00 -0.00000000000E+00 -0.45593999997E+02  0.45594000000E+02  0.51100000000E-03 0.  1.
    9900012    2    1    2    0    0 -0.13359406753E+02  0.28951113946E+02 -0.28380107816E+00  0.59301932657E+02  0.49999979263E+02 0.  0.
         12    1    1    2    0    0  0.13359406753E+02 -0.28951113946E+02  0.28380107816E+00  0.31886067343E+02  0.00000000000E+00 0. -1.
         11    1    3    3    0    0 -0.26934214829E+02  0.23486776909E+02 -0.10133254749E+02  0.37145167520E+02  0.51100000000E-03 0. -1.
        -11    1    3    3    0    0  0.92851330769E+01  0.98899162923E+01  0.78709672252E+01  0.15683630506E+02  0.51100000000E-03 0.  1.
        -12    1    3    3    0    0  0.42896749994E+01 -0.44255792545E+01  0.19784864457E+01  0.64731346312E+01  0.00000000000E+00 0.  1.
</event>
<event>
 7    1  0.4673733E-013  0.5930193E+02  0.7816164E-02  0.1266605E+00
        -11   -1    0    0    0    0  0.00000000000E+00  0.00000000000E+00  0.45593999997E+02  0.45594000000E+02  0.51100000000E-03 0. -1.
         11   -1    0    0    0    0 -0.00000000000E+00 -0.00000000000E+00 -0.45593999997E+02  0.45594000000E+02  0.51100000000E-03 0.  1.
    9900012    2    1    2    0    0 -0.68833556607E+01 -0.14235577246E+02 -0.27689153162E+02  0.59301930197E+02  0.49999974776E+02 0.  0.
         12    1    1    2    0    0  0.68833556607E+01  0.14235577246E+02  0.27689153162E+02  0.31886069803E+02  0.00000000000E+00 0. -1.
         11    1    3    3    0    0 -0.18413973597E+02 -0.19943296727E+02 -0.12176762425E+02  0.29750345400E+02  0.51100000000E-03 0. -1.
        -11    1    3    3    0    0  0.43107847756E+01  0.59994414447E+01  0.42408268420E+01  0.85182613012E+01  0.51100000000E-03 0.  1.
        -12    1    3    3    0    0  0.72198331609E+01 -0.29172196289E+00 -0.19753217579E+02  0.21033323496E+02  0.00000000000E+00 0.  1.
</event>
<event>
 7    1  0.4673733E-013  0.5930168E+02  0.7816164E-02  0.1266606E+00
        -11   -1    0    0    0    0  0.00000000000E+00  0.00000000000E+00  0.45593999997E+02  0.45594000000E+02  0.51100000000E-03 0. -1.
         11   -1    0    0    0    0 -0.00000000000E+00 -0.00000000000E+00 -0.45593999997E+02  0.45594000000E+02  0.51100000000E-03 0.  1.
    9900012    2    1    2    0    0  0.13278681266E+02  0.28375492594E+02  0.59368021418E+01  0.59301677293E+02  0.49999513538E+02 0.  0.
         12    1    1    2    0    0 -0.13278681266E+02 -0.28375492594E+02 -0.59368021418E+01  0.31886322707E+02  0.00000000000E+00 0. -1.
         11    1    3    3    0    0 -0.10164875837E+02 -0.31141671401E+00  0.23286970974E+01  0.10432857307E+02  0.51100000000E-03 0. -1.
        -11    1    3    3    0    0  0.30375548412E+02  0.16614518146E+02  0.45285737341E+01  0.34917390150E+02  0.51100000000E-03 0.  1.
         12    1    3    3    0    0 -0.69319913084E+01  0.12072391162E+02 -0.92046868972E+00  0.13951429836E+02  0.00000000000E+00 0. -1.
</event>
<event>
 7    1  0.4673733E-013  0.5930202E+02  0.7816164E-02  0.1266604E+00
        -11   -1    0    0    0    0  0.00000000000E+00  0.00000000000E+00  0.45593999997E+02  0.45594000000E+02  0.51100000000E-03 0.  1.
         11   -1    0    0    0    0 -0.00000000000E+00 -0.00000000000E+00 -0.45593999997E+02  0.45594000000E+02  0.51100000000E-03 0. -1.
    9900012    2    1    2    0    0  0.24957969570E+02 -0.10678241477E+02  0.16726938088E+02  0.59302022770E+02  0.50000143607E+02 0.  0.
         12    1    1    2    0    0 -0.24957969570E+02  0.10678241477E+02 -0.16726938088E+02  0.31885977230E+02  0.00000000000E+00 0. -1.
         11    1    3    3    0    0  0.28255808738E+02 -0.78488143838E+01  0.39794564267E+01  0.29594436781E+02  0.51100000000E-03 0. -1.
        -11    1    3    3    0    0 -0.10178966534E+02 -0.36699639745E+01  0.18005643924E+02  0.21006741981E+02  0.51100000000E-03 0.  1.
         12    1    3    3    0    0  0.68811273664E+01  0.84053688121E+00 -0.52581622625E+01  0.87008440085E+01  0.00000000000E+00 0. -1.
</event>
<event>
 7    1  0.4673733E-013  0.5930193E+02  0.7816164E-02  0.1266605E+00
        -11   -1    0    0    0    0  0.00000000000E+00  0.00000000000E+00  0.45593999997E+02  0.45594000000E+02  0.51100000000E-03 0. -1.
         11   -1    0    0    0    0 -0.00000000000E+00 -0.00000000000E+00 -0.45593999997E+02  0.45594000000E+02  0.51100000000E-03 0.  1.
    9900012    2    1    2    0    0 -0.84655938294E+01  0.29060138407E+02 -0.10028145475E+02  0.59301927417E+02  0.49999969706E+02 0.  0.
         12    1    1    2    0    0  0.84655938294E+01 -0.29060138407E+02  0.10028145475E+02  0.31886072583E+02  0.00000000000E+00 0. -1.
         11    1    3    3    0    0  0.93026374148E+01  0.18247624055E+02 -0.11919035174E+01  0.20516712231E+02  0.51100000000E-03 0. -1.
        -11    1    3    3    0    0 -0.20066414173E+02  0.19962487555E+02 -0.72506523504E+01  0.29218724252E+02  0.51100000000E-03 0.  1.
        -12    1    3    3    0    0  0.22981829287E+01 -0.91499732028E+01 -0.15855896075E+01  0.95664909340E+01  0.00000000000E+00 0.  1.
</event>
<event>
 7    1  0.4673733E-013  0.5930194E+02  0.7816164E-02  0.1266605E+00
        -11   -1    0    0    0    0  0.00000000000E+00  0.00000000000E+00  0.45593999997E+02  0.45594000000E+02  0.51100000000E-03 0.  1.
         11   -1    0    0    0    0 -0.00000000000E+00 -0.00000000000E+00 -0.45593999997E+02  0.45594000000E+02  0.51100000000E-03 0. -1.
    9900012    2    1    2    0    0 -0.38481119522E+01  0.88694924783E+01  0.30384948251E+02  0.59301938113E+02  0.49999989213E+02 0.  0.
         12    1    1    2    0    0  0.38481119522E+01 -0.88694924783E+01 -0.30384948251E+02  0.31886061887E+02  0.00000000000E+00 0. -1.
         11    1    3    3    0    0  0.19655573078E+01 -0.31708215480E+01  0.81770952600E+01  0.89879036472E+01  0.51100000000E-03 0. -1.
        -11    1    3    3    0    0 -0.13525416273E+02 -0.32913998640E+01 -0.76437800178E+01  0.15880729569E+02  0.51100000000E-03 0.  1.
        -12    1    3    3    0    0  0.77117470130E+01  0.15331713890E+02  0.29851633009E+02  0.34433304897E+02  0.00000000000E+00 0.  1.
</event>
<event>
 7    1  0.4673733E-013  0.5930189E+02  0.7816164E-02  0.1266605E+00
        -11   -1    0    0    0    0  0.00000000000E+00  0.00000000000E+00  0.45593999997E+02  0.45594000000E+02  0.51100000000E-03 0. -1.
         11   -1    0    0    0    0 -0.00000000000E+00 -0.00000000000E+00 -0.45593999997E+02  0.45594000000E+02  0.51100000000E-03 0.  1.
    9900012    2    1    2    0    0 -0.27049370613E+02 -0.94169866227E+01 -0.14013419384E+02  0.59301890007E+02  0.49999901480E+02 0.  0.
         12    1    1    2    0    0  0.27049370613E+02  0.94169866227E+01  0.14013419384E+02  0.31886109993E+02  0.00000000000E+00 0. -1.
         11    1    3    3    0    0 -0.50689800654E+01  0.57653039453E-01  0.12332674378E+02  0.13333894418E+02  0.51100000000E-03 0. -1.
        -11    1    3    3    0    0 -0.62450110530E+01 -0.11717968348E+02 -0.26969787718E+02  0.30061277336E+02  0.51100000000E-03 0.  1.
         12    1    3    3    0    0 -0.15735379495E+02  0.22433286855E+01  0.62369395654E+00  0.15906718253E+02  0.00000000000E+00 0. -1.
</event>
<event>
 7    1  0.4673733E-013  0.5930194E+02  0.7816164E-02  0.1266605E+00
        -11   -1    0    0    0    0  0.00000000000E+00  0.00000000000E+00  0.45593999997E+02  0.45594000000E+02  0.51100000000E-03 0.  1.
         11   -1    0    0    0    0 -0.00000000000E+00 -0.00000000000E+00 -0.45593999997E+02  0.45594000000E+02  0.51100000000E-03 0. -1.
    9900012    2    1    2    0    0 -0.18975202441E+02 -0.18727999579E+02  0.17490690269E+02  0.59301944709E+02  0.50000001243E+02 0.  0.
         12    1    1    2    0    0  0.18975202441E+02  0.18727999579E+02 -0.17490690269E+02  0.31886055291E+02  0.00000000000E+00 0. -1.
         11    1    3    3    0    0 -0.47010767423E+01 -0.14009261391E+01 -0.77805587257E+01  0.91978155521E+01  0.51100000000E-03 0. -1.
        -11    1    3    3    0    0  0.15315023059E+01  0.76720199990E+01  0.18029805327E+02  0.19653988668E+02  0.51100000000E-03 0.  1.
        -12    1    3    3    0    0 -0.15805628005E+02 -0.24999093439E+02  0.72414436685E+01  0.30450140489E+02  0.00000000000E+00 0.  1.
</event>
<event>
 7    1  0.4673733E-013  0.5930198E+02  0.7816164E-02  0.1266605E+00
        -11   -1    0    0    0    0  0.00000000000E+00  0.00000000000E+00  0.45593999997E+02  0.45594000000E+02  0.51100000000E-03 0.  1.
         11   -1    0    0    0    0 -0.00000000000E+00 -0.00000000000E+00 -0.45593999997E+02  0.45594000000E+02  0.51100000000E-03 0. -1.
    9900012    2    1    2    0    0 -0.57356710093E+01 -0.27248514084E+01  0.31247324260E+02  0.59301984091E+02  0.50000073065E+02 0.  0.
         12    1    1    2    0    0  0.57356710093E+01  0.27248514084E+01 -0.31247324260E+02  0.31886015909E+02  0.00000000000E+00 0. -1.
         11    1    3    3    0    0  0.19212753968E+02  0.19322662522E+01  0.16366337525E+02  0.25312458833E+02  0.51100000000E-03 0. -1.
        -11    1    3    3    0    0 -0.16610032925E+02 -0.11063104725E+02  0.85158321393E+01  0.21698038557E+02  0.51100000000E-03 0.  1.
         12    1    3    3    0    0 -0.83383920519E+01  0.64059870649E+01  0.63651545956E+01  0.12291486701E+02  0.00000000000E+00 0. -1.
</event>
<event>
 7    1  0.4673733E-013  0.5930208E+02  0.7816164E-02  0.1266604E+00
        -11   -1    0    0    0    0  0.00000000000E+00  0.00000000000E+00  0.45593999997E+02  0.45594000000E+02  0.51100000000E-03 0.  1.
         11   -1    0    0    0    0 -0.00000000000E+00 -0.00000000000E+00 -0.45593999997E+02  0.45594000000E+02  0.51100000000E-03 0. -1.
    9900012    2    1    2    0    0 -0.28241583966E+01 -0.29078135269E+01  0.31627211385E+02  0.59302082259E+02  0.50000252101E+02 0.  0.
         12    1    1    2    0    0  0.28241583966E+01  0.29078135269E+01 -0.31627211385E+02  0.31885917741E+02  0.00000000000E+00 0. -1.
         11    1    3    3    0    0 -0.15767488375E+02 -0.70801690314E+01 -0.28875606482E+01  0.17523712218E+02  0.51100000000E-03 0. -1.
        -11    1    3    3    0    0  0.24507410867E+00 -0.50593043706E+01  0.19160808387E+02  0.19819011083E+02  0.51100000000E-03 0.  1.
         12    1    3    3    0    0  0.12698255869E+02  0.92316598751E+01  0.15353963647E+02  0.21959358958E+02  0.00000000000E+00 0. -1.
</event>
<event>
 7    1  0.4673733E-013  0.5930191E+02  0.7816164E-02  0.1266605E+00
        -11   -1    0    0    0    0  0.00000000000E+00  0.00000000000E+00  0.45593999997E+02  0.45594000000E+02  0.51100000000E-03 0. -1.
         11   -1    0    0    0    0 -0.00000000000E+00 -0.00000000000E+00 -0.45593999997E+02  0.45594000000E+02  0.51100000000E-03 0.  1.
    9900012    2    1    2    0    0  0.21239725660E+02  0.68245744511E+01 -0.22782051516E+02  0.59301911594E+02  0.49999940849E+02 0.  0.
         12    1    1    2    0    0 -0.21239725660E+02 -0.68245744511E+01  0.22782051516E+02  0.31886088406E+02  0.00000000000E+00 0. -1.
         11    1    3    3    0    0 -0.10191739485E+00  0.41631742957E+01  0.15031879943E+01  0.44274125377E+01  0.51100000000E-03 0. -1.
        -11    1    3    3    0    0  0.46459026692E+01 -0.11173841641E+02 -0.30086246524E+02  0.32428712259E+02  0.51100000000E-03 0.  1.
        -12    1    3    3    0    0  0.16695740385E+02  0.13835241796E+02  0.58010070137E+01  0.22445786797E+02  0.00000000000E+00 0.  1.
</event>
<event>
 7    1  0.4673733E-013  0.5930193E+02  0.7816164E-02  0.1266605E+00
        -11   -1    0    0    0    0  0.00000000000E+00  0.00000000000E+00  0.45593999997E+02  0.45594000000E+02  0.51100000000E-03 0. -1.
         11   -1    0    0    0    0 -0.00000000000E+00 -0.00000000000E+00 -0.45593999997E+02  0.45594000000E+02  0.51100000000E-03 0.  1.
    9900012    2    1    2    0    0 -0.26815070992E+02 -0.17252693833E+02  0.13373517822E+00  0.59301931539E+02  0.49999977224E+02 0.  0.
         12    1    1    2    0    0  0.26815070992E+02  0.17252693833E+02 -0.13373517822E+00  0.31886068461E+02  0.00000000000E+00 0. -1.
         11    1    3    3    0    0  0.48496339692E+01 -0.11637168790E+02  0.12803025482E+02  0.17968308458E+02  0.51100000000E-03 0. -1.
        -11    1    3    3    0    0 -0.80961967961E+01  0.76104995046E+01 -0.84956727781E+01  0.13987300007E+02  0.51100000000E-03 0.  1.
         12    1    3    3    0    0 -0.23568508165E+02 -0.13226024548E+02 -0.41736175259E+01  0.27346323075E+02  0.00000000000E+00 0. -1.
</event>
<event>
 7    1  0.4673733E-013  0.5930194E+02  0.7816164E-02  0.1266605E+00
        -11   -1    0    0    0    0  0.00000000000E+00  0.00000000000E+00  0.45593999997E+02  0.45594000000E+02  0.51100000000E-03 0. -1.
         11   -1    0    0    0    0 -0.00000000000E+00 -0.00000000000E+00 -0.45593999997E+02  0.45594000000E+02  0.51100000000E-03 0.  1.
    9900012    2    1    2    0    0  0.72003747058E+01  0.18239947790E+02 -0.25143184213E+02  0.59301940293E+02  0.49999993189E+02 0.  0.
         12    1    1    2    0    0 -0.72003747058E+01 -0.18239947790E+02  0.25143184213E+02  0.31886059707E+02  0.00000000000E+00 0. -1.
         11    1    3    3    0    0 -0.13093742857E+02  0.11933269168E+02 -0.30323637161E+01  0.17973431642E+02  0.51100000000E-03 0. -1.
        -11    1    3    3    0    0  0.22977941727E+02  0.10026346541E+02 -0.77313953941E+01  0.26235241679E+02  0.51100000000E-03 0.  1.
         12    1    3    3    0    0 -0.26838241645E+01 -0.37196679195E+01 -0.14379425103E+02  0.15093266971E+02  0.00000000000E+00 0. -1.
</event>
<event>
 7    1  0.4673733E-013  0.5930193E+02  0.7816164E-02  0.1266605E+00
        -11   -1    0    0    0    0  0.00000000000E+00  0.00000000000E+00  0.45593999997E+02  0.45594000000E+02  0.51100000000E-03 0. -1.
         11   -1    0    0    0    0 -0.00000000000E+00 -0.00000000000E+00 -0.45593999997E+02  0.45594000000E+02  0.51100000000E-03 0.  1.
    9900012    2    1    2    0    0  0.98933368192E+01 -0.29034682995E+02 -0.87080785340E+01  0.59301928404E+02  0.49999971507E+02 0.  0.
         12    1    1    2    0    0 -0.98933368192E+01  0.29034682995E+02  0.87080785340E+01  0.31886071596E+02  0.00000000000E+00 0. -1.
         11    1    3    3    0    0  0.29309707555E+01  0.66266539414E+01  0.39671238843E+01  0.82608234579E+01  0.51100000000E-03 0. -1.
        -11    1    3    3    0    0  0.20427951101E+02 -0.21720797162E+02 -0.10136738257E+02  0.31493613294E+02  0.51100000000E-03 0.  1.
        -12    1    3    3    0    0 -0.13465585038E+02 -0.13940539775E+02 -0.25384641610E+01  0.19547491653E+02  0.00000000000E+00 0.  1.
</event>
<event>
 7    1  0.4673733E-013  0.5930197E+02  0.7816164E-02  0.1266605E+00
        -11   -1    0    0    0    0  0.00000000000E+00  0.00000000000E+00  0.45593999997E+02  0.45594000000E+02  0.51100000000E-03 0.  1.
         11   -1    0    0    0    0 -0.00000000000E+00 -0.00000000000E+00 -0.45593999997E+02  0.45594000000E+02  0.51100000000E-03 0. -1.
    9900012    2    1    2    0    0  0.10775992879E+01 -0.77431966781E+01  0.30912789414E+02  0.59301970702E+02  0.50000048647E+02 0.  0.
         12    1    1    2    0    0 -0.10775992879E+01  0.77431966781E+01 -0.30912789414E+02  0.31886029298E+02  0.00000000000E+00 0. -1.
         11    1    3    3    0    0 -0.17510370607E+01 -0.24489010254E+02  0.25288983647E+02  0.35246424616E+02  0.51100000000E-03 0.  1.
        -11    1    3    3    0    0 -0.28103800902E+01  0.13203499315E+02  0.93533106356E+01  0.16423003700E+02  0.51100000000E-03 0. -1.
        -12    1    3    3    0    0  0.56390164389E+01  0.35423142605E+01 -0.37295048686E+01  0.76325423866E+01  0.00000000000E+00 0.  1.
</event>
<event>
 7    1  0.4673733E-013  0.5930195E+02  0.7816164E-02  0.1266605E+00
        -11   -1    0    0    0    0  0.00000000000E+00  0.00000000000E+00  0.45593999997E+02  0.45594000000E+02  0.51100000000E-03 0. -1.
         11   -1    0    0    0    0 -0.00000000000E+00 -0.00000000000E+00 -0.45593999997E+02  0.45594000000E+02  0.51100000000E-03 0.  1.
    9900012    2    1    2    0    0  0.73513123043E+00 -0.12132557427E+02 -0.29478481905E+02  0.59301948770E+02  0.50000008648E+02 0.  0.
         12    1    1    2    0    0 -0.73513123043E+00  0.12132557427E+02  0.29478481905E+02  0.31886051230E+02  0.00000000000E+00 0. -1.
         11    1    3    3    0    0  0.50694644482E+01  0.58445841417E+01  0.58866668888E+01  0.97217015435E+01  0.51100000000E-03 0. -1.
        -11    1    3    3    0    0  0.82395811448E+00 -0.24583694302E+02 -0.18605663064E+02  0.30841654151E+02  0.51100000000E-03 0.  1.
        -12    1    3    3    0    0 -0.51582913323E+01  0.66065527330E+01 -0.16759485730E+02  0.18738593075E+02  0.00000000000E+00 0.  1.
</event>
<event>
 7    1  0.4673733E-013  0.5930198E+02  0.7816164E-02  0.1266605E+00
        -11   -1    0    0    0    0  0.00000000000E+00  0.00000000000E+00  0.45593999997E+02  0.45594000000E+02  0.51100000000E-03 0. -1.
         11   -1    0    0    0    0 -0.00000000000E+00 -0.00000000000E+00 -0.45593999997E+02  0.45594000000E+02  0.51100000000E-03 0.  1.
    9900012    2    1    2    0    0  0.95721152551E+01 -0.23905868943E+02  0.18804312351E+02  0.59301982321E+02  0.50000069838E+02 0.  0.
         12    1    1    2    0    0 -0.95721152551E+01  0.23905868943E+02 -0.18804312351E+02  0.31886017679E+02  0.00000000000E+00 0. -1.
         11    1    3    3    0    0  0.18025907823E+02 -0.23110387586E+02  0.18953421507E+02  0.34903517793E+02  0.51100000000E-03 0. -1.
        -11    1    3    3    0    0  0.12513033427E+01 -0.91043416528E+01 -0.53165714386E+01  0.10617001889E+02  0.51100000000E-03 0.  1.
         12    1    3    3    0    0 -0.97050959103E+01  0.83088602956E+01  0.51674622825E+01  0.13781462639E+02  0.00000000000E+00 0. -1.
</event>
<event>
 7    1  0.4673733E-013  0.5930179E+02  0.7816164E-02  0.1266605E+00
        -11   -1    0    0    0    0  0.00000000000E+00  0.00000000000E+00  0.45593999997E+02  0.45594000000E+02  0.51100000000E-03 0.  1.
         11   -1    0    0    0    0 -0.00000000000E+00 -0.00000000000E+00 -0.45593999997E+02  0.45594000000E+02  0.51100000000E-03 0. -1.
    9900012    2    1    2    0    0  0.28573571982E+02  0.90357302743E+00  0.14123199170E+02  0.59301792718E+02  0.49999724047E+02 0.  0.
         12    1    1    2    0    0 -0.28573571982E+02 -0.90357302743E+00 -0.14123199170E+02  0.31886207282E+02  0.00000000000E+00 0. -1.
         11    1    3    3    0    0 -0.60918916546E+00  0.64646160358E+01  0.13750771008E+01  0.66372591651E+01  0.51100000000E-03 0. -1.
        -11    1    3    3    0    0  0.31902553861E+02  0.46293276914E+01  0.21675681358E+02  0.38846348352E+02  0.51100000000E-03 0.  1.
        -12    1    3    3    0    0 -0.27197927134E+01 -0.10190370700E+02 -0.89275592889E+01  0.13818185201E+02  0.00000000000E+00 0.  1.
</event>
<event>
 7    1  0.4673733E-013  0.5930197E+02  0.7816164E-02  0.1266605E+00
        -11   -1    0    0    0    0  0.00000000000E+00  0.00000000000E+00  0.45593999997E+02  0.45594000000E+02  0.51100000000E-03 0.  1.
         11   -1    0    0    0    0 -0.00000000000E+00 -0.00000000000E+00 -0.45593999997E+02  0.45594000000E+02  0.51100000000E-03 0. -1.
    9900012    2    1    2    0    0  0.16653934890E+02  0.10343747832E+02  0.25147017644E+02  0.59301966021E+02  0.50000040110E+02 0.  0.
         12    1    1    2    0    0 -0.16653934890E+02 -0.10343747832E+02 -0.25147017644E+02  0.31886033979E+02  0.00000000000E+00 0. -1.
         11    1    3    3    0    0 -0.55939220114E+01  0.23106437600E+02  0.72223291672E+01  0.24846759565E+02  0.51100000000E-03 0. -1.
        -11    1    3    3    0    0  0.13878855625E+02 -0.19996805062E+01  0.31898982236E+01  0.14380431375E+02  0.51100000000E-03 0.  1.
         12    1    3    3    0    0  0.83690012761E+01 -0.10763009262E+02  0.14734790253E+02  0.20074775080E+02  0.00000000000E+00 0. -1.
</event>
<event>
 7    1  0.4673733E-013  0.5930195E+02  0.7816164E-02  0.1266605E+00
        -11   -1    0    0    0    0  0.00000000000E+00  0.00000000000E+00  0.45593999997E+02  0.45594000000E+02  0.51100000000E-03 0.  1.
         11   -1    0    0    0    0 -0.00000000000E+00 -0.00000000000E+00 -0.45593999997E+02  0.45594000000E+02  0.51100000000E-03 0. -1.
    9900012    2    1    2    0    0 -0.23346400362E+02  0.78779740787E+01  0.20238661788E+02  0.59301947933E+02  0.50000007122E+02 0.  0.
         12    1    1    2    0    0  0.23346400362E+02 -0.78779740787E+01 -0.20238661788E+02  0.31886052067E+02  0.00000000000E+00 0. -1.
         11    1    3    3    0    0 -0.50663286981E+01 -0.72830121802E+01 -0.54978900535E+01  0.10437276857E+02  0.51100000000E-03 0. -1.
        -11    1    3    3    0    0 -0.16763034726E+02  0.25549397019E+02  0.22258633305E+02  0.37804996735E+02  0.51100000000E-03 0.  1.
        -12    1    3    3    0    0 -0.15170369375E+01 -0.10388410760E+02  0.34779185371E+01  0.11059674341E+02  0.00000000000E+00 0.  1.
</event>
<event>
 7    1  0.4673733E-013  0.5930201E+02  0.7816164E-02  0.1266605E+00
        -11   -1    0    0    0    0  0.00000000000E+00  0.00000000000E+00  0.45593999997E+02  0.45594000000E+02  0.51100000000E-03 0. -1.
         11   -1    0    0    0    0 -0.00000000000E+00 -0.00000000000E+00 -0.45593999997E+02  0.45594000000E+02  0.51100000000E-03 0.  1.
    9900012    2    1    2    0    0 -0.29501385280E+02 -0.86680703083E+00 -0.12067872925E+02  0.59302005507E+02  0.50000112124E+02 0.  0.
         12    1    1    2    0    0  0.29501385280E+02  0.86680703083E+00  0.12067872925E+02  0.31885994493E+02  0.00000000000E+00 0. -1.
         11    1    3    3    0    0 -0.78050050652E+01 -0.13052085673E+02  0.74223627354E+01  0.16922367249E+02  0.51100000000E-03 0. -1.
        -11    1    3    3    0    0 -0.16857759096E+01  0.15580455398E+02 -0.24162174138E+01  0.15856561345E+02  0.51100000000E-03 0.  1.
         12    1    3    3    0    0 -0.20010604305E+02 -0.33951767563E+01 -0.17074018246E+02  0.26523076913E+02  0.00000000000E+00 0. -1.
</event>
<event>
 7    1  0.4673733E-013  0.5930180E+02  0.7816164E-02  0.1266605E+00
        -11   -1    0    0    0    0  0.00000000000E+00  0.00000000000E+00  0.45593999997E+02  0.45594000000E+02  0.51100000000E-03 0. -1.
         11   -1    0    0    0    0 -0.00000000000E+00 -0.00000000000E+00 -0.45593999997E+02  0.45594000000E+02  0.51100000000E-03 0.  1.
    9900012    2    1    2    0    0 -0.13441929630E+02 -0.14142351376E+02 -0.25219799450E+02  0.59301798299E+02  0.49999734225E+02 0.  0.
         12    1    1    2    0    0  0.13441929630E+02  0.14142351376E+02  0.25219799450E+02  0.31886201701E+02  0.00000000000E+00 0. -1.
         11    1    3    3    0    0 -0.16711533670E+02 -0.13329758908E+02 -0.24144329918E+02  0.32247581267E+02  0.51100000000E-03 0. -1.
        -11    1    3    3    0    0  0.78012858242E+01  0.11009801658E+02 -0.39718892361E+01  0.14065976590E+02  0.51100000000E-03 0.  1.
        -12    1    3    3    0    0 -0.45316817844E+01 -0.11822394126E+02  0.28964197046E+01  0.12988240442E+02  0.00000000000E+00 0.  1.
</event>
<event>
 7    1  0.4673733E-013  0.5930194E+02  0.7816164E-02  0.1266605E+00
        -11   -1    0    0    0    0  0.00000000000E+00  0.00000000000E+00  0.45593999997E+02  0.45594000000E+02  0.51100000000E-03 0. -1.
         11   -1    0    0    0    0 -0.00000000000E+00 -0.00000000000E+00 -0.45593999997E+02  0.45594000000E+02  0.51100000000E-03 0.  1.
    9900012    2    1    2    0    0  0.10667597211E+02 -0.24931299836E+02  0.16773586114E+02  0.59301944538E+02  0.50000000931E+02 0.  0.
         12    1    1    2    0    0 -0.10667597211E+02  0.24931299836E+02 -0.16773586114E+02  0.31886055462E+02  0.00000000000E+00 0. -1.
         11    1    3    3    0    0 -0.10566405913E+02 -0.12829362572E+02  0.19015067808E+02  0.25254985289E+02  0.51100000000E-03 0. -1.
        -11    1    3    3    0    0  0.14944295495E+02 -0.19239236767E+02 -0.27737920598E+01  0.24518852377E+02  0.51100000000E-03 0.  1.
         12    1    3    3    0    0  0.62897076286E+01  0.71372995033E+01  0.53231036567E+00  0.95281068727E+01  0.00000000000E+00 0. -1.
</event>
<event>
 7    1  0.4673733E-013  0.5930202E+02  0.7816164E-02  0.1266605E+00
        -11   -1    0    0    0    0  0.00000000000E+00  0.00000000000E+00  0.45593999997E+02  0.45594000000E+02  0.51100000000E-03 0.  1.
         11   -1    0    0    0    0 -0.00000000000E+00 -0.00000000000E+00 -0.45593999997E+02  0.45594000000E+02  0.51100000000E-03 0. -1.
    9900012    2    1    2    0    0  0.52737946733E+01  0.12758231069E+02  0.28742484767E+02  0.59302018741E+02  0.50000136259E+02 0.  0.
         12    1    1    2    0    0 -0.52737946733E+01 -0.12758231069E+02 -0.28742484767E+02  0.31885981259E+02  0.00000000000E+00 0. -1.
         11    1    3    3    0    0  0.49293216318E+01  0.51658320216E+01 -0.57115734259E+01  0.91436373225E+01  0.51100000000E-03 0. -1.
        -11    1    3    3    0    0  0.17845989191E+02  0.24970416313E+01  0.19781577657E+02  0.26758650227E+02  0.51100000000E-03 0.  1.
        -12    1    3    3    0    0 -0.17501516150E+02  0.50953574160E+01  0.14672480536E+02  0.23399731191E+02  0.00000000000E+00 0.  1.
</event>
<event>
 7    1  0.4906522E-013  0.5930194E+02  0.7816164E-02  0.1266605E+00
        -11   -1    0    0    0    0  0.00000000000E+00  0.00000000000E+00  0.45593999997E+02  0.45594000000E+02  0.51100000000E-03 0. -1.
         11   -1    0    0    0    0 -0.00000000000E+00 -0.00000000000E+00 -0.45593999997E+02  0.45594000000E+02  0.51100000000E-03 0.  1.
    9900012    2    1    2    0    0  0.26787117425E+02 -0.85354018118E+00 -0.17275497780E+02  0.59301936989E+02  0.49999987164E+02 0.  0.
         12    1    1    2    0    0 -0.26787117425E+02  0.85354018118E+00  0.17275497780E+02  0.31886063011E+02  0.00000000000E+00 0. -1.
         11    1    3    3    0    0 -0.26875501592E+01  0.73759843716E+01  0.61978677932E+01  0.10002081621E+02  0.51100000000E-03 0. -1.
        -11    1    3    3    0    0  0.21131640318E+02 -0.17709523675E+02 -0.68242867027E+01  0.28403245247E+02  0.51100000000E-03 0.  1.
        -12    1    3    3    0    0  0.83430272667E+01  0.94799991223E+01 -0.16649078870E+02  0.20896610121E+02  0.00000000000E+00 0.  1.
</event>
<event>
 7    1  0.4673733E-013  0.5930191E+02  0.7816164E-02  0.1266605E+00
        -11   -1    0    0    0    0  0.00000000000E+00  0.00000000000E+00  0.45593999997E+02  0.45594000000E+02  0.51100000000E-03 0. -1.
         11   -1    0    0    0    0 -0.00000000000E+00 -0.00000000000E+00 -0.45593999997E+02  0.45594000000E+02  0.51100000000E-03 0.  1.
    9900012    2    1    2    0    0  0.27945085964E+02  0.11527579486E+02  0.10144445567E+02  0.59301910648E+02  0.49999939123E+02 0.  0.
         12    1    1    2    0    0 -0.27945085964E+02 -0.11527579486E+02 -0.10144445567E+02  0.31886089352E+02  0.00000000000E+00 0. -1.
         11    1    3    3    0    0 -0.27348640707E+01  0.76070494881E+01 -0.12283595480E+02  0.14704876796E+02  0.51100000000E-03 0. -1.
        -11    1    3    3    0    0  0.27674406377E+02  0.77865605945E+01  0.87226641069E+01  0.30043105093E+02  0.51100000000E-03 0.  1.
         12    1    3    3    0    0  0.30055436570E+01 -0.38660305964E+01  0.13705376940E+02  0.14553928759E+02  0.00000000000E+00 0. -1.
</event>
<event>
 7    1  0.4673733E-013  0.5930196E+02  0.7816164E-02  0.1266605E+00
        -11   -1    0    0    0    0  0.00000000000E+00  0.00000000000E+00  0.45593999997E+02  0.45594000000E+02  0.51100000000E-03 0. -1.
         11   -1    0    0    0    0 -0.00000000000E+00 -0.00000000000E+00 -0.45593999997E+02  0.45594000000E+02  0.51100000000E-03 0.  1.
    9900012    2    1    2    0    0  0.15209009665E+02  0.17762166611E+02 -0.21677436779E+02  0.59301955983E+02  0.50000021804E+02 0.  0.
         12    1    1    2    0    0 -0.15209009665E+02 -0.17762166611E+02  0.21677436779E+02  0.31886044017E+02  0.00000000000E+00 0. -1.
         11    1    3    3    0    0 -0.34849337362E+01  0.49214354406E+01  0.12380064733E+02  0.13770667849E+02  0.51100000000E-03 0. -1.
        -11    1    3    3    0    0 -0.17534217703E-01 -0.43451006516E+01 -0.82053612438E+01  0.92848349756E+01  0.51100000000E-03 0.  1.
         12    1    3    3    0    0  0.18711477619E+02  0.17185831822E+02 -0.25852140269E+02  0.36246453159E+02  0.00000000000E+00 0. -1.
</event>
<event>
 7    1  0.4673733E-013  0.5930188E+02  0.7816164E-02  0.1266605E+00
        -11   -1    0    0    0    0  0.00000000000E+00  0.00000000000E+00  0.45593999997E+02  0.45594000000E+02  0.51100000000E-03 0.  1.
         11   -1    0    0    0    0 -0.00000000000E+00 -0.00000000000E+00 -0.45593999997E+02  0.45594000000E+02  0.51100000000E-03 0. -1.
    9900012    2    1    2    0    0 -0.50961254109E+01 -0.30417641849E+02 -0.80945351691E+01  0.59301875597E+02  0.49999875198E+02 0.  0.
         12    1    1    2    0    0  0.50961254109E+01  0.30417641849E+02  0.80945351691E+01  0.31886124403E+02  0.00000000000E+00 0. -1.
         11    1    3    3    0    0  0.12557610202E+02 -0.20921386141E+02  0.88845102008E+01  0.25967912773E+02  0.51100000000E-03 0. -1.
        -11    1    3    3    0    0 -0.16153535613E+02 -0.12972581035E+02 -0.57751432101E+01  0.21507599840E+02  0.51100000000E-03 0.  1.
        -12    1    3    3    0    0 -0.15001999995E+01  0.34763253266E+01 -0.11203902160E+02  0.11826362984E+02  0.00000000000E+00 0.  1.
</event>
<event>
 7    1  0.4673733E-013  0.5930199E+02  0.7816164E-02  0.1266605E+00
        -11   -1    0    0    0    0  0.00000000000E+00  0.00000000000E+00  0.45593999997E+02  0.45594000000E+02  0.51100000000E-03 0. -1.
         11   -1    0    0    0    0 -0.00000000000E+00 -0.00000000000E+00 -0.45593999997E+02  0.45594000000E+02  0.51100000000E-03 0.  1.
    9900012    2    1    2    0    0  0.29017646467E+02 -0.10843868405E+02 -0.75567253106E+01  0.59301993886E+02  0.50000090930E+02 0.  0.
         12    1    1    2    0    0 -0.29017646467E+02  0.10843868405E+02  0.75567253106E+01  0.31886006114E+02  0.00000000000E+00 0. -1.
         11    1    3    3    0    0  0.16300354902E+02 -0.17578017577E+02  0.15000494872E+02  0.28279022588E+02  0.51100000000E-03 0. -1.
        -11    1    3    3    0    0  0.15867882845E+02  0.63346992879E+01 -0.14666738949E+02  0.22517356699E+02  0.51100000000E-03 0.  1.
         12    1    3    3    0    0 -0.31505912794E+01  0.39944988475E+00 -0.78904812335E+01  0.85056145996E+01  0.00000000000E+00 0. -1.
</event>
<event>
 7    1  0.4673733E-013  0.5930190E+02  0.7816164E-02  0.1266605E+00
        -11   -1    0    0    0    0  0.00000000000E+00  0.00000000000E+00  0.45593999997E+02  0.45594000000E+02  0.51100000000E-03 0. -1.
         11   -1    0    0    0    0 -0.00000000000E+00 -0.00000000000E+00 -0.45593999997E+02  0.45594000000E+02  0.51100000000E-03 0.  1.
    9900012    2    1    2    0    0  0.16199348574E+02 -0.14121758967E+02 -0.23555903106E+02  0.59301897358E+02  0.49999914886E+02 0.  0.
         12    1    1    2    0    0 -0.16199348574E+02  0.14121758967E+02  0.23555903106E+02  0.31886102642E+02  0.00000000000E+00 0. -1.
         11    1    3    3    0    0  0.80642432764E+01  0.46085173759E+01 -0.21903572469E+02  0.23791530829E+02  0.51100000000E-03 0.  1.
        -11    1    3    3    0    0 -0.48252748115E+01 -0.16052212661E+02  0.85346808415E+01  0.18809507853E+02  0.51100000000E-03 0. -1.
         12    1    3    3    0    0  0.12960380109E+02 -0.26780636817E+01 -0.10187011478E+02  0.16700858676E+02  0.00000000000E+00 0. -1.
</event>
<event>
 7    1  0.4673733E-013  0.5930196E+02  0.7816164E-02  0.1266605E+00
        -11   -1    0    0    0    0  0.00000000000E+00  0.00000000000E+00  0.45593999997E+02  0.45594000000E+02  0.51100000000E-03 0. -1.
         11   -1    0    0    0    0 -0.00000000000E+00 -0.00000000000E+00 -0.45593999997E+02  0.45594000000E+02  0.51100000000E-03 0.  1.
    9900012    2    1    2    0    0  0.50558008403E+01 -0.13363751356E+02 -0.28505592779E+02  0.59301956154E+02  0.50000022116E+02 0.  0.
         12    1    1    2    0    0 -0.50558008403E+01  0.13363751356E+02  0.28505592779E+02  0.31886043846E+02  0.00000000000E+00 0. -1.
         11    1    3    3    0    0  0.50727623109E+01  0.83700944267E+01 -0.18592743755E+02  0.21011461605E+02  0.51100000000E-03 0. -1.
        -11    1    3    3    0    0 -0.35356021285E+01 -0.27010322589E+02 -0.14117100297E+02  0.30681436241E+02  0.51100000000E-03 0.  1.
        -12    1    3    3    0    0  0.35186406579E+01  0.52764768059E+01  0.42042512735E+01  0.76090583079E+01  0.00000000000E+00 0.  1.
</event>
<event>
 7    1  0.4673733E-013  0.5930194E+02  0.7816164E-02  0.1266605E+00
        -11   -1    0    0    0    0  0.00000000000E+00  0.00000000000E+00  0.45593999997E+02  0.45594000000E+02  0.51100000000E-03 0.  1.
         11   -1    0    0    0    0 -0.00000000000E+00 -0.00000000000E+00 -0.45593999997E+02  0.45594000000E+02  0.51100000000E-03 0. -1.
    9900012    2    1    2    0    0  0.11628264560E+01 -0.10858998190E+02  0.29957481077E+02  0.59301942239E+02  0.49999996738E+02 0.  0.
         12    1    1    2    0    0 -0.11628264560E+01  0.10858998190E+02 -0.29957481077E+02  0.31886057761E+02  0.00000000000E+00 0. -1.
         11    1    3    3    0    0  0.22477034307E+02 -0.79325205790E+01  0.13995642755E+02  0.27640911171E+02  0.51100000000E-03 0. -1.
        -11    1    3    3    0    0 -0.19058965020E+02 -0.81296546187E+01  0.15677393223E+02  0.25982996178E+02  0.51100000000E-03 0.  1.
         12    1    3    3    0    0 -0.22552428304E+01  0.52031770076E+01  0.28444509910E+00  0.56780348899E+01  0.00000000000E+00 0. -1.
</event>
<event>
 7    1  0.4673733E-013  0.5930197E+02  0.7816164E-02  0.1266605E+00
        -11   -1    0    0    0    0  0.00000000000E+00  0.00000000000E+00  0.45593999997E+02  0.45594000000E+02  0.51100000000E-03 0.  1.
         11   -1    0    0    0    0 -0.00000000000E+00 -0.00000000000E+00 -0.45593999997E+02  0.45594000000E+02  0.51100000000E-03 0. -1.
    9900012    2    1    2    0    0 -0.27128161391E+02  0.58689159952E+01  0.15695136089E+02  0.59301974656E+02  0.50000055858E+02 0.  0.
         12    1    1    2    0    0  0.27128161391E+02 -0.58689159952E+01 -0.15695136089E+02  0.31886025344E+02  0.00000000000E+00 0. -1.
         11    1    3    3    0    0 -0.17140710767E+02  0.16164224746E+02  0.11734001396E+02  0.26320579710E+02  0.51100000000E-03 0. -1.
        -11    1    3    3    0    0  0.87517156014E+01 -0.55689117556E+01  0.81676514213E+01  0.13202872192E+02  0.51100000000E-03 0.  1.
        -12    1    3    3    0    0 -0.18739166225E+02 -0.47263969947E+01 -0.42065167283E+01  0.19778522754E+02  0.00000000000E+00 0.  1.
</event>
<event>
 7    1  0.4673733E-013  0.5930190E+02  0.7816164E-02  0.1266605E+00
        -11   -1    0    0    0    0  0.00000000000E+00  0.00000000000E+00  0.45593999997E+02  0.45594000000E+02  0.51100000000E-03 0.  1.
         11   -1    0    0    0    0 -0.00000000000E+00 -0.00000000000E+00 -0.45593999997E+02  0.45594000000E+02  0.51100000000E-03 0. -1.
    9900012    2    1    2    0    0 -0.18582163505E+02 -0.15261918493E+02  0.20940403765E+02  0.59301898538E+02  0.49999917037E+02 0.  0.
         12    1    1    2    0    0  0.18582163505E+02  0.15261918493E+02 -0.20940403765E+02  0.31886101462E+02  0.00000000000E+00 0. -1.
         11    1    3    3    0    0 -0.17181585789E+02 -0.45232548967E+01 -0.10590842865E+02  0.20684116562E+02  0.51100000000E-03 0. -1.
        -11    1    3    3    0    0  0.33070719460E+01 -0.12380295214E+02  0.92977339093E+01  0.15832128428E+02  0.51100000000E-03 0.  1.
         12    1    3    3    0    0 -0.47076496618E+01  0.16416316174E+01  0.22233512721E+02  0.22785653549E+02  0.00000000000E+00 0. -1.
</event>
<event>
 7    1  0.4673733E-013  0.5930186E+02  0.7816164E-02  0.1266605E+00
        -11   -1    0    0    0    0  0.00000000000E+00  0.00000000000E+00  0.45593999997E+02  0.45594000000E+02  0.51100000000E-03 0.  1.
         11   -1    0    0    0    0 -0.00000000000E+00 -0.00000000000E+00 -0.45593999997E+02  0.45594000000E+02  0.51100000000E-03 0. -1.
    9900012    2    1    2    0    0  0.19280641989E+01  0.31726509146E+02  0.25371412049E+01  0.59301860384E+02  0.49999847454E+02 0.  0.
         12    1    1    2    0    0 -0.19280641989E+01 -0.31726509146E+02 -0.25371412049E+01  0.31886139616E+02  0.00000000000E+00 0. -1.
         11    1    3    3    0    0  0.50921197460E+01  0.29851041228E+01 -0.17697074698E+02  0.18655481320E+02  0.51100000000E-03 0. -1.
        -11    1    3    3    0    0 -0.45305838132E+01  0.37942523258E+01  0.13550848449E+02  0.14783370196E+02  0.51100000000E-03 0.  1.
         12    1    3    3    0    0  0.13665282662E+01  0.24947152697E+02  0.66833674538E+01  0.25863008868E+02  0.00000000000E+00 0. -1.
</event>
<event>
 7    1  0.4673733E-013  0.5930194E+02  0.7816164E-02  0.1266605E+00
        -11   -1    0    0    0    0  0.00000000000E+00  0.00000000000E+00  0.45593999997E+02  0.45594000000E+02  0.51100000000E-03 0. -1.
         11   -1    0    0    0    0 -0.00000000000E+00 -0.00000000000E+00 -0.45593999997E+02  0.45594000000E+02  0.51100000000E-03 0.  1.
    9900012    2    1    2    0    0 -0.20131305514E+02 -0.23379509984E+02 -0.80529369247E+01  0.59301941261E+02  0.49999994954E+02 0.  0.
         12    1    1    2    0    0  0.20131305514E+02  0.23379509984E+02  0.80529369247E+01  0.31886058739E+02  0.00000000000E+00 0. -1.
         11    1    3    3    0    0 -0.10201917152E+02 -0.18627860220E+02  0.12004086190E+02  0.24396195922E+02  0.51100000000E-03 0. -1.
        -11    1    3    3    0    0  0.69374584099E+01  0.37152367070E+01 -0.12078149037E+02  0.14415720495E+02  0.51100000000E-03 0.  1.
        -12    1    3    3    0    0 -0.16866846772E+02 -0.84668864708E+01 -0.79788740776E+01  0.20490024843E+02  0.00000000000E+00 0.  1.
</event>
<event>
 7    1  0.4673733E-013  0.5930194E+02  0.7816164E-02  0.1266605E+00
        -11   -1    0    0    0    0  0.00000000000E+00  0.00000000000E+00  0.45593999997E+02  0.45594000000E+02  0.51100000000E-03 0. -1.
         11   -1    0    0    0    0 -0.00000000000E+00 -0.00000000000E+00 -0.45593999997E+02  0.45594000000E+02  0.51100000000E-03 0.  1.
    9900012    2    1    2    0    0 -0.27041893038E+02 -0.35742834674E+01 -0.16513062456E+02  0.59301941713E+02  0.49999995779E+02 0.  0.
         12    1    1    2    0    0  0.27041893038E+02  0.35742834674E+01  0.16513062456E+02  0.31886058287E+02  0.00000000000E+00 0. -1.
         11    1    3    3    0    0 -0.17726457953E+01 -0.15564837840E+02 -0.98645507088E+01  0.18512585207E+02  0.51100000000E-03 0.  1.
        -11    1    3    3    0    0 -0.22560026271E+02  0.17698379343E+02 -0.13306296469E+02  0.31610835843E+02  0.51100000000E-03 0. -1.
        -12    1    3    3    0    0 -0.27092209716E+01 -0.57078249702E+01  0.66577847214E+01  0.91785206629E+01  0.00000000000E+00 0.  1.
</event>
<event>
 7    1  0.4673733E-013  0.5930197E+02  0.7816164E-02  0.1266605E+00
        -11   -1    0    0    0    0  0.00000000000E+00  0.00000000000E+00  0.45593999997E+02  0.45594000000E+02  0.51100000000E-03 0.  1.
         11   -1    0    0    0    0 -0.00000000000E+00 -0.00000000000E+00 -0.45593999997E+02  0.45594000000E+02  0.51100000000E-03 0. -1.
    9900012    2    1    2    0    0 -0.18319064293E+02  0.84423380807E+01  0.24695291815E+02  0.59301974430E+02  0.50000055446E+02 0.  0.
         12    1    1    2    0    0  0.18319064293E+02 -0.84423380807E+01 -0.24695291815E+02  0.31886025570E+02  0.00000000000E+00 0. -1.
         11    1    3    3    0    0 -0.78281616891E+01 -0.69686401230E+01 -0.29423875770E+01  0.10885757002E+02  0.51100000000E-03 0. -1.
        -11    1    3    3    0    0 -0.73429157202E+00  0.25620403082E+02  0.17888005567E+02  0.31255799168E+02  0.51100000000E-03 0.  1.
        -12    1    3    3    0    0 -0.97566110316E+01 -0.10209424878E+02  0.97496738250E+01  0.17160418260E+02  0.00000000000E+00 0.  1.
</event>
<event>
 7    1  0.4673733E-013  0.5930193E+02  0.7816164E-02  0.1266605E+00
        -11   -1    0    0    0    0  0.00000000000E+00  0.00000000000E+00  0.45593999997E+02  0.45594000000E+02  0.51100000000E-03 0.  1.
         11   -1    0    0    0    0 -0.00000000000E+00 -0.00000000000E+00 -0.45593999997E+02  0.45594000000E+02  0.51100000000E-03 0. -1.
    9900012    2    1    2    0    0  0.31111337749E+02  0.69859311033E+01 -0.51406201173E-01  0.59301933881E+02  0.49999981495E+02 0.  0.
         12    1    1    2    0    0 -0.31111337749E+02 -0.69859311033E+01  0.51406201173E-01  0.31886066119E+02  0.00000000000E+00 0. -1.
         11    1    3    3    0    0  0.31796808238E+02  0.12189502617E+02 -0.14719529227E+02  0.37098322457E+02  0.51100000000E-03 0. -1.
        -11    1    3    3    0    0 -0.68297740714E+01 -0.22251178275E-04  0.18661729592E+01  0.70801423461E+01  0.51100000000E-03 0.  1.
         12    1    3    3    0    0  0.61443035826E+01 -0.52035492622E+01  0.12801950067E+02  0.15123469078E+02  0.00000000000E+00 0. -1.
</event>
<event>
 7    1  0.4673733E-013  0.5930195E+02  0.7816164E-02  0.1266605E+00
        -11   -1    0    0    0    0  0.00000000000E+00  0.00000000000E+00  0.45593999997E+02  0.45594000000E+02  0.51100000000E-03 0.  1.
         11   -1    0    0    0    0 -0.00000000000E+00 -0.00000000000E+00 -0.45593999997E+02  0.45594000000E+02  0.51100000000E-03 0. -1.
    9900012    2    1    2    0    0 -0.93954180299E+01 -0.20583356645E+02  0.22467120892E+02  0.59301953335E+02  0.50000016974E+02 0.  0.
         12    1    1    2    0    0  0.93954180299E+01  0.20583356645E+02 -0.22467120892E+02  0.31886046665E+02  0.00000000000E+00 0. -1.
         11    1    3    3    0    0  0.22456886719E+01 -0.18688548175E+02 -0.56530372423E+01  0.19653543721E+02  0.51100000000E-03 0. -1.
        -11    1    3    3    0    0  0.29285972224E+01  0.83911527340E+01  0.42500718913E+01  0.98514586350E+01  0.51100000000E-03 0.  1.
         12    1    3    3    0    0 -0.14569703924E+02 -0.10285961204E+02  0.23870086244E+02  0.29796950978E+02  0.00000000000E+00 0. -1.
</event>
<event>
 7    1  0.4673733E-013  0.5930194E+02  0.7816164E-02  0.1266605E+00
        -11   -1    0    0    0    0  0.00000000000E+00  0.00000000000E+00  0.45593999997E+02  0.45594000000E+02  0.51100000000E-03 0.  1.
         11   -1    0    0    0    0 -0.00000000000E+00 -0.00000000000E+00 -0.45593999997E+02  0.45594000000E+02  0.51100000000E-03 0. -1.
    9900012    2    1    2    0    0 -0.80792285464E+00  0.30883408307E+02  0.78919609120E+01  0.59301941996E+02  0.49999996295E+02 0.  0.
         12    1    1    2    0    0  0.80792285464E+00 -0.30883408307E+02 -0.78919609120E+01  0.31886058004E+02  0.00000000000E+00 0. -1.
         11    1    3    3    0    0 -0.80717381904E+01  0.31197597305E+02  0.56885542095E+01  0.32723121554E+02  0.51100000000E-03 0. -1.
        -11    1    3    3    0    0  0.61022307810E+01 -0.20331499714E+01  0.13573847988E+02  0.15020661396E+02  0.51100000000E-03 0.  1.
         12    1    3    3    0    0  0.11615845547E+01  0.17189609734E+01 -0.11370441286E+02  0.11558159046E+02  0.00000000000E+00 0. -1.
</event>
<event>
 7    1  0.4673733E-013  0.5930195E+02  0.7816164E-02  0.1266605E+00
        -11   -1    0    0    0    0  0.00000000000E+00  0.00000000000E+00  0.45593999997E+02  0.45594000000E+02  0.51100000000E-03 0.  1.
         11   -1    0    0    0    0 -0.00000000000E+00 -0.00000000000E+00 -0.45593999997E+02  0.45594000000E+02  0.51100000000E-03 0. -1.
    9900012    2    1    2    0    0 -0.17561071434E+02  0.52879864228E+01  0.26083824206E+02  0.59301954220E+02  0.50000018587E+02 0.  0.
         12    1    1    2    0    0  0.17561071434E+02 -0.52879864228E+01 -0.26083824206E+02  0.31886045780E+02  0.00000000000E+00 0. -1.
         11    1    3    3    0    0  0.52008713343E+01  0.22734270227E+01  0.26262114299E+02  0.26868497926E+02  0.51100000000E-03 0. -1.
        -11    1    3    3    0    0 -0.11632767864E+02 -0.63274071990E+01  0.82826661545E+01  0.15619216656E+02  0.51100000000E-03 0.  1.
         12    1    3    3    0    0 -0.11129174904E+02  0.93419665991E+01 -0.84609562478E+01  0.16814239638E+02  0.00000000000E+00 0. -1.
</event>
<event>
 7    1  0.4673733E-013  0.5930194E+02  0.7816164E-02  0.1266605E+00
        -11   -1    0    0    0    0  0.00000000000E+00  0.00000000000E+00  0.45593999997E+02  0.45594000000E+02  0.51100000000E-03 0. -1.
         11   -1    0    0    0    0 -0.00000000000E+00 -0.00000000000E+00 -0.45593999997E+02  0.45594000000E+02  0.51100000000E-03 0.  1.
    9900012    2    1    2    0    0 -0.23854857904E+02 -0.54692884512E+01 -0.20439021426E+02  0.59301937862E+02  0.49999988756E+02 0.  0.
         12    1    1    2    0    0  0.23854857904E+02  0.54692884512E+01  0.20439021426E+02  0.31886062138E+02  0.00000000000E+00 0. -1.
         11    1    3    3    0    0 -0.26037587443E+02 -0.96302002718E+01 -0.18888303497E+02  0.33577741532E+02  0.51100000000E-03 0. -1.
        -11    1    3    3    0    0  0.12806237514E+02 -0.25769442305E+01 -0.14556114438E+01  0.13143788106E+02  0.51100000000E-03 0.  1.
         12    1    3    3    0    0 -0.10623507974E+02  0.67378560510E+01 -0.95106484907E-01  0.12580408224E+02  0.00000000000E+00 0. -1.
</event>
<event>
 7    1  0.4673733E-013  0.5930194E+02  0.7816164E-02  0.1266605E+00
        -11   -1    0    0    0    0  0.00000000000E+00  0.00000000000E+00  0.45593999997E+02  0.45594000000E+02  0.51100000000E-03 0.  1.
         11   -1    0    0    0    0 -0.00000000000E+00 -0.00000000000E+00 -0.45593999997E+02  0.45594000000E+02  0.51100000000E-03 0. -1.
    9900012    2    1    2    0    0 -0.27145990016E+02  0.20146678865E+01  0.16605939496E+02  0.59301938983E+02  0.49999990799E+02 0.  0.
         12    1    1    2    0    0  0.27145990016E+02 -0.20146678865E+01 -0.16605939496E+02  0.31886061017E+02  0.00000000000E+00 0. -1.
         11    1    3    3    0    0 -0.33909189739E+01  0.17436176826E+02  0.35029775774E+01  0.18104956392E+02  0.51100000000E-03 0. -1.
        -11    1    3    3    0    0 -0.88308168473E+01 -0.18725405607E+02  0.15315024683E+02  0.25752167339E+02  0.51100000000E-03 0.  1.
        -12    1    3    3    0    0 -0.14924254195E+02  0.33038966680E+01 -0.22120627644E+01  0.15444815251E+02  0.00000000000E+00 0.  1.
</event>
<event>
 7    1  0.4673733E-013  0.5930196E+02  0.7816164E-02  0.1266605E+00
        -11   -1    0    0    0    0  0.00000000000E+00  0.00000000000E+00  0.45593999997E+02  0.45594000000E+02  0.51100000000E-03 0.  1.
         11   -1    0    0    0    0 -0.00000000000E+00 -0.00000000000E+00 -0.45593999997E+02  0.45594000000E+02  0.51100000000E-03 0. -1.
    9900012    2    1    2    0    0  0.13831232502E+02  0.18218808634E+02  0.22214666432E+02  0.59301962535E+02  0.50000033752E+02 0.  0.
         12    1    1    2    0    0 -0.13831232502E+02 -0.18218808634E+02 -0.22214666432E+02  0.31886037465E+02  0.00000000000E+00 0. -1.
         11    1    3    3    0    0 -0.12173129534E+02 -0.39036475051E+01  0.15566362247E+01  0.12878146726E+02  0.51100000000E-03 0. -1.
        -11    1    3    3    0    0  0.27003820383E+02  0.24576183317E+02  0.13734509883E+02  0.39010663462E+02  0.51100000000E-03 0.  1.
        -12    1    3    3    0    0 -0.99945834774E+00 -0.24537271777E+01  0.69235203234E+01  0.74131523470E+01  0.00000000000E+00 0.  1.
</event>
<event>
 7    1  0.4673733E-013  0.5930196E+02  0.7816164E-02  0.1266605E+00
        -11   -1    0    0    0    0  0.00000000000E+00  0.00000000000E+00  0.45593999997E+02  0.45594000000E+02  0.51100000000E-03 0.  1.
         11   -1    0    0    0    0 -0.00000000000E+00 -0.00000000000E+00 -0.45593999997E+02  0.45594000000E+02  0.51100000000E-03 0. -1.
    9900012    2    1    2    0    0 -0.28359317696E+02 -0.21678597630E+01  0.14414204656E+02  0.59301955843E+02  0.50000021549E+02 0.  0.
         12    1    1    2    0    0  0.28359317696E+02  0.21678597630E+01 -0.14414204656E+02  0.31886044157E+02  0.00000000000E+00 0. -1.
         11    1    3    3    0    0 -0.24913639030E+02  0.54524818187E+01  0.12208143275E+02  0.28274683556E+02  0.51100000000E-03 0. -1.
        -11    1    3    3    0    0  0.11147602764E+02  0.28585000153E+01 -0.37437443636E+01  0.12101887945E+02  0.51100000000E-03 0.  1.
         12    1    3    3    0    0 -0.14593281429E+02 -0.10478841597E+02  0.59498057441E+01  0.18925384341E+02  0.00000000000E+00 0. -1.
</event>
<event>
 7    1  0.4673733E-013  0.5930193E+02  0.7816164E-02  0.1266605E+00
        -11   -1    0    0    0    0  0.00000000000E+00  0.00000000000E+00  0.45593999997E+02  0.45594000000E+02  0.51100000000E-03 0.  1.
         11   -1    0    0    0    0 -0.00000000000E+00 -0.00000000000E+00 -0.45593999997E+02  0.45594000000E+02  0.51100000000E-03 0. -1.
    9900012    2    1    2    0    0 -0.16354844827E+02 -0.23333268308E+02  0.14310801094E+02  0.59301931142E+02  0.49999976499E+02 0.  0.
         12    1    1    2    0    0  0.16354844827E+02  0.23333268308E+02 -0.14310801094E+02  0.31886068858E+02  0.00000000000E+00 0. -1.
         11    1    3    3    0    0  0.90014484304E-01 -0.27748925699E+02 -0.90603342659E+01  0.29190762877E+02  0.51100000000E-03 0. -1.
        -11    1    3    3    0    0 -0.13180065775E+02 -0.14910485443E+00  0.14332475963E+02  0.19471934510E+02  0.51100000000E-03 0.  1.
         12    1    3    3    0    0 -0.32647935365E+01  0.45647622452E+01  0.90386593970E+01  0.10639233755E+02  0.00000000000E+00 0. -1.
</event>
<event>
 7    1  0.4673733E-013  0.5930198E+02  0.7816164E-02  0.1266605E+00
        -11   -1    0    0    0    0  0.00000000000E+00  0.00000000000E+00  0.45593999997E+02  0.45594000000E+02  0.51100000000E-03 0.  1.
         11   -1    0    0    0    0 -0.00000000000E+00 -0.00000000000E+00 -0.45593999997E+02  0.45594000000E+02  0.51100000000E-03 0. -1.
    9900012    2    1    2    0    0  0.23587203799E+02  0.31900294124E+01  0.21217575061E+02  0.59301984850E+02  0.50000074449E+02 0.  0.
         12    1    1    2    0    0 -0.23587203799E+02 -0.31900294124E+01 -0.21217575061E+02  0.31886015150E+02  0.00000000000E+00 0. -1.
         11    1    3    3    0    0  0.21631617905E+02  0.46393876167E+01 -0.23463825803E+01  0.22247613852E+02  0.51100000000E-03 0.  1.
        -11    1    3    3    0    0 -0.88363729890E+01  0.87006373755E+01  0.16502064857E+02  0.20642207322E+02  0.51100000000E-03 0. -1.
        -12    1    3    3    0    0  0.10791958883E+02 -0.10149995580E+02  0.70618927847E+01  0.16412163675E+02  0.00000000000E+00 0.  1.
</event>
<event>
 7    1  0.4673733E-013  0.5930195E+02  0.7816164E-02  0.1266605E+00
        -11   -1    0    0    0    0  0.00000000000E+00  0.00000000000E+00  0.45593999997E+02  0.45594000000E+02  0.51100000000E-03 0.  1.
         11   -1    0    0    0    0 -0.00000000000E+00 -0.00000000000E+00 -0.45593999997E+02  0.45594000000E+02  0.51100000000E-03 0. -1.
    9900012    2    1    2    0    0 -0.84559985202E+01  0.10873784663E+02  0.28757204876E+02  0.59301953896E+02  0.50000017998E+02 0.  0.
         12    1    1    2    0    0  0.84559985202E+01 -0.10873784663E+02 -0.28757204876E+02  0.31886046104E+02  0.00000000000E+00 0. -1.
         11    1    3    3    0    0  0.41410828837E+01  0.10372357506E+02  0.23230906092E+01  0.11407502703E+02  0.51100000000E-03 0. -1.
        -11    1    3    3    0    0 -0.25768154760E+02  0.32809574074E+01  0.13713991587E+02  0.29374070994E+02  0.51100000000E-03 0.  1.
        -12    1    3    3    0    0  0.13171073356E+02 -0.27795302502E+01  0.12720122679E+02  0.18520380199E+02  0.00000000000E+00 0.  1.
</event>
<event>
 7    1  0.4673733E-013  0.5930190E+02  0.7816164E-02  0.1266605E+00
        -11   -1    0    0    0    0  0.00000000000E+00  0.00000000000E+00  0.45593999997E+02  0.45594000000E+02  0.51100000000E-03 0. -1.
         11   -1    0    0    0    0 -0.00000000000E+00 -0.00000000000E+00 -0.45593999997E+02  0.45594000000E+02  0.51100000000E-03 0.  1.
    9900012    2    1    2    0    0 -0.50886641732E+01  0.27112029278E+02 -0.15992714298E+02  0.59301897303E+02  0.49999914784E+02 0.  0.
         12    1    1    2    0    0  0.50886641732E+01 -0.27112029278E+02  0.15992714298E+02  0.31886102697E+02  0.00000000000E+00 0. -1.
         11    1    3    3    0    0 -0.62810669434E+01  0.36994720290E+02 -0.18867382071E+02  0.42000467114E+02  0.51100000000E-03 0.  1.
        -11    1    3    3    0    0 -0.94224795387E+00 -0.93853001703E+01  0.75864536109E+01  0.12104791165E+02  0.51100000000E-03 0. -1.
         12    1    3    3    0    0  0.21346507241E+01 -0.49739084221E+00 -0.47117858377E+01  0.51966390239E+01  0.00000000000E+00 0. -1.
</event>
<event>
 7    1  0.4673733E-013  0.5930206E+02  0.7816164E-02  0.1266604E+00
        -11   -1    0    0    0    0  0.00000000000E+00  0.00000000000E+00  0.45593999997E+02  0.45594000000E+02  0.51100000000E-03 0.  1.
         11   -1    0    0    0    0 -0.00000000000E+00 -0.00000000000E+00 -0.45593999997E+02  0.45594000000E+02  0.51100000000E-03 0. -1.
    9900012    2    1    2    0    0  0.23356598400E+02 -0.21439847059E+02  0.33934490136E+01  0.59302059102E+02  0.50000209867E+02 0.  0.
         12    1    1    2    0    0 -0.23356598400E+02  0.21439847059E+02 -0.33934490136E+01  0.31885940898E+02  0.00000000000E+00 0. -1.
         11    1    3    3    0    0  0.30207706709E+01  0.99351814859E+01  0.87509134327E+01  0.13579814902E+02  0.51100000000E-03 0. -1.
        -11    1    3    3    0    0  0.23842950235E+02 -0.13968224339E+02 -0.38791047748E+01  0.27904211532E+02  0.51100000000E-03 0.  1.
         12    1    3    3    0    0 -0.35071225055E+01 -0.17406804206E+02 -0.14783596442E+01  0.17818032668E+02  0.00000000000E+00 0. -1.
</event>
<event>
 7    1  0.4673733E-013  0.5930205E+02  0.7816164E-02  0.1266604E+00
        -11   -1    0    0    0    0  0.00000000000E+00  0.00000000000E+00  0.45593999997E+02  0.45594000000E+02  0.51100000000E-03 0. -1.
         11   -1    0    0    0    0 -0.00000000000E+00 -0.00000000000E+00 -0.45593999997E+02  0.45594000000E+02  0.51100000000E-03 0.  1.
    9900012    2    1    2    0    0  0.14414244746E+02 -0.22940957800E+02 -0.16812370217E+02  0.59302050293E+02  0.50000193802E+02 0.  0.
         12    1    1    2    0    0 -0.14414244746E+02  0.22940957800E+02  0.16812370217E+02  0.31885949707E+02  0.00000000000E+00 0. -1.
         11    1    3    3    0    0  0.16068905436E+02  0.67202509402E+01 -0.11846404637E+02  0.21064396447E+02  0.51100000000E-03 0. -1.
        -11    1    3    3    0    0 -0.21242169576E+01 -0.33622799364E+02 -0.30959441523E+01  0.33831786905E+02  0.51100000000E-03 0.  1.
        -12    1    3    3    0    0  0.46955626753E+00  0.39615906234E+01 -0.18700214281E+01  0.44058669405E+01  0.00000000000E+00 0.  1.
</event>
<event>
 7    1  0.4673733E-013  0.5930197E+02  0.7816164E-02  0.1266605E+00
        -11   -1    0    0    0    0  0.00000000000E+00  0.00000000000E+00  0.45593999997E+02  0.45594000000E+02  0.51100000000E-03 0.  1.
         11   -1    0    0    0    0 -0.00000000000E+00 -0.00000000000E+00 -0.45593999997E+02  0.45594000000E+02  0.51100000000E-03 0. -1.
    9900012    2    1    2    0    0  0.68214250912E+01 -0.24492187828E+02  0.19243701238E+02  0.59301966346E+02  0.50000040702E+02 0.  0.
         12    1    1    2    0    0 -0.68214250912E+01  0.24492187828E+02 -0.19243701238E+02  0.31886033654E+02  0.00000000000E+00 0. -1.
         11    1    3    3    0    0  0.42403225558E+01 -0.24402750271E+02  0.33104786012E+02  0.41344907949E+02  0.51100000000E-03 0.  1.
        -11    1    3    3    0    0 -0.66350564362E+00  0.47680216578E+01 -0.95577909998E+01  0.10701665259E+02  0.51100000000E-03 0. -1.
        -12    1    3    3    0    0  0.32446081790E+01 -0.48574592151E+01 -0.43032937746E+01  0.72553931369E+01  0.00000000000E+00 0.  1.
</event>
<event>
 7    1  0.4673733E-013  0.5930195E+02  0.7816164E-02  0.1266605E+00
        -11   -1    0    0    0    0  0.00000000000E+00  0.00000000000E+00  0.45593999997E+02  0.45594000000E+02  0.51100000000E-03 0. -1.
         11   -1    0    0    0    0 -0.00000000000E+00 -0.00000000000E+00 -0.45593999997E+02  0.45594000000E+02  0.51100000000E-03 0.  1.
    9900012    2    1    2    0    0  0.47283127491E+01  0.24210573436E+02 -0.20204247118E+02  0.59301946479E+02  0.50000004470E+02 0.  0.
         12    1    1    2    0    0 -0.47283127491E+01 -0.24210573436E+02  0.20204247118E+02  0.31886053521E+02  0.00000000000E+00 0. -1.
         11    1    3    3    0    0 -0.15171923938E+02  0.72399045189E+01 -0.22891009484E+02  0.28400736062E+02  0.51100000000E-03 0. -1.
        -11    1    3    3    0    0  0.78742927150E+01  0.15616014125E+01 -0.54774059598E+01  0.97182848817E+01  0.51100000000E-03 0.  1.
         12    1    3    3    0    0  0.12025943972E+02  0.15409067504E+02  0.81641683251E+01  0.21182925535E+02  0.00000000000E+00 0. -1.
</event>
<event>
 7    1  0.4673733E-013  0.5930187E+02  0.7816164E-02  0.1266605E+00
        -11   -1    0    0    0    0  0.00000000000E+00  0.00000000000E+00  0.45593999997E+02  0.45594000000E+02  0.51100000000E-03 0.  1.
         11   -1    0    0    0    0 -0.00000000000E+00 -0.00000000000E+00 -0.45593999997E+02  0.45594000000E+02  0.51100000000E-03 0. -1.
    9900012    2    1    2    0    0 -0.36187557976E+01 -0.82253877750E+01  0.30593676461E+02  0.59301867638E+02  0.49999860684E+02 0.  0.
         12    1    1    2    0    0  0.36187557976E+01  0.82253877750E+01 -0.30593676461E+02  0.31886132362E+02  0.00000000000E+00 0. -1.
         11    1    3    3    0    0 -0.15564848401E+02  0.61689501159E+01  0.17057340681E+02  0.23901324705E+02  0.51100000000E-03 0. -1.
        -11    1    3    3    0    0  0.18871558234E+02 -0.35052165154E+01  0.11387266223E+02  0.22317976729E+02  0.51100000000E-03 0.  1.
        -12    1    3    3    0    0 -0.69254656301E+01 -0.10889121375E+02  0.21490695572E+01  0.13082566204E+02  0.00000000000E+00 0.  1.
</event>
<event>
 7    1  0.4673733E-013  0.5930195E+02  0.7816164E-02  0.1266605E+00
        -11   -1    0    0    0    0  0.00000000000E+00  0.00000000000E+00  0.45593999997E+02  0.45594000000E+02  0.51100000000E-03 0.  1.
         11   -1    0    0    0    0 -0.00000000000E+00 -0.00000000000E+00 -0.45593999997E+02  0.45594000000E+02  0.51100000000E-03 0. -1.
    9900012    2    1    2    0    0 -0.17401747532E+02  0.21768875114E+02  0.15492433038E+02  0.59301949408E+02  0.50000009812E+02 0.  0.
         12    1    1    2    0    0  0.17401747532E+02 -0.21768875114E+02 -0.15492433038E+02  0.31886050592E+02  0.00000000000E+00 0. -1.
         11    1    3    3    0    0  0.54340662778E+01  0.26976250830E+02  0.10503231136E+02  0.29454457213E+02  0.51100000000E-03 0. -1.
        -11    1    3    3    0    0 -0.87303003799E+01 -0.98665196216E+01  0.68966755371E+01  0.14870456882E+02  0.51100000000E-03 0.  1.
         12    1    3    3    0    0 -0.14105513430E+02  0.46591439059E+01 -0.19074736352E+01  0.14977035312E+02  0.00000000000E+00 0. -1.
</event>
<event>
 7    1  0.4673733E-013  0.5930196E+02  0.7816164E-02  0.1266605E+00
        -11   -1    0    0    0    0  0.00000000000E+00  0.00000000000E+00  0.45593999997E+02  0.45594000000E+02  0.51100000000E-03 0.  1.
         11   -1    0    0    0    0 -0.00000000000E+00 -0.00000000000E+00 -0.45593999997E+02  0.45594000000E+02  0.51100000000E-03 0. -1.
    9900012    2    1    2    0    0  0.69106869082E+01  0.46194539685E+01  0.30783482089E+02  0.59301957317E+02  0.50000024236E+02 0.  0.
         12    1    1    2    0    0 -0.69106869082E+01 -0.46194539685E+01 -0.30783482089E+02  0.31886042683E+02  0.00000000000E+00 0. -1.
         11    1    3    3    0    0  0.18847337139E+01  0.26865481920E+02  0.18242567108E+02  0.32528412118E+02  0.51100000000E-03 0. -1.
        -11    1    3    3    0    0  0.29564959131E+01 -0.15339868199E+02  0.11694549979E+02  0.19514479853E+02  0.51100000000E-03 0.  1.
         12    1    3    3    0    0  0.20694572812E+01 -0.69061597531E+01  0.84636500144E+00  0.72590653455E+01  0.00000000000E+00 0. -1.
</event>
<event>
 7    1  0.4673733E-013  0.5930196E+02  0.7816164E-02  0.1266605E+00
        -11   -1    0    0    0    0  0.00000000000E+00  0.00000000000E+00  0.45593999997E+02  0.45594000000E+02  0.51100000000E-03 0. -1.
         11   -1    0    0    0    0 -0.00000000000E+00 -0.00000000000E+00 -0.45593999997E+02  0.45594000000E+02  0.51100000000E-03 0.  1.
    9900012    2    1    2    0    0 -0.39926781172E+01 -0.35111098935E+01 -0.31439630666E+02  0.59301956852E+02  0.50000023389E+02 0.  0.
         12    1    1    2    0    0  0.39926781172E+01  0.35111098935E+01  0.31439630666E+02  0.31886043148E+02  0.00000000000E+00 0. -1.
         11    1    3    3    0    0  0.14183500304E+02 -0.18798370408E+02 -0.12657745079E+02  0.26735162644E+02  0.51100000000E-03 0. -1.
        -11    1    3    3    0    0 -0.70044819499E+01  0.63793820896E+01 -0.15075855976E+02  0.17805637223E+02  0.51100000000E-03 0.  1.
         12    1    3    3    0    0 -0.11171696471E+02  0.89078784249E+01 -0.37060296105E+01  0.14761156985E+02  0.00000000000E+00 0. -1.
</event>
<event>
 7    1  0.4673733E-013  0.5930195E+02  0.7816164E-02  0.1266605E+00
        -11   -1    0    0    0    0  0.00000000000E+00  0.00000000000E+00  0.45593999997E+02  0.45594000000E+02  0.51100000000E-03 0.  1.
         11   -1    0    0    0    0 -0.00000000000E+00 -0.00000000000E+00 -0.45593999997E+02  0.45594000000E+02  0.51100000000E-03 0. -1.
    9900012    2    1    2    0    0 -0.38567456193E+01 -0.25550785277E+02  0.18681632317E+02  0.59301945038E+02  0.50000001842E+02 0.  0.
         12    1    1    2    0    0  0.38567456193E+01  0.25550785277E+02 -0.18681632317E+02  0.31886054962E+02  0.00000000000E+00 0. -1.
         11    1    3    3    0    0 -0.47631726607E+01  0.76472086983E+01  0.53616570724E-02  0.90093087237E+01  0.51100000000E-03 0. -1.
        -11    1    3    3    0    0  0.11776765652E+02 -0.25112220752E+02  0.23041760814E+02  0.36058821139E+02  0.51100000000E-03 0.  1.
        -12    1    3    3    0    0 -0.10870338610E+02 -0.80857732239E+01 -0.43654901547E+01  0.14233815174E+02  0.00000000000E+00 0.  1.
</event>
<event>
 7    1  0.4673733E-013  0.5930194E+02  0.7816164E-02  0.1266605E+00
        -11   -1    0    0    0    0  0.00000000000E+00  0.00000000000E+00  0.45593999997E+02  0.45594000000E+02  0.51100000000E-03 0.  1.
         11   -1    0    0    0    0 -0.00000000000E+00 -0.00000000000E+00 -0.45593999997E+02  0.45594000000E+02  0.51100000000E-03 0. -1.
    9900012    2    1    2    0    0  0.19005442715E+01 -0.27590234937E+02  0.15870965657E+02  0.59301942180E+02  0.49999996631E+02 0.  0.
         12    1    1    2    0    0 -0.19005442715E+01  0.27590234937E+02 -0.15870965657E+02  0.31886057820E+02  0.00000000000E+00 0. -1.
         11    1    3    3    0    0  0.17213409696E+02 -0.18050087112E+02  0.15264470663E+02  0.29242284161E+02  0.51100000000E-03 0. -1.
        -11    1    3    3    0    0 -0.12431081950E+02 -0.11818974262E+02 -0.92873093983E+01  0.19505744466E+02  0.51100000000E-03 0.  1.
        -12    1    3    3    0    0 -0.28817834745E+01  0.22788264373E+01  0.98938043930E+01  0.10553913553E+02  0.00000000000E+00 0.  1.
</event>
<event>
 7    1  0.4673733E-013  0.5930180E+02  0.7816164E-02  0.1266605E+00
        -11   -1    0    0    0    0  0.00000000000E+00  0.00000000000E+00  0.45593999997E+02  0.45594000000E+02  0.51100000000E-03 0. -1.
         11   -1    0    0    0    0 -0.00000000000E+00 -0.00000000000E+00 -0.45593999997E+02  0.45594000000E+02  0.51100000000E-03 0.  1.
    9900012    2    1    2    0    0 -0.12341681336E+01 -0.31504934031E+02 -0.47587540375E+01  0.59301799548E+02  0.49999736503E+02 0.  0.
         12    1    1    2    0    0  0.12341681336E+01  0.31504934031E+02  0.47587540375E+01  0.31886200452E+02  0.00000000000E+00 0. -1.
         11    1    3    3    0    0 -0.10104137603E+02  0.54773032464E+01 -0.38781902773E+00  0.11499776146E+02  0.51100000000E-03 0. -1.
        -11    1    3    3    0    0  0.73422273430E+01 -0.33161413199E+02 -0.14453608535E+02  0.36911982169E+02  0.51100000000E-03 0.  1.
        -12    1    3    3    0    0  0.15277421265E+01 -0.38208240782E+01  0.10082673525E+02  0.10890041233E+02  0.00000000000E+00 0.  1.
</event>
<event>
 7    1  0.4673733E-013  0.5930196E+02  0.7816164E-02  0.1266605E+00
        -11   -1    0    0    0    0  0.00000000000E+00  0.00000000000E+00  0.45593999997E+02  0.45594000000E+02  0.51100000000E-03 0. -1.
         11   -1    0    0    0    0 -0.00000000000E+00 -0.00000000000E+00 -0.45593999997E+02  0.45594000000E+02  0.51100000000E-03 0.  1.
    9900012    2    1    2    0    0  0.13092036111E+02 -0.28823006616E+02  0.38147983021E+01  0.59301955937E+02  0.50000021719E+02 0.  0.
         12    1    1    2    0    0 -0.13092036111E+02  0.28823006616E+02 -0.38147983021E+01  0.31886044063E+02  0.00000000000E+00 0. -1.
         11    1    3    3    0    0  0.20242335317E+01  0.90320131660E+01 -0.10000874260E+00  0.92566076524E+01  0.51100000000E-03 0. -1.
        -11    1    3    3    0    0  0.39326168041E+01 -0.25225125759E+02 -0.12257987630E+02  0.28320146636E+02  0.51100000000E-03 0.  1.
        -12    1    3    3    0    0  0.71351857748E+01 -0.12629894023E+02  0.16172794674E+02  0.21725201648E+02  0.00000000000E+00 0.  1.
</event>
<event>
 7    1  0.4673733E-013  0.5930196E+02  0.7816164E-02  0.1266605E+00
        -11   -1    0    0    0    0  0.00000000000E+00  0.00000000000E+00  0.45593999997E+02  0.45594000000E+02  0.51100000000E-03 0.  1.
         11   -1    0    0    0    0 -0.00000000000E+00 -0.00000000000E+00 -0.45593999997E+02  0.45594000000E+02  0.51100000000E-03 0. -1.
    9900012    2    1    2    0    0  0.29328200185E+02 -0.11870908935E+02  0.39569649205E+01  0.59301962673E+02  0.50000034004E+02 0.  0.
         12    1    1    2    0    0 -0.29328200185E+02  0.11870908935E+02 -0.39569649205E+01  0.31886037327E+02  0.00000000000E+00 0. -1.
         11    1    3    3    0    0  0.51812400971E+00  0.14437989982E+02  0.75360499388E+01  0.16294663426E+02  0.51100000000E-03 0. -1.
        -11    1    3    3    0    0  0.30844359642E+02 -0.26336002026E+02 -0.23407421557E+01  0.40625590439E+02  0.51100000000E-03 0.  1.
        -12    1    3    3    0    0 -0.20342834660E+01  0.27103108630E-01 -0.12383428626E+01  0.23817088076E+01  0.00000000000E+00 0.  1.
</event>
<event>
 7    1  0.4673733E-013  0.5930188E+02  0.7816164E-02  0.1266605E+00
        -11   -1    0    0    0    0  0.00000000000E+00  0.00000000000E+00  0.45593999997E+02  0.45594000000E+02  0.51100000000E-03 0.  1.
         11   -1    0    0    0    0 -0.00000000000E+00 -0.00000000000E+00 -0.45593999997E+02  0.45594000000E+02  0.51100000000E-03 0. -1.
    9900012    2    1    2    0    0  0.79280192878E+01 -0.13440045352E+02  0.27807129256E+02  0.59301878468E+02  0.49999880434E+02 0.  0.
         12    1    1    2    0    0 -0.79280192878E+01  0.13440045352E+02 -0.27807129256E+02  0.31886121532E+02  0.00000000000E+00 0. -1.
         11    1    3    3    0    0 -0.25647364581E+01 -0.13031718912E+02 -0.72403957157E+01  0.15127025527E+02  0.51100000000E-03 0. -1.
        -11    1    3    3    0    0  0.17234344788E+02 -0.58402242287E+01  0.22668669368E+02  0.29068873911E+02  0.51100000000E-03 0.  1.
         12    1    3    3    0    0 -0.67415890416E+01  0.54318977888E+01  0.12378855604E+02  0.15105979030E+02  0.00000000000E+00 0. -1.
</event>
<event>
 7    1  0.4673733E-013  0.5930196E+02  0.7816164E-02  0.1266605E+00
        -11   -1    0    0    0    0  0.00000000000E+00  0.00000000000E+00  0.45593999997E+02  0.45594000000E+02  0.51100000000E-03 0. -1.
         11   -1    0    0    0    0 -0.00000000000E+00 -0.00000000000E+00 -0.45593999997E+02  0.45594000000E+02  0.51100000000E-03 0.  1.
    9900012    2    1    2    0    0  0.21679511670E+02  0.57770104496E+01 -0.22657113261E+02  0.59301955133E+02  0.50000020253E+02 0.  0.
         12    1    1    2    0    0 -0.21679511670E+02 -0.57770104496E+01  0.22657113261E+02  0.31886044867E+02  0.00000000000E+00 0. -1.
         11    1    3    3    0    0  0.39733291567E+01  0.50642145884E+01 -0.23537575463E+01  0.68537426880E+01  0.51100000000E-03 0. -1.
        -11    1    3    3    0    0  0.12393848890E+02 -0.21726723408E+02 -0.13405000747E+02  0.28378725229E+02  0.51100000000E-03 0.  1.
        -12    1    3    3    0    0  0.53123336234E+01  0.22439519269E+02 -0.68983549669E+01  0.24069487215E+02  0.00000000000E+00 0.  1.
</event>
<event>
 7    1  0.4673733E-013  0.5930194E+02  0.7816164E-02  0.1266605E+00
        -11   -1    0    0    0    0  0.00000000000E+00  0.00000000000E+00  0.45593999997E+02  0.45594000000E+02  0.51100000000E-03 0. -1.
         11   -1    0    0    0    0 -0.00000000000E+00 -0.00000000000E+00 -0.45593999997E+02  0.45594000000E+02  0.51100000000E-03 0.  1.
    9900012    2    1    2    0    0 -0.20603140552E+02  0.11376966763E+02 -0.21512698412E+02  0.59301937743E+02  0.49999988537E+02 0.  0.
         12    1    1    2    0    0  0.20603140552E+02 -0.11376966763E+02  0.21512698412E+02  0.31886062257E+02  0.00000000000E+00 0. -1.
         11    1    3    3    0    0 -0.14282309267E+02  0.10273701976E+02  0.90305393784E+01  0.19775842637E+02  0.51100000000E-03 0. -1.
        -11    1    3    3    0    0 -0.77825447756E+01 -0.87777223638E+01 -0.63218927596E+01  0.13326017462E+02  0.51100000000E-03 0.  1.
         12    1    3    3    0    0  0.14617134911E+01  0.98809871514E+01 -0.24221345030E+02  0.26200077643E+02  0.00000000000E+00 0. -1.
</event>
<event>
 7    1  0.4673733E-013  0.5930196E+02  0.7816164E-02  0.1266605E+00
        -11   -1    0    0    0    0  0.00000000000E+00  0.00000000000E+00  0.45593999997E+02  0.45594000000E+02  0.51100000000E-03 0. -1.
         11   -1    0    0    0    0 -0.00000000000E+00 -0.00000000000E+00 -0.45593999997E+02  0.45594000000E+02  0.51100000000E-03 0.  1.
    9900012    2    1    2    0    0 -0.10970131232E+02  0.99995048180E+01 -0.28220309787E+02  0.59301956653E+02  0.50000023026E+02 0.  0.
         12    1    1    2    0    0  0.10970131232E+02 -0.99995048180E+01  0.28220309787E+02  0.31886043347E+02  0.00000000000E+00 0. -1.
         11    1    3    3    0    0 -0.96083784891E+01  0.22823386425E+02 -0.64814734945E+01  0.25597605435E+02  0.51100000000E-03 0. -1.
        -11    1    3    3    0    0  0.42975378128E+01 -0.62187971925E+01 -0.23624419497E+02  0.24804343704E+02  0.51100000000E-03 0.  1.
        -12    1    3    3    0    0 -0.56592905562E+01 -0.66050844144E+01  0.18855832047E+01  0.89000075137E+01  0.00000000000E+00 0.  1.
</event>
<event>
 7    1  0.4673733E-013  0.5930194E+02  0.7816164E-02  0.1266605E+00
        -11   -1    0    0    0    0  0.00000000000E+00  0.00000000000E+00  0.45593999997E+02  0.45594000000E+02  0.51100000000E-03 0. -1.
         11   -1    0    0    0    0 -0.00000000000E+00 -0.00000000000E+00 -0.45593999997E+02  0.45594000000E+02  0.51100000000E-03 0.  1.
    9900012    2    1    2    0    0  0.13552031549E+02 -0.19117600924E+02  0.21623609985E+02  0.59301941401E+02  0.49999995209E+02 0.  0.
         12    1    1    2    0    0 -0.13552031549E+02  0.19117600924E+02 -0.21623609985E+02  0.31886058599E+02  0.00000000000E+00 0. -1.
         11    1    3    3    0    0  0.14260701420E+01  0.54801329259E+01 -0.12566605337E+02  0.13783508366E+02  0.51100000000E-03 0. -1.
        -11    1    3    3    0    0  0.11825576568E+02 -0.14651680694E+02  0.15677817071E+02  0.24501223575E+02  0.51100000000E-03 0.  1.
         12    1    3    3    0    0  0.30038483851E+00 -0.99460531564E+01  0.18512398251E+02  0.21017209459E+02  0.00000000000E+00 0. -1.
</event>
<event>
 7    1  0.4673733E-013  0.5930197E+02  0.7816164E-02  0.1266605E+00
        -11   -1    0    0    0    0  0.00000000000E+00  0.00000000000E+00  0.45593999997E+02  0.45594000000E+02  0.51100000000E-03 0.  1.
         11   -1    0    0    0    0 -0.00000000000E+00 -0.00000000000E+00 -0.45593999997E+02  0.45594000000E+02  0.51100000000E-03 0. -1.
    9900012    2    1    2    0    0  0.27989936410E+02  0.86573835368E+01  0.12583008980E+02  0.59301969440E+02  0.50000046345E+02 0.  0.
         12    1    1    2    0    0 -0.27989936410E+02 -0.86573835368E+01 -0.12583008980E+02  0.31886030560E+02  0.00000000000E+00 0. -1.
         11    1    3    3    0    0 -0.39010001658E+01 -0.17707848277E+01 -0.13102806746E+02  0.13785391764E+02  0.51100000000E-03 0. -1.
        -11    1    3    3    0    0  0.14537363016E+02  0.75597614765E+01  0.22189074352E+02  0.27583327172E+02  0.51100000000E-03 0.  1.
         12    1    3    3    0    0  0.17353573560E+02  0.28684068880E+01  0.34967413740E+01  0.17933250503E+02  0.00000000000E+00 0. -1.
</event>
<event>
 7    1  0.4673733E-013  0.5930192E+02  0.7816164E-02  0.1266605E+00
        -11   -1    0    0    0    0  0.00000000000E+00  0.00000000000E+00  0.45593999997E+02  0.45594000000E+02  0.51100000000E-03 0.  1.
         11   -1    0    0    0    0 -0.00000000000E+00 -0.00000000000E+00 -0.45593999997E+02  0.45594000000E+02  0.51100000000E-03 0. -1.
    9900012    2    1    2    0    0  0.36107702092E+01  0.27166492541E+02  0.16299264324E+02  0.59301921596E+02  0.49999959090E+02 0.  0.
         12    1    1    2    0    0 -0.36107702092E+01 -0.27166492541E+02 -0.16299264324E+02  0.31886078404E+02  0.00000000000E+00 0. -1.
         11    1    3    3    0    0 -0.36716182139E+01 -0.93376098134E+01  0.90656772600E+01  0.13522508709E+02  0.51100000000E-03 0. -1.
        -11    1    3    3    0    0 -0.61490466074E+01  0.19323157173E+02 -0.48466439075E+01  0.20849103931E+02  0.51100000000E-03 0.  1.
         12    1    3    3    0    0  0.13431435030E+02  0.17180945182E+02  0.12080230971E+02  0.24930308956E+02  0.00000000000E+00 0. -1.
</event>
<event>
 7    1  0.4673733E-013  0.5930158E+02  0.7816164E-02  0.1266606E+00
        -11   -1    0    0    0    0  0.00000000000E+00  0.00000000000E+00  0.45593999997E+02  0.45594000000E+02  0.51100000000E-03 0.  1.
         11   -1    0    0    0    0 -0.00000000000E+00 -0.00000000000E+00 -0.45593999997E+02  0.45594000000E+02  0.51100000000E-03 0. -1.
    9900012    2    1    2    0    0  0.24739609429E+02 -0.19995883655E+02 -0.22046297425E+01  0.59301576085E+02  0.49999328956E+02 0.  0.
         12    1    1    2    0    0 -0.24739609429E+02  0.19995883655E+02  0.22046297425E+01  0.31886423915E+02  0.00000000000E+00 0. -1.
         11    1    3    3    0    0  0.27180476903E+02 -0.36121413411E+01 -0.72466561424E+00  0.27429018033E+02  0.51100000000E-03 0. -1.
        -11    1    3    3    0    0 -0.28086486091E+01 -0.13489448187E+02  0.11882855182E+02  0.18194943444E+02  0.51100000000E-03 0.  1.
         12    1    3    3    0    0  0.36778113493E+00 -0.28942941266E+01 -0.13362819310E+02  0.13677614608E+02  0.00000000000E+00 0. -1.
</event>
<event>
 7    1  0.4673733E-013  0.5930193E+02  0.7816164E-02  0.1266605E+00
        -11   -1    0    0    0    0  0.00000000000E+00  0.00000000000E+00  0.45593999997E+02  0.45594000000E+02  0.51100000000E-03 0. -1.
         11   -1    0    0    0    0 -0.00000000000E+00 -0.00000000000E+00 -0.45593999997E+02  0.45594000000E+02  0.51100000000E-03 0.  1.
    9900012    2    1    2    0    0 -0.41801276934E+01 -0.25601019019E+02 -0.18542808767E+02  0.59301930952E+02  0.49999976153E+02 0.  0.
         12    1    1    2    0    0  0.41801276934E+01  0.25601019019E+02  0.18542808767E+02  0.31886069048E+02  0.00000000000E+00 0. -1.
         11    1    3    3    0    0 -0.16007184704E+02  0.81675440213E+01 -0.59757428233E+01  0.18938010456E+02  0.51100000000E-03 0. -1.
        -11    1    3    3    0    0  0.11370253411E+02 -0.27715913572E+02 -0.15378905357E+02  0.33674400633E+02  0.51100000000E-03 0.  1.
         12    1    3    3    0    0  0.45680359961E+00 -0.60526494686E+01  0.28118394123E+01  0.66895198631E+01  0.00000000000E+00 0. -1.
</event>
<event>
 7    1  0.4673733E-013  0.5930195E+02  0.7816164E-02  0.1266605E+00
        -11   -1    0    0    0    0  0.00000000000E+00  0.00000000000E+00  0.45593999997E+02  0.45594000000E+02  0.51100000000E-03 0.  1.
         11   -1    0    0    0    0 -0.00000000000E+00 -0.00000000000E+00 -0.45593999997E+02  0.45594000000E+02  0.51100000000E-03 0. -1.
    9900012    2    1    2    0    0  0.15960433595E+02  0.26918541890E+02  0.61136723768E+01  0.59301947752E+02  0.50000006792E+02 0.  0.
         12    1    1    2    0    0 -0.15960433595E+02 -0.26918541890E+02 -0.61136723768E+01  0.31886052248E+02  0.00000000000E+00 0. -1.
         11    1    3    3    0    0  0.24701083038E+02 -0.12819775176E+01  0.45008370233E+01  0.25140495297E+02  0.51100000000E-03 0. -1.
        -11    1    3    3    0    0 -0.13402641424E+02  0.15909194238E+02 -0.69891537090E+00  0.20813979471E+02  0.51100000000E-03 0.  1.
        -12    1    3    3    0    0  0.46619919812E+01  0.12291325170E+02  0.23117507244E+01  0.13347472985E+02  0.00000000000E+00 0.  1.
</event>
<event>
 7    1  0.4673733E-013  0.5930194E+02  0.7816164E-02  0.1266605E+00
        -11   -1    0    0    0    0  0.00000000000E+00  0.00000000000E+00  0.45593999997E+02  0.45594000000E+02  0.51100000000E-03 0.  1.
         11   -1    0    0    0    0 -0.00000000000E+00 -0.00000000000E+00 -0.45593999997E+02  0.45594000000E+02  0.51100000000E-03 0. -1.
    9900012    2    1    2    0    0 -0.95349260471E+01 -0.92857774046E+00  0.30412887547E+02  0.59301940345E+02  0.49999993284E+02 0.  0.
         12    1    1    2    0    0  0.95349260471E+01  0.92857774046E+00 -0.30412887547E+02  0.31886059655E+02  0.00000000000E+00 0. -1.
         11    1    3    3    0    0 -0.15585968409E+02  0.14533625166E+02  0.10816713285E+02  0.23898743864E+02  0.51100000000E-03 0. -1.
        -11    1    3    3    0    0  0.13747834734E+02 -0.14587345007E+02  0.82754136420E+01  0.21685849428E+02  0.51100000000E-03 0.  1.
         12    1    3    3    0    0 -0.76967923720E+01 -0.87485789938E+00  0.11320760620E+02  0.13717347053E+02  0.00000000000E+00 0. -1.
</event>
<event>
 7    1  0.4673733E-013  0.5930230E+02  0.7816164E-02  0.1266604E+00
        -11   -1    0    0    0    0  0.00000000000E+00  0.00000000000E+00  0.45593999997E+02  0.45594000000E+02  0.51100000000E-03 0.  1.
         11   -1    0    0    0    0 -0.00000000000E+00 -0.00000000000E+00 -0.45593999997E+02  0.45594000000E+02  0.51100000000E-03 0. -1.
    9900012    2    1    2    0    0 -0.15398436427E+02 -0.16182606215E+02  0.22753226620E+02  0.59302299288E+02  0.50000647905E+02 0.  0.
         12    1    1    2    0    0  0.15398436427E+02  0.16182606215E+02 -0.22753226620E+02  0.31885700712E+02  0.00000000000E+00 0. -1.
         11    1    3    3    0    0 -0.25341791310E+02 -0.79941059652E+01  0.53260099217E+01  0.27101263788E+02  0.51100000000E-03 0. -1.
        -11    1    3    3    0    0  0.12625134962E+02  0.19981323762E+01  0.11783109815E+01  0.12836470810E+02  0.51100000000E-03 0.  1.
         12    1    3    3    0    0 -0.26817800799E+01 -0.10186632626E+02  0.16248905717E+02  0.19364564690E+02  0.00000000000E+00 0. -1.
</event>
<event>
 7    1  0.4673733E-013  0.5930194E+02  0.7816164E-02  0.1266605E+00
        -11   -1    0    0    0    0  0.00000000000E+00  0.00000000000E+00  0.45593999997E+02  0.45594000000E+02  0.51100000000E-03 0. -1.
         11   -1    0    0    0    0 -0.00000000000E+00 -0.00000000000E+00 -0.45593999997E+02  0.45594000000E+02  0.51100000000E-03 0.  1.
    9900012    2    1    2    0    0 -0.31389513328E-01  0.24497323985E+02 -0.20410797924E+02  0.59301944433E+02  0.50000000740E+02 0.  0.
         12    1    1    2    0    0  0.31389513328E-01 -0.24497323985E+02  0.20410797924E+02  0.31886055567E+02  0.00000000000E+00 0. -1.
         11    1    3    3    0    0 -0.38351841605E+01 -0.11009605155E+02  0.69996361566E+01  0.13598343642E+02  0.51100000000E-03 0. -1.
        -11    1    3    3    0    0 -0.23537758530E+01  0.72300093852E+01 -0.64493441054E+01  0.99703227695E+01  0.51100000000E-03 0.  1.
         12    1    3    3    0    0  0.61575705002E+01  0.28276919755E+02 -0.20961089975E+02  0.35733278022E+02  0.00000000000E+00 0. -1.
</event>
<event>
 7    1  0.4673733E-013  0.5930196E+02  0.7816164E-02  0.1266605E+00
        -11   -1    0    0    0    0  0.00000000000E+00  0.00000000000E+00  0.45593999997E+02  0.45594000000E+02  0.51100000000E-03 0.  1.
         11   -1    0    0    0    0 -0.00000000000E+00 -0.00000000000E+00 -0.45593999997E+02  0.45594000000E+02  0.51100000000E-03 0. -1.
    9900012    2    1    2    0    0  0.90734584166E+00  0.26158428753E+02  0.18210790454E+02  0.59301959790E+02  0.50000028747E+02 0.  0.
         12    1    1    2    0    0 -0.90734584166E+00 -0.26158428753E+02 -0.18210790454E+02  0.31886040210E+02  0.00000000000E+00 0. -1.
         11    1    3    3    0    0 -0.24495196214E+01  0.50008577712E+01 -0.74511922709E+00  0.56181783299E+01  0.51100000000E-03 0. -1.
        -11    1    3    3    0    0  0.15150159738E+02 -0.68749335850E+01  0.16076788903E+02  0.23135582845E+02  0.51100000000E-03 0.  1.
        -12    1    3    3    0    0 -0.11793294275E+02  0.28032504567E+02  0.28791207775E+01  0.30548198615E+02  0.00000000000E+00 0.  1.
</event>
<event>
 7    1  0.4673733E-013  0.5930196E+02  0.7816164E-02  0.1266605E+00
        -11   -1    0    0    0    0  0.00000000000E+00  0.00000000000E+00  0.45593999997E+02  0.45594000000E+02  0.51100000000E-03 0. -1.
         11   -1    0    0    0    0 -0.00000000000E+00 -0.00000000000E+00 -0.45593999997E+02  0.45594000000E+02  0.51100000000E-03 0.  1.
    9900012    2    1    2    0    0  0.21521565893E+02 -0.22959126755E+02 -0.51400878814E+01  0.59301955980E+02  0.50000021798E+02 0.  0.
         12    1    1    2    0    0 -0.21521565893E+02  0.22959126755E+02  0.51400878814E+01  0.31886044020E+02  0.00000000000E+00 0. -1.
         11    1    3    3    0    0  0.25583976125E+02 -0.16023813146E+02 -0.13756644508E+02  0.33174503621E+02  0.51100000000E-03 0. -1.
        -11    1    3    3    0    0 -0.94133728927E+01  0.22674606120E+01 -0.32238182538E+01  0.10205193346E+02  0.51100000000E-03 0.  1.
        -12    1    3    3    0    0  0.53509626599E+01 -0.92027742208E+01  0.11840374880E+02  0.15922259012E+02  0.00000000000E+00 0.  1.
</event>
<event>
 7    1  0.4673733E-013  0.5930195E+02  0.7816164E-02  0.1266605E+00
        -11   -1    0    0    0    0  0.00000000000E+00  0.00000000000E+00  0.45593999997E+02  0.45594000000E+02  0.51100000000E-03 0.  1.
         11   -1    0    0    0    0 -0.00000000000E+00 -0.00000000000E+00 -0.45593999997E+02  0.45594000000E+02  0.51100000000E-03 0. -1.
    9900012    2    1    2    0    0  0.13934911588E+02  0.27955836382E+02  0.64038544877E+01  0.59301954446E+02  0.50000019000E+02 0.  0.
         12    1    1    2    0    0 -0.13934911588E+02 -0.27955836382E+02 -0.64038544877E+01  0.31886045554E+02  0.00000000000E+00 0. -1.
         11    1    3    3    0    0 -0.19495855322E+01 -0.30494278919E+01 -0.44356724455E+01  0.57249527963E+01  0.51100000000E-03 0. -1.
        -11    1    3    3    0    0  0.23381955312E+02  0.31697617664E+02 -0.11660009655E+01  0.39405765547E+02  0.51100000000E-03 0.  1.
        -12    1    3    3    0    0 -0.74974581919E+01 -0.69235339071E+00  0.12005527899E+02  0.14171236103E+02  0.00000000000E+00 0.  1.
</event>
<event>
 7    1  0.4673733E-013  0.5930192E+02  0.7816164E-02  0.1266605E+00
        -11   -1    0    0    0    0  0.00000000000E+00  0.00000000000E+00  0.45593999997E+02  0.45594000000E+02  0.51100000000E-03 0.  1.
         11   -1    0    0    0    0 -0.00000000000E+00 -0.00000000000E+00 -0.45593999997E+02  0.45594000000E+02  0.51100000000E-03 0. -1.
    9900012    2    1    2    0    0  0.31815671251E+02  0.98145130010E+00  0.18767464779E+01  0.59301915870E+02  0.49999948647E+02 0.  0.
         12    1    1    2    0    0 -0.31815671251E+02 -0.98145130010E+00 -0.18767464779E+01  0.31886084130E+02  0.00000000000E+00 0. -1.
         11    1    3    3    0    0  0.31124430214E+02 -0.69258145563E+00  0.16389803780E+02  0.35182886371E+02  0.51100000000E-03 0. -1.
        -11    1    3    3    0    0 -0.85287558378E+01  0.25402705952E+01 -0.31044469831E+01  0.94249796907E+01  0.51100000000E-03 0.  1.
         12    1    3    3    0    0  0.92199968748E+01 -0.86623783948E+00 -0.11408610319E+02  0.14694049808E+02  0.00000000000E+00 0. -1.
</event>
<event>
 7    1  0.4673733E-013  0.5930196E+02  0.7816164E-02  0.1266605E+00
        -11   -1    0    0    0    0  0.00000000000E+00  0.00000000000E+00  0.45593999997E+02  0.45594000000E+02  0.51100000000E-03 0.  1.
         11   -1    0    0    0    0 -0.00000000000E+00 -0.00000000000E+00 -0.45593999997E+02  0.45594000000E+02  0.51100000000E-03 0. -1.
    9900012    2    1    2    0    0 -0.18960345117E+02  0.25589044036E+02 -0.15575283336E+01  0.59301956718E+02  0.50000023145E+02 0.  0.
         12    1    1    2    0    0  0.18960345117E+02 -0.25589044036E+02  0.15575283336E+01  0.31886043282E+02  0.00000000000E+00 0. -1.
         11    1    3    3    0    0 -0.77494969306E-01  0.16606364746E+01 -0.19067249613E+02  0.19139585341E+02  0.51100000000E-03 0. -1.
        -11    1    3    3    0    0 -0.65391911493E+01  0.66890926196E+01  0.16461406321E+02  0.18933644110E+02  0.51100000000E-03 0.  1.
        -12    1    3    3    0    0 -0.12343658998E+02  0.17239314942E+02  0.10483149581E+01  0.21228727267E+02  0.00000000000E+00 0.  1.
</event>
<event>
 7    1  0.4673733E-013  0.5930202E+02  0.7816164E-02  0.1266604E+00
        -11   -1    0    0    0    0  0.00000000000E+00  0.00000000000E+00  0.45593999997E+02  0.45594000000E+02  0.51100000000E-03 0.  1.
         11   -1    0    0    0    0 -0.00000000000E+00 -0.00000000000E+00 -0.45593999997E+02  0.45594000000E+02  0.51100000000E-03 0. -1.
    9900012    2    1    2    0    0 -0.13119188476E+02 -0.22730028256E+02  0.18109344154E+02  0.59302021318E+02  0.50000140959E+02 0.  0.
         12    1    1    2    0    0  0.13119188476E+02  0.22730028256E+02 -0.18109344154E+02  0.31885978682E+02  0.00000000000E+00 0. -1.
         11    1    3    3    0    0  0.50919495330E+01  0.49544253359E+01 -0.96360644428E+01  0.11971968036E+02  0.51100000000E-03 0. -1.
        -11    1    3    3    0    0 -0.28300562894E+01 -0.63671685449E+01  0.17988389158E+02  0.19290728308E+02  0.51100000000E-03 0.  1.
         12    1    3    3    0    0 -0.15381081720E+02 -0.21317285047E+02  0.97570194386E+01  0.28039324974E+02  0.00000000000E+00 0. -1.
</event>
<event>
 7    1  0.4673733E-013  0.5930196E+02  0.7816164E-02  0.1266605E+00
        -11   -1    0    0    0    0  0.00000000000E+00  0.00000000000E+00  0.45593999997E+02  0.45594000000E+02  0.51100000000E-03 0.  1.
         11   -1    0    0    0    0 -0.00000000000E+00 -0.00000000000E+00 -0.45593999997E+02  0.45594000000E+02  0.51100000000E-03 0. -1.
    9900012    2    1    2    0    0  0.21521618248E+02  0.57773524686E+01  0.22807054268E+02  0.59301959513E+02  0.50000028241E+02 0.  0.
         12    1    1    2    0    0 -0.21521618248E+02 -0.57773524686E+01 -0.22807054268E+02  0.31886040487E+02  0.00000000000E+00 0. -1.
         11    1    3    3    0    0 -0.65204324944E+01 -0.75333728673E+01  0.12580439301E+02  0.16047903288E+02  0.51100000000E-03 0. -1.
        -11    1    3    3    0    0  0.32356591797E+02  0.11385849120E+02  0.14157404361E+02  0.37108202482E+02  0.51100000000E-03 0.  1.
         12    1    3    3    0    0 -0.43145410544E+01  0.19248762159E+01 -0.39307893949E+01  0.61458537425E+01  0.00000000000E+00 0. -1.
</event>
<event>
 7    1  0.4673733E-013  0.5930192E+02  0.7816164E-02  0.1266605E+00
        -11   -1    0    0    0    0  0.00000000000E+00  0.00000000000E+00  0.45593999997E+02  0.45594000000E+02  0.51100000000E-03 0.  1.
         11   -1    0    0    0    0 -0.00000000000E+00 -0.00000000000E+00 -0.45593999997E+02  0.45594000000E+02  0.51100000000E-03 0. -1.
    9900012    2    1    2    0    0  0.13042221682E+02 -0.69837167485E+01  0.28246238847E+02  0.59301923806E+02  0.49999963121E+02 0.  0.
         12    1    1    2    0    0 -0.13042221682E+02  0.69837167485E+01 -0.28246238847E+02  0.31886076194E+02  0.00000000000E+00 0. -1.
         11    1    3    3    0    0 -0.28555408335E+01  0.12254258960E+02 -0.54986811421E+01  0.13731586605E+02  0.51100000000E-03 0. -1.
        -11    1    3    3    0    0  0.33038779861E+01 -0.16877675356E+02  0.23734650287E+02  0.29310495726E+02  0.51100000000E-03 0.  1.
         12    1    3    3    0    0  0.12593884530E+02 -0.23603003529E+01  0.10010269702E+02  0.16259841476E+02  0.00000000000E+00 0. -1.
</event>
<event>
 7    1  0.4673733E-013  0.5930196E+02  0.7816164E-02  0.1266605E+00
        -11   -1    0    0    0    0  0.00000000000E+00  0.00000000000E+00  0.45593999997E+02  0.45594000000E+02  0.51100000000E-03 0.  1.
         11   -1    0    0    0    0 -0.00000000000E+00 -0.00000000000E+00 -0.45593999997E+02  0.45594000000E+02  0.51100000000E-03 0. -1.
    9900012    2    1    2    0    0  0.99827139742E+01 -0.26014939044E+01  0.30171134658E+02  0.59301957358E+02  0.50000024311E+02 0.  0.
         12    1    1    2    0    0 -0.99827139742E+01  0.26014939044E+01 -0.30171134658E+02  0.31886042642E+02  0.00000000000E+00 0. -1.
         11    1    3    3    0    0 -0.10495009249E+02  0.10176357425E+02  0.74556803939E+00  0.14637600265E+02  0.51100000000E-03 0. -1.
        -11    1    3    3    0    0  0.12451954127E+02  0.20901693363E+00  0.26273568471E+02  0.29075681422E+02  0.51100000000E-03 0.  1.
         12    1    3    3    0    0  0.80257690954E+01 -0.12986868263E+02  0.31519981473E+01  0.15588675671E+02  0.00000000000E+00 0. -1.
</event>
<event>
 7    1  0.4673733E-013  0.5930193E+02  0.7816164E-02  0.1266605E+00
        -11   -1    0    0    0    0  0.00000000000E+00  0.00000000000E+00  0.45593999997E+02  0.45594000000E+02  0.51100000000E-03 0.  1.
         11   -1    0    0    0    0 -0.00000000000E+00 -0.00000000000E+00 -0.45593999997E+02  0.45594000000E+02  0.51100000000E-03 0. -1.
    9900012    2    1    2    0    0  0.26097060269E+02 -0.29694601534E+01  0.18078921988E+02  0.59301926731E+02  0.49999968454E+02 0.  0.
         12    1    1    2    0    0 -0.26097060269E+02  0.29694601534E+01 -0.18078921988E+02  0.31886073269E+02  0.00000000000E+00 0. -1.
         11    1    3    3    0    0  0.16875929544E+02 -0.85162560187E+01  0.27033360175E+02  0.32986757603E+02  0.51100000000E-03 0.  1.
        -11    1    3    3    0    0 -0.42757070131E+01  0.68798472781E+00 -0.11003241838E+02  0.11824818166E+02  0.51100000000E-03 0. -1.
        -12    1    3    3    0    0  0.13496837738E+02  0.48588111375E+01  0.20488036506E+01  0.14490350962E+02  0.00000000000E+00 0.  1.
</event>
<event>
 7    1  0.4673733E-013  0.5930196E+02  0.7816164E-02  0.1266605E+00
        -11   -1    0    0    0    0  0.00000000000E+00  0.00000000000E+00  0.45593999997E+02  0.45594000000E+02  0.51100000000E-03 0.  1.
         11   -1    0    0    0    0 -0.00000000000E+00 -0.00000000000E+00 -0.45593999997E+02  0.45594000000E+02  0.51100000000E-03 0. -1.
    9900012    2    1    2    0    0  0.13414601472E+02 -0.17221478307E+02  0.23241957325E+02  0.59301961864E+02  0.50000032529E+02 0.  0.
         12    1    1    2    0    0 -0.13414601472E+02  0.17221478307E+02 -0.23241957325E+02  0.31886038136E+02  0.00000000000E+00 0. -1.
         11    1    3    3    0    0  0.15467153098E+02 -0.23837091613E+02  0.16939755094E+02  0.33081642408E+02  0.51100000000E-03 0. -1.
        -11    1    3    3    0    0  0.10901587079E+01  0.75173889958E+01  0.15062676326E+02  0.16869611782E+02  0.51100000000E-03 0.  1.
         12    1    3    3    0    0 -0.31427103334E+01 -0.90177568987E+00 -0.87604740947E+01  0.93507076737E+01  0.00000000000E+00 0. -1.
</event>
<event>
 7    1  0.4673733E-013  0.5930194E+02  0.7816164E-02  0.1266605E+00
        -11   -1    0    0    0    0  0.00000000000E+00  0.00000000000E+00  0.45593999997E+02  0.45594000000E+02  0.51100000000E-03 0.  1.
         11   -1    0    0    0    0 -0.00000000000E+00 -0.00000000000E+00 -0.45593999997E+02  0.45594000000E+02  0.51100000000E-03 0. -1.
    9900012    2    1    2    0    0  0.53103026573E+01 -0.22696169859E+02  0.21757879577E+02  0.59301940911E+02  0.49999994315E+02 0.  0.
         12    1    1    2    0    0 -0.53103026573E+01  0.22696169859E+02 -0.21757879577E+02  0.31886059089E+02  0.00000000000E+00 0. -1.
         11    1    3    3    0    0 -0.55610679037E+01 -0.21418069444E+01  0.21668253655E+01  0.63409735563E+01  0.51100000000E-03 0. -1.
        -11    1    3    3    0    0  0.39256742466E+01 -0.26653855474E+02 -0.43564495840E+01  0.27291346305E+02  0.51100000000E-03 0.  1.
        -12    1    3    3    0    0  0.69456963144E+01  0.60994925597E+01  0.23947503795E+02  0.25669621049E+02  0.00000000000E+00 0.  1.
</event>
<event>
 7    1  0.4673733E-013  0.5930195E+02  0.7816164E-02  0.1266605E+00
        -11   -1    0    0    0    0  0.00000000000E+00  0.00000000000E+00  0.45593999997E+02  0.45594000000E+02  0.51100000000E-03 0.  1.
         11   -1    0    0    0    0 -0.00000000000E+00 -0.00000000000E+00 -0.45593999997E+02  0.45594000000E+02  0.51100000000E-03 0. -1.
    9900012    2    1    2    0    0  0.31495616769E+01 -0.16954332190E+02  0.26820721985E+02  0.59301949028E+02  0.50000009119E+02 0.  0.
         12    1    1    2    0    0 -0.31495616769E+01  0.16954332190E+02 -0.26820721985E+02  0.31886050972E+02  0.00000000000E+00 0. -1.
         11    1    3    3    0    0  0.75418779333E+01 -0.36924268817E+00  0.11321495603E+01  0.76353143885E+01  0.51100000000E-03 0. -1.
        -11    1    3    3    0    0 -0.16122184297E+02 -0.24116153014E+02  0.23952355000E+02  0.37619529144E+02  0.51100000000E-03 0.  1.
        -12    1    3    3    0    0  0.11729868040E+02  0.75310635119E+01  0.17362174246E+01  0.14047105496E+02  0.00000000000E+00 0.  1.
</event>
<event>
 7    1  0.4673733E-013  0.5930195E+02  0.7816164E-02  0.1266605E+00
        -11   -1    0    0    0    0  0.00000000000E+00  0.00000000000E+00  0.45593999997E+02  0.45594000000E+02  0.51100000000E-03 0.  1.
         11   -1    0    0    0    0 -0.00000000000E+00 -0.00000000000E+00 -0.45593999997E+02  0.45594000000E+02  0.51100000000E-03 0. -1.
    9900012    2    1    2    0    0 -0.62634119560E+01 -0.13434632521E+02  0.28231198012E+02  0.59301949421E+02  0.50000009836E+02 0.  0.
         12    1    1    2    0    0  0.62634119560E+01  0.13434632521E+02 -0.28231198012E+02  0.31886050579E+02  0.00000000000E+00 0. -1.
         11    1    3    3    0    0 -0.11710980877E+02 -0.11540384880E+02 -0.45569134376E+01  0.17061448257E+02  0.51100000000E-03 0. -1.
        -11    1    3    3    0    0  0.55825053742E+01  0.11138573501E+02  0.99488207713E+01  0.15944002662E+02  0.51100000000E-03 0.  1.
         12    1    3    3    0    0 -0.13493645309E+00 -0.13032821143E+02  0.22839290678E+02  0.26296498502E+02  0.00000000000E+00 0. -1.
</event>
<event>
 7    1  0.4673733E-013  0.5930194E+02  0.7816164E-02  0.1266605E+00
        -11   -1    0    0    0    0  0.00000000000E+00  0.00000000000E+00  0.45593999997E+02  0.45594000000E+02  0.51100000000E-03 0.  1.
         11   -1    0    0    0    0 -0.00000000000E+00 -0.00000000000E+00 -0.45593999997E+02  0.45594000000E+02  0.51100000000E-03 0. -1.
    9900012    2    1    2    0    0 -0.26984327672E+02 -0.34031253284E+01  0.16642886891E+02  0.59301939002E+02  0.49999990834E+02 0.  0.
         12    1    1    2    0    0  0.26984327672E+02  0.34031253284E+01 -0.16642886891E+02  0.31886060998E+02  0.00000000000E+00 0. -1.
         11    1    3    3    0    0 -0.12962860402E+02  0.63442656913E+01 -0.55895001220E+01  0.15476691147E+02  0.51100000000E-03 0. -1.
        -11    1    3    3    0    0 -0.23957396498E+02 -0.91540250019E+01  0.22124506673E+02  0.33871032114E+02  0.51100000000E-03 0.  1.
        -12    1    3    3    0    0  0.99359292277E+01 -0.59336601784E+00  0.10788033937E+00  0.99542157409E+01  0.00000000000E+00 0.  1.
</event>
<event>
 7    1  0.4801821E-013  0.5930195E+02  0.7816164E-02  0.1266605E+00
        -11   -1    0    0    0    0  0.00000000000E+00  0.00000000000E+00  0.45593999997E+02  0.45594000000E+02  0.51100000000E-03 0. -1.
         11   -1    0    0    0    0 -0.00000000000E+00 -0.00000000000E+00 -0.45593999997E+02  0.45594000000E+02  0.51100000000E-03 0.  1.
    9900012    2    1    2    0    0 -0.22115821032E+02  0.13404847402E+02 -0.18652639043E+02  0.59301946355E+02  0.50000004244E+02 0.  0.
         12    1    1    2    0    0  0.22115821032E+02 -0.13404847402E+02  0.18652639043E+02  0.31886053645E+02  0.00000000000E+00 0. -1.
         11    1    3    3    0    0  0.33900229898E+01  0.28469325633E+01  0.98596373230E+01  0.10807854981E+02  0.51100000000E-03 0. -1.
        -11    1    3    3    0    0 -0.26913112056E+02  0.31064420928E+01 -0.10688168837E+02  0.29123916913E+02  0.51100000000E-03 0.  1.
        -12    1    3    3    0    0  0.14072680346E+01  0.74514727460E+01 -0.17824107529E+02  0.19370174460E+02  0.00000000000E+00 0.  1.
</event>
<event>
 7    1  0.4673733E-013  0.5930194E+02  0.7816164E-02  0.1266605E+00
        -11   -1    0    0    0    0  0.00000000000E+00  0.00000000000E+00  0.45593999997E+02  0.45594000000E+02  0.51100000000E-03 0.  1.
         11   -1    0    0    0    0 -0.00000000000E+00 -0.00000000000E+00 -0.45593999997E+02  0.45594000000E+02  0.51100000000E-03 0. -1.
    9900012    2    1    2    0    0  0.11160388756E+02 -0.13302688470E+02  0.26743312439E+02  0.59301944146E+02  0.50000000215E+02 0.  0.
         12    1    1    2    0    0 -0.11160388756E+02  0.13302688470E+02 -0.26743312439E+02  0.31886055854E+02  0.00000000000E+00 0. -1.
         11    1    3    3    0    0 -0.17054326426E+00  0.12968920368E+02  0.23718167915E+02  0.27032822087E+02  0.51100000000E-03 0. -1.
        -11    1    3    3    0    0  0.11354304030E+02 -0.90949295966E+01  0.39278963963E+01  0.15068720408E+02  0.51100000000E-03 0.  1.
         12    1    3    3    0    0 -0.23372009367E-01 -0.17176679241E+02 -0.90275187170E+00  0.17200401651E+02  0.00000000000E+00 0. -1.
</event>
<event>
 7    1  0.4673733E-013  0.5930193E+02  0.7816164E-02  0.1266605E+00
        -11   -1    0    0    0    0  0.00000000000E+00  0.00000000000E+00  0.45593999997E+02  0.45594000000E+02  0.51100000000E-03 0.  1.
         11   -1    0    0    0    0 -0.00000000000E+00 -0.00000000000E+00 -0.45593999997E+02  0.45594000000E+02  0.51100000000E-03 0. -1.
    9900012    2    1    2    0    0  0.20154538965E+02  0.11843322823E+02  0.21685283553E+02  0.59301933150E+02  0.49999980162E+02 0.  0.
         12    1    1    2    0    0 -0.20154538965E+02 -0.11843322823E+02 -0.21685283553E+02  0.31886066850E+02  0.00000000000E+00 0. -1.
         11    1    3    3    0    0  0.50231964854E+01 -0.13696757022E+00  0.10209569353E+02  0.11379216567E+02  0.51100000000E-03 0. -1.
        -11    1    3    3    0    0 -0.13374449024E+02 -0.16895438333E+01 -0.18650670359E+01  0.13609148407E+02  0.51100000000E-03 0.  1.
        -12    1    3    3    0    0  0.28505791503E+02  0.13669834226E+02  0.13340781235E+02  0.34313568176E+02  0.00000000000E+00 0.  1.
</event>
<event>
 7    1  0.4673733E-013  0.5930192E+02  0.7816164E-02  0.1266605E+00
        -11   -1    0    0    0    0  0.00000000000E+00  0.00000000000E+00  0.45593999997E+02  0.45594000000E+02  0.51100000000E-03 0.  1.
         11   -1    0    0    0    0 -0.00000000000E+00 -0.00000000000E+00 -0.45593999997E+02  0.45594000000E+02  0.51100000000E-03 0. -1.
    9900012    2    1    2    0    0  0.20845485647E+02  0.23556698972E+02  0.52220380301E+01  0.59301921228E+02  0.49999958418E+02 0.  0.
         12    1    1    2    0    0 -0.20845485647E+02 -0.23556698972E+02 -0.52220380301E+01  0.31886078772E+02  0.00000000000E+00 0. -1.
         11    1    3    3    0    0  0.29953354504E+02  0.47997157074E+01  0.43555731357E+01  0.30646561545E+02  0.51100000000E-03 0. -1.
        -11    1    3    3    0    0  0.13520784812E+01  0.16781029902E+02  0.44670395003E+01  0.17417965523E+02  0.51100000000E-03 0.  1.
         12    1    3    3    0    0 -0.10459947339E+02  0.19759533624E+01 -0.36005746059E+01  0.11237394160E+02  0.00000000000E+00 0. -1.
</event>
<event>
 7    1  0.4673733E-013  0.5930199E+02  0.7816164E-02  0.1266605E+00
        -11   -1    0    0    0    0  0.00000000000E+00  0.00000000000E+00  0.45593999997E+02  0.45594000000E+02  0.51100000000E-03 0.  1.
         11   -1    0    0    0    0 -0.00000000000E+00 -0.00000000000E+00 -0.45593999997E+02  0.45594000000E+02  0.51100000000E-03 0. -1.
    9900012    2    1    2    0    0  0.13657815881E+01  0.27794759562E+02 -0.15566094756E+02  0.59301994850E+02  0.50000092688E+02 0.  0.
         12    1    1    2    0    0 -0.13657815881E+01 -0.27794759562E+02  0.15566094756E+02  0.31886005150E+02  0.00000000000E+00 0. -1.
         11    1    3    3    0    0 -0.13060989416E+02  0.20759803270E+02  0.57597781104E+01  0.25193926262E+02  0.51100000000E-03 0.  1.
        -11    1    3    3    0    0  0.17109317901E+02  0.99723567708E+01 -0.10165935270E+02  0.22260343636E+02  0.51100000000E-03 0. -1.
        -12    1    3    3    0    0 -0.26825468964E+01 -0.29374004786E+01 -0.11159937596E+02  0.11847724953E+02  0.00000000000E+00 0.  1.
</event>
<event>
 7    1  0.4673733E-013  0.5930190E+02  0.7816164E-02  0.1266605E+00
        -11   -1    0    0    0    0  0.00000000000E+00  0.00000000000E+00  0.45593999997E+02  0.45594000000E+02  0.51100000000E-03 0. -1.
         11   -1    0    0    0    0 -0.00000000000E+00 -0.00000000000E+00 -0.45593999997E+02  0.45594000000E+02  0.51100000000E-03 0.  1.
    9900012    2    1    2    0    0 -0.18441118277E+02  0.14132386082E+02  0.21838601039E+02  0.59301895267E+02  0.49999911072E+02 0.  0.
         12    1    1    2    0    0  0.18441118277E+02 -0.14132386082E+02 -0.21838601039E+02  0.31886104733E+02  0.00000000000E+00 0. -1.
         11    1    3    3    0    0  0.59493878719E+01 -0.56627132602E+01  0.14793118518E+02  0.16920339632E+02  0.51100000000E-03 0. -1.
        -11    1    3    3    0    0 -0.53190382681E+01  0.21582241826E+02  0.67278793822E+01  0.23223903453E+02  0.51100000000E-03 0.  1.
        -12    1    3    3    0    0 -0.19071467881E+02 -0.17871424841E+01  0.31760313950E+00  0.19157652183E+02  0.00000000000E+00 0.  1.
</event>
<event>
 7    1  0.4673733E-013  0.5930198E+02  0.7816164E-02  0.1266605E+00
        -11   -1    0    0    0    0  0.00000000000E+00  0.00000000000E+00  0.45593999997E+02  0.45594000000E+02  0.51100000000E-03 0. -1.
         11   -1    0    0    0    0 -0.00000000000E+00 -0.00000000000E+00 -0.45593999997E+02  0.45594000000E+02  0.51100000000E-03 0.  1.
    9900012    2    1    2    0    0 -0.19092788103E+02 -0.14910210923E+02 -0.20733283579E+02  0.59301984330E+02  0.50000073502E+02 0.  0.
         12    1    1    2    0    0  0.19092788103E+02  0.14910210923E+02  0.20733283579E+02  0.31886015670E+02  0.00000000000E+00 0. -1.
         11    1    3    3    0    0 -0.22190787058E+02  0.11053311964E+02 -0.21151356705E+02  0.32588136282E+02  0.51100000000E-03 0. -1.
        -11    1    3    3    0    0 -0.15166006930E+00 -0.15370339607E+02  0.20739743248E+01  0.15510374276E+02  0.51100000000E-03 0.  1.
         12    1    3    3    0    0  0.32496590240E+01 -0.10593183280E+02 -0.16559011987E+01  0.11203473772E+02  0.00000000000E+00 0. -1.
</event>
<event>
 7    1  0.4673733E-013  0.5930196E+02  0.7816164E-02  0.1266605E+00
        -11   -1    0    0    0    0  0.00000000000E+00  0.00000000000E+00  0.45593999997E+02  0.45594000000E+02  0.51100000000E-03 0.  1.
         11   -1    0    0    0    0 -0.00000000000E+00 -0.00000000000E+00 -0.45593999997E+02  0.45594000000E+02  0.51100000000E-03 0. -1.
    9900012    2    1    2    0    0 -0.18427659001E+02  0.21956793111E+02  0.13965688385E+02  0.59301955529E+02  0.50000020975E+02 0.  0.
         12    1    1    2    0    0  0.18427659001E+02 -0.21956793111E+02 -0.13965688385E+02  0.31886044471E+02  0.00000000000E+00 0. -1.
         11    1    3    3    0    0 -0.99499835284E+01 -0.10896081962E+02 -0.63207968146E+01  0.16052390693E+02  0.51100000000E-03 0. -1.
        -11    1    3    3    0    0  0.26171676677E+01  0.21262003548E+02  0.73808306863E+01  0.22658310250E+02  0.51100000000E-03 0.  1.
         12    1    3    3    0    0 -0.11094843140E+02  0.11590871525E+02  0.12905654513E+02  0.20591254586E+02  0.00000000000E+00 0. -1.
</event>
<event>
 7    1  0.4673733E-013  0.5930194E+02  0.7816164E-02  0.1266605E+00
        -11   -1    0    0    0    0  0.00000000000E+00  0.00000000000E+00  0.45593999997E+02  0.45594000000E+02  0.51100000000E-03 0.  1.
         11   -1    0    0    0    0 -0.00000000000E+00 -0.00000000000E+00 -0.45593999997E+02  0.45594000000E+02  0.51100000000E-03 0. -1.
    9900012    2    1    2    0    0  0.50896268763E+01 -0.19458953381E+02  0.24741978780E+02  0.59301942195E+02  0.49999996657E+02 0.  0.
         12    1    1    2    0    0 -0.50896268763E+01  0.19458953381E+02 -0.24741978780E+02  0.31886057805E+02  0.00000000000E+00 0. -1.
         11    1    3    3    0    0  0.19253421635E+01  0.45862317754E+01 -0.11190126103E+02  0.12245790575E+02  0.51100000000E-03 0. -1.
        -11    1    3    3    0    0 -0.26237313350E+00 -0.30992559696E+01  0.20698154603E+02  0.20930547806E+02  0.51100000000E-03 0.  1.
         12    1    3    3    0    0  0.34266578463E+01 -0.20945929187E+02  0.15233950280E+02  0.26125603814E+02  0.00000000000E+00 0. -1.
</event>
<event>
 7    1  0.4673733E-013  0.5930195E+02  0.7816164E-02  0.1266605E+00
        -11   -1    0    0    0    0  0.00000000000E+00  0.00000000000E+00  0.45593999997E+02  0.45594000000E+02  0.51100000000E-03 0. -1.
         11   -1    0    0    0    0 -0.00000000000E+00 -0.00000000000E+00 -0.45593999997E+02  0.45594000000E+02  0.51100000000E-03 0.  1.
    9900012    2    1    2    0    0 -0.22251596271E+02 -0.20336008096E+02  0.10393922714E+02  0.59301946759E+02  0.50000004981E+02 0.  0.
         12    1    1    2    0    0  0.22251596271E+02  0.20336008096E+02 -0.10393922714E+02  0.31886053241E+02  0.00000000000E+00 0. -1.
         11    1    3    3    0    0 -0.49719593122E+01 -0.74585537044E+01  0.20659315093E+02  0.22520162147E+02  0.51100000000E-03 0. -1.
        -11    1    3    3    0    0 -0.17970671111E+02  0.71397725300E+00 -0.13860285460E+02  0.22705996939E+02  0.51100000000E-03 0.  1.
        -12    1    3    3    0    0  0.69103415197E+00 -0.13591431645E+02  0.35948930812E+01  0.14075787673E+02  0.00000000000E+00 0.  1.
</event>
<event>
 7    1  0.4673733E-013  0.5930195E+02  0.7816164E-02  0.1266605E+00
        -11   -1    0    0    0    0  0.00000000000E+00  0.00000000000E+00  0.45593999997E+02  0.45594000000E+02  0.51100000000E-03 0. -1.
         11   -1    0    0    0    0 -0.00000000000E+00 -0.00000000000E+00 -0.45593999997E+02  0.45594000000E+02  0.51100000000E-03 0.  1.
    9900012    2    1    2    0    0  0.33403315775E+01 -0.31697397199E+02  0.91507204760E+00  0.59301950368E+02  0.50000011564E+02 0.  0.
         12    1    1    2    0    0 -0.33403315775E+01  0.31697397199E+02 -0.91507204760E+00  0.31886049632E+02  0.00000000000E+00 0. -1.
         11    1    3    3    0    0 -0.19723526906E+01  0.77560369652E+01 -0.19082926464E+01  0.82272635565E+01  0.51100000000E-03 0. -1.
        -11    1    3    3    0    0 -0.25930134986E+00 -0.37556862201E+02  0.12640858763E+02  0.39627975549E+02  0.51100000000E-03 0.  1.
        -12    1    3    3    0    0  0.55719856180E+01 -0.18965719636E+01 -0.98174940693E+01  0.11446711263E+02  0.00000000000E+00 0.  1.
</event>
<event>
 7    1  0.4673733E-013  0.5930195E+02  0.7816164E-02  0.1266605E+00
        -11   -1    0    0    0    0  0.00000000000E+00  0.00000000000E+00  0.45593999997E+02  0.45594000000E+02  0.51100000000E-03 0.  1.
         11   -1    0    0    0    0 -0.00000000000E+00 -0.00000000000E+00 -0.45593999997E+02  0.45594000000E+02  0.51100000000E-03 0. -1.
    9900012    2    1    2    0    0 -0.12047161237E+02 -0.78910081932E+01  0.28448518578E+02  0.59301947979E+02  0.50000007206E+02 0.  0.
         12    1    1    2    0    0  0.12047161237E+02  0.78910081932E+01 -0.28448518578E+02  0.31886052021E+02  0.00000000000E+00 0. -1.
         11    1    3    3    0    0 -0.26489443487E+01  0.13695174545E+02 -0.21057267539E+00  0.13950593289E+02  0.51100000000E-03 0. -1.
        -11    1    3    3    0    0  0.65590019377E+01 -0.17347422518E+02  0.16791329477E+02  0.25018039897E+02  0.51100000000E-03 0.  1.
         12    1    3    3    0    0 -0.15957218826E+02 -0.42387602204E+01  0.11867761777E+02  0.20333314793E+02  0.00000000000E+00 0. -1.
</event>
<event>
 7    1  0.4673733E-013  0.5930194E+02  0.7816164E-02  0.1266605E+00
        -11   -1    0    0    0    0  0.00000000000E+00  0.00000000000E+00  0.45593999997E+02  0.45594000000E+02  0.51100000000E-03 0.  1.
         11   -1    0    0    0    0 -0.00000000000E+00 -0.00000000000E+00 -0.45593999997E+02  0.45594000000E+02  0.51100000000E-03 0. -1.
    9900012    2    1    2    0    0  0.28231261874E+02  0.27692962644E+01  0.14561846940E+02  0.59301944504E+02  0.50000000868E+02 0.  0.
         12    1    1    2    0    0 -0.28231261874E+02 -0.27692962644E+01 -0.14561846940E+02  0.31886055496E+02  0.00000000000E+00 0. -1.
         11    1    3    3    0    0 -0.37423157915E+01 -0.40240668535E+01 -0.10378797266E+02  0.11743827080E+02  0.51100000000E-03 0. -1.
        -11    1    3    3    0    0  0.16133927133E+02  0.15538328362E+02  0.13937680003E+02  0.26381853179E+02  0.51100000000E-03 0.  1.
        -12    1    3    3    0    0  0.15839650533E+02 -0.87449652443E+01  0.11002964203E+02  0.21176264245E+02  0.00000000000E+00 0.  1.
</event>
<event>
 7    1  0.4673733E-013  0.5930195E+02  0.7816164E-02  0.1266605E+00
        -11   -1    0    0    0    0  0.00000000000E+00  0.00000000000E+00  0.45593999997E+02  0.45594000000E+02  0.51100000000E-03 0. -1.
         11   -1    0    0    0    0 -0.00000000000E+00 -0.00000000000E+00 -0.45593999997E+02  0.45594000000E+02  0.51100000000E-03 0.  1.
    9900012    2    1    2    0    0  0.29374310683E+02  0.10893559981E+02 -0.59330152662E+01  0.59301945881E+02  0.50000003380E+02 0.  0.
         12    1    1    2    0    0 -0.29374310683E+02 -0.10893559981E+02  0.59330152662E+01  0.31886054119E+02  0.00000000000E+00 0. -1.
         11    1    3    3    0    0 -0.22467814839E+01  0.70694633539E+01 -0.11384930633E+02  0.13588303239E+02  0.51100000000E-03 0. -1.
        -11    1    3    3    0    0  0.19775673305E+02  0.15056787330E+02  0.12630734103E+02  0.27880450922E+02  0.51100000000E-03 0.  1.
        -12    1    3    3    0    0  0.11845418861E+02 -0.11232690704E+02 -0.71788187364E+01  0.17833191719E+02  0.00000000000E+00 0.  1.
</event>
<event>
 7    1  0.4673733E-013  0.5930183E+02  0.7816164E-02  0.1266605E+00
        -11   -1    0    0    0    0  0.00000000000E+00  0.00000000000E+00  0.45593999997E+02  0.45594000000E+02  0.51100000000E-03 0.  1.
         11   -1    0    0    0    0 -0.00000000000E+00 -0.00000000000E+00 -0.45593999997E+02  0.45594000000E+02  0.51100000000E-03 0. -1.
    9900012    2    1    2    0    0  0.21837664104E+01  0.31331605456E+02  0.55035867272E+01  0.59301830536E+02  0.49999793019E+02 0.  0.
         12    1    1    2    0    0 -0.21837664104E+01 -0.31331605456E+02 -0.55035867272E+01  0.31886169464E+02  0.00000000000E+00 0. -1.
         11    1    3    3    0    0 -0.24615374159E+01 -0.65836257156E+01 -0.12018190656E+02  0.13922650643E+02  0.51100000000E-03 0. -1.
        -11    1    3    3    0    0  0.61388998789E+01  0.29390212791E+02  0.54338057243E+01  0.30512242536E+02  0.51100000000E-03 0.  1.
         12    1    3    3    0    0 -0.14935960526E+01  0.85250183804E+01  0.12087971659E+02  0.14866937358E+02  0.00000000000E+00 0. -1.
</event>
<event>
 7    1  0.4673733E-013  0.5930193E+02  0.7816164E-02  0.1266605E+00
        -11   -1    0    0    0    0  0.00000000000E+00  0.00000000000E+00  0.45593999997E+02  0.45594000000E+02  0.51100000000E-03 0.  1.
         11   -1    0    0    0    0 -0.00000000000E+00 -0.00000000000E+00 -0.45593999997E+02  0.45594000000E+02  0.51100000000E-03 0. -1.
    9900012    2    1    2    0    0 -0.17327794053E+02 -0.15505981631E+02  0.21818197990E+02  0.59301926604E+02  0.49999968223E+02 0.  0.
         12    1    1    2    0    0  0.17327794053E+02  0.15505981631E+02 -0.21818197990E+02  0.31886073396E+02  0.00000000000E+00 0. -1.
         11    1    3    3    0    0  0.93922543904E+01 -0.56203191853E+00  0.14528111191E+02  0.17308851419E+02  0.51100000000E-03 0. -1.
        -11    1    3    3    0    0 -0.25013984725E+02 -0.51033629638E+01  0.14789263288E+02  0.29503661708E+02  0.51100000000E-03 0.  1.
         12    1    3    3    0    0 -0.17060637193E+01 -0.98405867489E+01 -0.74991764888E+01  0.12489413477E+02  0.00000000000E+00 0. -1.
</event>
<event>
 7    1  0.4673733E-013  0.5930193E+02  0.7816164E-02  0.1266605E+00
        -11   -1    0    0    0    0  0.00000000000E+00  0.00000000000E+00  0.45593999997E+02  0.45594000000E+02  0.51100000000E-03 0. -1.
         11   -1    0    0    0    0 -0.00000000000E+00 -0.00000000000E+00 -0.45593999997E+02  0.45594000000E+02  0.51100000000E-03 0.  1.
    9900012    2    1    2    0    0  0.25237919460E+02 -0.10839425551E+02  0.16194920514E+02  0.59301934464E+02  0.49999982557E+02 0.  0.
         12    1    1    2    0    0 -0.25237919460E+02  0.10839425551E+02 -0.16194920514E+02  0.31886065536E+02  0.00000000000E+00 0. -1.
         11    1    3    3    0    0  0.10962827754E+02 -0.25776341710E+02  0.23439802126E+02  0.36524344050E+02  0.51100000000E-03 0. -1.
        -11    1    3    3    0    0  0.98726005347E+01  0.69492538837E+01 -0.62725632825E+01  0.13605345319E+02  0.51100000000E-03 0.  1.
         12    1    3    3    0    0  0.44024911715E+01  0.79876622751E+01 -0.97231833013E+00  0.91722450944E+01  0.00000000000E+00 0. -1.
</event>
<event>
 7    1  0.4673733E-013  0.5930197E+02  0.7816164E-02  0.1266605E+00
        -11   -1    0    0    0    0  0.00000000000E+00  0.00000000000E+00  0.45593999997E+02  0.45594000000E+02  0.51100000000E-03 0.  1.
         11   -1    0    0    0    0 -0.00000000000E+00 -0.00000000000E+00 -0.45593999997E+02  0.45594000000E+02  0.51100000000E-03 0. -1.
    9900012    2    1    2    0    0  0.20882736655E+02 -0.84606806154E+01  0.22562075566E+02  0.59301967627E+02  0.50000043039E+02 0.  0.
         12    1    1    2    0    0 -0.20882736655E+02  0.84606806154E+01 -0.22562075566E+02  0.31886032373E+02  0.00000000000E+00 0. -1.
         11    1    3    3    0    0  0.21396329589E+02 -0.27730822718E+02  0.15792798333E+02  0.38421529485E+02  0.51100000000E-03 0. -1.
        -11    1    3    3    0    0 -0.76661275135E+00  0.78677886492E+01  0.49610231370E+01  0.93328208044E+01  0.51100000000E-03 0.  1.
         12    1    3    3    0    0  0.25301981658E+00  0.11402353453E+02  0.18082540962E+01  0.11547617338E+02  0.00000000000E+00 0. -1.
</event>
<event>
 7    1  0.4673733E-013  0.5930196E+02  0.7816164E-02  0.1266605E+00
        -11   -1    0    0    0    0  0.00000000000E+00  0.00000000000E+00  0.45593999997E+02  0.45594000000E+02  0.51100000000E-03 0.  1.
         11   -1    0    0    0    0 -0.00000000000E+00 -0.00000000000E+00 -0.45593999997E+02  0.45594000000E+02  0.51100000000E-03 0. -1.
    9900012    2    1    2    0    0 -0.18381152723E+02 -0.89256747386E+01  0.24478262728E+02  0.59301956170E+02  0.50000022145E+02 0.  0.
         12    1    1    2    0    0  0.18381152723E+02  0.89256747386E+01 -0.24478262728E+02  0.31886043830E+02  0.00000000000E+00 0. -1.
         11    1    3    3    0    0 -0.16804160558E+02  0.15794770218E+02  0.15824637198E+02  0.27969156601E+02  0.51100000000E-03 0. -1.
        -11    1    3    3    0    0 -0.62063749509E+01 -0.12211152592E+02  0.11272388254E+02  0.17739731533E+02  0.51100000000E-03 0.  1.
         12    1    3    3    0    0  0.46293827856E+01 -0.12509292364E+02 -0.26187627240E+01  0.13593068036E+02  0.00000000000E+00 0. -1.
</event>
<event>
 7    1  0.4673733E-013  0.5930187E+02  0.7816164E-02  0.1266605E+00
        -11   -1    0    0    0    0  0.00000000000E+00  0.00000000000E+00  0.45593999997E+02  0.45594000000E+02  0.51100000000E-03 0. -1.
         11   -1    0    0    0    0 -0.00000000000E+00 -0.00000000000E+00 -0.45593999997E+02  0.45594000000E+02  0.51100000000E-03 0.  1.
    9900012    2    1    2    0    0 -0.64234319145E+01 -0.29715440463E+02 -0.96154901384E+01  0.59301866178E+02  0.49999858021E+02 0.  0.
         12    1    1    2    0    0  0.64234319145E+01  0.29715440463E+02  0.96154901384E+01  0.31886133822E+02  0.00000000000E+00 0. -1.
         11    1    3    3    0    0  0.10033037280E+02 -0.18347411382E+02 -0.22771651339E+02  0.30916620877E+02  0.51100000000E-03 0.  1.
        -11    1    3    3    0    0 -0.17285465783E+02 -0.40059925572E+01  0.93217682016E+01  0.20043219960E+02  0.51100000000E-03 0. -1.
        -12    1    3    3    0    0  0.82899658845E+00 -0.73620365246E+01  0.38343929987E+01  0.83420253417E+01  0.00000000000E+00 0.  1.
</event>
<event>
 7    1  0.4673733E-013  0.5930196E+02  0.7816164E-02  0.1266605E+00
        -11   -1    0    0    0    0  0.00000000000E+00  0.00000000000E+00  0.45593999997E+02  0.45594000000E+02  0.51100000000E-03 0.  1.
         11   -1    0    0    0    0 -0.00000000000E+00 -0.00000000000E+00 -0.45593999997E+02  0.45594000000E+02  0.51100000000E-03 0. -1.
    9900012    2    1    2    0    0 -0.87259351845E+01 -0.26182912661E+02  0.15969737698E+02  0.59301962580E+02  0.50000033834E+02 0.  0.
         12    1    1    2    0    0  0.87259351845E+01  0.26182912661E+02 -0.15969737698E+02  0.31886037420E+02  0.00000000000E+00 0. -1.
         11    1    3    3    0    0  0.13258921383E+02  0.15965612536E+01  0.13237370208E+02  0.18803615991E+02  0.51100000000E-03 0. -1.
        -11    1    3    3    0    0 -0.15734664141E+02 -0.13409237611E+02  0.10298850355E+02  0.23096615073E+02  0.51100000000E-03 0.  1.
        -12    1    3    3    0    0 -0.62501924261E+01 -0.14370236303E+02 -0.75664828649E+01  0.17401731515E+02  0.00000000000E+00 0.  1.
</event>
<event>
 7    1  0.4673733E-013  0.5930193E+02  0.7816164E-02  0.1266605E+00
        -11   -1    0    0    0    0  0.00000000000E+00  0.00000000000E+00  0.45593999997E+02  0.45594000000E+02  0.51100000000E-03 0.  1.
         11   -1    0    0    0    0 -0.00000000000E+00 -0.00000000000E+00 -0.45593999997E+02  0.45594000000E+02  0.51100000000E-03 0. -1.
    9900012    2    1    2    0    0  0.31501040398E+02 -0.20541055266E-01  0.49401609591E+01  0.59301934730E+02  0.49999983044E+02 0.  0.
         12    1    1    2    0    0 -0.31501040398E+02  0.20541055266E-01 -0.49401609591E+01  0.31886065270E+02  0.00000000000E+00 0. -1.
         11    1    3    3    0    0  0.20908984093E+02 -0.98102988230E+01 -0.17262125733E+02  0.28834156202E+02  0.51100000000E-03 0. -1.
        -11    1    3    3    0    0  0.88791412700E+01  0.17627828747E+01  0.20025208233E+02  0.21976248956E+02  0.51100000000E-03 0.  1.
         12    1    3    3    0    0  0.17129150345E+01  0.80269748931E+01  0.21770784592E+01  0.84915295717E+01  0.00000000000E+00 0. -1.
</event>
<event>
 7    1  0.4673733E-013  0.5930196E+02  0.7816164E-02  0.1266605E+00
        -11   -1    0    0    0    0  0.00000000000E+00  0.00000000000E+00  0.45593999997E+02  0.45594000000E+02  0.51100000000E-03 0. -1.
         11   -1    0    0    0    0 -0.00000000000E+00 -0.00000000000E+00 -0.45593999997E+02  0.45594000000E+02  0.51100000000E-03 0.  1.
    9900012    2    1    2    0    0  0.10015322509E+02 -0.25939789508E+02 -0.15605770577E+02  0.59301961676E+02  0.50000032186E+02 0.  0.
         12    1    1    2    0    0 -0.10015322509E+02  0.25939789508E+02  0.15605770577E+02  0.31886038324E+02  0.00000000000E+00 0. -1.
         11    1    3    3    0    0 -0.67642856223E+01 -0.32907015828E+00  0.38234642363E+01  0.77770641104E+01  0.51100000000E-03 0. -1.
        -11    1    3    3    0    0  0.25828486334E+02 -0.24438670423E+02 -0.22284920089E+02  0.41963996259E+02  0.51100000000E-03 0.  1.
        -12    1    3    3    0    0 -0.90488782028E+01 -0.11720489266E+01  0.28556852753E+01  0.95609013072E+01  0.00000000000E+00 0.  1.
</event>
<event>
 7    1  0.5770087E-013  0.5930234E+02  0.7816164E-02  0.1266603E+00
        -11   -1    0    0    0    0  0.00000000000E+00  0.00000000000E+00  0.45593999997E+02  0.45594000000E+02  0.51100000000E-03 0. -1.
         11   -1    0    0    0    0 -0.00000000000E+00 -0.00000000000E+00 -0.45593999997E+02  0.45594000000E+02  0.51100000000E-03 0.  1.
    9900012    2    1    2    0    0 -0.21783438869E+02 -0.15707967181E+02 -0.17188268775E+02  0.59302344520E+02  0.50000730396E+02 0.  0.
         12    1    1    2    0    0  0.21783438869E+02  0.15707967181E+02  0.17188268775E+02  0.31885655480E+02  0.00000000000E+00 0. -1.
         11    1    3    3    0    0 -0.62448105810E+01  0.57436473821E+01  0.40383047773E+01  0.93965445871E+01  0.51100000000E-03 0. -1.
        -11    1    3    3    0    0  0.11052679595E+02 -0.12214172136E+02 -0.11631739015E+02  0.20165442717E+02  0.51100000000E-03 0.  1.
        -12    1    3    3    0    0 -0.26591307883E+02 -0.92374424272E+01 -0.95948345383E+01  0.29740357216E+02  0.00000000000E+00 0.  1.
</event>
<event>
 7    1  0.4673733E-013  0.5930195E+02  0.7816164E-02  0.1266605E+00
        -11   -1    0    0    0    0  0.00000000000E+00  0.00000000000E+00  0.45593999997E+02  0.45594000000E+02  0.51100000000E-03 0. -1.
         11   -1    0    0    0    0 -0.00000000000E+00 -0.00000000000E+00 -0.45593999997E+02  0.45594000000E+02  0.51100000000E-03 0.  1.
    9900012    2    1    2    0    0 -0.25588272058E+02  0.65768169883E+01  0.17852341352E+02  0.59301948499E+02  0.50000008154E+02 0.  0.
         12    1    1    2    0    0  0.25588272058E+02 -0.65768169883E+01 -0.17852341352E+02  0.31886051501E+02  0.00000000000E+00 0. -1.
         11    1    3    3    0    0  0.10102008524E+01 -0.94060734839E+01 -0.47836114012E+00  0.94722517802E+01  0.51100000000E-03 0. -1.
        -11    1    3    3    0    0 -0.21906213171E+02  0.55207795473E+01  0.27182176356E+02  0.35344474731E+02  0.51100000000E-03 0.  1.
        -12    1    3    3    0    0 -0.46922597388E+01  0.10462110925E+02 -0.88514738638E+01  0.14485221987E+02  0.00000000000E+00 0.  1.
</event>
<event>
 7    1  0.4673733E-013  0.5930194E+02  0.7816164E-02  0.1266605E+00
        -11   -1    0    0    0    0  0.00000000000E+00  0.00000000000E+00  0.45593999997E+02  0.45594000000E+02  0.51100000000E-03 0.  1.
         11   -1    0    0    0    0 -0.00000000000E+00 -0.00000000000E+00 -0.45593999997E+02  0.45594000000E+02  0.51100000000E-03 0. -1.
    9900012    2    1    2    0    0 -0.27652264435E+02 -0.12506856041E+02  0.97801718715E+01  0.59301938182E+02  0.49999989339E+02 0.  0.
         12    1    1    2    0    0  0.27652264435E+02  0.12506856041E+02 -0.97801718715E+01  0.31886061818E+02  0.00000000000E+00 0. -1.
         11    1    3    3    0    0 -0.64941802877E+01  0.84182024927E+01 -0.36937673343E+01  0.11255417726E+02  0.51100000000E-03 0. -1.
        -11    1    3    3    0    0 -0.40968410683E+01 -0.17185044652E+02  0.22321748747E+02  0.28467004299E+02  0.51100000000E-03 0.  1.
        -12    1    3    3    0    0 -0.17061243079E+02 -0.37400138820E+01 -0.88478095410E+01  0.19579516156E+02  0.00000000000E+00 0.  1.
</event>
<event>
 7    1  0.4673733E-013  0.5930191E+02  0.7816164E-02  0.1266605E+00
        -11   -1    0    0    0    0  0.00000000000E+00  0.00000000000E+00  0.45593999997E+02  0.45594000000E+02  0.51100000000E-03 0.  1.
         11   -1    0    0    0    0 -0.00000000000E+00 -0.00000000000E+00 -0.45593999997E+02  0.45594000000E+02  0.51100000000E-03 0. -1.
    9900012    2    1    2    0    0 -0.17124178709E+02  0.20316118111E+02  0.17627841857E+02  0.59301906478E+02  0.49999931518E+02 0.  0.
         12    1    1    2    0    0  0.17124178709E+02 -0.20316118111E+02 -0.17627841857E+02  0.31886093522E+02  0.00000000000E+00 0. -1.
         11    1    3    3    0    0 -0.13391021428E+02 -0.43574288985E+01 -0.68630401880E+01  0.15665502302E+02  0.51100000000E-03 0. -1.
        -11    1    3    3    0    0 -0.10824959458E+02  0.12635124377E+02  0.24558906475E+02  0.29664220920E+02  0.51100000000E-03 0.  1.
         12    1    3    3    0    0  0.70918021767E+01  0.12038422633E+02 -0.68024430430E-01  0.13972183255E+02  0.00000000000E+00 0. -1.
</event>
<event>
 7    1  0.4673733E-013  0.5930192E+02  0.7816164E-02  0.1266605E+00
        -11   -1    0    0    0    0  0.00000000000E+00  0.00000000000E+00  0.45593999997E+02  0.45594000000E+02  0.51100000000E-03 0.  1.
         11   -1    0    0    0    0 -0.00000000000E+00 -0.00000000000E+00 -0.45593999997E+02  0.45594000000E+02  0.51100000000E-03 0. -1.
    9900012    2    1    2    0    0  0.29637818668E+02 -0.11745290491E+02  0.60839083972E+00  0.59301917087E+02  0.49999950867E+02 0.  0.
         12    1    1    2    0    0 -0.29637818668E+02  0.11745290491E+02 -0.60839083972E+00  0.31886082913E+02  0.00000000000E+00 0. -1.
         11    1    3    3    0    0  0.22216711878E+02 -0.25447493780E+02 -0.74057387329E+00  0.33789135477E+02  0.51100000000E-03 0. -1.
        -11    1    3    3    0    0  0.13170225504E+02  0.62681611888E+01  0.50171254172E+01  0.15424533453E+02  0.51100000000E-03 0.  1.
         12    1    3    3    0    0 -0.57491187144E+01  0.74340421006E+01 -0.36681607042E+01  0.10088248158E+02  0.00000000000E+00 0. -1.
</event>
<event>
 7    1  0.4673733E-013  0.5930195E+02  0.7816164E-02  0.1266605E+00
        -11   -1    0    0    0    0  0.00000000000E+00  0.00000000000E+00  0.45593999997E+02  0.45594000000E+02  0.51100000000E-03 0. -1.
         11   -1    0    0    0    0 -0.00000000000E+00 -0.00000000000E+00 -0.45593999997E+02  0.45594000000E+02  0.51100000000E-03 0.  1.
    9900012    2    1    2    0    0  0.59002884451E+01  0.96476532017E+01 -0.29813248925E+02  0.59301946191E+02  0.50000003945E+02 0.  0.
         12    1    1    2    0    0 -0.59002884451E+01 -0.96476532017E+01  0.29813248925E+02  0.31886053809E+02  0.00000000000E+00 0. -1.
         11    1    3    3    0    0  0.51070383189E+00 -0.11818193089E+02  0.46872325604E+01  0.12724018848E+02  0.51100000000E-03 0. -1.
        -11    1    3    3    0    0  0.78889354951E+01  0.13726131921E+02 -0.59849468301E+01  0.16925176205E+02  0.51100000000E-03 0.  1.
         12    1    3    3    0    0 -0.24993508819E+01  0.77397143702E+01 -0.28515534656E+02  0.29652751138E+02  0.00000000000E+00 0. -1.
</event>
<event>
 7    1  0.4673733E-013  0.5930194E+02  0.7816164E-02  0.1266605E+00
        -11   -1    0    0    0    0  0.00000000000E+00  0.00000000000E+00  0.45593999997E+02  0.45594000000E+02  0.51100000000E-03 0.  1.
         11   -1    0    0    0    0 -0.00000000000E+00 -0.00000000000E+00 -0.45593999997E+02  0.45594000000E+02  0.51100000000E-03 0. -1.
    9900012    2    1    2    0    0  0.28677398822E+02  0.40531538652E+01  0.13337895230E+02  0.59301941783E+02  0.49999995907E+02 0.  0.
         12    1    1    2    0    0 -0.28677398822E+02 -0.40531538652E+01 -0.13337895230E+02  0.31886058217E+02  0.00000000000E+00 0. -1.
         11    1    3    3    0    0  0.10492627941E+02 -0.16869364555E+02 -0.88665751374E+01  0.21755157010E+02  0.51100000000E-03 0. -1.
        -11    1    3    3    0    0  0.36761115774E+01  0.98424178175E+01  0.27337328557E+01  0.10856347471E+02  0.51100000000E-03 0.  1.
         12    1    3    3    0    0  0.14508659303E+02  0.11080100603E+02  0.19470737512E+02  0.26690437302E+02  0.00000000000E+00 0. -1.
</event>
<event>
 7    1  0.4673733E-013  0.5930195E+02  0.7816164E-02  0.1266605E+00
        -11   -1    0    0    0    0  0.00000000000E+00  0.00000000000E+00  0.45593999997E+02  0.45594000000E+02  0.51100000000E-03 0.  1.
         11   -1    0    0    0    0 -0.00000000000E+00 -0.00000000000E+00 -0.45593999997E+02  0.45594000000E+02  0.51100000000E-03 0. -1.
    9900012    2    1    2    0    0  0.15856240058E+02  0.25106471147E+02 -0.11617435099E+02  0.59301952259E+02  0.50000015012E+02 0.  0.
         12    1    1    2    0    0 -0.15856240058E+02 -0.25106471147E+02  0.11617435099E+02  0.31886047741E+02  0.00000000000E+00 0. -1.
         11    1    3    3    0    0  0.10183387439E+02 -0.25126540116E+01  0.88562720817E+01  0.13727649667E+02  0.51100000000E-03 0. -1.
        -11    1    3    3    0    0  0.10917586249E+01  0.29556977674E+02 -0.58796703182E+01  0.30155884823E+02  0.51100000000E-03 0.  1.
        -12    1    3    3    0    0  0.45810939943E+01 -0.19378525153E+01 -0.14594036863E+02  0.15418417769E+02  0.00000000000E+00 0.  1.
</event>
<event>
 7    1  0.4673733E-013  0.5930209E+02  0.7816164E-02  0.1266604E+00
        -11   -1    0    0    0    0  0.00000000000E+00  0.00000000000E+00  0.45593999997E+02  0.45594000000E+02  0.51100000000E-03 0. -1.
         11   -1    0    0    0    0 -0.00000000000E+00 -0.00000000000E+00 -0.45593999997E+02  0.45594000000E+02  0.51100000000E-03 0.  1.
    9900012    2    1    2    0    0  0.20337031820E+02  0.23647760162E+02 -0.66257026591E+01  0.59302088383E+02  0.50000263269E+02 0.  0.
         12    1    1    2    0    0 -0.20337031820E+02 -0.23647760162E+02  0.66257026591E+01  0.31885911617E+02  0.00000000000E+00 0. -1.
         11    1    3    3    0    0  0.60473188193E+00 -0.70635617435E+00  0.11981876947E+02  0.12017903940E+02  0.51100000000E-03 0. -1.
        -11    1    3    3    0    0 -0.22595924075E+01  0.88285251361E+01 -0.18207963009E+02  0.20361201613E+02  0.51100000000E-03 0.  1.
        -12    1    3    3    0    0  0.21991892345E+02  0.15525591201E+02 -0.39961659701E+00  0.26922982830E+02  0.00000000000E+00 0.  1.
</event>
<event>
 7    1  0.4673733E-013  0.5930194E+02  0.7816164E-02  0.1266605E+00
        -11   -1    0    0    0    0  0.00000000000E+00  0.00000000000E+00  0.45593999997E+02  0.45594000000E+02  0.51100000000E-03 0.  1.
         11   -1    0    0    0    0 -0.00000000000E+00 -0.00000000000E+00 -0.45593999997E+02  0.45594000000E+02  0.51100000000E-03 0. -1.
    9900012    2    1    2    0    0 -0.58837075312E+01  0.31294432431E+02 -0.16616541794E+01  0.59301943327E+02  0.49999998723E+02 0.  0.
         12    1    1    2    0    0  0.58837075312E+01 -0.31294432431E+02  0.16616541794E+01  0.31886056673E+02  0.00000000000E+00 0. -1.
         11    1    3    3    0    0 -0.13904496092E+02  0.24137258820E+01 -0.11651954611E+02  0.18301069114E+02  0.51100000000E-03 0. -1.
        -11    1    3    3    0    0 -0.34281981889E+00  0.16428659502E+02  0.17686264905E+02  0.24141713797E+02  0.51100000000E-03 0.  1.
         12    1    3    3    0    0  0.83636083793E+01  0.12452047047E+02 -0.76959644734E+01  0.16859160417E+02  0.00000000000E+00 0. -1.
</event>
<event>
 7    1  0.4673733E-013  0.5930194E+02  0.7816164E-02  0.1266605E+00
        -11   -1    0    0    0    0  0.00000000000E+00  0.00000000000E+00  0.45593999997E+02  0.45594000000E+02  0.51100000000E-03 0.  1.
         11   -1    0    0    0    0 -0.00000000000E+00 -0.00000000000E+00 -0.45593999997E+02  0.45594000000E+02  0.51100000000E-03 0. -1.
    9900012    2    1    2    0    0 -0.19764138883E+02  0.24715492536E+02 -0.39043308108E+01  0.59301944174E+02  0.50000000266E+02 0.  0.
         12    1    1    2    0    0  0.19764138883E+02 -0.24715492536E+02  0.39043308108E+01  0.31886055826E+02  0.00000000000E+00 0. -1.
         11    1    3    3    0    0 -0.14553981025E+02  0.12810440247E+02 -0.24560523873E+02  0.31291293936E+02  0.51100000000E-03 0. -1.
        -11    1    3    3    0    0  0.44557020920E+01  0.16709593642E+01  0.41236142835E+01  0.62967913535E+01  0.51100000000E-03 0.  1.
         12    1    3    3    0    0 -0.96658599504E+01  0.10234092925E+02  0.16532578779E+02  0.21713858885E+02  0.00000000000E+00 0. -1.
</event>
<event>
 7    1  0.4673733E-013  0.5930195E+02  0.7816164E-02  0.1266605E+00
        -11   -1    0    0    0    0  0.00000000000E+00  0.00000000000E+00  0.45593999997E+02  0.45594000000E+02  0.51100000000E-03 0.  1.
         11   -1    0    0    0    0 -0.00000000000E+00 -0.00000000000E+00 -0.45593999997E+02  0.45594000000E+02  0.51100000000E-03 0. -1.
    9900012    2    1    2    0    0 -0.11127112963E+02 -0.28975224298E+02 -0.73036919731E+01  0.59301950034E+02  0.50000010954E+02 0.  0.
         12    1    1    2    0    0  0.11127112963E+02  0.28975224298E+02  0.73036919731E+01  0.31886049966E+02  0.00000000000E+00 0. -1.
         11    1    3    3    0    0  0.38557398324E+01  0.14675705872E+01 -0.34201824545E+01  0.53589309911E+01  0.51100000000E-03 0. -1.
        -11    1    3    3    0    0 -0.29592916457E+02 -0.20297646160E+02 -0.43647129377E+01  0.36149493266E+02  0.51100000000E-03 0.  1.
        -12    1    3    3    0    0  0.14610063662E+02 -0.10145148725E+02  0.48120341915E+00  0.17793525777E+02  0.00000000000E+00 0.  1.
</event>
<event>
 7    1  0.4673733E-013  0.5930196E+02  0.7816164E-02  0.1266605E+00
        -11   -1    0    0    0    0  0.00000000000E+00  0.00000000000E+00  0.45593999997E+02  0.45594000000E+02  0.51100000000E-03 0.  1.
         11   -1    0    0    0    0 -0.00000000000E+00 -0.00000000000E+00 -0.45593999997E+02  0.45594000000E+02  0.51100000000E-03 0. -1.
    9900012    2    1    2    0    0  0.24634801569E+02  0.18265128883E+02  0.87310550374E+01  0.59301957544E+02  0.50000024650E+02 0.  0.
         12    1    1    2    0    0 -0.24634801569E+02 -0.18265128883E+02 -0.87310550374E+01  0.31886042456E+02  0.00000000000E+00 0. -1.
         11    1    3    3    0    0  0.31617670221E+01  0.16107447970E+01 -0.49028386915E+01  0.60521976999E+01  0.51100000000E-03 0. -1.
        -11    1    3    3    0    0  0.33426571335E+02  0.99456588248E+01  0.17483721076E+02  0.39011950779E+02  0.51100000000E-03 0.  1.
        -12    1    3    3    0    0 -0.11953536788E+02  0.67087252614E+01 -0.38498273469E+01  0.14237809065E+02  0.00000000000E+00 0.  1.
</event>
<event>
 7    1  0.4673733E-013  0.5930182E+02  0.7816164E-02  0.1266605E+00
        -11   -1    0    0    0    0  0.00000000000E+00  0.00000000000E+00  0.45593999997E+02  0.45594000000E+02  0.51100000000E-03 0.  1.
         11   -1    0    0    0    0 -0.00000000000E+00 -0.00000000000E+00 -0.45593999997E+02  0.45594000000E+02  0.51100000000E-03 0. -1.
    9900012    2    1    2    0    0  0.16957014563E+02 -0.76592317342E+01  0.25894483762E+02  0.59301820189E+02  0.49999774148E+02 0.  0.
         12    1    1    2    0    0 -0.16957014563E+02  0.76592317342E+01 -0.25894483762E+02  0.31886179811E+02  0.00000000000E+00 0. -1.
         11    1    3    3    0    0  0.30189249418E+01  0.10260300276E+02 -0.49854208508E+01  0.11800088596E+02  0.51100000000E-03 0. -1.
        -11    1    3    3    0    0  0.15215864163E+02 -0.11418196948E+01  0.25713734183E+02  0.29900207363E+02  0.51100000000E-03 0.  1.
        -12    1    3    3    0    0 -0.12777745414E+01 -0.16777712316E+02  0.51661704293E+01  0.17601524230E+02  0.00000000000E+00 0.  1.
</event>
<event>
 7    1  0.4673733E-013  0.5930203E+02  0.7816164E-02  0.1266604E+00
        -11   -1    0    0    0    0  0.00000000000E+00  0.00000000000E+00  0.45593999997E+02  0.45594000000E+02  0.51100000000E-03 0.  1.
         11   -1    0    0    0    0 -0.00000000000E+00 -0.00000000000E+00 -0.45593999997E+02  0.45594000000E+02  0.51100000000E-03 0. -1.
    9900012    2    1    2    0    0 -0.26881821131E+02  0.14618725517E+02 -0.89652617312E+01  0.59302025639E+02  0.50000148839E+02 0.  0.
         12    1    1    2    0    0  0.26881821131E+02 -0.14618725517E+02  0.89652617312E+01  0.31885974361E+02  0.00000000000E+00 0. -1.
         11    1    3    3    0    0  0.84242280362E+01 -0.97462953900E+01  0.31942798496E+01  0.13272577589E+02  0.51100000000E-03 0. -1.
        -11    1    3    3    0    0 -0.11106884756E+02  0.13330387323E+02 -0.16404950759E+01  0.17428520864E+02  0.51100000000E-03 0.  1.
         12    1    3    3    0    0 -0.24199164411E+02  0.11034633584E+02 -0.10519046505E+02  0.28600927186E+02  0.00000000000E+00 0. -1.
</event>
<event>
 7    1  0.4673733E-013  0.5930191E+02  0.7816164E-02  0.1266605E+00
        -11   -1    0    0    0    0  0.00000000000E+00  0.00000000000E+00  0.45593999997E+02  0.45594000000E+02  0.51100000000E-03 0.  1.
         11   -1    0    0    0    0 -0.00000000000E+00 -0.00000000000E+00 -0.45593999997E+02  0.45594000000E+02  0.51100000000E-03 0. -1.
    9900012    2    1    2    0    0  0.17442725475E+02 -0.25926959535E+02  0.63456335134E+01  0.59301906363E+02  0.49999931309E+02 0.  0.
         12    1    1    2    0    0 -0.17442725475E+02  0.25926959535E+02 -0.63456335134E+01  0.31886093637E+02  0.00000000000E+00 0. -1.
         11    1    3    3    0    0  0.62359618563E+01 -0.48687354846E+01 -0.41703044706E+01  0.89433352353E+01  0.51100000000E-03 0. -1.
        -11    1    3    3    0    0 -0.11281947328E+01 -0.13973759503E+02  0.25872239446E+02  0.29426375112E+02  0.51100000000E-03 0.  1.
        -12    1    3    3    0    0  0.12334958351E+02 -0.70844645471E+01 -0.15356301462E+02  0.20932196016E+02  0.00000000000E+00 0.  1.
</event>
<event>
 7    1  0.4673733E-013  0.5930203E+02  0.7816164E-02  0.1266604E+00
        -11   -1    0    0    0    0  0.00000000000E+00  0.00000000000E+00  0.45593999997E+02  0.45594000000E+02  0.51100000000E-03 0.  1.
         11   -1    0    0    0    0 -0.00000000000E+00 -0.00000000000E+00 -0.45593999997E+02  0.45594000000E+02  0.51100000000E-03 0. -1.
    9900012    2    1    2    0    0  0.16026998815E+02 -0.25931280639E+02  0.93498189818E+01  0.59302029392E+02  0.50000155684E+02 0.  0.
         12    1    1    2    0    0 -0.16026998815E+02  0.25931280639E+02 -0.93498189818E+01  0.31885970608E+02  0.00000000000E+00 0. -1.
         11    1    3    3    0    0 -0.10612357727E+01 -0.10321637866E+02  0.27423431865E+02  0.29320761333E+02  0.51100000000E-03 0. -1.
        -11    1    3    3    0    0  0.10772745215E+02 -0.11660333076E+02 -0.90244459616E+01  0.18260778518E+02  0.51100000000E-03 0.  1.
         12    1    3    3    0    0  0.63154893726E+01 -0.39493096973E+01 -0.90491669221E+01  0.11720489541E+02  0.00000000000E+00 0. -1.
</event>
<event>
 7    1  0.4673733E-013  0.5930199E+02  0.7816164E-02  0.1266605E+00
        -11   -1    0    0    0    0  0.00000000000E+00  0.00000000000E+00  0.45593999997E+02  0.45594000000E+02  0.51100000000E-03 0.  1.
         11   -1    0    0    0    0 -0.00000000000E+00 -0.00000000000E+00 -0.45593999997E+02  0.45594000000E+02  0.51100000000E-03 0. -1.
    9900012    2    1    2    0    0  0.17412418399E+02 -0.38098973774E+01  0.26438793494E+02  0.59301993133E+02  0.50000089556E+02 0.  0.
         12    1    1    2    0    0 -0.17412418399E+02  0.38098973774E+01 -0.26438793494E+02  0.31886006867E+02  0.00000000000E+00 0. -1.
         11    1    3    3    0    0  0.28673424920E+01 -0.15254905810E+02  0.26213112959E+02  0.30464095186E+02  0.51100000000E-03 0. -1.
        -11    1    3    3    0    0 -0.14213488961E+01  0.82400934881E+01 -0.71110256087E+01  0.10976614179E+02  0.51100000000E-03 0.  1.
        -12    1    3    3    0    0  0.15966424803E+02  0.32049149448E+01  0.73367061432E+01  0.17861283767E+02  0.00000000000E+00 0.  1.
</event>
<event>
 7    1  0.4673733E-013  0.5930194E+02  0.7816164E-02  0.1266605E+00
        -11   -1    0    0    0    0  0.00000000000E+00  0.00000000000E+00  0.45593999997E+02  0.45594000000E+02  0.51100000000E-03 0.  1.
         11   -1    0    0    0    0 -0.00000000000E+00 -0.00000000000E+00 -0.45593999997E+02  0.45594000000E+02  0.51100000000E-03 0. -1.
    9900012    2    1    2    0    0  0.31309868482E+02  0.19740933440E+01  0.57022763847E+01  0.59301939333E+02  0.49999991438E+02 0.  0.
         12    1    1    2    0    0 -0.31309868482E+02 -0.19740933440E+01 -0.57022763847E+01  0.31886060667E+02  0.00000000000E+00 0. -1.
         11    1    3    3    0    0 -0.15400070201E+01  0.20725371369E+02  0.31817536537E+01  0.21024656872E+02  0.51100000000E-03 0. -1.
        -11    1    3    3    0    0  0.24168843437E+02 -0.12001998097E+02 -0.49574170538E-01  0.26984873712E+02  0.51100000000E-03 0.  1.
         12    1    3    3    0    0  0.86810320651E+01 -0.67492799279E+01  0.25700969016E+01  0.11292408748E+02  0.00000000000E+00 0. -1.
</event>
<event>
 7    1  0.4673733E-013  0.5930194E+02  0.7816164E-02  0.1266605E+00
        -11   -1    0    0    0    0  0.00000000000E+00  0.00000000000E+00  0.45593999997E+02  0.45594000000E+02  0.51100000000E-03 0. -1.
         11   -1    0    0    0    0 -0.00000000000E+00 -0.00000000000E+00 -0.45593999997E+02  0.45594000000E+02  0.51100000000E-03 0.  1.
    9900012    2    1    2    0    0  0.59310883103E+01 -0.95385585037E+01 -0.29842236100E+02  0.59301937805E+02  0.49999988650E+02 0.  0.
         12    1    1    2    0    0 -0.59310883103E+01  0.95385585037E+01  0.29842236100E+02  0.31886062195E+02  0.00000000000E+00 0. -1.
         11    1    3    3    0    0  0.18593525905E+01  0.68419129954E+01 -0.61009714571E+00  0.71162619598E+01  0.51100000000E-03 0. -1.
        -11    1    3    3    0    0  0.21080118399E+02 -0.15547573151E+02 -0.18194916894E+02  0.31892842828E+02  0.51100000000E-03 0.  1.
        -12    1    3    3    0    0 -0.17008382680E+02 -0.83289834830E+00 -0.11037222061E+02  0.20292833017E+02  0.00000000000E+00 0.  1.
</event>
<event>
 7    1  0.4673733E-013  0.5930195E+02  0.7816164E-02  0.1266605E+00
        -11   -1    0    0    0    0  0.00000000000E+00  0.00000000000E+00  0.45593999997E+02  0.45594000000E+02  0.51100000000E-03 0.  1.
         11   -1    0    0    0    0 -0.00000000000E+00 -0.00000000000E+00 -0.45593999997E+02  0.45594000000E+02  0.51100000000E-03 0. -1.
    9900012    2    1    2    0    0 -0.24429456587E+01  0.31525145671E+02  0.41130661018E+01  0.59301951235E+02  0.50000013144E+02 0.  0.
         12    1    1    2    0    0  0.24429456587E+01 -0.31525145671E+02 -0.41130661018E+01  0.31886048765E+02  0.00000000000E+00 0. -1.
         11    1    3    3    0    0  0.34488670942E+01  0.34869925573E+02  0.10116468582E+02  0.36471212353E+02  0.51100000000E-03 0. -1.
        -11    1    3    3    0    0 -0.58035379102E+01 -0.51524977427E+01  0.65452020543E+01  0.10152288188E+02  0.51100000000E-03 0.  1.
        -12    1    3    3    0    0 -0.88274842702E-01  0.18077178414E+01 -0.12548604534E+02  0.12678450694E+02  0.00000000000E+00 0.  1.
</event>
<event>
 7    1  0.4673733E-013  0.5930198E+02  0.7816164E-02  0.1266605E+00
        -11   -1    0    0    0    0  0.00000000000E+00  0.00000000000E+00  0.45593999997E+02  0.45594000000E+02  0.51100000000E-03 0.  1.
         11   -1    0    0    0    0 -0.00000000000E+00 -0.00000000000E+00 -0.45593999997E+02  0.45594000000E+02  0.51100000000E-03 0. -1.
    9900012    2    1    2    0    0  0.12405567512E+02  0.29096098038E+02 -0.40295598426E+01  0.59301978316E+02  0.50000062534E+02 0.  0.
         12    1    1    2    0    0 -0.12405567512E+02 -0.29096098038E+02  0.40295598426E+01  0.31886021684E+02  0.00000000000E+00 0. -1.
         11    1    3    3    0    0  0.11899201508E+02  0.36733974576E+02 -0.15974663209E+02  0.41787148139E+02  0.51100000000E-03 0. -1.
        -11    1    3    3    0    0  0.41052478567E+01 -0.72450181432E+01  0.10956827670E+02  0.13762100883E+02  0.51100000000E-03 0.  1.
         12    1    3    3    0    0 -0.35988818522E+01 -0.39285839521E+00  0.98827569711E+00  0.37527292946E+01  0.00000000000E+00 0. -1.
</event>
<event>
 7    1  0.4673733E-013  0.5930196E+02  0.7816164E-02  0.1266605E+00
        -11   -1    0    0    0    0  0.00000000000E+00  0.00000000000E+00  0.45593999997E+02  0.45594000000E+02  0.51100000000E-03 0.  1.
         11   -1    0    0    0    0 -0.00000000000E+00 -0.00000000000E+00 -0.45593999997E+02  0.45594000000E+02  0.51100000000E-03 0. -1.
    9900012    2    1    2    0    0 -0.28578476024E+02  0.10672720145E+02  0.92781006556E+01  0.59301962320E+02  0.50000033361E+02 0.  0.
         12    1    1    2    0    0  0.28578476024E+02 -0.10672720145E+02 -0.92781006556E+01  0.31886037680E+02  0.00000000000E+00 0. -1.
         11    1    3    3    0    0 -0.24909314985E+02  0.10945042742E+02  0.27385563834E+02  0.38603588440E+02  0.51100000000E-03 0. -1.
        -11    1    3    3    0    0 -0.20104462258E+01 -0.12675113611E+01  0.10933200269E+00  0.23791664139E+01  0.51100000000E-03 0.  1.
         12    1    3    3    0    0 -0.16587148134E+01  0.99518876325E+00 -0.18216795181E+02  0.18319207466E+02  0.00000000000E+00 0. -1.
</event>
<event>
 7    1  0.4673733E-013  0.5930196E+02  0.7816164E-02  0.1266605E+00
        -11   -1    0    0    0    0  0.00000000000E+00  0.00000000000E+00  0.45593999997E+02  0.45594000000E+02  0.51100000000E-03 0.  1.
         11   -1    0    0    0    0 -0.00000000000E+00 -0.00000000000E+00 -0.45593999997E+02  0.45594000000E+02  0.51100000000E-03 0. -1.
    9900012    2    1    2    0    0  0.78194408719E+01 -0.14313941227E+02  0.27398672919E+02  0.59301955298E+02  0.50000020555E+02 0.  0.
         12    1    1    2    0    0 -0.78194408719E+01  0.14313941227E+02 -0.27398672919E+02  0.31886044702E+02  0.00000000000E+00 0. -1.
         11    1    3    3    0    0 -0.13222593393E+02 -0.37126167621E+01  0.25568750726E+01  0.13969900130E+02  0.51100000000E-03 0. -1.
        -11    1    3    3    0    0  0.99212068000E+01  0.98754514591E+01  0.13378154972E+02  0.19363107101E+02  0.51100000000E-03 0.  1.
        -12    1    3    3    0    0  0.11120827465E+02 -0.20476775924E+02  0.11463642874E+02  0.25968948067E+02  0.00000000000E+00 0.  1.
</event>
<event>
 7    1  0.4673733E-013  0.5930196E+02  0.7816164E-02  0.1266605E+00
        -11   -1    0    0    0    0  0.00000000000E+00  0.00000000000E+00  0.45593999997E+02  0.45594000000E+02  0.51100000000E-03 0.  1.
         11   -1    0    0    0    0 -0.00000000000E+00 -0.00000000000E+00 -0.45593999997E+02  0.45594000000E+02  0.51100000000E-03 0. -1.
    9900012    2    1    2    0    0 -0.22538837540E+02 -0.19194556551E+02  0.11844393440E+02  0.59301955172E+02  0.50000020324E+02 0.  0.
         12    1    1    2    0    0  0.22538837540E+02  0.19194556551E+02 -0.11844393440E+02  0.31886044828E+02  0.00000000000E+00 0. -1.
         11    1    3    3    0    0 -0.66661846479E+01 -0.17040610553E+02 -0.34892605527E+01  0.18627811606E+02  0.51100000000E-03 0. -1.
        -11    1    3    3    0    0 -0.24928486991E+02  0.46054760774E+01  0.60821709614E+01  0.26069765581E+02  0.51100000000E-03 0.  1.
        -12    1    3    3    0    0  0.90558340995E+01 -0.67594220755E+01  0.92514830315E+01  0.14604377985E+02  0.00000000000E+00 0.  1.
</event>
<event>
 7    1  0.4673733E-013  0.5930195E+02  0.7816164E-02  0.1266605E+00
        -11   -1    0    0    0    0  0.00000000000E+00  0.00000000000E+00  0.45593999997E+02  0.45594000000E+02  0.51100000000E-03 0.  1.
         11   -1    0    0    0    0 -0.00000000000E+00 -0.00000000000E+00 -0.45593999997E+02  0.45594000000E+02  0.51100000000E-03 0. -1.
    9900012    2    1    2    0    0  0.10540462190E+02  0.28906065272E+02  0.83700659329E+01  0.59301953578E+02  0.50000017418E+02 0.  0.
         12    1    1    2    0    0 -0.10540462190E+02 -0.28906065272E+02 -0.83700659329E+01  0.31886046422E+02  0.00000000000E+00 0. -1.
         11    1    3    3    0    0 -0.13695366738E+02  0.13393044704E+02 -0.42701545026E+01  0.19625772246E+02  0.51100000000E-03 0. -1.
        -11    1    3    3    0    0  0.20540745581E+02  0.76964053886E+01  0.18938237806E+02  0.28979539961E+02  0.51100000000E-03 0.  1.
         12    1    3    3    0    0  0.36950833469E+01  0.78166151798E+01 -0.62980173709E+01  0.10696641371E+02  0.00000000000E+00 0. -1.
</event>
<event>
 7    1  0.4673733E-013  0.5930194E+02  0.7816164E-02  0.1266605E+00
        -11   -1    0    0    0    0  0.00000000000E+00  0.00000000000E+00  0.45593999997E+02  0.45594000000E+02  0.51100000000E-03 0. -1.
         11   -1    0    0    0    0 -0.00000000000E+00 -0.00000000000E+00 -0.45593999997E+02  0.45594000000E+02  0.51100000000E-03 0.  1.
    9900012    2    1    2    0    0 -0.11309005390E+02  0.98830094784E+01 -0.28127448594E+02  0.59301939665E+02  0.49999992044E+02 0.  0.
         12    1    1    2    0    0  0.11309005390E+02 -0.98830094784E+01  0.28127448594E+02  0.31886060335E+02  0.00000000000E+00 0. -1.
         11    1    3    3    0    0  0.11168305048E+02  0.14683230134E+02  0.72757550824E+00  0.18462330600E+02  0.51100000000E-03 0. -1.
        -11    1    3    3    0    0 -0.17186362532E+02  0.99526045174E-01 -0.83582242309E+01  0.19111276124E+02  0.51100000000E-03 0.  1.
        -12    1    3    3    0    0 -0.52909479052E+01 -0.48997467004E+01 -0.20496799871E+02  0.21728332942E+02  0.00000000000E+00 0.  1.
</event>
<event>
 7    1  0.4673733E-013  0.5930204E+02  0.7816164E-02  0.1266604E+00
        -11   -1    0    0    0    0  0.00000000000E+00  0.00000000000E+00  0.45593999997E+02  0.45594000000E+02  0.51100000000E-03 0.  1.
         11   -1    0    0    0    0 -0.00000000000E+00 -0.00000000000E+00 -0.45593999997E+02  0.45594000000E+02  0.51100000000E-03 0. -1.
    9900012    2    1    2    0    0 -0.10753677954E+02 -0.10728772584E+02  0.28035095196E+02  0.59302035794E+02  0.50000167359E+02 0.  0.
         12    1    1    2    0    0  0.10753677954E+02  0.10728772584E+02 -0.28035095196E+02  0.31885964206E+02  0.00000000000E+00 0. -1.
         11    1    3    3    0    0 -0.27905615937E+01 -0.34964156261E+01  0.30088373551E+01  0.53912205232E+01  0.51100000000E-03 0. -1.
        -11    1    3    3    0    0  0.16291340192E+01 -0.38279876721E+00 -0.13509506402E+02  0.13612765187E+02  0.51100000000E-03 0.  1.
        -12    1    3    3    0    0 -0.95922503798E+01 -0.68495581910E+01  0.38535764243E+02  0.40298050084E+02  0.00000000000E+00 0.  1.
</event>
<event>
 7    1  0.4673733E-013  0.5930196E+02  0.7816164E-02  0.1266605E+00
        -11   -1    0    0    0    0  0.00000000000E+00  0.00000000000E+00  0.45593999997E+02  0.45594000000E+02  0.51100000000E-03 0.  1.
         11   -1    0    0    0    0 -0.00000000000E+00 -0.00000000000E+00 -0.45593999997E+02  0.45594000000E+02  0.51100000000E-03 0. -1.
    9900012    2    1    2    0    0  0.22167120643E+02  0.49975455357E+01  0.22368793539E+02  0.59301958801E+02  0.50000026942E+02 0.  0.
         12    1    1    2    0    0 -0.22167120643E+02 -0.49975455357E+01 -0.22368793539E+02  0.31886041199E+02  0.00000000000E+00 0. -1.
         11    1    3    3    0    0 -0.10466759189E+02  0.11755975558E+02 -0.51543831934E+00  0.15748704269E+02  0.51100000000E-03 0. -1.
        -11    1    3    3    0    0  0.24467167915E+02 -0.34134003015E+01  0.75001082641E+01  0.25817537288E+02  0.51100000000E-03 0.  1.
         12    1    3    3    0    0  0.81667119166E+01 -0.33450297211E+01  0.15384123594E+02  0.17735717243E+02  0.00000000000E+00 0. -1.
</event>
<event>
 7    1  0.4673733E-013  0.5930193E+02  0.7816164E-02  0.1266605E+00
        -11   -1    0    0    0    0  0.00000000000E+00  0.00000000000E+00  0.45593999997E+02  0.45594000000E+02  0.51100000000E-03 0.  1.
         11   -1    0    0    0    0 -0.00000000000E+00 -0.00000000000E+00 -0.45593999997E+02  0.45594000000E+02  0.51100000000E-03 0. -1.
    9900012    2    1    2    0    0 -0.12230249848E+01 -0.11008118793E+02  0.29900614397E+02  0.59301933909E+02  0.49999981546E+02 0.  0.
         12    1    1    2    0    0  0.12230249848E+01  0.11008118793E+02 -0.29900614397E+02  0.31886066091E+02  0.00000000000E+00 0. -1.
         11    1    3    3    0    0 -0.47929440292E+00 -0.34302575510E+01  0.15075117512E+02  0.15467887970E+02  0.51100000000E-03 0.  1.
        -11    1    3    3    0    0  0.19460298057E+02 -0.44251816196E+01  0.29126905068E+01  0.20168520002E+02  0.51100000000E-03 0. -1.
        -12    1    3    3    0    0 -0.20204028639E+02 -0.31526796220E+01  0.11912806377E+02  0.23665525936E+02  0.00000000000E+00 0.  1.
</event>
<event>
 7    1  0.4673733E-013  0.5930197E+02  0.7816164E-02  0.1266605E+00
        -11   -1    0    0    0    0  0.00000000000E+00  0.00000000000E+00  0.45593999997E+02  0.45594000000E+02  0.51100000000E-03 0.  1.
         11   -1    0    0    0    0 -0.00000000000E+00 -0.00000000000E+00 -0.45593999997E+02  0.45594000000E+02  0.51100000000E-03 0. -1.
    9900012    2    1    2    0    0  0.22128265504E+02  0.12094197191E+02  0.19513824699E+02  0.59301967097E+02  0.50000042072E+02 0.  0.
         12    1    1    2    0    0 -0.22128265504E+02 -0.12094197191E+02 -0.19513824699E+02  0.31886032903E+02  0.00000000000E+00 0. -1.
         11    1    3    3    0    0  0.12195168266E+02 -0.16341240279E+02 -0.14337996908E+01  0.20440500109E+02  0.51100000000E-03 0. -1.
        -11    1    3    3    0    0  0.12140300312E+02  0.24812433852E+02  0.14648539803E+02  0.31266971135E+02  0.51100000000E-03 0.  1.
         12    1    3    3    0    0 -0.22072030735E+01  0.36230036176E+01  0.62990845869E+01  0.75944958525E+01  0.00000000000E+00 0. -1.
</event>
<event>
 7    1  0.4673733E-013  0.5930208E+02  0.7816164E-02  0.1266604E+00
        -11   -1    0    0    0    0  0.00000000000E+00  0.00000000000E+00  0.45593999997E+02  0.45594000000E+02  0.51100000000E-03 0.  1.
         11   -1    0    0    0    0 -0.00000000000E+00 -0.00000000000E+00 -0.45593999997E+02  0.45594000000E+02  0.51100000000E-03 0. -1.
    9900012    2    1    2    0    0 -0.18256940902E+02 -0.33607555151E+01  0.25924918513E+02  0.59302078834E+02  0.50000245853E+02 0.  0.
         12    1    1    2    0    0  0.18256940902E+02  0.33607555151E+01 -0.25924918513E+02  0.31885921166E+02  0.00000000000E+00 0. -1.
         11    1    3    3    0    0  0.10649422830E+02 -0.13915606716E+02  0.15924093183E+02  0.23677648972E+02  0.51100000000E-03 0. -1.
        -11    1    3    3    0    0 -0.16847821323E+02  0.11249861292E+02  0.51296120609E+00  0.20265033725E+02  0.51100000000E-03 0.  1.
        -12    1    3    3    0    0 -0.12058542409E+02 -0.69501009159E+00  0.94878641237E+01  0.15359396137E+02  0.00000000000E+00 0.  1.
</event>
<event>
 7    1  0.4673733E-013  0.5930211E+02  0.7816164E-02  0.1266604E+00
        -11   -1    0    0    0    0  0.00000000000E+00  0.00000000000E+00  0.45593999997E+02  0.45594000000E+02  0.51100000000E-03 0. -1.
         11   -1    0    0    0    0 -0.00000000000E+00 -0.00000000000E+00 -0.45593999997E+02  0.45594000000E+02  0.51100000000E-03 0.  1.
    9900012    2    1    2    0    0 -0.29947308790E+02 -0.31393226985E+01 -0.10488715266E+02  0.59302112861E+02  0.50000307910E+02 0.  0.
         12    1    1    2    0    0  0.29947308790E+02  0.31393226985E+01  0.10488715266E+02  0.31885887139E+02  0.00000000000E+00 0. -1.
         11    1    3    3    0    0 -0.35886323427E+02 -0.13900857422E+02 -0.14542658633E+02  0.41140624284E+02  0.51100000000E-03 0. -1.
        -11    1    3    3    0    0  0.32654275562E+01  0.13287726470E+02  0.46155893897E+01  0.14440580236E+02  0.51100000000E-03 0.  1.
         12    1    3    3    0    0  0.26735870809E+01 -0.25261917469E+01 -0.56164602276E+00  0.37209083402E+01  0.00000000000E+00 0. -1.
</event>
<event>
 7    1  0.4673733E-013  0.5930197E+02  0.7816164E-02  0.1266605E+00
        -11   -1    0    0    0    0  0.00000000000E+00  0.00000000000E+00  0.45593999997E+02  0.45594000000E+02  0.51100000000E-03 0. -1.
         11   -1    0    0    0    0 -0.00000000000E+00 -0.00000000000E+00 -0.45593999997E+02  0.45594000000E+02  0.51100000000E-03 0.  1.
    9900012    2    1    2    0    0  0.14010442025E+02 -0.30785538584E+01 -0.28477163027E+02  0.59301971811E+02  0.50000050670E+02 0.  0.
         12    1    1    2    0    0 -0.14010442025E+02  0.30785538584E+01  0.28477163027E+02  0.31886028189E+02  0.00000000000E+00 0. -1.
         11    1    3    3    0    0  0.25978040862E+00 -0.12440463919E+02 -0.82167426790E+01  0.14911320830E+02  0.51100000000E-03 0. -1.
        -11    1    3    3    0    0  0.50556884296E+01  0.22359743739E+02 -0.16673733588E+02  0.28346631504E+02  0.51100000000E-03 0.  1.
        -12    1    3    3    0    0  0.86949731866E+01 -0.12997833678E+02 -0.35866867608E+01  0.16044019477E+02  0.00000000000E+00 0.  1.
</event>
<event>
 7    1  0.4673733E-013  0.5930192E+02  0.7816164E-02  0.1266605E+00
        -11   -1    0    0    0    0  0.00000000000E+00  0.00000000000E+00  0.45593999997E+02  0.45594000000E+02  0.51100000000E-03 0.  1.
         11   -1    0    0    0    0 -0.00000000000E+00 -0.00000000000E+00 -0.45593999997E+02  0.45594000000E+02  0.51100000000E-03 0. -1.
    9900012    2    1    2    0    0 -0.80680771048E+00 -0.75156266739E+01  0.30977189791E+02  0.59301923566E+02  0.49999962683E+02 0.  0.
         12    1    1    2    0    0  0.80680771048E+00  0.75156266739E+01 -0.30977189791E+02  0.31886076434E+02  0.00000000000E+00 0. -1.
         11    1    3    3    0    0 -0.76255198069E+01 -0.28963616529E+01  0.15558799045E+01  0.83041089641E+01  0.51100000000E-03 0. -1.
        -11    1    3    3    0    0  0.14184823251E+02  0.13264487702E+02  0.53991376523E+01  0.20157046716E+02  0.51100000000E-03 0.  1.
        -12    1    3    3    0    0 -0.73661111541E+01 -0.17883752723E+02  0.24022172234E+02  0.30840767887E+02  0.00000000000E+00 0.  1.
</event>
<event>
 7    1  0.4673733E-013  0.5930194E+02  0.7816164E-02  0.1266605E+00
        -11   -1    0    0    0    0  0.00000000000E+00  0.00000000000E+00  0.45593999997E+02  0.45594000000E+02  0.51100000000E-03 0. -1.
         11   -1    0    0    0    0 -0.00000000000E+00 -0.00000000000E+00 -0.45593999997E+02  0.45594000000E+02  0.51100000000E-03 0.  1.
    9900012    2    1    2    0    0  0.14021350651E+02  0.11258967258E+02 -0.26331691373E+02  0.59301943669E+02  0.49999999346E+02 0.  0.
         12    1    1    2    0    0 -0.14021350651E+02 -0.11258967258E+02  0.26331691373E+02  0.31886056331E+02  0.00000000000E+00 0. -1.
         11    1    3    3    0    0 -0.19473922687E+01 -0.18050468631E+02 -0.16330847814E+02  0.24419425567E+02  0.51100000000E-03 0. -1.
        -11    1    3    3    0    0  0.28070824755E+01  0.41743911707E+01 -0.11328093916E+01  0.51564048570E+01  0.51100000000E-03 0.  1.
         12    1    3    3    0    0  0.13161660444E+02  0.25135044718E+02 -0.88680341671E+01  0.29726113245E+02  0.00000000000E+00 0. -1.
</event>
<event>
 7    1  0.4673733E-013  0.5930194E+02  0.7816164E-02  0.1266605E+00
        -11   -1    0    0    0    0  0.00000000000E+00  0.00000000000E+00  0.45593999997E+02  0.45594000000E+02  0.51100000000E-03 0. -1.
         11   -1    0    0    0    0 -0.00000000000E+00 -0.00000000000E+00 -0.45593999997E+02  0.45594000000E+02  0.51100000000E-03 0.  1.
    9900012    2    1    2    0    0  0.20600691500E+01 -0.29797070969E+02 -0.11162946285E+02  0.59301942028E+02  0.49999996354E+02 0.  0.
         12    1    1    2    0    0 -0.20600691500E+01  0.29797070969E+02  0.11162946285E+02  0.31886057972E+02  0.00000000000E+00 0. -1.
         11    1    3    3    0    0  0.73330295537E+01  0.10374580464E+02 -0.88067058699E+01  0.15458438174E+02  0.51100000000E-03 0. -1.
        -11    1    3    3    0    0 -0.83585560116E+00 -0.23318730177E+02 -0.92527334213E+01  0.25101292949E+02  0.51100000000E-03 0.  1.
         12    1    3    3    0    0 -0.44371048025E+01 -0.16852921255E+02  0.68964930063E+01  0.18742210906E+02  0.00000000000E+00 0. -1.
</event>
<event>
 7    1  0.4673733E-013  0.5930195E+02  0.7816164E-02  0.1266605E+00
        -11   -1    0    0    0    0  0.00000000000E+00  0.00000000000E+00  0.45593999997E+02  0.45594000000E+02  0.51100000000E-03 0.  1.
         11   -1    0    0    0    0 -0.00000000000E+00 -0.00000000000E+00 -0.45593999997E+02  0.45594000000E+02  0.51100000000E-03 0. -1.
    9900012    2    1    2    0    0  0.13615770101E+02  0.92730269990E+01  0.27300955390E+02  0.59301946773E+02  0.50000005007E+02 0.  0.
         12    1    1    2    0    0 -0.13615770101E+02 -0.92730269990E+01 -0.27300955390E+02  0.31886053227E+02  0.00000000000E+00 0. -1.
         11    1    3    3    0    0 -0.73979889190E+01  0.17727675260E+02  0.96078947791E+01  0.21478183175E+02  0.51100000000E-03 0. -1.
        -11    1    3    3    0    0  0.12104382929E+02 -0.15859067025E+02  0.17012369262E+02  0.26219206722E+02  0.51100000000E-03 0.  1.
        -12    1    3    3    0    0  0.89093760912E+01  0.74044187636E+01  0.68069134901E+00  0.11604556875E+02  0.00000000000E+00 0.  1.
</event>
<event>
 7    1  0.4673733E-013  0.5930196E+02  0.7816164E-02  0.1266605E+00
        -11   -1    0    0    0    0  0.00000000000E+00  0.00000000000E+00  0.45593999997E+02  0.45594000000E+02  0.51100000000E-03 0. -1.
         11   -1    0    0    0    0 -0.00000000000E+00 -0.00000000000E+00 -0.45593999997E+02  0.45594000000E+02  0.51100000000E-03 0.  1.
    9900012    2    1    2    0    0 -0.29360666591E+02 -0.12048920522E+02 -0.30812505042E+01  0.59301963352E+02  0.50000035243E+02 0.  0.
         12    1    1    2    0    0  0.29360666591E+02  0.12048920522E+02  0.30812505042E+01  0.31886036648E+02  0.00000000000E+00 0. -1.
         11    1    3    3    0    0 -0.83971373806E+01 -0.22908898372E+01  0.21381103610E+02  0.23084879992E+02  0.51100000000E-03 0. -1.
        -11    1    3    3    0    0 -0.66035803331E+01  0.81796225610E+00 -0.14099266675E+02  0.15590563059E+02  0.51100000000E-03 0.  1.
         12    1    3    3    0    0 -0.14359948878E+02 -0.10575992941E+02 -0.10363087439E+02  0.20626520301E+02  0.00000000000E+00 0. -1.
</event>
<event>
 7    1  0.4673733E-013  0.5930193E+02  0.7816164E-02  0.1266605E+00
        -11   -1    0    0    0    0  0.00000000000E+00  0.00000000000E+00  0.45593999997E+02  0.45594000000E+02  0.51100000000E-03 0.  1.
         11   -1    0    0    0    0 -0.00000000000E+00 -0.00000000000E+00 -0.45593999997E+02  0.45594000000E+02  0.51100000000E-03 0. -1.
    9900012    2    1    2    0    0 -0.17336253645E+02 -0.82707734876E+01  0.25451333278E+02  0.59301925451E+02  0.49999966120E+02 0.  0.
         12    1    1    2    0    0  0.17336253645E+02  0.82707734876E+01 -0.25451333278E+02  0.31886074549E+02  0.00000000000E+00 0. -1.
         11    1    3    3    0    0  0.17986307534E+01 -0.86631076767E+01  0.10430237245E+02  0.13677512802E+02  0.51100000000E-03 0. -1.
        -11    1    3    3    0    0 -0.23209484318E+02 -0.63941305307E+01 -0.45614743419E+01  0.24502492036E+02  0.51100000000E-03 0.  1.
        -12    1    3    3    0    0  0.40745999192E+01  0.67864647199E+01  0.19582570375E+02  0.21121920613E+02  0.00000000000E+00 0.  1.
</event>
<event>
 7    1  0.4673733E-013  0.5930221E+02  0.7816164E-02  0.1266604E+00
        -11   -1    0    0    0    0  0.00000000000E+00  0.00000000000E+00  0.45593999997E+02  0.45594000000E+02  0.51100000000E-03 0.  1.
         11   -1    0    0    0    0 -0.00000000000E+00 -0.00000000000E+00 -0.45593999997E+02  0.45594000000E+02  0.51100000000E-03 0. -1.
    9900012    2    1    2    0    0  0.87458988784E+01 -0.30617689474E+02  0.16642452461E+01  0.59302213697E+02  0.50000491810E+02 0.  0.
         12    1    1    2    0    0 -0.87458988784E+01  0.30617689474E+02 -0.16642452461E+01  0.31885786303E+02  0.00000000000E+00 0. -1.
         11    1    3    3    0    0  0.32573618529E+01 -0.22788718810E+02  0.60492607528E+01  0.23801883689E+02  0.51100000000E-03 0. -1.
        -11    1    3    3    0    0 -0.11250791920E+02 -0.66948243393E+01 -0.11357126368E+02  0.17331627487E+02  0.51100000000E-03 0.  1.
        -12    1    3    3    0    0  0.16739328946E+02 -0.11341463248E+01  0.69721108609E+01  0.18168702521E+02  0.00000000000E+00 0.  1.
</event>
<event>
 7    1  0.4673733E-013  0.5930196E+02  0.7816164E-02  0.1266605E+00
        -11   -1    0    0    0    0  0.00000000000E+00  0.00000000000E+00  0.45593999997E+02  0.45594000000E+02  0.51100000000E-03 0.  1.
         11   -1    0    0    0    0 -0.00000000000E+00 -0.00000000000E+00 -0.45593999997E+02  0.45594000000E+02  0.51100000000E-03 0. -1.
    9900012    2    1    2    0    0  0.19364310804E+02  0.29619997280E+00  0.25330917952E+02  0.59301958044E+02  0.50000025562E+02 0.  0.
         12    1    1    2    0    0 -0.19364310804E+02 -0.29619997280E+00 -0.25330917952E+02  0.31886041956E+02  0.00000000000E+00 0. -1.
         11    1    3    3    0    0 -0.12757424576E+02  0.63319173482E+01  0.17321033442E+02  0.22424612792E+02  0.51100000000E-03 0.  1.
        -11    1    3    3    0    0  0.18588807390E+02 -0.87017156191E+01  0.10186719708E+02  0.22913595824E+02  0.51100000000E-03 0. -1.
        -12    1    3    3    0    0  0.13532927990E+02  0.26659982436E+01 -0.21768351975E+01  0.13963749428E+02  0.00000000000E+00 0.  1.
</event>
<event>
 7    1  0.4673733E-013  0.5930192E+02  0.7816164E-02  0.1266605E+00
        -11   -1    0    0    0    0  0.00000000000E+00  0.00000000000E+00  0.45593999997E+02  0.45594000000E+02  0.51100000000E-03 0. -1.
         11   -1    0    0    0    0 -0.00000000000E+00 -0.00000000000E+00 -0.45593999997E+02  0.45594000000E+02  0.51100000000E-03 0.  1.
    9900012    2    1    2    0    0  0.59871437366E+00  0.22859402049E+02 -0.22221861551E+02  0.59301923858E+02  0.49999963216E+02 0.  0.
         12    1    1    2    0    0 -0.59871437366E+00 -0.22859402049E+02  0.22221861551E+02  0.31886076142E+02  0.00000000000E+00 0. -1.
         11    1    3    3    0    0 -0.15752500556E+02  0.22642371343E+01  0.27775484064E+01  0.16154962674E+02  0.51100000000E-03 0. -1.
        -11    1    3    3    0    0  0.17256822723E+02  0.23919835977E+02 -0.16098526869E+02  0.33602366751E+02  0.51100000000E-03 0.  1.
         12    1    3    3    0    0 -0.90560779295E+00 -0.33246710625E+01 -0.89008830885E+01  0.95445944337E+01  0.00000000000E+00 0. -1.
</event>
<event>
 7    1  0.4673733E-013  0.5930195E+02  0.7816164E-02  0.1266605E+00
        -11   -1    0    0    0    0  0.00000000000E+00  0.00000000000E+00  0.45593999997E+02  0.45594000000E+02  0.51100000000E-03 0.  1.
         11   -1    0    0    0    0 -0.00000000000E+00 -0.00000000000E+00 -0.45593999997E+02  0.45594000000E+02  0.51100000000E-03 0. -1.
    9900012    2    1    2    0    0  0.17260897558E+02 -0.34322013532E-01  0.26810081912E+02  0.59301948902E+02  0.50000008889E+02 0.  0.
         12    1    1    2    0    0 -0.17260897558E+02  0.34322013532E-01 -0.26810081912E+02  0.31886051098E+02  0.00000000000E+00 0. -1.
         11    1    3    3    0    0 -0.14989914430E+01  0.17800026933E+02  0.17919700236E+02  0.25302244781E+02  0.51100000000E-03 0.  1.
        -11    1    3    3    0    0  0.66354747690E+01 -0.18708939823E+02  0.18125769587E+01  0.19933373779E+02  0.51100000000E-03 0. -1.
         12    1    3    3    0    0  0.12124414232E+02  0.87459087726E+00  0.70778047171E+01  0.14066330342E+02  0.00000000000E+00 0. -1.
</event>
<event>
 7    1  0.4673733E-013  0.5930192E+02  0.7816164E-02  0.1266605E+00
        -11   -1    0    0    0    0  0.00000000000E+00  0.00000000000E+00  0.45593999997E+02  0.45594000000E+02  0.51100000000E-03 0.  1.
         11   -1    0    0    0    0 -0.00000000000E+00 -0.00000000000E+00 -0.45593999997E+02  0.45594000000E+02  0.51100000000E-03 0. -1.
    9900012    2    1    2    0    0  0.23692033889E+02  0.13040045050E+01  0.21300452844E+02  0.59301918571E+02  0.49999953573E+02 0.  0.
         12    1    1    2    0    0 -0.23692033889E+02 -0.13040045050E+01 -0.21300452844E+02  0.31886081429E+02  0.00000000000E+00 0. -1.
         11    1    3    3    0    0  0.27564716711E+02  0.40982632736E+01  0.25861563036E+01  0.27987453866E+02  0.51100000000E-03 0. -1.
        -11    1    3    3    0    0  0.33945661001E+01  0.75693628945E+01  0.16495145616E+02  0.18463698513E+02  0.51100000000E-03 0.  1.
         12    1    3    3    0    0 -0.72672489228E+01 -0.10363621663E+02  0.22191509243E+01  0.12850766191E+02  0.00000000000E+00 0. -1.
</event>
<event>
 7    1  0.4673733E-013  0.5930194E+02  0.7816164E-02  0.1266605E+00
        -11   -1    0    0    0    0  0.00000000000E+00  0.00000000000E+00  0.45593999997E+02  0.45594000000E+02  0.51100000000E-03 0.  1.
         11   -1    0    0    0    0 -0.00000000000E+00 -0.00000000000E+00 -0.45593999997E+02  0.45594000000E+02  0.51100000000E-03 0. -1.
    9900012    2    1    2    0    0  0.17543931218E+02  0.23044405561E+02  0.13337414634E+02  0.59301940674E+02  0.49999993884E+02 0.  0.
         12    1    1    2    0    0 -0.17543931218E+02 -0.23044405561E+02 -0.13337414634E+02  0.31886059326E+02  0.00000000000E+00 0. -1.
         11    1    3    3    0    0  0.14062469158E+02 -0.13847958232E+01  0.12414068557E+02  0.18809034975E+02  0.51100000000E-03 0. -1.
        -11    1    3    3    0    0 -0.12851323670E+02  0.17185957261E+02  0.52862246732E+01  0.22101081842E+02  0.51100000000E-03 0.  1.
        -12    1    3    3    0    0  0.16332785730E+02  0.72432441231E+01 -0.43628785969E+01  0.18391823857E+02  0.00000000000E+00 0.  1.
</event>
<event>
 7    1  0.4673733E-013  0.5930195E+02  0.7816164E-02  0.1266605E+00
        -11   -1    0    0    0    0  0.00000000000E+00  0.00000000000E+00  0.45593999997E+02  0.45594000000E+02  0.51100000000E-03 0. -1.
         11   -1    0    0    0    0 -0.00000000000E+00 -0.00000000000E+00 -0.45593999997E+02  0.45594000000E+02  0.51100000000E-03 0.  1.
    9900012    2    1    2    0    0 -0.15466546052E+02  0.38375652401E+01 -0.27618455250E+02  0.59301952516E+02  0.50000015481E+02 0.  0.
         12    1    1    2    0    0  0.15466546052E+02 -0.38375652401E+01  0.27618455250E+02  0.31886047484E+02  0.00000000000E+00 0. -1.
         11    1    3    3    0    0  0.30464133816E+01  0.11787866755E+02 -0.15114916277E+02  0.19408635486E+02  0.51100000000E-03 0. -1.
        -11    1    3    3    0    0 -0.14113644040E+02 -0.16353751146E+02  0.29079913753E+01  0.21796709355E+02  0.51100000000E-03 0.  1.
        -12    1    3    3    0    0 -0.43993153940E+01  0.84034496315E+01 -0.15411530349E+02  0.18096607675E+02  0.00000000000E+00 0.  1.
</event>
<event>
 7    1  0.4673733E-013  0.5930197E+02  0.7816164E-02  0.1266605E+00
        -11   -1    0    0    0    0  0.00000000000E+00  0.00000000000E+00  0.45593999997E+02  0.45594000000E+02  0.51100000000E-03 0.  1.
         11   -1    0    0    0    0 -0.00000000000E+00 -0.00000000000E+00 -0.45593999997E+02  0.45594000000E+02  0.51100000000E-03 0. -1.
    9900012    2    1    2    0    0 -0.75106480161E+01 -0.27455362591E+02  0.14370527302E+02  0.59301971343E+02  0.50000049816E+02 0.  0.
         12    1    1    2    0    0  0.75106480161E+01  0.27455362591E+02 -0.14370527302E+02  0.31886028657E+02  0.00000000000E+00 0. -1.
         11    1    3    3    0    0 -0.12552404118E+02 -0.25078004124E+02  0.26143537881E+01  0.28165652593E+02  0.51100000000E-03 0. -1.
        -11    1    3    3    0    0  0.12305280117E+02 -0.72406131730E+00  0.17725608609E+02  0.21590307649E+02  0.51100000000E-03 0.  1.
         12    1    3    3    0    0 -0.72635240150E+01 -0.16532971490E+01 -0.59694350948E+01  0.95460111005E+01  0.00000000000E+00 0. -1.
</event>
<event>
 7    1  0.4673733E-013  0.5930194E+02  0.7816164E-02  0.1266605E+00
        -11   -1    0    0    0    0  0.00000000000E+00  0.00000000000E+00  0.45593999997E+02  0.45594000000E+02  0.51100000000E-03 0.  1.
         11   -1    0    0    0    0 -0.00000000000E+00 -0.00000000000E+00 -0.45593999997E+02  0.45594000000E+02  0.51100000000E-03 0. -1.
    9900012    2    1    2    0    0 -0.23435376482E+02  0.12258072575E+02  0.17811330385E+02  0.59301941852E+02  0.49999996032E+02 0.  0.
         12    1    1    2    0    0  0.23435376482E+02 -0.12258072575E+02 -0.17811330385E+02  0.31886058148E+02  0.00000000000E+00 0. -1.
         11    1    3    3    0    0  0.29559370888E+01 -0.47709328908E+01  0.93304174156E+01  0.10888344876E+02  0.51100000000E-03 0. -1.
        -11    1    3    3    0    0 -0.50517002510E+01  0.15099513717E+02 -0.11082421834E+02  0.19399357306E+02  0.51100000000E-03 0.  1.
        -12    1    3    3    0    0 -0.21339613320E+02  0.19294917492E+01  0.19563334803E+02  0.29014239671E+02  0.00000000000E+00 0.  1.
</event>
<event>
 7    1  0.4673733E-013  0.5930193E+02  0.7816164E-02  0.1266605E+00
        -11   -1    0    0    0    0  0.00000000000E+00  0.00000000000E+00  0.45593999997E+02  0.45594000000E+02  0.51100000000E-03 0.  1.
         11   -1    0    0    0    0 -0.00000000000E+00 -0.00000000000E+00 -0.45593999997E+02  0.45594000000E+02  0.51100000000E-03 0. -1.
    9900012    2    1    2    0    0 -0.88087666381E+01  0.95198789356E+01  0.29129000637E+02  0.59301934976E+02  0.49999983492E+02 0.  0.
         12    1    1    2    0    0  0.88087666381E+01 -0.95198789356E+01 -0.29129000637E+02  0.31886065024E+02  0.00000000000E+00 0. -1.
         11    1    3    3    0    0 -0.33866394219E+01 -0.16953408540E+01  0.10775880847E+02  0.11422045153E+02  0.51100000000E-03 0. -1.
        -11    1    3    3    0    0 -0.90421145576E+01 -0.53190929974E+01 -0.10235356973E+02  0.14656572540E+02  0.51100000000E-03 0.  1.
        -12    1    3    3    0    0  0.36199873414E+01  0.16534312787E+02  0.28588476762E+02  0.33223317283E+02  0.00000000000E+00 0.  1.
</event>
<event>
 7    1  0.4673733E-013  0.5930194E+02  0.7816164E-02  0.1266605E+00
        -11   -1    0    0    0    0  0.00000000000E+00  0.00000000000E+00  0.45593999997E+02  0.45594000000E+02  0.51100000000E-03 0.  1.
         11   -1    0    0    0    0 -0.00000000000E+00 -0.00000000000E+00 -0.45593999997E+02  0.45594000000E+02  0.51100000000E-03 0. -1.
    9900012    2    1    2    0    0 -0.25840891517E+01 -0.10789622311E+02  0.29893604870E+02  0.59301935983E+02  0.49999985329E+02 0.  0.
         12    1    1    2    0    0  0.25840891517E+01  0.10789622311E+02 -0.29893604870E+02  0.31886064017E+02  0.00000000000E+00 0. -1.
         11    1    3    3    0    0  0.46435401040E+01  0.26290639229E+01 -0.66889565931E+01  0.85566688830E+01  0.51100000000E-03 0. -1.
        -11    1    3    3    0    0 -0.59681361558E+01 -0.46510854949E+01  0.40398269115E+02  0.41100746870E+02  0.51100000000E-03 0.  1.
         12    1    3    3    0    0 -0.12594930999E+01 -0.87676007392E+01 -0.38157076523E+01  0.96445202306E+01  0.00000000000E+00 0. -1.
</event>
<event>
 7    1  0.4673733E-013  0.5930195E+02  0.7816164E-02  0.1266605E+00
        -11   -1    0    0    0    0  0.00000000000E+00  0.00000000000E+00  0.45593999997E+02  0.45594000000E+02  0.51100000000E-03 0. -1.
         11   -1    0    0    0    0 -0.00000000000E+00 -0.00000000000E+00 -0.45593999997E+02  0.45594000000E+02  0.51100000000E-03 0.  1.
    9900012    2    1    2    0    0  0.28949313661E+01  0.27415104474E+02 -0.16023473726E+02  0.59301948329E+02  0.50000007844E+02 0.  0.
         12    1    1    2    0    0 -0.28949313661E+01 -0.27415104474E+02  0.16023473726E+02  0.31886051671E+02  0.00000000000E+00 0. -1.
         11    1    3    3    0    0  0.39961027344E+00  0.74700962973E+01  0.34050078252E+01  0.82192521322E+01  0.51100000000E-03 0. -1.
        -11    1    3    3    0    0  0.85578360274E+01 -0.11147622421E+02 -0.12153465214E+02  0.18579902047E+02  0.51100000000E-03 0.  1.
        -12    1    3    3    0    0 -0.60625149347E+01  0.31092630598E+02 -0.72750163374E+01  0.32502794150E+02  0.00000000000E+00 0.  1.
</event>
<event>
 7    1  0.4673733E-013  0.5930193E+02  0.7816164E-02  0.1266605E+00
        -11   -1    0    0    0    0  0.00000000000E+00  0.00000000000E+00  0.45593999997E+02  0.45594000000E+02  0.51100000000E-03 0.  1.
         11   -1    0    0    0    0 -0.00000000000E+00 -0.00000000000E+00 -0.45593999997E+02  0.45594000000E+02  0.51100000000E-03 0. -1.
    9900012    2    1    2    0    0 -0.84290324772E+01 -0.21748699167E+02  0.21740903165E+02  0.59301931343E+02  0.49999976866E+02 0.  0.
         12    1    1    2    0    0  0.84290324772E+01  0.21748699167E+02 -0.21740903165E+02  0.31886068657E+02  0.00000000000E+00 0. -1.
         11    1    3    3    0    0  0.52535631536E+01 -0.23717038210E+02 -0.14461786986E+01  0.24334939087E+02  0.51100000000E-03 0. -1.
        -11    1    3    3    0    0 -0.29992968698E+01  0.11172702821E+02  0.13890314857E+02  0.18076667755E+02  0.51100000000E-03 0.  1.
        -12    1    3    3    0    0 -0.10683298761E+02 -0.92043637781E+01  0.92967670061E+01  0.16890324501E+02  0.00000000000E+00 0.  1.
</event>
<event>
 7    1  0.4673733E-013  0.5930194E+02  0.7816164E-02  0.1266605E+00
        -11   -1    0    0    0    0  0.00000000000E+00  0.00000000000E+00  0.45593999997E+02  0.45594000000E+02  0.51100000000E-03 0.  1.
         11   -1    0    0    0    0 -0.00000000000E+00 -0.00000000000E+00 -0.45593999997E+02  0.45594000000E+02  0.51100000000E-03 0. -1.
    9900012    2    1    2    0    0  0.16206230394E+02 -0.20262473240E+02  0.18534051438E+02  0.59301940537E+02  0.49999993633E+02 0.  0.
         12    1    1    2    0    0 -0.16206230394E+02  0.20262473240E+02 -0.18534051438E+02  0.31886059463E+02  0.00000000000E+00 0. -1.
         11    1    3    3    0    0 -0.46325420959E+01 -0.14474607197E+02 -0.83823765370E+01  0.17356236241E+02  0.51100000000E-03 0. -1.
        -11    1    3    3    0    0  0.11852976666E+02  0.34642095888E+01  0.26275062505E+02  0.29032270215E+02  0.51100000000E-03 0.  1.
        -12    1    3    3    0    0  0.89857958248E+01 -0.92520756317E+01  0.64136546958E+00  0.12913434081E+02  0.00000000000E+00 0.  1.
</event>
<event>
 7    1  0.4673733E-013  0.5930201E+02  0.7816164E-02  0.1266605E+00
        -11   -1    0    0    0    0  0.00000000000E+00  0.00000000000E+00  0.45593999997E+02  0.45594000000E+02  0.51100000000E-03 0.  1.
         11   -1    0    0    0    0 -0.00000000000E+00 -0.00000000000E+00 -0.45593999997E+02  0.45594000000E+02  0.51100000000E-03 0. -1.
    9900012    2    1    2    0    0 -0.30090716681E+02 -0.48894354862E+01  0.93465856042E+01  0.59302008213E+02  0.50000117059E+02 0.  0.
         12    1    1    2    0    0  0.30090716681E+02  0.48894354862E+01 -0.93465856042E+01  0.31885991787E+02  0.00000000000E+00 0. -1.
         11    1    3    3    0    0 -0.18445694039E+01 -0.49779505664E+00  0.19443103304E+02  0.19536747492E+02  0.51100000000E-03 0.  1.
        -11    1    3    3    0    0 -0.34553007474E+01 -0.13998030124E+00 -0.13902514456E+02  0.14326151130E+02  0.51100000000E-03 0. -1.
        -12    1    3    3    0    0 -0.24790846530E+02 -0.42516601283E+01  0.38059967562E+01  0.25439109592E+02  0.00000000000E+00 0.  1.
</event>
<event>
 7    1  0.4673733E-013  0.5930161E+02  0.7816164E-02  0.1266606E+00
        -11   -1    0    0    0    0  0.00000000000E+00  0.00000000000E+00  0.45593999997E+02  0.45594000000E+02  0.51100000000E-03 0. -1.
         11   -1    0    0    0    0 -0.00000000000E+00 -0.00000000000E+00 -0.45593999997E+02  0.45594000000E+02  0.51100000000E-03 0.  1.
    9900012    2    1    2    0    0  0.20816972457E+02  0.22569399926E+02 -0.86033653317E+01  0.59301607129E+02  0.49999385574E+02 0.  0.
         12    1    1    2    0    0 -0.20816972457E+02 -0.22569399926E+02  0.86033653317E+01  0.31886392871E+02  0.00000000000E+00 0. -1.
         11    1    3    3    0    0 -0.10070875641E+01  0.40739859665E+01  0.16778937177E+02  0.17295789085E+02  0.51100000000E-03 0. -1.
        -11    1    3    3    0    0  0.11500498445E+02  0.15729462084E+01 -0.16764353866E+02  0.20390664164E+02  0.51100000000E-03 0.  1.
         12    1    3    3    0    0  0.10323561577E+02  0.16922467751E+02 -0.86179486431E+01  0.21615153879E+02  0.00000000000E+00 0. -1.
</event>
<event>
 7    1  0.4673733E-013  0.5930197E+02  0.7816164E-02  0.1266605E+00
        -11   -1    0    0    0    0  0.00000000000E+00  0.00000000000E+00  0.45593999997E+02  0.45594000000E+02  0.51100000000E-03 0.  1.
         11   -1    0    0    0    0 -0.00000000000E+00 -0.00000000000E+00 -0.45593999997E+02  0.45594000000E+02  0.51100000000E-03 0. -1.
    9900012    2    1    2    0    0  0.14919595551E+01  0.14175962415E+02  0.28522541106E+02  0.59301965364E+02  0.50000038912E+02 0.  0.
         12    1    1    2    0    0 -0.14919595551E+01 -0.14175962415E+02 -0.28522541106E+02  0.31886034636E+02  0.00000000000E+00 0. -1.
         11    1    3    3    0    0  0.53496645327E+01  0.79699913377E+01  0.30088548532E+02  0.31582596878E+02  0.51100000000E-03 0.  1.
        -11    1    3    3    0    0 -0.14650768381E+02  0.67279740647E+01  0.22108923000E+01  0.16272636363E+02  0.51100000000E-03 0. -1.
        -12    1    3    3    0    0  0.10793063403E+02 -0.52200298779E+00 -0.37768997268E+01  0.11446732123E+02  0.00000000000E+00 0.  1.
</event>
<event>
 7    1  0.4673733E-013  0.5930197E+02  0.7816164E-02  0.1266605E+00
        -11   -1    0    0    0    0  0.00000000000E+00  0.00000000000E+00  0.45593999997E+02  0.45594000000E+02  0.51100000000E-03 0. -1.
         11   -1    0    0    0    0 -0.00000000000E+00 -0.00000000000E+00 -0.45593999997E+02  0.45594000000E+02  0.51100000000E-03 0.  1.
    9900012    2    1    2    0    0  0.15733614548E+02  0.23922265313E+02  0.14032007469E+02  0.59301974251E+02  0.50000055120E+02 0.  0.
         12    1    1    2    0    0 -0.15733614548E+02 -0.23922265313E+02 -0.14032007469E+02  0.31886025749E+02  0.00000000000E+00 0. -1.
         11    1    3    3    0    0  0.26639247278E+02  0.43850077550E+01  0.11989456411E+02  0.29540224336E+02  0.51100000000E-03 0. -1.
        -11    1    3    3    0    0 -0.12084899930E+02  0.90388897759E+01 -0.62471715927E+01  0.16333202009E+02  0.51100000000E-03 0.  1.
        -12    1    3    3    0    0  0.11792672000E+01  0.10498367782E+02  0.82897226509E+01  0.13428547906E+02  0.00000000000E+00 0.  1.
</event>
<event>
 7    1  0.4673733E-013  0.5930193E+02  0.7816164E-02  0.1266605E+00
        -11   -1    0    0    0    0  0.00000000000E+00  0.00000000000E+00  0.45593999997E+02  0.45594000000E+02  0.51100000000E-03 0.  1.
         11   -1    0    0    0    0 -0.00000000000E+00 -0.00000000000E+00 -0.45593999997E+02  0.45594000000E+02  0.51100000000E-03 0. -1.
    9900012    2    1    2    0    0 -0.82343178414E+01  0.24362783201E+02 -0.18851322968E+02  0.59301928225E+02  0.49999971179E+02 0.  0.
         12    1    1    2    0    0  0.82343178414E+01 -0.24362783201E+02  0.18851322968E+02  0.31886071775E+02  0.00000000000E+00 0. -1.
         11    1    3    3    0    0  0.74341116843E+01 -0.34520278055E+01  0.53491668376E+01  0.97875481415E+01  0.51100000000E-03 0. -1.
        -11    1    3    3    0    0 -0.23509377227E+02  0.18615548949E+02 -0.22087497557E+02  0.37243617290E+02  0.51100000000E-03 0.  1.
         12    1    3    3    0    0  0.78409477015E+01  0.91992620584E+01 -0.21129922483E+01  0.12270762793E+02  0.00000000000E+00 0. -1.
</event>
<event>
 7    1  0.4673733E-013  0.5930195E+02  0.7816164E-02  0.1266605E+00
        -11   -1    0    0    0    0  0.00000000000E+00  0.00000000000E+00  0.45593999997E+02  0.45594000000E+02  0.51100000000E-03 0. -1.
         11   -1    0    0    0    0 -0.00000000000E+00 -0.00000000000E+00 -0.45593999997E+02  0.45594000000E+02  0.51100000000E-03 0.  1.
    9900012    2    1    2    0    0  0.52855968162E+01  0.30245717144E+02 -0.86011338705E+01  0.59301945946E+02  0.50000003498E+02 0.  0.
         12    1    1    2    0    0 -0.52855968162E+01 -0.30245717144E+02  0.86011338705E+01  0.31886054054E+02  0.00000000000E+00 0. -1.
         11    1    3    3    0    0 -0.76527482013E+01  0.83828715039E+01 -0.87214401988E+01  0.14314349761E+02  0.51100000000E-03 0. -1.
        -11    1    3    3    0    0  0.20157997319E+02  0.24479033536E+02  0.92744480142E+01  0.33039118103E+02  0.51100000000E-03 0.  1.
        -12    1    3    3    0    0 -0.72196523020E+01 -0.26161878955E+01 -0.91541416859E+01  0.11948478082E+02  0.00000000000E+00 0.  1.
</event>
<event>
 7    1  0.4673733E-013  0.5930209E+02  0.7816164E-02  0.1266604E+00
        -11   -1    0    0    0    0  0.00000000000E+00  0.00000000000E+00  0.45593999997E+02  0.45594000000E+02  0.51100000000E-03 0.  1.
         11   -1    0    0    0    0 -0.00000000000E+00 -0.00000000000E+00 -0.45593999997E+02  0.45594000000E+02  0.51100000000E-03 0. -1.
    9900012    2    1    2    0    0  0.57759481792E+01 -0.76129723497E+01  0.30420267066E+02  0.59302085026E+02  0.50000257146E+02 0.  0.
         12    1    1    2    0    0 -0.57759481792E+01  0.76129723497E+01 -0.30420267066E+02  0.31885914974E+02  0.00000000000E+00 0. -1.
         11    1    3    3    0    0  0.64605819718E+01  0.87126585837E+00 -0.15386801138E+01  0.66981908276E+01  0.51100000000E-03 0. -1.
        -11    1    3    3    0    0 -0.16506291575E+01 -0.26218844771E+01  0.41363722615E+02  0.41479590206E+02  0.51100000000E-03 0.  1.
        -12    1    3    3    0    0  0.96599536495E+00 -0.58623537309E+01 -0.94047754356E+01  0.11124303992E+02  0.00000000000E+00 0.  1.
</event>
<event>
 7    1  0.4673733E-013  0.5930196E+02  0.7816164E-02  0.1266605E+00
        -11   -1    0    0    0    0  0.00000000000E+00  0.00000000000E+00  0.45593999997E+02  0.45594000000E+02  0.51100000000E-03 0. -1.
         11   -1    0    0    0    0 -0.00000000000E+00 -0.00000000000E+00 -0.45593999997E+02  0.45594000000E+02  0.51100000000E-03 0.  1.
    9900012    2    1    2    0    0 -0.18184624129E+02 -0.15901103467E+02 -0.20813308038E+02  0.59301961712E+02  0.50000032253E+02 0.  0.
         12    1    1    2    0    0  0.18184624129E+02  0.15901103467E+02  0.20813308038E+02  0.31886038288E+02  0.00000000000E+00 0. -1.
         11    1    3    3    0    0 -0.93431485463E+01 -0.14289460840E+02  0.15903067993E+01  0.17146783717E+02  0.51100000000E-03 0.  1.
        -11    1    3    3    0    0  0.11383897101E+02  0.71612722638E+01 -0.10757071576E+02  0.17221832736E+02  0.51100000000E-03 0. -1.
        -12    1    3    3    0    0 -0.20225372684E+02 -0.87729148910E+01 -0.11646543261E+02  0.24933345259E+02  0.00000000000E+00 0.  1.
</event>
<event>
 7    1  0.4673733E-013  0.5930193E+02  0.7816164E-02  0.1266605E+00
        -11   -1    0    0    0    0  0.00000000000E+00  0.00000000000E+00  0.45593999997E+02  0.45594000000E+02  0.51100000000E-03 0.  1.
         11   -1    0    0    0    0 -0.00000000000E+00 -0.00000000000E+00 -0.45593999997E+02  0.45594000000E+02  0.51100000000E-03 0. -1.
    9900012    2    1    2    0    0 -0.92264567199E+01  0.30426289999E+02  0.24154883685E+01  0.59301933909E+02  0.49999981546E+02 0.  0.
         12    1    1    2    0    0  0.92264567199E+01 -0.30426289999E+02 -0.24154883685E+01  0.31886066091E+02  0.00000000000E+00 0. -1.
         11    1    3    3    0    0 -0.22877718216E+02  0.15022466775E+02  0.11808200497E+02  0.29807685217E+02  0.51100000000E-03 0.  1.
        -11    1    3    3    0    0  0.26105300208E+00  0.73121217505E+01 -0.11578970456E+02  0.13697000776E+02  0.51100000000E-03 0. -1.
        -12    1    3    3    0    0  0.13390208494E+02  0.80917014736E+01  0.21862583279E+01  0.15797247916E+02  0.00000000000E+00 0.  1.
</event>
<event>
 7    1  0.4673733E-013  0.5930194E+02  0.7816164E-02  0.1266605E+00
        -11   -1    0    0    0    0  0.00000000000E+00  0.00000000000E+00  0.45593999997E+02  0.45594000000E+02  0.51100000000E-03 0. -1.
         11   -1    0    0    0    0 -0.00000000000E+00 -0.00000000000E+00 -0.45593999997E+02  0.45594000000E+02  0.51100000000E-03 0.  1.
    9900012    2    1    2    0    0 -0.21878874568E+02  0.22496154408E+02  0.56532229842E+01  0.59301936499E+02  0.49999986269E+02 0.  0.
         12    1    1    2    0    0  0.21878874568E+02 -0.22496154408E+02 -0.56532229842E+01  0.31886063501E+02  0.00000000000E+00 0. -1.
         11    1    3    3    0    0  0.81002277238E+01 -0.22209362055E+01  0.16542879019E+02  0.18552980712E+02  0.51100000000E-03 0. -1.
        -11    1    3    3    0    0 -0.33706888769E+01  0.31085290633E+01 -0.32784620306E+01  0.56367375307E+01  0.51100000000E-03 0.  1.
         12    1    3    3    0    0 -0.26608413415E+02  0.21608561550E+02 -0.76111940040E+01  0.35112218256E+02  0.00000000000E+00 0. -1.
</event>
<event>
 7    1  0.4673733E-013  0.5930196E+02  0.7816164E-02  0.1266605E+00
        -11   -1    0    0    0    0  0.00000000000E+00  0.00000000000E+00  0.45593999997E+02  0.45594000000E+02  0.51100000000E-03 0. -1.
         11   -1    0    0    0    0 -0.00000000000E+00 -0.00000000000E+00 -0.45593999997E+02  0.45594000000E+02  0.51100000000E-03 0.  1.
    9900012    2    1    2    0    0 -0.22253347133E+01 -0.31126097822E+02  0.65523840896E+01  0.59301955757E+02  0.50000021391E+02 0.  0.
         12    1    1    2    0    0  0.22253347133E+01  0.31126097822E+02 -0.65523840896E+01  0.31886044243E+02  0.00000000000E+00 0. -1.
         11    1    3    3    0    0 -0.11649636449E+02 -0.37232460969E+02  0.78285980337E+01  0.39790163692E+02  0.51100000000E-03 0. -1.
        -11    1    3    3    0    0  0.85251044237E+01  0.14172137724E+01 -0.76543840754E+01  0.11544500689E+02  0.51100000000E-03 0.  1.
         12    1    3    3    0    0  0.89919731196E+00  0.46891493742E+01  0.63781701313E+01  0.79672913769E+01  0.00000000000E+00 0. -1.
</event>
<event>
 7    1  0.4673733E-013  0.5930191E+02  0.7816164E-02  0.1266605E+00
        -11   -1    0    0    0    0  0.00000000000E+00  0.00000000000E+00  0.45593999997E+02  0.45594000000E+02  0.51100000000E-03 0.  1.
         11   -1    0    0    0    0 -0.00000000000E+00 -0.00000000000E+00 -0.45593999997E+02  0.45594000000E+02  0.51100000000E-03 0. -1.
    9900012    2    1    2    0    0 -0.18989965734E+02  0.48354999867E+01  0.25153958564E+02  0.59301913847E+02  0.49999944958E+02 0.  0.
         12    1    1    2    0    0  0.18989965734E+02 -0.48354999867E+01 -0.25153958564E+02  0.31886086153E+02  0.00000000000E+00 0. -1.
         11    1    3    3    0    0  0.64255152994E+01  0.57734462454E+01 -0.56528789241E+00  0.86567591554E+01  0.51100000000E-03 0. -1.
        -11    1    3    3    0    0 -0.16727778486E+02 -0.14795158262E+02  0.26017058792E+02  0.34287062130E+02  0.51100000000E-03 0.  1.
         12    1    3    3    0    0 -0.86877025481E+01  0.13857212004E+02 -0.29781233539E+00  0.16358092562E+02  0.00000000000E+00 0. -1.
</event>
<event>
 7    1  0.4673733E-013  0.5930194E+02  0.7816164E-02  0.1266605E+00
        -11   -1    0    0    0    0  0.00000000000E+00  0.00000000000E+00  0.45593999997E+02  0.45594000000E+02  0.51100000000E-03 0.  1.
         11   -1    0    0    0    0 -0.00000000000E+00 -0.00000000000E+00 -0.45593999997E+02  0.45594000000E+02  0.51100000000E-03 0. -1.
    9900012    2    1    2    0    0 -0.69902455891E+01  0.29972746047E+02  0.83361792195E+01  0.59301938422E+02  0.49999989776E+02 0.  0.
         12    1    1    2    0    0  0.69902455891E+01 -0.29972746047E+02 -0.83361792195E+01  0.31886061578E+02  0.00000000000E+00 0. -1.
         11    1    3    3    0    0 -0.20818226384E+02  0.31805600752E+01  0.68704799469E+01  0.22152155812E+02  0.51100000000E-03 0. -1.
        -11    1    3    3    0    0  0.84838926596E+01  0.29680609202E+02  0.25676427658E+01  0.30975922697E+02  0.51100000000E-03 0.  1.
        -12    1    3    3    0    0  0.53440881354E+01 -0.28884232308E+01 -0.11019434932E+01  0.61738599127E+01  0.00000000000E+00 0.  1.
</event>
<event>
 7    1  0.4673733E-013  0.5930195E+02  0.7816164E-02  0.1266605E+00
        -11   -1    0    0    0    0  0.00000000000E+00  0.00000000000E+00  0.45593999997E+02  0.45594000000E+02  0.51100000000E-03 0.  1.
         11   -1    0    0    0    0 -0.00000000000E+00 -0.00000000000E+00 -0.45593999997E+02  0.45594000000E+02  0.51100000000E-03 0. -1.
    9900012    2    1    2    0    0 -0.11265703318E+02  0.21223528217E+01  0.29753989166E+02  0.59301947814E+02  0.50000006905E+02 0.  0.
         12    1    1    2    0    0  0.11265703318E+02 -0.21223528217E+01 -0.29753989166E+02  0.31886052186E+02  0.00000000000E+00 0. -1.
         11    1    3    3    0    0 -0.55918192899E+01 -0.48394347277E+01 -0.12203227727E+02  0.14269104340E+02  0.51100000000E-03 0. -1.
        -11    1    3    3    0    0  0.54942677108E+00  0.94241160149E+01  0.20792564552E+02  0.22835204692E+02  0.51100000000E-03 0.  1.
        -12    1    3    3    0    0 -0.62233107994E+01 -0.24623284654E+01  0.21164652340E+02  0.22197638781E+02  0.00000000000E+00 0.  1.
</event>
<event>
 7    1  0.4673733E-013  0.5930193E+02  0.7816164E-02  0.1266605E+00
        -11   -1    0    0    0    0  0.00000000000E+00  0.00000000000E+00  0.45593999997E+02  0.45594000000E+02  0.51100000000E-03 0. -1.
         11   -1    0    0    0    0 -0.00000000000E+00 -0.00000000000E+00 -0.45593999997E+02  0.45594000000E+02  0.51100000000E-03 0.  1.
    9900012    2    1    2    0    0  0.19328596877E+02 -0.17858591540E+02 -0.18005481304E+02  0.59301932415E+02  0.49999978821E+02 0.  0.
         12    1    1    2    0    0 -0.19328596877E+02  0.17858591540E+02  0.18005481304E+02  0.31886067585E+02  0.00000000000E+00 0. -1.
         11    1    3    3    0    0  0.22450542719E+02 -0.25983669512E+01 -0.26844304525E+02  0.35091239147E+02  0.51100000000E-03 0. -1.
        -11    1    3    3    0    0 -0.43382220373E+01 -0.15217459337E+02  0.12619067810E+02  0.20239370340E+02  0.51100000000E-03 0.  1.
        -12    1    3    3    0    0  0.12162761949E+01 -0.42765252769E-01 -0.37802445888E+01  0.39713229282E+01  0.00000000000E+00 0.  1.
</event>
<event>
 7    1  0.4673733E-013  0.5930193E+02  0.7816164E-02  0.1266605E+00
        -11   -1    0    0    0    0  0.00000000000E+00  0.00000000000E+00  0.45593999997E+02  0.45594000000E+02  0.51100000000E-03 0. -1.
         11   -1    0    0    0    0 -0.00000000000E+00 -0.00000000000E+00 -0.45593999997E+02  0.45594000000E+02  0.51100000000E-03 0.  1.
    9900012    2    1    2    0    0  0.54892728264E+00  0.20384533444E+02 -0.24513074047E+02  0.59301932132E+02  0.49999978304E+02 0.  0.
         12    1    1    2    0    0 -0.54892728264E+00 -0.20384533444E+02  0.24513074047E+02  0.31886067868E+02  0.00000000000E+00 0. -1.
         11    1    3    3    0    0 -0.61973852897E+01  0.28699760639E+02  0.30564226021E+01  0.29519918098E+02  0.51100000000E-03 0. -1.
        -11    1    3    3    0    0  0.56280581161E+01 -0.44118664323E+01 -0.16161549837E+02  0.17673010410E+02  0.51100000000E-03 0.  1.
         12    1    3    3    0    0  0.11182544562E+01 -0.39033607626E+01 -0.11407946812E+02  0.12109003623E+02  0.00000000000E+00 0. -1.
</event>
<event>
 7    1  0.4673733E-013  0.5930194E+02  0.7816164E-02  0.1266605E+00
        -11   -1    0    0    0    0  0.00000000000E+00  0.00000000000E+00  0.45593999997E+02  0.45594000000E+02  0.51100000000E-03 0. -1.
         11   -1    0    0    0    0 -0.00000000000E+00 -0.00000000000E+00 -0.45593999997E+02  0.45594000000E+02  0.51100000000E-03 0.  1.
    9900012    2    1    2    0    0  0.16585799048E+02 -0.26853538533E+02  0.45298572111E+01  0.59301939281E+02  0.49999991344E+02 0.  0.
         12    1    1    2    0    0 -0.16585799048E+02  0.26853538533E+02 -0.45298572111E+01  0.31886060719E+02  0.00000000000E+00 0. -1.
         11    1    3    3    0    0 -0.78944405713E+01 -0.10471208393E+02 -0.12939253097E+02  0.18422612955E+02  0.51100000000E-03 0. -1.
        -11    1    3    3    0    0  0.21871934379E+02 -0.21344247975E+02  0.17610897846E+02  0.35271832364E+02  0.51100000000E-03 0.  1.
        -12    1    3    3    0    0  0.26083052407E+01  0.49619178352E+01 -0.14178753854E+00  0.56074939623E+01  0.00000000000E+00 0.  1.
</event>
<event>
 7    1  0.4673733E-013  0.5930192E+02  0.7816164E-02  0.1266605E+00
        -11   -1    0    0    0    0  0.00000000000E+00  0.00000000000E+00  0.45593999997E+02  0.45594000000E+02  0.51100000000E-03 0.  1.
         11   -1    0    0    0    0 -0.00000000000E+00 -0.00000000000E+00 -0.45593999997E+02  0.45594000000E+02  0.51100000000E-03 0. -1.
    9900012    2    1    2    0    0  0.79693069611E+01  0.24459147143E+02  0.18840436788E+02  0.59301924814E+02  0.49999964959E+02 0.  0.
         12    1    1    2    0    0 -0.79693069611E+01 -0.24459147143E+02 -0.18840436788E+02  0.31886075186E+02  0.00000000000E+00 0. -1.
         11    1    3    3    0    0 -0.76828765313E+01  0.17589686820E+02 -0.11920184410E+02  0.22594567286E+02  0.51100000000E-03 0. -1.
        -11    1    3    3    0    0  0.12109009796E+02  0.58724029831E+01  0.30094838789E+02  0.32966840265E+02  0.51100000000E-03 0.  1.
         12    1    3    3    0    0  0.35431736964E+01  0.99705733976E+00  0.66578240847E+00  0.37405172633E+01  0.00000000000E+00 0. -1.
</event>
<event>
 7    1  0.4673733E-013  0.5930194E+02  0.7816164E-02  0.1266605E+00
        -11   -1    0    0    0    0  0.00000000000E+00  0.00000000000E+00  0.45593999997E+02  0.45594000000E+02  0.51100000000E-03 0. -1.
         11   -1    0    0    0    0 -0.00000000000E+00 -0.00000000000E+00 -0.45593999997E+02  0.45594000000E+02  0.51100000000E-03 0.  1.
    9900012    2    1    2    0    0  0.14653680451E+02 -0.27642585616E+02  0.61544913893E+01  0.59301942631E+02  0.49999997453E+02 0.  0.
         12    1    1    2    0    0 -0.14653680451E+02  0.27642585616E+02 -0.61544913893E+01  0.31886057369E+02  0.00000000000E+00 0. -1.
         11    1    3    3    0    0  0.25840638360E+02 -0.24214630303E+02  0.95634436504E+01  0.36681689796E+02  0.51100000000E-03 0. -1.
        -11    1    3    3    0    0 -0.11673841155E+02 -0.98068659791E+01 -0.49682827247E+01  0.16035492545E+02  0.51100000000E-03 0.  1.
         12    1    3    3    0    0  0.48688324636E+00  0.63789106665E+01  0.15593304636E+01  0.65847602904E+01  0.00000000000E+00 0. -1.
</event>
<event>
 7    1  0.4673733E-013  0.5930195E+02  0.7816164E-02  0.1266605E+00
        -11   -1    0    0    0    0  0.00000000000E+00  0.00000000000E+00  0.45593999997E+02  0.45594000000E+02  0.51100000000E-03 0. -1.
         11   -1    0    0    0    0 -0.00000000000E+00 -0.00000000000E+00 -0.45593999997E+02  0.45594000000E+02  0.51100000000E-03 0.  1.
    9900012    2    1    2    0    0  0.17979305623E+02 -0.18666855959E+02 -0.18574534201E+02  0.59301948773E+02  0.50000008654E+02 0.  0.
         12    1    1    2    0    0 -0.17979305623E+02  0.18666855959E+02  0.18574534201E+02  0.31886051227E+02  0.00000000000E+00 0. -1.
         11    1    3    3    0    0 -0.10546518307E+02 -0.76939379213E+00 -0.15317254438E+02  0.18612879922E+02  0.51100000000E-03 0. -1.
        -11    1    3    3    0    0  0.30057675397E+02 -0.17785036785E+02  0.22246670924E+01  0.34996007310E+02  0.51100000000E-03 0.  1.
        -12    1    3    3    0    0 -0.15318514661E+01 -0.11242538158E+00 -0.54819468561E+01  0.56930615413E+01  0.00000000000E+00 0.  1.
</event>
<event>
 7    1  0.4673733E-013  0.5930195E+02  0.7816164E-02  0.1266605E+00
        -11   -1    0    0    0    0  0.00000000000E+00  0.00000000000E+00  0.45593999997E+02  0.45594000000E+02  0.51100000000E-03 0. -1.
         11   -1    0    0    0    0 -0.00000000000E+00 -0.00000000000E+00 -0.45593999997E+02  0.45594000000E+02  0.51100000000E-03 0.  1.
    9900012    2    1    2    0    0  0.35827118397E+01 -0.11045838578E+02 -0.29696363175E+02  0.59301947252E+02  0.50000005880E+02 0.  0.
         12    1    1    2    0    0 -0.35827118397E+01  0.11045838578E+02  0.29696363175E+02  0.31886052748E+02  0.00000000000E+00 0. -1.
         11    1    3    3    0    0 -0.11271454074E+02  0.13459744178E+02 -0.16568356667E+02  0.24139611289E+02  0.51100000000E-03 0. -1.
        -11    1    3    3    0    0  0.71193561403E+01 -0.18818499610E+01 -0.76802048993E+01  0.10640119298E+02  0.51100000000E-03 0.  1.
         12    1    3    3    0    0  0.77348097729E+01 -0.22623732795E+02 -0.54478016090E+01  0.24522216665E+02  0.00000000000E+00 0. -1.
</event>
<event>
 7    1  0.4673733E-013  0.5930194E+02  0.7816164E-02  0.1266605E+00
        -11   -1    0    0    0    0  0.00000000000E+00  0.00000000000E+00  0.45593999997E+02  0.45594000000E+02  0.51100000000E-03 0. -1.
         11   -1    0    0    0    0 -0.00000000000E+00 -0.00000000000E+00 -0.45593999997E+02  0.45594000000E+02  0.51100000000E-03 0.  1.
    9900012    2    1    2    0    0 -0.21687501446E+02 -0.19351630577E+02 -0.13110582560E+02  0.59301941918E+02  0.49999996152E+02 0.  0.
         12    1    1    2    0    0  0.21687501446E+02  0.19351630577E+02  0.13110582560E+02  0.31886058082E+02  0.00000000000E+00 0. -1.
         11    1    3    3    0    0 -0.22118843080E+02 -0.14657564091E+02  0.14152479184E+02  0.30072912589E+02  0.51100000000E-03 0. -1.
        -11    1    3    3    0    0 -0.27613624018E+01 -0.51173988625E+01 -0.92180953330E+01  0.10898907067E+02  0.51100000000E-03 0.  1.
         12    1    3    3    0    0  0.31927040352E+01  0.42333237664E+00 -0.18044966411E+02  0.18330122262E+02  0.00000000000E+00 0. -1.
</event>
<event>
 7    1  0.4673733E-013  0.5930195E+02  0.7816164E-02  0.1266605E+00
        -11   -1    0    0    0    0  0.00000000000E+00  0.00000000000E+00  0.45593999997E+02  0.45594000000E+02  0.51100000000E-03 0.  1.
         11   -1    0    0    0    0 -0.00000000000E+00 -0.00000000000E+00 -0.45593999997E+02  0.45594000000E+02  0.51100000000E-03 0. -1.
    9900012    2    1    2    0    0 -0.20510635601E+02 -0.78410185880E+01  0.23120388621E+02  0.59301951088E+02  0.50000012876E+02 0.  0.
         12    1    1    2    0    0  0.20510635601E+02  0.78410185880E+01 -0.23120388621E+02  0.31886048912E+02  0.00000000000E+00 0. -1.
         11    1    3    3    0    0  0.10470996621E+02  0.19902362705E+00 -0.42003189745E+01  0.11283796364E+02  0.51100000000E-03 0. -1.
        -11    1    3    3    0    0 -0.94811974037E+01 -0.43234926981E+01  0.23714373208E+02  0.25902841354E+02  0.51100000000E-03 0.  1.
         12    1    3    3    0    0 -0.21500434818E+02 -0.37165495169E+01  0.36063343876E+01  0.22115313369E+02  0.00000000000E+00 0. -1.
</event>
<event>
 7    1  0.4673733E-013  0.5930195E+02  0.7816164E-02  0.1266605E+00
        -11   -1    0    0    0    0  0.00000000000E+00  0.00000000000E+00  0.45593999997E+02  0.45594000000E+02  0.51100000000E-03 0.  1.
         11   -1    0    0    0    0 -0.00000000000E+00 -0.00000000000E+00 -0.45593999997E+02  0.45594000000E+02  0.51100000000E-03 0. -1.
    9900012    2    1    2    0    0  0.55829565886E+01 -0.88327428916E+01  0.30125300329E+02  0.59301945506E+02  0.50000002696E+02 0.  0.
         12    1    1    2    0    0 -0.55829565886E+01  0.88327428916E+01 -0.30125300329E+02  0.31886054494E+02  0.00000000000E+00 0. -1.
         11    1    3    3    0    0  0.17621905831E+00 -0.13498091087E+02 -0.11007816749E+02  0.17418425474E+02  0.51100000000E-03 0. -1.
        -11    1    3    3    0    0  0.54416921250E+01  0.29831050879E+01  0.31769547477E+02  0.32369971830E+02  0.51100000000E-03 0.  1.
         12    1    3    3    0    0 -0.34954594660E-01  0.16822431071E+01  0.93635696021E+01  0.95135482018E+01  0.00000000000E+00 0. -1.
</event>
<event>
 7    1  0.4673733E-013  0.5930227E+02  0.7816164E-02  0.1266604E+00
        -11   -1    0    0    0    0  0.00000000000E+00  0.00000000000E+00  0.45593999997E+02  0.45594000000E+02  0.51100000000E-03 0.  1.
         11   -1    0    0    0    0 -0.00000000000E+00 -0.00000000000E+00 -0.45593999997E+02  0.45594000000E+02  0.51100000000E-03 0. -1.
    9900012    2    1    2    0    0  0.24058994809E+02 -0.17193516567E+02  0.11926747000E+02  0.59302273771E+02  0.50000601369E+02 0.  0.
         12    1    1    2    0    0 -0.24058994809E+02  0.17193516567E+02 -0.11926747000E+02  0.31885726229E+02  0.00000000000E+00 0. -1.
         11    1    3    3    0    0  0.32795892791E+02 -0.71678628930E+01  0.58181954330E+01  0.34070518645E+02  0.51100000000E-03 0. -1.
        -11    1    3    3    0    0  0.28754644218E+01 -0.12059114001E+02  0.11775574193E+01  0.12452998349E+02  0.51100000000E-03 0.  1.
         12    1    3    3    0    0 -0.11612362403E+02  0.20334603276E+01  0.49309941475E+01  0.12778756777E+02  0.00000000000E+00 0. -1.
</event>
<event>
 7    1  0.4673733E-013  0.5930195E+02  0.7816164E-02  0.1266605E+00
        -11   -1    0    0    0    0  0.00000000000E+00  0.00000000000E+00  0.45593999997E+02  0.45594000000E+02  0.51100000000E-03 0.  1.
         11   -1    0    0    0    0 -0.00000000000E+00 -0.00000000000E+00 -0.45593999997E+02  0.45594000000E+02  0.51100000000E-03 0. -1.
    9900012    2    1    2    0    0 -0.25125064885E+01  0.30495730644E+02 -0.89676168529E+01  0.59301946177E+02  0.50000003920E+02 0.  0.
         12    1    1    2    0    0  0.25125064885E+01 -0.30495730644E+02  0.89676168529E+01  0.31886053823E+02  0.00000000000E+00 0. -1.
         11    1    3    3    0    0 -0.12988402059E+02  0.87935181183E+01 -0.10124328402E+02  0.18668866457E+02  0.51100000000E-03 0. -1.
        -11    1    3    3    0    0  0.14984079909E+02 -0.10253957779E+01  0.72462797410E+01  0.16675810552E+02  0.51100000000E-03 0.  1.
        -12    1    3    3    0    0 -0.45081843380E+01  0.22727608304E+02 -0.60895681921E+01  0.23957269168E+02  0.00000000000E+00 0.  1.
</event>
<event>
 7    1  0.4673733E-013  0.5930195E+02  0.7816164E-02  0.1266605E+00
        -11   -1    0    0    0    0  0.00000000000E+00  0.00000000000E+00  0.45593999997E+02  0.45594000000E+02  0.51100000000E-03 0.  1.
         11   -1    0    0    0    0 -0.00000000000E+00 -0.00000000000E+00 -0.45593999997E+02  0.45594000000E+02  0.51100000000E-03 0. -1.
    9900012    2    1    2    0    0 -0.64450191852E+01  0.23473329546E+02  0.20595741262E+02  0.59301952418E+02  0.50000015302E+02 0.  0.
         12    1    1    2    0    0  0.64450191852E+01 -0.23473329546E+02 -0.20595741262E+02  0.31886047582E+02  0.00000000000E+00 0. -1.
         11    1    3    3    0    0  0.59266941183E+01  0.23393725641E+02  0.13536144829E+02  0.27669826881E+02  0.51100000000E-03 0. -1.
        -11    1    3    3    0    0 -0.15663601863E+02 -0.10648577767E+02  0.75734979860E+01  0.20398492684E+02  0.51100000000E-03 0.  1.
        -12    1    3    3    0    0  0.32918885591E+01  0.10728181672E+02 -0.51390155320E+00  0.11233632853E+02  0.00000000000E+00 0.  1.
</event>
<event>
 7    1  0.4673733E-013  0.5930194E+02  0.7816164E-02  0.1266605E+00
        -11   -1    0    0    0    0  0.00000000000E+00  0.00000000000E+00  0.45593999997E+02  0.45594000000E+02  0.51100000000E-03 0. -1.
         11   -1    0    0    0    0 -0.00000000000E+00 -0.00000000000E+00 -0.45593999997E+02  0.45594000000E+02  0.51100000000E-03 0.  1.
    9900012    2    1    2    0    0 -0.13114523702E+02  0.25071785493E+02  0.14701556119E+02  0.59301938593E+02  0.49999990088E+02 0.  0.
         12    1    1    2    0    0  0.13114523702E+02 -0.25071785493E+02 -0.14701556119E+02  0.31886061407E+02  0.00000000000E+00 0. -1.
         11    1    3    3    0    0  0.10950664261E+01 -0.14679077616E+02  0.41470808612E+01  0.15292899335E+02  0.51100000000E-03 0. -1.
        -11    1    3    3    0    0 -0.32922936567E+01  0.11540321510E+02  0.60055998545E+01  0.13419591944E+02  0.51100000000E-03 0.  1.
         12    1    3    3    0    0 -0.10917296472E+02  0.28210541599E+02  0.45488754038E+01  0.30589447314E+02  0.00000000000E+00 0. -1.
</event>
<event>
 7    1  0.4673733E-013  0.5930194E+02  0.7816164E-02  0.1266605E+00
        -11   -1    0    0    0    0  0.00000000000E+00  0.00000000000E+00  0.45593999997E+02  0.45594000000E+02  0.51100000000E-03 0. -1.
         11   -1    0    0    0    0 -0.00000000000E+00 -0.00000000000E+00 -0.45593999997E+02  0.45594000000E+02  0.51100000000E-03 0.  1.
    9900012    2    1    2    0    0  0.70708765450E+01 -0.30756512140E+02  0.45563454989E+01  0.59301943197E+02  0.49999998485E+02 0.  0.
         12    1    1    2    0    0 -0.70708765450E+01  0.30756512140E+02 -0.45563454989E+01  0.31886056803E+02  0.00000000000E+00 0. -1.
         11    1    3    3    0    0  0.95915076276E-01  0.49520532854E+01  0.17040744536E+02  0.17745957457E+02  0.51100000000E-03 0. -1.
        -11    1    3    3    0    0  0.75122424204E+01 -0.17778382456E+02  0.66914888329E+00  0.19311976321E+02  0.51100000000E-03 0.  1.
         12    1    3    3    0    0 -0.53728095165E+00 -0.17930182970E+02 -0.13153547921E+02  0.22244009419E+02  0.00000000000E+00 0. -1.
</event>
<event>
 7    1  0.4673733E-013  0.5930196E+02  0.7816164E-02  0.1266605E+00
        -11   -1    0    0    0    0  0.00000000000E+00  0.00000000000E+00  0.45593999997E+02  0.45594000000E+02  0.51100000000E-03 0.  1.
         11   -1    0    0    0    0 -0.00000000000E+00 -0.00000000000E+00 -0.45593999997E+02  0.45594000000E+02  0.51100000000E-03 0. -1.
    9900012    2    1    2    0    0 -0.25738932827E+02  0.11707941479E+02 -0.14736050607E+02  0.59301956906E+02  0.50000023486E+02 0.  0.
         12    1    1    2    0    0  0.25738932827E+02 -0.11707941479E+02  0.14736050607E+02  0.31886043094E+02  0.00000000000E+00 0. -1.
         11    1    3    3    0    0  0.81008672314E+01  0.23645483245E+00  0.68152468769E+01  0.10589029750E+02  0.51100000000E-03 0. -1.
        -11    1    3    3    0    0 -0.29476482377E+02  0.27193446903E+01 -0.57876270590E+01  0.30162136465E+02  0.51100000000E-03 0.  1.
        -12    1    3    3    0    0 -0.43633176809E+01  0.87521419560E+01 -0.15763670425E+02  0.18550790691E+02  0.00000000000E+00 0.  1.
</event>
<event>
 7    1  0.4673733E-013  0.5930194E+02  0.7816164E-02  0.1266605E+00
        -11   -1    0    0    0    0  0.00000000000E+00  0.00000000000E+00  0.45593999997E+02  0.45594000000E+02  0.51100000000E-03 0.  1.
         11   -1    0    0    0    0 -0.00000000000E+00 -0.00000000000E+00 -0.45593999997E+02  0.45594000000E+02  0.51100000000E-03 0. -1.
    9900012    2    1    2    0    0 -0.98792055107E+01  0.18293834810E+02  0.24175557313E+02  0.59301942467E+02  0.49999997154E+02 0.  0.
         12    1    1    2    0    0  0.98792055107E+01 -0.18293834810E+02 -0.24175557313E+02  0.31886057533E+02  0.00000000000E+00 0. -1.
         11    1    3    3    0    0 -0.10999072005E+02  0.28759667317E+01 -0.10424824138E+02  0.15424906100E+02  0.51100000000E-03 0. -1.
        -11    1    3    3    0    0 -0.10106284061E+02  0.10269890404E+02  0.15803790895E+02  0.21386150503E+02  0.51100000000E-03 0.  1.
         12    1    3    3    0    0  0.11226150556E+02  0.51479776750E+01  0.18796590556E+02  0.22490885865E+02  0.00000000000E+00 0. -1.
</event>
<event>
 7    1  0.4673733E-013  0.5930197E+02  0.7816164E-02  0.1266605E+00
        -11   -1    0    0    0    0  0.00000000000E+00  0.00000000000E+00  0.45593999997E+02  0.45594000000E+02  0.51100000000E-03 0.  1.
         11   -1    0    0    0    0 -0.00000000000E+00 -0.00000000000E+00 -0.45593999997E+02  0.45594000000E+02  0.51100000000E-03 0. -1.
    9900012    2    1    2    0    0 -0.23841707929E+02 -0.86603387694E+01  0.19320725937E+02  0.59301969277E+02  0.50000046048E+02 0.  0.
         12    1    1    2    0    0  0.23841707929E+02  0.86603387694E+01 -0.19320725937E+02  0.31886030723E+02  0.00000000000E+00 0. -1.
         11    1    3    3    0    0 -0.31478261546E+02 -0.11057406478E+02  0.22044858268E+02  0.39989035551E+02  0.51100000000E-03 0.  1.
        -11    1    3    3    0    0  0.12818869562E+02 -0.10858025366E+01 -0.15243460717E+01  0.12954768049E+02  0.51100000000E-03 0. -1.
         12    1    3    3    0    0 -0.51823159450E+01  0.34828702452E+01 -0.11997862595E+01  0.63581656763E+01  0.00000000000E+00 0. -1.
</event>
<event>
 7    1  0.4673733E-013  0.5930192E+02  0.7816164E-02  0.1266605E+00
        -11   -1    0    0    0    0  0.00000000000E+00  0.00000000000E+00  0.45593999997E+02  0.45594000000E+02  0.51100000000E-03 0. -1.
         11   -1    0    0    0    0 -0.00000000000E+00 -0.00000000000E+00 -0.45593999997E+02  0.45594000000E+02  0.51100000000E-03 0.  1.
    9900012    2    1    2    0    0  0.39659216241E+01  0.20673784676E+02 -0.23949695814E+02  0.59301924093E+02  0.49999963644E+02 0.  0.
         12    1    1    2    0    0 -0.39659216241E+01 -0.20673784676E+02  0.23949695814E+02  0.31886075907E+02  0.00000000000E+00 0. -1.
         11    1    3    3    0    0 -0.77593509344E+00  0.99191193927E+01  0.49036044096E+01  0.11092174776E+02  0.51100000000E-03 0. -1.
        -11    1    3    3    0    0 -0.79807929494E+01 -0.10665355447E+02 -0.13390162409E+02  0.18887543845E+02  0.51100000000E-03 0.  1.
        -12    1    3    3    0    0  0.12722649667E+02  0.21420020730E+02 -0.15463137815E+02  0.29322205472E+02  0.00000000000E+00 0.  1.
</event>
<event>
 7    1  0.4673733E-013  0.5930197E+02  0.7816164E-02  0.1266605E+00
        -11   -1    0    0    0    0  0.00000000000E+00  0.00000000000E+00  0.45593999997E+02  0.45594000000E+02  0.51100000000E-03 0. -1.
         11   -1    0    0    0    0 -0.00000000000E+00 -0.00000000000E+00 -0.45593999997E+02  0.45594000000E+02  0.51100000000E-03 0.  1.
    9900012    2    1    2    0    0  0.14325226298E+02  0.20676529861E+02 -0.19595606989E+02  0.59301971573E+02  0.50000050236E+02 0.  0.
         12    1    1    2    0    0 -0.14325226298E+02 -0.20676529861E+02  0.19595606989E+02  0.31886028427E+02  0.00000000000E+00 0. -1.
         11    1    3    3    0    0 -0.68608742206E+01 -0.10910671027E+02  0.44679787048E+01  0.13641010641E+02  0.51100000000E-03 0. -1.
        -11    1    3    3    0    0  0.65017078025E+01  0.14105461513E+02 -0.13172975804E+02  0.20365744293E+02  0.51100000000E-03 0.  1.
         12    1    3    3    0    0  0.14684392716E+02  0.17481739375E+02 -0.10890609890E+02  0.25295216639E+02  0.00000000000E+00 0. -1.
</event>
<event>
 7    1  0.4673733E-013  0.5930194E+02  0.7816164E-02  0.1266605E+00
        -11   -1    0    0    0    0  0.00000000000E+00  0.00000000000E+00  0.45593999997E+02  0.45594000000E+02  0.51100000000E-03 0.  1.
         11   -1    0    0    0    0 -0.00000000000E+00 -0.00000000000E+00 -0.45593999997E+02  0.45594000000E+02  0.51100000000E-03 0. -1.
    9900012    2    1    2    0    0  0.20749546353E+02 -0.21745411227E+02 -0.10644924394E+02  0.59301937235E+02  0.49999987612E+02 0.  0.
         12    1    1    2    0    0 -0.20749546353E+02  0.21745411227E+02  0.10644924394E+02  0.31886062765E+02  0.00000000000E+00 0. -1.
         11    1    3    3    0    0 -0.76670094738E+01 -0.20531005752E+02 -0.11856408855E+02  0.24917456986E+02  0.51100000000E-03 0. -1.
        -11    1    3    3    0    0  0.15990875757E+02 -0.56639042291E+01  0.88511670417E+01  0.19134551912E+02  0.51100000000E-03 0.  1.
         12    1    3    3    0    0  0.12425680069E+02  0.44494987538E+01 -0.76396825813E+01  0.15249928337E+02  0.00000000000E+00 0. -1.
</event>
<event>
 7    1  0.4673733E-013  0.5930189E+02  0.7816164E-02  0.1266605E+00
        -11   -1    0    0    0    0  0.00000000000E+00  0.00000000000E+00  0.45593999997E+02  0.45594000000E+02  0.51100000000E-03 0. -1.
         11   -1    0    0    0    0 -0.00000000000E+00 -0.00000000000E+00 -0.45593999997E+02  0.45594000000E+02  0.51100000000E-03 0.  1.
    9900012    2    1    2    0    0 -0.15934477460E+02 -0.20425895738E+02 -0.18590305368E+02  0.59301886372E+02  0.49999894850E+02 0.  0.
         12    1    1    2    0    0  0.15934477460E+02  0.20425895738E+02  0.18590305368E+02  0.31886113628E+02  0.00000000000E+00 0. -1.
         11    1    3    3    0    0 -0.20370760183E+02 -0.14780366360E+01  0.11122979935E+02  0.23256679591E+02  0.51100000000E-03 0. -1.
        -11    1    3    3    0    0  0.34338107452E+00 -0.13747521439E+02 -0.19043025835E+02  0.23489339912E+02  0.51100000000E-03 0.  1.
        -12    1    3    3    0    0  0.40929016480E+01 -0.52003376631E+01 -0.10670259468E+02  0.12555866868E+02  0.00000000000E+00 0.  1.
</event>
<event>
 7    1  0.4673733E-013  0.5930193E+02  0.7816164E-02  0.1266605E+00
        -11   -1    0    0    0    0  0.00000000000E+00  0.00000000000E+00  0.45593999997E+02  0.45594000000E+02  0.51100000000E-03 0. -1.
         11   -1    0    0    0    0 -0.00000000000E+00 -0.00000000000E+00 -0.45593999997E+02  0.45594000000E+02  0.51100000000E-03 0.  1.
    9900012    2    1    2    0    0  0.30025332093E+02  0.91529268327E+01  0.56058016894E+01  0.59301927029E+02  0.49999968999E+02 0.  0.
         12    1    1    2    0    0 -0.30025332093E+02 -0.91529268327E+01 -0.56058016894E+01  0.31886072971E+02  0.00000000000E+00 0. -1.
         11    1    3    3    0    0 -0.87771576909E+00  0.17210627302E+02 -0.94189038981E+01  0.19639038367E+02  0.51100000000E-03 0. -1.
        -11    1    3    3    0    0  0.26322417912E+02 -0.13487369235E+01  0.16920824479E+02  0.31320968652E+02  0.51100000000E-03 0.  1.
        -12    1    3    3    0    0  0.45806299505E+01 -0.67089635455E+01 -0.18961188911E+01  0.83419200097E+01  0.00000000000E+00 0.  1.
</event>
<event>
 7    1  0.4673733E-013  0.5930192E+02  0.7816164E-02  0.1266605E+00
        -11   -1    0    0    0    0  0.00000000000E+00  0.00000000000E+00  0.45593999997E+02  0.45594000000E+02  0.51100000000E-03 0.  1.
         11   -1    0    0    0    0 -0.00000000000E+00 -0.00000000000E+00 -0.45593999997E+02  0.45594000000E+02  0.51100000000E-03 0. -1.
    9900012    2    1    2    0    0  0.14653513414E+02 -0.27950501459E+02  0.45569499091E+01  0.59301924988E+02  0.49999965276E+02 0.  0.
         12    1    1    2    0    0 -0.14653513414E+02  0.27950501459E+02 -0.45569499091E+01  0.31886075012E+02  0.00000000000E+00 0. -1.
         11    1    3    3    0    0 -0.11025977837E+02 -0.23348753928E+02 -0.11493129783E+02  0.28263554797E+02  0.51100000000E-03 0. -1.
        -11    1    3    3    0    0  0.10930479951E+02  0.45558931619E+00  0.73997950810E+01  0.13207570597E+02  0.51100000000E-03 0.  1.
         12    1    3    3    0    0  0.14749011300E+02 -0.50573368472E+01  0.86502846110E+01  0.17830799594E+02  0.00000000000E+00 0. -1.
</event>
<event>
 7    1  0.4673733E-013  0.5930199E+02  0.7816164E-02  0.1266605E+00
        -11   -1    0    0    0    0  0.00000000000E+00  0.00000000000E+00  0.45593999997E+02  0.45594000000E+02  0.51100000000E-03 0. -1.
         11   -1    0    0    0    0 -0.00000000000E+00 -0.00000000000E+00 -0.45593999997E+02  0.45594000000E+02  0.51100000000E-03 0.  1.
    9900012    2    1    2    0    0 -0.26338873990E+02  0.80902279348E+01  0.16047722635E+02  0.59301992522E+02  0.50000088442E+02 0.  0.
         12    1    1    2    0    0  0.26338873990E+02 -0.80902279348E+01 -0.16047722635E+02  0.31886007478E+02  0.00000000000E+00 0. -1.
         11    1    3    3    0    0 -0.64342827634E+01  0.20118847697E+02  0.80825236622E+01  0.22616259999E+02  0.51100000000E-03 0. -1.
        -11    1    3    3    0    0 -0.26683640519E+02 -0.90055694384E+01  0.79508310338E+01  0.29263162280E+02  0.51100000000E-03 0.  1.
        -12    1    3    3    0    0  0.67790492923E+01 -0.30230503240E+01  0.14367938972E-01  0.74225702426E+01  0.00000000000E+00 0.  1.
</event>
<event>
 7    1  0.4673733E-013  0.5930197E+02  0.7816164E-02  0.1266605E+00
        -11   -1    0    0    0    0  0.00000000000E+00  0.00000000000E+00  0.45593999997E+02  0.45594000000E+02  0.51100000000E-03 0.  1.
         11   -1    0    0    0    0 -0.00000000000E+00 -0.00000000000E+00 -0.45593999997E+02  0.45594000000E+02  0.51100000000E-03 0. -1.
    9900012    2    1    2    0    0 -0.25904413248E+02 -0.18581420949E+02 -0.64139160149E+00  0.59301965229E+02  0.50000038666E+02 0.  0.
         12    1    1    2    0    0  0.25904413248E+02  0.18581420949E+02  0.64139160149E+00  0.31886034771E+02  0.00000000000E+00 0. -1.
         11    1    3    3    0    0  0.94280551162E+00  0.83226044402E+01 -0.10040984923E+02  0.13075779342E+02  0.51100000000E-03 0. -1.
        -11    1    3    3    0    0 -0.25498799776E+02 -0.28656098586E+02  0.14230876247E+02  0.40913061670E+02  0.51100000000E-03 0.  1.
        -12    1    3    3    0    0 -0.13484189841E+01  0.17520731960E+01 -0.48312829256E+01  0.53131242173E+01  0.00000000000E+00 0.  1.
</event>
<event>
 7    1  0.4673733E-013  0.5930196E+02  0.7816164E-02  0.1266605E+00
        -11   -1    0    0    0    0  0.00000000000E+00  0.00000000000E+00  0.45593999997E+02  0.45594000000E+02  0.51100000000E-03 0.  1.
         11   -1    0    0    0    0 -0.00000000000E+00 -0.00000000000E+00 -0.45593999997E+02  0.45594000000E+02  0.51100000000E-03 0. -1.
    9900012    2    1    2    0    0  0.10796912358E+02  0.13837801339E+02  0.26620699926E+02  0.59301957177E+02  0.50000023981E+02 0.  0.
         12    1    1    2    0    0 -0.10796912358E+02 -0.13837801339E+02 -0.26620699926E+02  0.31886042823E+02  0.00000000000E+00 0. -1.
         11    1    3    3    0    0 -0.10966100172E+02 -0.17319034868E+01  0.21241103325E+00  0.11104051575E+02  0.51100000000E-03 0. -1.
        -11    1    3    3    0    0  0.25112562562E+02  0.16476055912E+01  0.11988565577E+02  0.27876174549E+02  0.51100000000E-03 0.  1.
         12    1    3    3    0    0 -0.33495500327E+01  0.13922099234E+02  0.14419723316E+02  0.20321731054E+02  0.00000000000E+00 0. -1.
</event>
<event>
 7    1  0.4673733E-013  0.5930193E+02  0.7816164E-02  0.1266605E+00
        -11   -1    0    0    0    0  0.00000000000E+00  0.00000000000E+00  0.45593999997E+02  0.45594000000E+02  0.51100000000E-03 0.  1.
         11   -1    0    0    0    0 -0.00000000000E+00 -0.00000000000E+00 -0.45593999997E+02  0.45594000000E+02  0.51100000000E-03 0. -1.
    9900012    2    1    2    0    0  0.14096915427E+01 -0.31854787388E+02  0.82245325851E-01  0.59301929780E+02  0.49999974015E+02 0.  0.
         12    1    1    2    0    0 -0.14096915427E+01  0.31854787388E+02 -0.82245325851E-01  0.31886070220E+02  0.00000000000E+00 0. -1.
         11    1    3    3    0    0 -0.55099458335E+01 -0.13593149608E+01 -0.10659279241E+02  0.12075904705E+02  0.51100000000E-03 0. -1.
        -11    1    3    3    0    0 -0.66696064882E+00 -0.24307168345E+02  0.21657560239E+02  0.32562757641E+02  0.51100000000E-03 0.  1.
        -12    1    3    3    0    0  0.75865980250E+01 -0.61883040831E+01 -0.10916035672E+02  0.14663267433E+02  0.00000000000E+00 0.  1.
</event>
<event>
 7    1  0.4673733E-013  0.5930193E+02  0.7816164E-02  0.1266605E+00
        -11   -1    0    0    0    0  0.00000000000E+00  0.00000000000E+00  0.45593999997E+02  0.45594000000E+02  0.51100000000E-03 0.  1.
         11   -1    0    0    0    0 -0.00000000000E+00 -0.00000000000E+00 -0.45593999997E+02  0.45594000000E+02  0.51100000000E-03 0. -1.
    9900012    2    1    2    0    0  0.26419606631E+02 -0.81458632481E+01  0.15886171307E+02  0.59301934997E+02  0.49999983529E+02 0.  0.
         12    1    1    2    0    0 -0.26419606631E+02  0.81458632481E+01 -0.15886171307E+02  0.31886065003E+02  0.00000000000E+00 0. -1.
         11    1    3    3    0    0 -0.59454351467E+01 -0.23494931831E+01  0.46784999988E+00  0.64099298892E+01  0.51100000000E-03 0. -1.
        -11    1    3    3    0    0  0.36971926813E+02  0.57873687317E+01  0.76275412976E+01  0.38191574930E+02  0.51100000000E-03 0.  1.
        -12    1    3    3    0    0 -0.46068850355E+01 -0.11583738797E+02  0.77907800100E+01  0.14700430178E+02  0.00000000000E+00 0.  1.
</event>
<event>
 7    1  0.4673733E-013  0.5930196E+02  0.7816164E-02  0.1266605E+00
        -11   -1    0    0    0    0  0.00000000000E+00  0.00000000000E+00  0.45593999997E+02  0.45594000000E+02  0.51100000000E-03 0. -1.
         11   -1    0    0    0    0 -0.00000000000E+00 -0.00000000000E+00 -0.45593999997E+02  0.45594000000E+02  0.51100000000E-03 0.  1.
    9900012    2    1    2    0    0 -0.26779643618E+02  0.14606783261E+02 -0.92850603950E+01  0.59301956406E+02  0.50000022576E+02 0.  0.
         12    1    1    2    0    0  0.26779643618E+02 -0.14606783261E+02  0.92850603950E+01  0.31886043594E+02  0.00000000000E+00 0. -1.
         11    1    3    3    0    0 -0.28442012628E+01  0.17416197523E+02 -0.75097314190E+01  0.19178359764E+02  0.51100000000E-03 0. -1.
        -11    1    3    3    0    0 -0.26760961426E+02  0.55263684622E+01  0.64503009455E+01  0.28076612819E+02  0.51100000000E-03 0.  1.
         12    1    3    3    0    0  0.28255190714E+01 -0.83357827243E+01 -0.82256299216E+01  0.12046983824E+02  0.00000000000E+00 0. -1.
</event>
<event>
 7    1  0.4673733E-013  0.5930197E+02  0.7816164E-02  0.1266605E+00
        -11   -1    0    0    0    0  0.00000000000E+00  0.00000000000E+00  0.45593999997E+02  0.45594000000E+02  0.51100000000E-03 0.  1.
         11   -1    0    0    0    0 -0.00000000000E+00 -0.00000000000E+00 -0.45593999997E+02  0.45594000000E+02  0.51100000000E-03 0. -1.
    9900012    2    1    2    0    0  0.68682382640E+00 -0.13050744385E+02  0.29084795088E+02  0.59301969182E+02  0.50000045876E+02 0.  0.
         12    1    1    2    0    0 -0.68682382640E+00  0.13050744385E+02 -0.29084795088E+02  0.31886030818E+02  0.00000000000E+00 0. -1.
         11    1    3    3    0    0 -0.33306748882E+01 -0.29990331549E+02  0.24645995827E+02  0.38960730129E+02  0.51100000000E-03 0. -1.
        -11    1    3    3    0    0  0.28946637175E+01  0.94869554304E+00 -0.13037416886E+01  0.33134338567E+01  0.51100000000E-03 0.  1.
         12    1    3    3    0    0  0.11228349971E+01  0.15990891620E+02  0.57425409498E+01  0.17027805196E+02  0.00000000000E+00 0. -1.
</event>
<event>
 7    1  0.4673733E-013  0.5930192E+02  0.7816164E-02  0.1266605E+00
        -11   -1    0    0    0    0  0.00000000000E+00  0.00000000000E+00  0.45593999997E+02  0.45594000000E+02  0.51100000000E-03 0.  1.
         11   -1    0    0    0    0 -0.00000000000E+00 -0.00000000000E+00 -0.45593999997E+02  0.45594000000E+02  0.51100000000E-03 0. -1.
    9900012    2    1    2    0    0 -0.18182846241E+02 -0.13158323666E+02  0.22648718561E+02  0.59301924174E+02  0.49999963792E+02 0.  0.
         12    1    1    2    0    0  0.18182846241E+02  0.13158323666E+02 -0.22648718561E+02  0.31886075826E+02  0.00000000000E+00 0. -1.
         11    1    3    3    0    0 -0.50411860039E+01  0.80020339148E-01 -0.11794951367E+02  0.12827347254E+02  0.51100000000E-03 0. -1.
        -11    1    3    3    0    0 -0.87184529970E+01 -0.19975963514E+02  0.30538153650E+02  0.37518387087E+02  0.51100000000E-03 0.  1.
        -12    1    3    3    0    0 -0.44232072400E+01  0.67376195089E+01  0.39055162769E+01  0.89561898329E+01  0.00000000000E+00 0.  1.
</event>
<event>
 7    1  0.4673733E-013  0.5930197E+02  0.7816164E-02  0.1266605E+00
        -11   -1    0    0    0    0  0.00000000000E+00  0.00000000000E+00  0.45593999997E+02  0.45594000000E+02  0.51100000000E-03 0. -1.
         11   -1    0    0    0    0 -0.00000000000E+00 -0.00000000000E+00 -0.45593999997E+02  0.45594000000E+02  0.51100000000E-03 0.  1.
    9900012    2    1    2    0    0 -0.10628251101E+02 -0.28918768024E+02 -0.82136319730E+01  0.59301974602E+02  0.50000055760E+02 0.  0.
         12    1    1    2    0    0  0.10628251101E+02  0.28918768024E+02  0.82136319730E+01  0.31886025398E+02  0.00000000000E+00 0. -1.
         11    1    3    3    0    0  0.95955769537E+01 -0.86417646358E-01 -0.12426657898E+02  0.15700458332E+02  0.51100000000E-03 0.  1.
        -11    1    3    3    0    0 -0.18886513184E+02 -0.15503613308E+02  0.12904647814E+02  0.27633174652E+02  0.51100000000E-03 0. -1.
         12    1    3    3    0    0 -0.13373148706E+01 -0.13328737069E+02 -0.86916218898E+01  0.15968341617E+02  0.00000000000E+00 0. -1.
</event>
<event>
 7    1  0.4673733E-013  0.5930196E+02  0.7816164E-02  0.1266605E+00
        -11   -1    0    0    0    0  0.00000000000E+00  0.00000000000E+00  0.45593999997E+02  0.45594000000E+02  0.51100000000E-03 0. -1.
         11   -1    0    0    0    0 -0.00000000000E+00 -0.00000000000E+00 -0.45593999997E+02  0.45594000000E+02  0.51100000000E-03 0.  1.
    9900012    2    1    2    0    0  0.87362034515E+01 -0.41053299300E+00 -0.30663169727E+02  0.59301956567E+02  0.50000022869E+02 0.  0.
         12    1    1    2    0    0 -0.87362034515E+01  0.41053299300E+00  0.30663169727E+02  0.31886043433E+02  0.00000000000E+00 0. -1.
         11    1    3    3    0    0 -0.10548686567E+01  0.77268214247E+01  0.11594520354E+02  0.13973167848E+02  0.51100000000E-03 0. -1.
        -11    1    3    3    0    0  0.82049966878E-01  0.11131201394E+01 -0.14064576128E+02  0.14108794086E+02  0.51100000000E-03 0.  1.
         12    1    3    3    0    0  0.97090221413E+01 -0.92504745570E+01 -0.28193113953E+02  0.31219994633E+02  0.00000000000E+00 0. -1.
</event>
<event>
 7    1  0.4673733E-013  0.5930203E+02  0.7816164E-02  0.1266604E+00
        -11   -1    0    0    0    0  0.00000000000E+00  0.00000000000E+00  0.45593999997E+02  0.45594000000E+02  0.51100000000E-03 0.  1.
         11   -1    0    0    0    0 -0.00000000000E+00 -0.00000000000E+00 -0.45593999997E+02  0.45594000000E+02  0.51100000000E-03 0. -1.
    9900012    2    1    2    0    0  0.25964611003E+02 -0.27423357670E+01  0.18303919287E+02  0.59302033004E+02  0.50000162272E+02 0.  0.
         12    1    1    2    0    0 -0.25964611003E+02  0.27423357670E+01 -0.18303919287E+02  0.31885966996E+02  0.00000000000E+00 0. -1.
         11    1    3    3    0    0  0.31135027655E+01  0.16003956450E+02  0.18371801641E+02  0.24563053909E+02  0.51100000000E-03 0. -1.
        -11    1    3    3    0    0  0.14354665894E+02 -0.48055977025E+01 -0.73913112686E+01  0.16845820987E+02  0.51100000000E-03 0.  1.
         12    1    3    3    0    0  0.84964423438E+01 -0.13940694514E+02  0.73234289140E+01  0.17893158109E+02  0.00000000000E+00 0. -1.
</event>
<event>
 7    1  0.4673733E-013  0.5930204E+02  0.7816164E-02  0.1266604E+00
        -11   -1    0    0    0    0  0.00000000000E+00  0.00000000000E+00  0.45593999997E+02  0.45594000000E+02  0.51100000000E-03 0.  1.
         11   -1    0    0    0    0 -0.00000000000E+00 -0.00000000000E+00 -0.45593999997E+02  0.45594000000E+02  0.51100000000E-03 0. -1.
    9900012    2    1    2    0    0  0.78026660209E+01 -0.56379954602E+01  0.30398117324E+02  0.59302044994E+02  0.50000184138E+02 0.  0.
         12    1    1    2    0    0 -0.78026660209E+01  0.56379954602E+01 -0.30398117324E+02  0.31885955006E+02  0.00000000000E+00 0. -1.
         11    1    3    3    0    0  0.16843904869E+01  0.17723707319E+01 -0.94019055814E+01  0.97146434904E+01  0.51100000000E-03 0. -1.
        -11    1    3    3    0    0  0.13579491531E+02 -0.13980798737E+02  0.28622544808E+02  0.34628245626E+02  0.51100000000E-03 0.  1.
        -12    1    3    3    0    0 -0.74612159967E+01  0.65704325446E+01  0.11177478097E+02  0.14959155878E+02  0.00000000000E+00 0.  1.
</event>
<event>
 7    1  0.4673733E-013  0.5930196E+02  0.7816164E-02  0.1266605E+00
        -11   -1    0    0    0    0  0.00000000000E+00  0.00000000000E+00  0.45593999997E+02  0.45594000000E+02  0.51100000000E-03 0. -1.
         11   -1    0    0    0    0 -0.00000000000E+00 -0.00000000000E+00 -0.45593999997E+02  0.45594000000E+02  0.51100000000E-03 0.  1.
    9900012    2    1    2    0    0 -0.20997653940E+02  0.23760696457E+02 -0.33537322493E+01  0.59301957801E+02  0.50000025119E+02 0.  0.
         12    1    1    2    0    0  0.20997653940E+02 -0.23760696457E+02  0.33537322493E+01  0.31886042199E+02  0.00000000000E+00 0. -1.
         11    1    3    3    0    0 -0.46719787947E+00 -0.72908997873E+01 -0.12185136948E+02  0.14207500001E+02  0.51100000000E-03 0. -1.
        -11    1    3    3    0    0 -0.15376056813E+02  0.14330677113E+02  0.15764323933E+02  0.26273662459E+02  0.51100000000E-03 0.  1.
        -12    1    3    3    0    0 -0.51543992474E+01  0.16720919131E+02 -0.69329192342E+01  0.18820795342E+02  0.00000000000E+00 0.  1.
</event>
<event>
 7    1  0.4673733E-013  0.5930186E+02  0.7816164E-02  0.1266605E+00
        -11   -1    0    0    0    0  0.00000000000E+00  0.00000000000E+00  0.45593999997E+02  0.45594000000E+02  0.51100000000E-03 0.  1.
         11   -1    0    0    0    0 -0.00000000000E+00 -0.00000000000E+00 -0.45593999997E+02  0.45594000000E+02  0.51100000000E-03 0. -1.
    9900012    2    1    2    0    0 -0.16079164391E+02  0.27463185010E+02 -0.19899159308E+01  0.59301861572E+02  0.49999849621E+02 0.  0.
         12    1    1    2    0    0  0.16079164391E+02 -0.27463185010E+02  0.19899159308E+01  0.31886138428E+02  0.00000000000E+00 0. -1.
         11    1    3    3    0    0  0.11758301112E+02  0.99288431987E+01 -0.15523365578E+02  0.21858967300E+02  0.51100000000E-03 0. -1.
        -11    1    3    3    0    0 -0.47199129970E+01  0.70505502004E+01  0.75641015067E+01  0.11366770372E+02  0.51100000000E-03 0.  1.
         12    1    3    3    0    0 -0.23117552506E+02  0.10483791611E+02  0.59693481407E+01  0.26076123900E+02  0.00000000000E+00 0. -1.
</event>
<event>
 7    1  0.4673733E-013  0.5930210E+02  0.7816164E-02  0.1266604E+00
        -11   -1    0    0    0    0  0.00000000000E+00  0.00000000000E+00  0.45593999997E+02  0.45594000000E+02  0.51100000000E-03 0.  1.
         11   -1    0    0    0    0 -0.00000000000E+00 -0.00000000000E+00 -0.45593999997E+02  0.45594000000E+02  0.51100000000E-03 0. -1.
    9900012    2    1    2    0    0  0.52964072129E+01 -0.27910872241E+02  0.14479021745E+02  0.59302097327E+02  0.50000279580E+02 0.  0.
         12    1    1    2    0    0 -0.52964072129E+01  0.27910872241E+02 -0.14479021745E+02  0.31885902673E+02  0.00000000000E+00 0. -1.
         11    1    3    3    0    0  0.21331069629E+02 -0.30113643821E+02  0.46076283938E+01  0.37189734005E+02  0.51100000000E-03 0. -1.
        -11    1    3    3    0    0 -0.13953492080E+02  0.17246615047E+01  0.12439300248E+02  0.18772602096E+02  0.51100000000E-03 0.  1.
        -12    1    3    3    0    0 -0.20811703366E+01  0.47811007585E+00 -0.25679068969E+01  0.33397612259E+01  0.00000000000E+00 0.  1.
</event>
<event>
 7    1  0.4673733E-013  0.5930191E+02  0.7816164E-02  0.1266605E+00
        -11   -1    0    0    0    0  0.00000000000E+00  0.00000000000E+00  0.45593999997E+02  0.45594000000E+02  0.51100000000E-03 0. -1.
         11   -1    0    0    0    0 -0.00000000000E+00 -0.00000000000E+00 -0.45593999997E+02  0.45594000000E+02  0.51100000000E-03 0.  1.
    9900012    2    1    2    0    0 -0.17258133535E+02  0.55657708895E+01 -0.26227880855E+02  0.59301910355E+02  0.49999938590E+02 0.  0.
         12    1    1    2    0    0  0.17258133535E+02 -0.55657708895E+01  0.26227880855E+02  0.31886089645E+02  0.00000000000E+00 0. -1.
         11    1    3    3    0    0 -0.88344705415E+01 -0.96832537026E+01 -0.30324324131E+00  0.13111263430E+02  0.51100000000E-03 0. -1.
        -11    1    3    3    0    0 -0.18643777038E+02  0.19271647902E+02 -0.15117053715E+02  0.30781685276E+02  0.51100000000E-03 0.  1.
        -12    1    3    3    0    0  0.10220114045E+02 -0.40226233103E+01 -0.10807583898E+02  0.15408961649E+02  0.00000000000E+00 0.  1.
</event>
<event>
 7    1  0.4673733E-013  0.5930198E+02  0.7816164E-02  0.1266605E+00
        -11   -1    0    0    0    0  0.00000000000E+00  0.00000000000E+00  0.45593999997E+02  0.45594000000E+02  0.51100000000E-03 0.  1.
         11   -1    0    0    0    0 -0.00000000000E+00 -0.00000000000E+00 -0.45593999997E+02  0.45594000000E+02  0.51100000000E-03 0. -1.
    9900012    2    1    2    0    0 -0.10819433303E+02  0.29703734769E+02 -0.41648811172E+01  0.59301980635E+02  0.50000066763E+02 0.  0.
         12    1    1    2    0    0  0.10819433303E+02 -0.29703734769E+02  0.41648811172E+01  0.31886019365E+02  0.00000000000E+00 0. -1.
         11    1    3    3    0    0 -0.19124712538E+02  0.18147610612E+02 -0.48296503198E+01  0.26803281945E+02  0.51100000000E-03 0. -1.
        -11    1    3    3    0    0  0.18723057575E+02  0.58267094200E+01 -0.34649875797E+01  0.19912547973E+02  0.51100000000E-03 0.  1.
        -12    1    3    3    0    0 -0.10417778340E+02  0.57294147368E+01  0.41297567823E+01  0.12586150716E+02  0.00000000000E+00 0.  1.
</event>
<event>
 7    1  0.4673733E-013  0.5930195E+02  0.7816164E-02  0.1266605E+00
        -11   -1    0    0    0    0  0.00000000000E+00  0.00000000000E+00  0.45593999997E+02  0.45594000000E+02  0.51100000000E-03 0. -1.
         11   -1    0    0    0    0 -0.00000000000E+00 -0.00000000000E+00 -0.45593999997E+02  0.45594000000E+02  0.51100000000E-03 0.  1.
    9900012    2    1    2    0    0  0.28904956553E+02 -0.35924269890E+01 -0.12973756612E+02  0.59301946534E+02  0.50000004572E+02 0.  0.
         12    1    1    2    0    0 -0.28904956553E+02  0.35924269890E+01  0.12973756612E+02  0.31886053466E+02  0.00000000000E+00 0. -1.
         11    1    3    3    0    0  0.94457919271E+01 -0.97499313969E+00 -0.28794443882E+02  0.30319854806E+02  0.51100000000E-03 0. -1.
        -11    1    3    3    0    0  0.13632486185E+02 -0.84123929408E+01  0.96011666473E+01  0.18676065855E+02  0.51100000000E-03 0.  1.
        -12    1    3    3    0    0  0.58266784405E+01  0.57949590915E+01  0.62195206225E+01  0.10306025873E+02  0.00000000000E+00 0.  1.
</event>
<event>
 7    1  0.4673733E-013  0.5930198E+02  0.7816164E-02  0.1266605E+00
        -11   -1    0    0    0    0  0.00000000000E+00  0.00000000000E+00  0.45593999997E+02  0.45594000000E+02  0.51100000000E-03 0. -1.
         11   -1    0    0    0    0 -0.00000000000E+00 -0.00000000000E+00 -0.45593999997E+02  0.45594000000E+02  0.51100000000E-03 0.  1.
    9900012    2    1    2    0    0  0.16528860676E+02  0.15371573196E+02 -0.22521765018E+02  0.59301978027E+02  0.50000062006E+02 0.  0.
         12    1    1    2    0    0 -0.16528860676E+02 -0.15371573196E+02  0.22521765018E+02  0.31886021973E+02  0.00000000000E+00 0. -1.
         11    1    3    3    0    0 -0.30779715043E+01 -0.14115064090E+02 -0.17632386224E+02  0.22794955299E+02  0.51100000000E-03 0. -1.
        -11    1    3    3    0    0  0.18063258515E+02  0.22316438441E+02 -0.26224951106E+01  0.28830230900E+02  0.51100000000E-03 0.  1.
         12    1    3    3    0    0  0.15435736656E+01  0.71701988453E+01 -0.22668836829E+01  0.76767918282E+01  0.00000000000E+00 0. -1.
</event>
<event>
 7    1  0.4673733E-013  0.5930196E+02  0.7816164E-02  0.1266605E+00
        -11   -1    0    0    0    0  0.00000000000E+00  0.00000000000E+00  0.45593999997E+02  0.45594000000E+02  0.51100000000E-03 0. -1.
         11   -1    0    0    0    0 -0.00000000000E+00 -0.00000000000E+00 -0.45593999997E+02  0.45594000000E+02  0.51100000000E-03 0.  1.
    9900012    2    1    2    0    0 -0.83738801676E+01 -0.19738787222E+02 -0.23600377508E+02  0.59301962168E+02  0.50000033084E+02 0.  0.
         12    1    1    2    0    0  0.83738801676E+01  0.19738787222E+02  0.23600377508E+02  0.31886037832E+02  0.00000000000E+00 0. -1.
         11    1    3    3    0    0 -0.17726589977E+02 -0.13500901237E+02  0.40893579014E+01  0.22654561896E+02  0.51100000000E-03 0. -1.
        -11    1    3    3    0    0  0.14191667405E+01 -0.11095016845E+02 -0.24292879183E+02  0.26744296818E+02  0.51100000000E-03 0.  1.
         12    1    3    3    0    0  0.79335430684E+01  0.48571308595E+01 -0.33968562266E+01  0.99031034544E+01  0.00000000000E+00 0. -1.
</event>
<event>
 7    1  0.4673733E-013  0.5930195E+02  0.7816164E-02  0.1266605E+00
        -11   -1    0    0    0    0  0.00000000000E+00  0.00000000000E+00  0.45593999997E+02  0.45594000000E+02  0.51100000000E-03 0.  1.
         11   -1    0    0    0    0 -0.00000000000E+00 -0.00000000000E+00 -0.45593999997E+02  0.45594000000E+02  0.51100000000E-03 0. -1.
    9900012    2    1    2    0    0 -0.20844191353E+02 -0.24036790735E+02  0.21148062691E+01  0.59301952463E+02  0.50000015384E+02 0.  0.
         12    1    1    2    0    0  0.20844191353E+02  0.24036790735E+02 -0.21148062691E+01  0.31886047537E+02  0.00000000000E+00 0. -1.
         11    1    3    3    0    0 -0.13566528054E+02 -0.15648427506E+02  0.10436559494E+01  0.20736759266E+02  0.51100000000E-03 0. -1.
        -11    1    3    3    0    0  0.13680950364E+02 -0.41100868843E+01  0.76253132795E+01  0.16192795309E+02  0.51100000000E-03 0.  1.
        -12    1    3    3    0    0 -0.20958613663E+02 -0.42782763444E+01 -0.65541629598E+01  0.22372397888E+02  0.00000000000E+00 0.  1.
</event>
<event>
 7    1  0.4673733E-013  0.5930195E+02  0.7816164E-02  0.1266605E+00
        -11   -1    0    0    0    0  0.00000000000E+00  0.00000000000E+00  0.45593999997E+02  0.45594000000E+02  0.51100000000E-03 0.  1.
         11   -1    0    0    0    0 -0.00000000000E+00 -0.00000000000E+00 -0.45593999997E+02  0.45594000000E+02  0.51100000000E-03 0. -1.
    9900012    2    1    2    0    0 -0.23686865155E+02 -0.11649365429E+02  0.17887005774E+02  0.59301948640E+02  0.50000008412E+02 0.  0.
         12    1    1    2    0    0  0.23686865155E+02  0.11649365429E+02 -0.17887005774E+02  0.31886051360E+02  0.00000000000E+00 0. -1.
         11    1    3    3    0    0 -0.32675212077E+01 -0.98517937036E+00  0.24289544473E+02  0.24528131690E+02  0.51100000000E-03 0. -1.
        -11    1    3    3    0    0 -0.16690376908E+02 -0.16881038457E+02  0.18239102254E+01  0.23808922476E+02  0.51100000000E-03 0.  1.
         12    1    3    3    0    0 -0.37289670393E+01  0.62168523982E+01 -0.82264489244E+01  0.10964894474E+02  0.00000000000E+00 0. -1.
</event>
<event>
 7    1  0.4673733E-013  0.5930193E+02  0.7816164E-02  0.1266605E+00
        -11   -1    0    0    0    0  0.00000000000E+00  0.00000000000E+00  0.45593999997E+02  0.45594000000E+02  0.51100000000E-03 0.  1.
         11   -1    0    0    0    0 -0.00000000000E+00 -0.00000000000E+00 -0.45593999997E+02  0.45594000000E+02  0.51100000000E-03 0. -1.
    9900012    2    1    2    0    0  0.15012899997E+02  0.14463235081E+02  0.24127766621E+02  0.59301930041E+02  0.49999974491E+02 0.  0.
         12    1    1    2    0    0 -0.15012899997E+02 -0.14463235081E+02 -0.24127766621E+02  0.31886069959E+02  0.00000000000E+00 0. -1.
         11    1    3    3    0    0  0.15967361593E+02  0.21333972348E+02 -0.11288092411E+01  0.26671505824E+02  0.51100000000E-03 0. -1.
        -11    1    3    3    0    0 -0.61432711455E+01  0.48599376399E+01  0.95172274905E+01  0.12326248156E+02  0.51100000000E-03 0.  1.
         12    1    3    3    0    0  0.51888095503E+01 -0.11730674907E+02  0.15739348372E+02  0.20304176060E+02  0.00000000000E+00 0. -1.
</event>
<event>
 7    1  0.4673733E-013  0.5930194E+02  0.7816164E-02  0.1266605E+00
        -11   -1    0    0    0    0  0.00000000000E+00  0.00000000000E+00  0.45593999997E+02  0.45594000000E+02  0.51100000000E-03 0.  1.
         11   -1    0    0    0    0 -0.00000000000E+00 -0.00000000000E+00 -0.45593999997E+02  0.45594000000E+02  0.51100000000E-03 0. -1.
    9900012    2    1    2    0    0 -0.31848311931E+00 -0.11526854892E+02  0.29727953926E+02  0.59301936276E+02  0.49999985863E+02 0.  0.
         12    1    1    2    0    0  0.31848311931E+00  0.11526854892E+02 -0.29727953926E+02  0.31886063724E+02  0.00000000000E+00 0. -1.
         11    1    3    3    0    0 -0.98853106633E+01 -0.45402945956E+01  0.16796161987E+02  0.20011114404E+02  0.51100000000E-03 0. -1.
        -11    1    3    3    0    0 -0.25298720643E+00  0.53033569734E+01 -0.10093479711E+02  0.11404732818E+02  0.51100000000E-03 0.  1.
        -12    1    3    3    0    0  0.98198147504E+01 -0.12289917270E+02  0.23025271649E+02  0.27886089054E+02  0.00000000000E+00 0.  1.
</event>
<event>
 7    1  0.4673733E-013  0.5930194E+02  0.7816164E-02  0.1266605E+00
        -11   -1    0    0    0    0  0.00000000000E+00  0.00000000000E+00  0.45593999997E+02  0.45594000000E+02  0.51100000000E-03 0.  1.
         11   -1    0    0    0    0 -0.00000000000E+00 -0.00000000000E+00 -0.45593999997E+02  0.45594000000E+02  0.51100000000E-03 0. -1.
    9900012    2    1    2    0    0 -0.19217983592E+01  0.29036150513E+02  0.13035688584E+02  0.59301944703E+02  0.50000001232E+02 0.  0.
         12    1    1    2    0    0  0.19217983592E+01 -0.29036150513E+02 -0.13035688584E+02  0.31886055297E+02  0.00000000000E+00 0. -1.
         11    1    3    3    0    0  0.34281537177E+01  0.41483556453E+02  0.11671915613E+02  0.43230444229E+02  0.51100000000E-03 0. -1.
        -11    1    3    3    0    0 -0.13753044215E+01 -0.11619562896E+02  0.22522743334E+01  0.11915470787E+02  0.51100000000E-03 0.  1.
         12    1    3    3    0    0 -0.39746476554E+01 -0.82784304436E+00 -0.88850136269E+00  0.41560296873E+01  0.00000000000E+00 0. -1.
</event>
<event>
 7    1  0.4673733E-013  0.5930193E+02  0.7816164E-02  0.1266605E+00
        -11   -1    0    0    0    0  0.00000000000E+00  0.00000000000E+00  0.45593999997E+02  0.45594000000E+02  0.51100000000E-03 0.  1.
         11   -1    0    0    0    0 -0.00000000000E+00 -0.00000000000E+00 -0.45593999997E+02  0.45594000000E+02  0.51100000000E-03 0. -1.
    9900012    2    1    2    0    0  0.23884170987E+02 -0.19540508152E+02  0.80272124859E+01  0.59301933719E+02  0.49999981199E+02 0.  0.
         12    1    1    2    0    0 -0.23884170987E+02  0.19540508152E+02 -0.80272124859E+01  0.31886066281E+02  0.00000000000E+00 0. -1.
         11    1    3    3    0    0  0.55321965459E+01 -0.25632576926E+01 -0.98224136780E+01  0.11560938515E+02  0.51100000000E-03 0. -1.
        -11    1    3    3    0    0  0.22686571004E+02 -0.20879847919E+02  0.24143083124E+02  0.39160401122E+02  0.51100000000E-03 0.  1.
        -12    1    3    3    0    0 -0.43345965625E+01  0.39025974594E+01 -0.62934569604E+01  0.85805940821E+01  0.00000000000E+00 0.  1.
</event>
<event>
 7    1  0.4673733E-013  0.5930195E+02  0.7816164E-02  0.1266605E+00
        -11   -1    0    0    0    0  0.00000000000E+00  0.00000000000E+00  0.45593999997E+02  0.45594000000E+02  0.51100000000E-03 0. -1.
         11   -1    0    0    0    0 -0.00000000000E+00 -0.00000000000E+00 -0.45593999997E+02  0.45594000000E+02  0.51100000000E-03 0.  1.
    9900012    2    1    2    0    0 -0.99031328724E+01 -0.16072502623E+02 -0.25696748421E+02  0.59301948807E+02  0.50000008717E+02 0.  0.
         12    1    1    2    0    0  0.99031328724E+01  0.16072502623E+02  0.25696748421E+02  0.31886051193E+02  0.00000000000E+00 0. -1.
         11    1    3    3    0    0 -0.11467141799E+01 -0.19840391616E+02 -0.29822226244E+01  0.20096013160E+02  0.51100000000E-03 0. -1.
        -11    1    3    3    0    0  0.86687416427E+01  0.95079160072E+01 -0.13594724219E+02  0.18718014727E+02  0.51100000000E-03 0.  1.
         12    1    3    3    0    0 -0.17425160335E+02 -0.57400270141E+01 -0.91198015778E+01  0.20487920921E+02  0.00000000000E+00 0. -1.
</event>
<event>
 7    1  0.4673733E-013  0.5930190E+02  0.7816164E-02  0.1266605E+00
        -11   -1    0    0    0    0  0.00000000000E+00  0.00000000000E+00  0.45593999997E+02  0.45594000000E+02  0.51100000000E-03 0.  1.
         11   -1    0    0    0    0 -0.00000000000E+00 -0.00000000000E+00 -0.45593999997E+02  0.45594000000E+02  0.51100000000E-03 0. -1.
    9900012    2    1    2    0    0  0.31146516404E+02 -0.67272817608E+01  0.11668591743E+01  0.59301900139E+02  0.49999919958E+02 0.  0.
         12    1    1    2    0    0 -0.31146516404E+02  0.67272817608E+01 -0.11668591743E+01  0.31886099861E+02  0.00000000000E+00 0. -1.
         11    1    3    3    0    0 -0.38811043364E+01  0.28707730597E+01 -0.51097095523E+01  0.70294694537E+01  0.51100000000E-03 0. -1.
        -11    1    3    3    0    0  0.30707136610E+02  0.68546980743E-01  0.18696897477E+02  0.35951452168E+02  0.51100000000E-03 0.  1.
        -12    1    3    3    0    0  0.43204841308E+01 -0.96666018013E+01 -0.12420328750E+02  0.16320978518E+02  0.00000000000E+00 0.  1.
</event>
<event>
 7    1  0.4673733E-013  0.5930195E+02  0.7816164E-02  0.1266605E+00
        -11   -1    0    0    0    0  0.00000000000E+00  0.00000000000E+00  0.45593999997E+02  0.45594000000E+02  0.51100000000E-03 0. -1.
         11   -1    0    0    0    0 -0.00000000000E+00 -0.00000000000E+00 -0.45593999997E+02  0.45594000000E+02  0.51100000000E-03 0.  1.
    9900012    2    1    2    0    0 -0.17272713586E+02  0.10966774415E+02 -0.24456156001E+02  0.59301947531E+02  0.50000006389E+02 0.  0.
         12    1    1    2    0    0  0.17272713586E+02 -0.10966774415E+02  0.24456156001E+02  0.31886052469E+02  0.00000000000E+00 0. -1.
         11    1    3    3    0    0 -0.11442341968E+02  0.43457413598E+01  0.33345716768E+01  0.12685898715E+02  0.51100000000E-03 0. -1.
        -11    1    3    3    0    0  0.13959945360E+02 -0.23419690357E+01 -0.17693493360E+02  0.22658874662E+02  0.51100000000E-03 0.  1.
        -12    1    3    3    0    0 -0.19790316978E+02  0.89630020912E+01 -0.10097234318E+02  0.23957174154E+02  0.00000000000E+00 0.  1.
</event>
<event>
 7    1  0.4673733E-013  0.5930194E+02  0.7816164E-02  0.1266605E+00
        -11   -1    0    0    0    0  0.00000000000E+00  0.00000000000E+00  0.45593999997E+02  0.45594000000E+02  0.51100000000E-03 0. -1.
         11   -1    0    0    0    0 -0.00000000000E+00 -0.00000000000E+00 -0.45593999997E+02  0.45594000000E+02  0.51100000000E-03 0.  1.
    9900012    2    1    2    0    0  0.17624788860E+02  0.49397369340E+01 -0.26109126384E+02  0.59301942484E+02  0.49999997186E+02 0.  0.
         12    1    1    2    0    0 -0.17624788860E+02 -0.49397369340E+01  0.26109126384E+02  0.31886057516E+02  0.00000000000E+00 0. -1.
         11    1    3    3    0    0  0.97661591123E+01  0.91442506053E+01  0.65743762852E+01  0.14906965041E+02  0.51100000000E-03 0. -1.
        -11    1    3    3    0    0 -0.13728801508E+01  0.10008007955E+02 -0.22397806593E+02  0.24570444920E+02  0.51100000000E-03 0.  1.
        -12    1    3    3    0    0  0.92315098981E+01 -0.14212521626E+02 -0.10285696076E+02  0.19824532523E+02  0.00000000000E+00 0.  1.
</event>
<event>
 7    1  0.4673733E-013  0.5930193E+02  0.7816164E-02  0.1266605E+00
        -11   -1    0    0    0    0  0.00000000000E+00  0.00000000000E+00  0.45593999997E+02  0.45594000000E+02  0.51100000000E-03 0.  1.
         11   -1    0    0    0    0 -0.00000000000E+00 -0.00000000000E+00 -0.45593999997E+02  0.45594000000E+02  0.51100000000E-03 0. -1.
    9900012    2    1    2    0    0  0.12286345634E+02 -0.25311477782E+02  0.15003204975E+02  0.59301931631E+02  0.49999977390E+02 0.  0.
         12    1    1    2    0    0 -0.12286345634E+02  0.25311477782E+02 -0.15003204975E+02  0.31886068369E+02  0.00000000000E+00 0. -1.
         11    1    3    3    0    0  0.14093464075E+02 -0.24324505990E+02  0.44022595083E+01  0.28455003257E+02  0.51100000000E-03 0. -1.
        -11    1    3    3    0    0 -0.97530344549E+01 -0.70921769822E+01  0.15544228272E+02  0.19673425941E+02  0.51100000000E-03 0.  1.
        -12    1    3    3    0    0  0.79459160130E+01  0.61052051907E+01 -0.49432828053E+01  0.11173502432E+02  0.00000000000E+00 0.  1.
</event>
<event>
 7    1  0.4673733E-013  0.5930201E+02  0.7816164E-02  0.1266605E+00
        -11   -1    0    0    0    0  0.00000000000E+00  0.00000000000E+00  0.45593999997E+02  0.45594000000E+02  0.51100000000E-03 0.  1.
         11   -1    0    0    0    0 -0.00000000000E+00 -0.00000000000E+00 -0.45593999997E+02  0.45594000000E+02  0.51100000000E-03 0. -1.
    9900012    2    1    2    0    0  0.12256555620E+01  0.80803826344E+01  0.30820801952E+02  0.59302005456E+02  0.50000112031E+02 0.  0.
         12    1    1    2    0    0 -0.12256555620E+01 -0.80803826344E+01 -0.30820801952E+02  0.31885994544E+02  0.00000000000E+00 0. -1.
         11    1    3    3    0    0 -0.17381850834E+02 -0.18158905993E+01  0.17375446565E+02  0.24644113712E+02  0.51100000000E-03 0. -1.
        -11    1    3    3    0    0  0.21465472097E+02  0.61146977514E+01  0.17545821383E+02  0.28390348170E+02  0.51100000000E-03 0.  1.
         12    1    3    3    0    0 -0.28579657013E+01  0.37815754823E+01 -0.41004659956E+01  0.62675435745E+01  0.00000000000E+00 0. -1.
</event>
<event>
 7    1  0.4673733E-013  0.5930198E+02  0.7816164E-02  0.1266605E+00
        -11   -1    0    0    0    0  0.00000000000E+00  0.00000000000E+00  0.45593999997E+02  0.45594000000E+02  0.51100000000E-03 0. -1.
         11   -1    0    0    0    0 -0.00000000000E+00 -0.00000000000E+00 -0.45593999997E+02  0.45594000000E+02  0.51100000000E-03 0.  1.
    9900012    2    1    2    0    0 -0.10622628766E+02  0.57297938453E+01 -0.29513518050E+02  0.59301975991E+02  0.50000058294E+02 0.  0.
         12    1    1    2    0    0  0.10622628766E+02 -0.57297938453E+01  0.29513518050E+02  0.31886024009E+02  0.00000000000E+00 0. -1.
         11    1    3    3    0    0 -0.56715050951E+01  0.22086969458E+02 -0.22930956641E+02  0.32339278944E+02  0.51100000000E-03 0. -1.
        -11    1    3    3    0    0 -0.10447476299E+02 -0.52231287825E+01 -0.84361443239E+01  0.14408308944E+02  0.51100000000E-03 0.  1.
         12    1    3    3    0    0  0.54963526282E+01 -0.11134046830E+02  0.18535829154E+01  0.12554388104E+02  0.00000000000E+00 0. -1.
</event>
<event>
 7    1  0.4673733E-013  0.5930201E+02  0.7816164E-02  0.1266605E+00
        -11   -1    0    0    0    0  0.00000000000E+00  0.00000000000E+00  0.45593999997E+02  0.45594000000E+02  0.51100000000E-03 0. -1.
         11   -1    0    0    0    0 -0.00000000000E+00 -0.00000000000E+00 -0.45593999997E+02  0.45594000000E+02  0.51100000000E-03 0.  1.
    9900012    2    1    2    0    0 -0.30128267569E+02  0.19581045296E+00  0.10438657944E+02  0.59302008905E+02  0.50000118321E+02 0.  0.
         12    1    1    2    0    0  0.30128267569E+02 -0.19581045296E+00 -0.10438657944E+02  0.31885991095E+02  0.00000000000E+00 0. -1.
         11    1    3    3    0    0  0.85532583363E+01 -0.24555315348E+00  0.12060189435E+02  0.14787382932E+02  0.51100000000E-03 0. -1.
        -11    1    3    3    0    0 -0.10923253302E+02  0.52086640625E+01 -0.93682780411E+01  0.15303995483E+02  0.51100000000E-03 0.  1.
         12    1    3    3    0    0 -0.27758272603E+02 -0.47673004560E+01  0.77467465499E+01  0.29210630490E+02  0.00000000000E+00 0. -1.
</event>
<event>
 7    1  0.4673733E-013  0.5930194E+02  0.7816164E-02  0.1266605E+00
        -11   -1    0    0    0    0  0.00000000000E+00  0.00000000000E+00  0.45593999997E+02  0.45594000000E+02  0.51100000000E-03 0.  1.
         11   -1    0    0    0    0 -0.00000000000E+00 -0.00000000000E+00 -0.45593999997E+02  0.45594000000E+02  0.51100000000E-03 0. -1.
    9900012    2    1    2    0    0  0.79886636624E+01 -0.30728913804E+02 -0.29387478538E+01  0.59301935181E+02  0.49999983865E+02 0.  0.
         12    1    1    2    0    0 -0.79886636624E+01  0.30728913804E+02  0.29387478538E+01  0.31886064819E+02  0.00000000000E+00 0. -1.
         11    1    3    3    0    0  0.40130460962E+01  0.48957147211E+01 -0.45114958001E+01  0.77734262855E+01  0.51100000000E-03 0. -1.
        -11    1    3    3    0    0  0.10772205399E+02 -0.40385190905E+02 -0.32628949218E+01  0.41924343013E+02  0.51100000000E-03 0.  1.
        -12    1    3    3    0    0 -0.67965878332E+01  0.47605623793E+01  0.48356428682E+01  0.96041658820E+01  0.00000000000E+00 0.  1.
</event>
<event>
 7    1  0.4673733E-013  0.5930192E+02  0.7816164E-02  0.1266605E+00
        -11   -1    0    0    0    0  0.00000000000E+00  0.00000000000E+00  0.45593999997E+02  0.45594000000E+02  0.51100000000E-03 0. -1.
         11   -1    0    0    0    0 -0.00000000000E+00 -0.00000000000E+00 -0.45593999997E+02  0.45594000000E+02  0.51100000000E-03 0.  1.
    9900012    2    1    2    0    0 -0.19477153264E+02  0.69397964304E+01 -0.24273480648E+02  0.59301919392E+02  0.49999955071E+02 0.  0.
         12    1    1    2    0    0  0.19477153264E+02 -0.69397964304E+01  0.24273480648E+02  0.31886080608E+02  0.00000000000E+00 0. -1.
         11    1    3    3    0    0 -0.15832313746E+02 -0.49981536592E+01 -0.45532284279E+01  0.17215562376E+02  0.51100000000E-03 0. -1.
        -11    1    3    3    0    0  0.75965818027E+01  0.74256911285E+01  0.70182330276E+01  0.12732028075E+02  0.51100000000E-03 0.  1.
        -12    1    3    3    0    0 -0.11241421320E+02  0.45122589611E+01 -0.26738485248E+02  0.29354328941E+02  0.00000000000E+00 0.  1.
</event>
<event>
 7    1  0.4673733E-013  0.5930194E+02  0.7816164E-02  0.1266605E+00
        -11   -1    0    0    0    0  0.00000000000E+00  0.00000000000E+00  0.45593999997E+02  0.45594000000E+02  0.51100000000E-03 0.  1.
         11   -1    0    0    0    0 -0.00000000000E+00 -0.00000000000E+00 -0.45593999997E+02  0.45594000000E+02  0.51100000000E-03 0. -1.
    9900012    2    1    2    0    0  0.10960786455E+02  0.11879439654E+02  0.27485649507E+02  0.59301939487E+02  0.49999991719E+02 0.  0.
         12    1    1    2    0    0 -0.10960786455E+02 -0.11879439654E+02 -0.27485649507E+02  0.31886060513E+02  0.00000000000E+00 0. -1.
         11    1    3    3    0    0 -0.11164788728E+00  0.92521681758E+01 -0.10022998924E+02  0.13640952639E+02  0.51100000000E-03 0. -1.
        -11    1    3    3    0    0  0.17393137059E+02 -0.15759960845E+00  0.33310014017E+02  0.37577960143E+02  0.51100000000E-03 0.  1.
        -12    1    3    3    0    0 -0.63207027158E+01  0.27848710868E+01  0.41986344132E+01  0.80830267058E+01  0.00000000000E+00 0.  1.
</event>
<event>
 7    1  0.4673733E-013  0.5930191E+02  0.7816164E-02  0.1266605E+00
        -11   -1    0    0    0    0  0.00000000000E+00  0.00000000000E+00  0.45593999997E+02  0.45594000000E+02  0.51100000000E-03 0.  1.
         11   -1    0    0    0    0 -0.00000000000E+00 -0.00000000000E+00 -0.45593999997E+02  0.45594000000E+02  0.51100000000E-03 0. -1.
    9900012    2    1    2    0    0 -0.16148475738E+02 -0.23268199092E+02 -0.14647195611E+02  0.59301910605E+02  0.49999939045E+02 0.  0.
         12    1    1    2    0    0  0.16148475738E+02  0.23268199092E+02  0.14647195611E+02  0.31886089395E+02  0.00000000000E+00 0. -1.
         11    1    3    3    0    0 -0.13042847660E+02 -0.13104564525E+02 -0.19411861020E+02  0.26807943506E+02  0.51100000000E-03 0. -1.
        -11    1    3    3    0    0 -0.26375629227E+01  0.10600272818E+02  0.42419166325E+01  0.11718207157E+02  0.51100000000E-03 0.  1.
         12    1    3    3    0    0 -0.46806515538E+00 -0.20763907385E+02  0.52274877621E+00  0.20775759942E+02  0.00000000000E+00 0. -1.
</event>
<event>
 7    1  0.4673733E-013  0.5930195E+02  0.7816164E-02  0.1266605E+00
        -11   -1    0    0    0    0  0.00000000000E+00  0.00000000000E+00  0.45593999997E+02  0.45594000000E+02  0.51100000000E-03 0.  1.
         11   -1    0    0    0    0 -0.00000000000E+00 -0.00000000000E+00 -0.45593999997E+02  0.45594000000E+02  0.51100000000E-03 0. -1.
    9900012    2    1    2    0    0  0.11175927988E+02 -0.29834546813E+02 -0.13110504845E+01  0.59301946570E+02  0.50000004637E+02 0.  0.
         12    1    1    2    0    0 -0.11175927988E+02  0.29834546813E+02  0.13110504845E+01  0.31886053430E+02  0.00000000000E+00 0. -1.
         11    1    3    3    0    0  0.24590672272E+02 -0.13010249725E+02  0.41460445850E+01  0.28127521161E+02  0.51100000000E-03 0.  1.
        -11    1    3    3    0    0 -0.11751371185E+02 -0.42031788902E+01  0.61800400289E+01  0.13926748814E+02  0.51100000000E-03 0. -1.
        -12    1    3    3    0    0 -0.16633730994E+01 -0.12621118198E+02 -0.11637135098E+02  0.17247676595E+02  0.00000000000E+00 0.  1.
</event>
<event>
 7    1  0.4673733E-013  0.5930194E+02  0.7816164E-02  0.1266605E+00
        -11   -1    0    0    0    0  0.00000000000E+00  0.00000000000E+00  0.45593999997E+02  0.45594000000E+02  0.51100000000E-03 0.  1.
         11   -1    0    0    0    0 -0.00000000000E+00 -0.00000000000E+00 -0.45593999997E+02  0.45594000000E+02  0.51100000000E-03 0. -1.
    9900012    2    1    2    0    0  0.19622451316E+02 -0.10396188649E+02  0.22882297882E+02  0.59301938932E+02  0.49999990706E+02 0.  0.
         12    1    1    2    0    0 -0.19622451316E+02  0.10396188649E+02 -0.22882297882E+02  0.31886061068E+02  0.00000000000E+00 0. -1.
         11    1    3    3    0    0  0.23975593783E+02  0.81737677863E+01  0.17618791480E+02  0.30855492065E+02  0.51100000000E-03 0. -1.
        -11    1    3    3    0    0 -0.91469820460E+01 -0.87897043095E+01 -0.48519017125E+01  0.13581867798E+02  0.51100000000E-03 0.  1.
         12    1    3    3    0    0  0.47938395787E+01 -0.97802521261E+01  0.10115408115E+02  0.14864579068E+02  0.00000000000E+00 0. -1.
</event>
<event>
 7    1  0.4673733E-013  0.5930193E+02  0.7816164E-02  0.1266605E+00
        -11   -1    0    0    0    0  0.00000000000E+00  0.00000000000E+00  0.45593999997E+02  0.45594000000E+02  0.51100000000E-03 0. -1.
         11   -1    0    0    0    0 -0.00000000000E+00 -0.00000000000E+00 -0.45593999997E+02  0.45594000000E+02  0.51100000000E-03 0.  1.
    9900012    2    1    2    0    0 -0.18297971552E+02 -0.25439916658E+02 -0.58920324420E+01  0.59301934567E+02  0.49999982746E+02 0.  0.
         12    1    1    2    0    0  0.18297971552E+02  0.25439916658E+02  0.58920324420E+01  0.31886065433E+02  0.00000000000E+00 0. -1.
         11    1    3    3    0    0 -0.19062543848E+01 -0.30313109448E+02  0.17731105236E+00  0.30373505719E+02  0.51100000000E-03 0.  1.
        -11    1    3    3    0    0 -0.59196203746E+01  0.46023030413E+01  0.82745456646E+01  0.11166521611E+02  0.51100000000E-03 0. -1.
         12    1    3    3    0    0 -0.10472096793E+02  0.27088974878E+00 -0.14343889159E+02  0.17761907237E+02  0.00000000000E+00 0. -1.
</event>
<event>
 7    1  0.4673733E-013  0.5930196E+02  0.7816164E-02  0.1266605E+00
        -11   -1    0    0    0    0  0.00000000000E+00  0.00000000000E+00  0.45593999997E+02  0.45594000000E+02  0.51100000000E-03 0.  1.
         11   -1    0    0    0    0 -0.00000000000E+00 -0.00000000000E+00 -0.45593999997E+02  0.45594000000E+02  0.51100000000E-03 0. -1.
    9900012    2    1    2    0    0 -0.54678992249E+01  0.24486048653E+02  0.19678801819E+02  0.59301956946E+02  0.50000023560E+02 0.  0.
         12    1    1    2    0    0  0.54678992249E+01 -0.24486048653E+02 -0.19678801819E+02  0.31886043054E+02  0.00000000000E+00 0. -1.
         11    1    3    3    0    0  0.15634640199E+02 -0.41896941103E+01 -0.18154281721E+00  0.16187293441E+02  0.51100000000E-03 0. -1.
        -11    1    3    3    0    0 -0.84233896318E+01  0.86330847507E+01 -0.18295521430E+00  0.12063047628E+02  0.51100000000E-03 0.  1.
         12    1    3    3    0    0 -0.12679149792E+02  0.20042658013E+02  0.20043299851E+02  0.31051615877E+02  0.00000000000E+00 0. -1.
</event>
<event>
 7    1  0.4673733E-013  0.5930193E+02  0.7816164E-02  0.1266605E+00
        -11   -1    0    0    0    0  0.00000000000E+00  0.00000000000E+00  0.45593999997E+02  0.45594000000E+02  0.51100000000E-03 0.  1.
         11   -1    0    0    0    0 -0.00000000000E+00 -0.00000000000E+00 -0.45593999997E+02  0.45594000000E+02  0.51100000000E-03 0. -1.
    9900012    2    1    2    0    0  0.27506416802E+00 -0.27677839298E+02  0.15829805880E+02  0.59301934035E+02  0.49999981776E+02 0.  0.
         12    1    1    2    0    0 -0.27506416802E+00  0.27677839298E+02 -0.15829805880E+02  0.31886065965E+02  0.00000000000E+00 0. -1.
         11    1    3    3    0    0 -0.14678770390E+02  0.65381335931E+01  0.10933949090E+02  0.19436170765E+02  0.51100000000E-03 0. -1.
        -11    1    3    3    0    0 -0.66401792346E+00 -0.79199135881E+01  0.47933521609E+01  0.92812809593E+01  0.51100000000E-03 0.  1.
         12    1    3    3    0    0  0.15617852481E+02 -0.26296059303E+02  0.10250462913E+00  0.30584482311E+02  0.00000000000E+00 0. -1.
</event>
<event>
 7    1  0.4673733E-013  0.5930193E+02  0.7816164E-02  0.1266605E+00
        -11   -1    0    0    0    0  0.00000000000E+00  0.00000000000E+00  0.45593999997E+02  0.45594000000E+02  0.51100000000E-03 0. -1.
         11   -1    0    0    0    0 -0.00000000000E+00 -0.00000000000E+00 -0.45593999997E+02  0.45594000000E+02  0.51100000000E-03 0.  1.
    9900012    2    1    2    0    0  0.26941027100E+02 -0.16141718579E+02 -0.55088433946E+01  0.59301931327E+02  0.49999976837E+02 0.  0.
         12    1    1    2    0    0 -0.26941027100E+02  0.16141718579E+02  0.55088433946E+01  0.31886068673E+02  0.00000000000E+00 0. -1.
         11    1    3    3    0    0  0.15376090969E+02 -0.16338187840E+02  0.17944906310E+02  0.28729431218E+02  0.51100000000E-03 0. -1.
        -11    1    3    3    0    0  0.12881823604E+02  0.43493469459E+01 -0.11358297500E+02  0.17716351785E+02  0.51100000000E-03 0.  1.
         12    1    3    3    0    0 -0.13168874733E+01 -0.41528776848E+01 -0.12095452205E+02  0.12856148323E+02  0.00000000000E+00 0. -1.
</event>
<event>
 7    1  0.4673733E-013  0.5930198E+02  0.7816164E-02  0.1266605E+00
        -11   -1    0    0    0    0  0.00000000000E+00  0.00000000000E+00  0.45593999997E+02  0.45594000000E+02  0.51100000000E-03 0.  1.
         11   -1    0    0    0    0 -0.00000000000E+00 -0.00000000000E+00 -0.45593999997E+02  0.45594000000E+02  0.51100000000E-03 0. -1.
    9900012    2    1    2    0    0 -0.18474417236E+02  0.11398273750E+02  0.23355804696E+02  0.59301978773E+02  0.50000063366E+02 0.  0.
         12    1    1    2    0    0  0.18474417236E+02 -0.11398273750E+02 -0.23355804696E+02  0.31886021227E+02  0.00000000000E+00 0. -1.
         11    1    3    3    0    0  0.15721350517E+02 -0.46398241058E+00  0.11714297822E+02  0.19611244618E+02  0.51100000000E-03 0. -1.
        -11    1    3    3    0    0 -0.27427996642E+02  0.59490256392E+01  0.12376643981E+02  0.30673559010E+02  0.51100000000E-03 0.  1.
         12    1    3    3    0    0 -0.67677711115E+01  0.59132305213E+01 -0.73513710721E+00  0.90171751442E+01  0.00000000000E+00 0. -1.
</event>
<event>
 7    1  0.4673733E-013  0.5930193E+02  0.7816164E-02  0.1266605E+00
        -11   -1    0    0    0    0  0.00000000000E+00  0.00000000000E+00  0.45593999997E+02  0.45594000000E+02  0.51100000000E-03 0.  1.
         11   -1    0    0    0    0 -0.00000000000E+00 -0.00000000000E+00 -0.45593999997E+02  0.45594000000E+02  0.51100000000E-03 0. -1.
    9900012    2    1    2    0    0  0.13729768908E+02  0.20407793522E+02  0.20291302295E+02  0.59301928753E+02  0.49999972143E+02 0.  0.
         12    1    1    2    0    0 -0.13729768908E+02 -0.20407793522E+02 -0.20291302295E+02  0.31886071247E+02  0.00000000000E+00 0. -1.
         11    1    3    3    0    0  0.47421841138E+00  0.23533408602E+02 -0.72897332424E+00  0.23549471457E+02  0.51100000000E-03 0. -1.
        -11    1    3    3    0    0  0.12282635563E+02  0.13493534141E+01  0.26121837757E+02  0.28896960032E+02  0.51100000000E-03 0.  1.
         12    1    3    3    0    0  0.97291493445E+00 -0.44749684940E+01 -0.51015621381E+01  0.68554972643E+01  0.00000000000E+00 0. -1.
</event>
<event>
 7    1  0.4673733E-013  0.5930195E+02  0.7816164E-02  0.1266605E+00
        -11   -1    0    0    0    0  0.00000000000E+00  0.00000000000E+00  0.45593999997E+02  0.45594000000E+02  0.51100000000E-03 0. -1.
         11   -1    0    0    0    0 -0.00000000000E+00 -0.00000000000E+00 -0.45593999997E+02  0.45594000000E+02  0.51100000000E-03 0.  1.
    9900012    2    1    2    0    0 -0.20414583951E+02  0.38051311097E+01 -0.24196822918E+02  0.59301945055E+02  0.50000001873E+02 0.  0.
         12    1    1    2    0    0  0.20414583951E+02 -0.38051311097E+01  0.24196822918E+02  0.31886054945E+02  0.00000000000E+00 0. -1.
         11    1    3    3    0    0  0.27311900979E+00 -0.30726620812E+01  0.65475821154E+00  0.31534988244E+01  0.51100000000E-03 0. -1.
        -11    1    3    3    0    0  0.48730353769E+01  0.18565170350E+02 -0.19829178740E+02  0.27597252647E+02  0.51100000000E-03 0.  1.
        -12    1    3    3    0    0 -0.25560738338E+02 -0.11687377160E+02 -0.50224023895E+01  0.28551193583E+02  0.00000000000E+00 0.  1.
</event>
<event>
 7    1  0.4673733E-013  0.5930192E+02  0.7816164E-02  0.1266605E+00
        -11   -1    0    0    0    0  0.00000000000E+00  0.00000000000E+00  0.45593999997E+02  0.45594000000E+02  0.51100000000E-03 0.  1.
         11   -1    0    0    0    0 -0.00000000000E+00 -0.00000000000E+00 -0.45593999997E+02  0.45594000000E+02  0.51100000000E-03 0. -1.
    9900012    2    1    2    0    0  0.21291346929E+02  0.21285166826E+02  0.10504404849E+02  0.59301916796E+02  0.49999950337E+02 0.  0.
         12    1    1    2    0    0 -0.21291346929E+02 -0.21285166826E+02 -0.10504404849E+02  0.31886083204E+02  0.00000000000E+00 0. -1.
         11    1    3    3    0    0  0.16673045292E+02 -0.12939524394E+01 -0.90346621447E+01  0.19007626694E+02  0.51100000000E-03 0. -1.
        -11    1    3    3    0    0 -0.78646468058E+01  0.21197698765E+02  0.13776924926E+02  0.26476381229E+02  0.51100000000E-03 0.  1.
        -12    1    3    3    0    0  0.12482948443E+02  0.13814205002E+01  0.57621420672E+01  0.13817908873E+02  0.00000000000E+00 0.  1.
</event>
<event>
 7    1  0.4673733E-013  0.5930195E+02  0.7816164E-02  0.1266605E+00
        -11   -1    0    0    0    0  0.00000000000E+00  0.00000000000E+00  0.45593999997E+02  0.45594000000E+02  0.51100000000E-03 0.  1.
         11   -1    0    0    0    0 -0.00000000000E+00 -0.00000000000E+00 -0.45593999997E+02  0.45594000000E+02  0.51100000000E-03 0. -1.
    9900012    2    1    2    0    0 -0.19344641401E+02 -0.13571625617E+02  0.21408323556E+02  0.59301945206E+02  0.50000002150E+02 0.  0.
         12    1    1    2    0    0  0.19344641401E+02  0.13571625617E+02 -0.21408323556E+02  0.31886054794E+02  0.00000000000E+00 0. -1.
         11    1    3    3    0    0  0.10762916783E+01  0.12668812943E+01 -0.95109842494E+01  0.96551651277E+01  0.51100000000E-03 0. -1.
        -11    1    3    3    0    0 -0.12730199346E+02  0.69529561376E+01  0.18185440736E+02  0.23261810537E+02  0.51100000000E-03 0.  1.
        -12    1    3    3    0    0 -0.76907337333E+01 -0.21791463049E+02  0.12733867069E+02  0.26384969542E+02  0.00000000000E+00 0.  1.
</event>
<event>
 7    1  0.4673733E-013  0.5930195E+02  0.7816164E-02  0.1266605E+00
        -11   -1    0    0    0    0  0.00000000000E+00  0.00000000000E+00  0.45593999997E+02  0.45594000000E+02  0.51100000000E-03 0. -1.
         11   -1    0    0    0    0 -0.00000000000E+00 -0.00000000000E+00 -0.45593999997E+02  0.45594000000E+02  0.51100000000E-03 0.  1.
    9900012    2    1    2    0    0  0.34446969598E+01  0.24906773040E+02 -0.19608849768E+02  0.59301948666E+02  0.50000008460E+02 0.  0.
         12    1    1    2    0    0 -0.34446969598E+01 -0.24906773040E+02  0.19608849768E+02  0.31886051334E+02  0.00000000000E+00 0. -1.
         11    1    3    3    0    0 -0.42782844956E+01  0.65003290633E+01  0.35890670932E+01  0.85696790498E+01  0.51100000000E-03 0. -1.
        -11    1    3    3    0    0  0.22173057045E+02  0.45677194992E+01 -0.39723396712E+01  0.22984516590E+02  0.51100000000E-03 0.  1.
        -12    1    3    3    0    0 -0.14450075590E+02  0.13838724478E+02 -0.19225577190E+02  0.27747753026E+02  0.00000000000E+00 0.  1.
</event>
<event>
 7    1  0.4673733E-013  0.5930192E+02  0.7816164E-02  0.1266605E+00
        -11   -1    0    0    0    0  0.00000000000E+00  0.00000000000E+00  0.45593999997E+02  0.45594000000E+02  0.51100000000E-03 0. -1.
         11   -1    0    0    0    0 -0.00000000000E+00 -0.00000000000E+00 -0.45593999997E+02  0.45594000000E+02  0.51100000000E-03 0.  1.
    9900012    2    1    2    0    0 -0.44228499245E+01  0.18635776757E+02  0.25492513436E+02  0.59301921250E+02  0.49999958458E+02 0.  0.
         12    1    1    2    0    0  0.44228499245E+01 -0.18635776757E+02 -0.25492513436E+02  0.31886078750E+02  0.00000000000E+00 0. -1.
         11    1    3    3    0    0 -0.23719917358E+01  0.16846993936E+02  0.13209670553E+02  0.21539334851E+02  0.51100000000E-03 0. -1.
        -11    1    3    3    0    0  0.11551491547E+02 -0.56762862604E+01 -0.56436220908E+01  0.14053741610E+02  0.51100000000E-03 0.  1.
        -12    1    3    3    0    0 -0.13602349736E+02  0.74650690818E+01  0.17926464974E+02  0.23708844789E+02  0.00000000000E+00 0.  1.
</event>
<event>
 7    1  0.4673733E-013  0.5930193E+02  0.7816164E-02  0.1266605E+00
        -11   -1    0    0    0    0  0.00000000000E+00  0.00000000000E+00  0.45593999997E+02  0.45594000000E+02  0.51100000000E-03 0.  1.
         11   -1    0    0    0    0 -0.00000000000E+00 -0.00000000000E+00 -0.45593999997E+02  0.45594000000E+02  0.51100000000E-03 0. -1.
    9900012    2    1    2    0    0  0.28055054778E+02  0.14964621034E+02 -0.23865772856E+01  0.59301925729E+02  0.49999966627E+02 0.  0.
         12    1    1    2    0    0 -0.28055054778E+02 -0.14964621034E+02  0.23865772856E+01  0.31886074271E+02  0.00000000000E+00 0. -1.
         11    1    3    3    0    0  0.96754843140E-01  0.81872617594E+01 -0.12378517565E+02  0.14841439081E+02  0.51100000000E-03 0. -1.
        -11    1    3    3    0    0  0.20609612001E+02  0.62297899423E+01  0.21736951958E+02  0.30595121674E+02  0.51100000000E-03 0.  1.
        -12    1    3    3    0    0  0.73486879342E+01  0.54756933210E+00 -0.11745011679E+02  0.13865364974E+02  0.00000000000E+00 0.  1.
</event>
<event>
 7    1  0.4673733E-013  0.5930190E+02  0.7816164E-02  0.1266605E+00
        -11   -1    0    0    0    0  0.00000000000E+00  0.00000000000E+00  0.45593999997E+02  0.45594000000E+02  0.51100000000E-03 0.  1.
         11   -1    0    0    0    0 -0.00000000000E+00 -0.00000000000E+00 -0.45593999997E+02  0.45594000000E+02  0.51100000000E-03 0. -1.
    9900012    2    1    2    0    0  0.15959306500E+02 -0.19627786307E+02 -0.19410669500E+02  0.59301897233E+02  0.49999914657E+02 0.  0.
         12    1    1    2    0    0 -0.15959306500E+02  0.19627786307E+02  0.19410669500E+02  0.31886102767E+02  0.00000000000E+00 0. -1.
         11    1    3    3    0    0  0.30871664288E+02 -0.15428157931E+01 -0.88815672510E+01  0.32160879552E+02  0.51100000000E-03 0. -1.
        -11    1    3    3    0    0 -0.35229621614E+01 -0.49972522253E+01  0.11570907266E+01  0.62227527192E+01  0.51100000000E-03 0.  1.
         12    1    3    3    0    0 -0.11389395626E+02 -0.13087718288E+02 -0.11686192976E+02  0.20918264961E+02  0.00000000000E+00 0. -1.
</event>
<event>
 7    1  0.4673733E-013  0.5930199E+02  0.7816164E-02  0.1266605E+00
        -11   -1    0    0    0    0  0.00000000000E+00  0.00000000000E+00  0.45593999997E+02  0.45594000000E+02  0.51100000000E-03 0. -1.
         11   -1    0    0    0    0 -0.00000000000E+00 -0.00000000000E+00 -0.45593999997E+02  0.45594000000E+02  0.51100000000E-03 0.  1.
    9900012    2    1    2    0    0  0.25433940424E+02  0.15472327337E+02  0.11421012151E+02  0.59301988063E+02  0.50000080309E+02 0.  0.
         12    1    1    2    0    0 -0.25433940424E+02 -0.15472327337E+02 -0.11421012151E+02  0.31886011937E+02  0.00000000000E+00 0. -1.
         11    1    3    3    0    0  0.38634060114E+01  0.70807884949E+01  0.16912698422E+02  0.18737738388E+02  0.51100000000E-03 0. -1.
        -11    1    3    3    0    0  0.18977514465E+02  0.15976311132E+02 -0.14317033074E+02  0.28642032208E+02  0.51100000000E-03 0.  1.
        -12    1    3    3    0    0  0.25930199470E+01 -0.75847722897E+01  0.88253468036E+01  0.11922217467E+02  0.00000000000E+00 0.  1.
</event>
<event>
 7    1  0.4673733E-013  0.5930195E+02  0.7816164E-02  0.1266605E+00
        -11   -1    0    0    0    0  0.00000000000E+00  0.00000000000E+00  0.45593999997E+02  0.45594000000E+02  0.51100000000E-03 0. -1.
         11   -1    0    0    0    0 -0.00000000000E+00 -0.00000000000E+00 -0.45593999997E+02  0.45594000000E+02  0.51100000000E-03 0.  1.
    9900012    2    1    2    0    0 -0.49577938742E+01 -0.31364733969E+01 -0.31341711823E+02  0.59301951554E+02  0.50000013727E+02 0.  0.
         12    1    1    2    0    0  0.49577938742E+01  0.31364733969E+01  0.31341711823E+02  0.31886048446E+02  0.00000000000E+00 0. -1.
         11    1    3    3    0    0 -0.18624474595E+02  0.89246809462E+01 -0.13319833883E+02  0.24575169559E+02  0.51100000000E-03 0. -1.
        -11    1    3    3    0    0 -0.39662472994E+00 -0.10842323748E+02 -0.17513209361E+02  0.20601596972E+02  0.51100000000E-03 0.  1.
         12    1    3    3    0    0  0.14063305451E+02 -0.12188305953E+01 -0.50866857922E+00  0.14125185023E+02  0.00000000000E+00 0. -1.
</event>
<event>
 7    1  0.4673733E-013  0.5930199E+02  0.7816164E-02  0.1266605E+00
        -11   -1    0    0    0    0  0.00000000000E+00  0.00000000000E+00  0.45593999997E+02  0.45594000000E+02  0.51100000000E-03 0.  1.
         11   -1    0    0    0    0 -0.00000000000E+00 -0.00000000000E+00 -0.45593999997E+02  0.45594000000E+02  0.51100000000E-03 0. -1.
    9900012    2    1    2    0    0  0.15306027874E+02 -0.14680591457E+02  0.23810155487E+02  0.59301988034E+02  0.50000080257E+02 0.  0.
         12    1    1    2    0    0 -0.15306027874E+02  0.14680591457E+02 -0.23810155487E+02  0.31886011966E+02  0.00000000000E+00 0. -1.
         11    1    3    3    0    0 -0.15374747662E+02 -0.15014363549E+01  0.95450694623E+01  0.18158896665E+02  0.51100000000E-03 0. -1.
        -11    1    3    3    0    0  0.12563861557E+02  0.81876411838E+00  0.13173318409E+02  0.18222439740E+02  0.51100000000E-03 0.  1.
         12    1    3    3    0    0  0.18116913978E+02 -0.13997919220E+02  0.10917676156E+01  0.22920651629E+02  0.00000000000E+00 0. -1.
</event>
<event>
 7    1  0.4673733E-013  0.5930201E+02  0.7816164E-02  0.1266605E+00
        -11   -1    0    0    0    0  0.00000000000E+00  0.00000000000E+00  0.45593999997E+02  0.45594000000E+02  0.51100000000E-03 0.  1.
         11   -1    0    0    0    0 -0.00000000000E+00 -0.00000000000E+00 -0.45593999997E+02  0.45594000000E+02  0.51100000000E-03 0. -1.
    9900012    2    1    2    0    0  0.53081791865E+01 -0.55928579183E+01  0.30939609894E+02  0.59302011127E+02  0.50000122374E+02 0.  0.
         12    1    1    2    0    0 -0.53081791865E+01  0.55928579183E+01 -0.30939609894E+02  0.31885988873E+02  0.00000000000E+00 0. -1.
         11    1    3    3    0    0  0.11428399034E+01 -0.53485751736E+01 -0.44546012503E+01  0.70538508627E+01  0.51100000000E-03 0. -1.
        -11    1    3    3    0    0  0.15140519852E+01  0.95254347550E+01  0.39985682250E+02  0.41132481641E+02  0.51100000000E-03 0.  1.
        -12    1    3    3    0    0  0.26512872978E+01 -0.97697174997E+01 -0.45914711052E+01  0.11115678624E+02  0.00000000000E+00 0.  1.
</event>
<event>
 7    1  0.4673733E-013  0.5930195E+02  0.7816164E-02  0.1266605E+00
        -11   -1    0    0    0    0  0.00000000000E+00  0.00000000000E+00  0.45593999997E+02  0.45594000000E+02  0.51100000000E-03 0. -1.
         11   -1    0    0    0    0 -0.00000000000E+00 -0.00000000000E+00 -0.45593999997E+02  0.45594000000E+02  0.51100000000E-03 0.  1.
    9900012    2    1    2    0    0  0.33508369890E+01  0.29427866323E+02 -0.11810709538E+02  0.59301948431E+02  0.50000008031E+02 0.  0.
         12    1    1    2    0    0 -0.33508369890E+01 -0.29427866323E+02  0.11810709538E+02  0.31886051569E+02  0.00000000000E+00 0. -1.
         11    1    3    3    0    0  0.10182361653E+02  0.33290933054E+02  0.30590805934E+01  0.34947456084E+02  0.51100000000E-03 0. -1.
        -11    1    3    3    0    0  0.27236490885E+01 -0.79282627175E+01 -0.94805782533E+01  0.12655314234E+02  0.51100000000E-03 0.  1.
        -12    1    3    3    0    0 -0.95551737525E+01  0.40651959869E+01 -0.53892118778E+01  0.11699178113E+02  0.00000000000E+00 0.  1.
</event>
<event>
 7    1  0.4673733E-013  0.5930199E+02  0.7816164E-02  0.1266605E+00
        -11   -1    0    0    0    0  0.00000000000E+00  0.00000000000E+00  0.45593999997E+02  0.45594000000E+02  0.51100000000E-03 0. -1.
         11   -1    0    0    0    0 -0.00000000000E+00 -0.00000000000E+00 -0.45593999997E+02  0.45594000000E+02  0.51100000000E-03 0.  1.
    9900012    2    1    2    0    0 -0.77462036392E+01 -0.25175428634E+02 -0.17969750384E+02  0.59301987289E+02  0.50000078899E+02 0.  0.
         12    1    1    2    0    0  0.77462036392E+01  0.25175428634E+02  0.17969750384E+02  0.31886012711E+02  0.00000000000E+00 0. -1.
         11    1    3    3    0    0 -0.12473197978E+02 -0.11868496745E+02  0.13248036584E+02  0.21724464467E+02  0.51100000000E-03 0. -1.
        -11    1    3    3    0    0 -0.10910700041E+01 -0.13247884639E+02 -0.13572133186E+02  0.18997359834E+02  0.51100000000E-03 0.  1.
         12    1    3    3    0    0  0.58180643431E+01 -0.59047249481E-01 -0.17645653782E+02  0.18580162988E+02  0.00000000000E+00 0. -1.
</event>
<event>
 7    1  0.4673733E-013  0.5930195E+02  0.7816164E-02  0.1266605E+00
        -11   -1    0    0    0    0  0.00000000000E+00  0.00000000000E+00  0.45593999997E+02  0.45594000000E+02  0.51100000000E-03 0. -1.
         11   -1    0    0    0    0 -0.00000000000E+00 -0.00000000000E+00 -0.45593999997E+02  0.45594000000E+02  0.51100000000E-03 0.  1.
    9900012    2    1    2    0    0 -0.23083869711E+02  0.16614945173E+02  0.14415217031E+02  0.59301954055E+02  0.50000018288E+02 0.  0.
         12    1    1    2    0    0  0.23083869711E+02 -0.16614945173E+02 -0.14415217031E+02  0.31886045945E+02  0.00000000000E+00 0. -1.
         11    1    3    3    0    0 -0.31826199538E+01 -0.14178622370E+02 -0.20359253012E+01  0.14673356609E+02  0.51100000000E-03 0. -1.
        -11    1    3    3    0    0 -0.13461504978E+02  0.91042325017E+01 -0.65539488081E+00  0.16264338549E+02  0.51100000000E-03 0.  1.
         12    1    3    3    0    0 -0.64397447793E+01  0.21689335042E+02  0.17106537213E+02  0.28364258897E+02  0.00000000000E+00 0. -1.
</event>
<event>
 7    1  0.4673733E-013  0.5930193E+02  0.7816164E-02  0.1266605E+00
        -11   -1    0    0    0    0  0.00000000000E+00  0.00000000000E+00  0.45593999997E+02  0.45594000000E+02  0.51100000000E-03 0.  1.
         11   -1    0    0    0    0 -0.00000000000E+00 -0.00000000000E+00 -0.45593999997E+02  0.45594000000E+02  0.51100000000E-03 0. -1.
    9900012    2    1    2    0    0  0.11172994164E+01 -0.91569844993E+01  0.30522498817E+02  0.59301926909E+02  0.49999968780E+02 0.  0.
         12    1    1    2    0    0 -0.11172994164E+01  0.91569844993E+01 -0.30522498817E+02  0.31886073091E+02  0.00000000000E+00 0. -1.
         11    1    3    3    0    0 -0.13309095278E+02  0.18683273963E+01 -0.84813694592E+00  0.13466328413E+02  0.51100000000E-03 0. -1.
        -11    1    3    3    0    0  0.22443026182E+02 -0.71290541719E+01  0.17462471895E+02  0.29316390681E+02  0.51100000000E-03 0.  1.
        -12    1    3    3    0    0 -0.80166314878E+01 -0.38962577237E+01  0.13908163868E+02  0.16519207815E+02  0.00000000000E+00 0.  1.
</event>
<event>
 7    1  0.4673733E-013  0.5930190E+02  0.7816164E-02  0.1266605E+00
        -11   -1    0    0    0    0  0.00000000000E+00  0.00000000000E+00  0.45593999997E+02  0.45594000000E+02  0.51100000000E-03 0. -1.
         11   -1    0    0    0    0 -0.00000000000E+00 -0.00000000000E+00 -0.45593999997E+02  0.45594000000E+02  0.51100000000E-03 0.  1.
    9900012    2    1    2    0    0  0.56881619680E+01 -0.25855313156E+02 -0.17772758281E+02  0.59301900491E+02  0.49999920600E+02 0.  0.
         12    1    1    2    0    0 -0.56881619680E+01  0.25855313156E+02  0.17772758281E+02  0.31886099509E+02  0.00000000000E+00 0. -1.
         11    1    3    3    0    0 -0.20323684754E+02 -0.35188687607E+01 -0.25302731660E+01  0.20780685309E+02  0.51100000000E-03 0. -1.
        -11    1    3    3    0    0  0.86775423429E+01 -0.78674282911E+01 -0.98562880145E+01  0.15308252112E+02  0.51100000000E-03 0.  1.
         12    1    3    3    0    0  0.17334304379E+02 -0.14469016104E+02 -0.53861971003E+01  0.23212963071E+02  0.00000000000E+00 0. -1.
</event>
<event>
 7    1  0.4673733E-013  0.5930194E+02  0.7816164E-02  0.1266605E+00
        -11   -1    0    0    0    0  0.00000000000E+00  0.00000000000E+00  0.45593999997E+02  0.45594000000E+02  0.51100000000E-03 0.  1.
         11   -1    0    0    0    0 -0.00000000000E+00 -0.00000000000E+00 -0.45593999997E+02  0.45594000000E+02  0.51100000000E-03 0. -1.
    9900012    2    1    2    0    0 -0.13932115267E+02 -0.28245815197E+02  0.49790431439E+01  0.59301940623E+02  0.49999993791E+02 0.  0.
         12    1    1    2    0    0  0.13932115267E+02  0.28245815197E+02 -0.49790431439E+01  0.31886059377E+02  0.00000000000E+00 0. -1.
         11    1    3    3    0    0 -0.28488442687E+02 -0.41127609729E+01  0.65324519344E+01  0.29515743224E+02  0.51100000000E-03 0. -1.
        -11    1    3    3    0    0  0.70783728798E+01 -0.71250263595E+01 -0.44452016030E+01  0.10983131648E+02  0.51100000000E-03 0.  1.
         12    1    3    3    0    0  0.74779545401E+01 -0.17008027865E+02  0.28917928125E+01  0.18803065750E+02  0.00000000000E+00 0. -1.
</event>
<event>
 7    1  0.4673733E-013  0.5930193E+02  0.7816164E-02  0.1266605E+00
        -11   -1    0    0    0    0  0.00000000000E+00  0.00000000000E+00  0.45593999997E+02  0.45594000000E+02  0.51100000000E-03 0. -1.
         11   -1    0    0    0    0 -0.00000000000E+00 -0.00000000000E+00 -0.45593999997E+02  0.45594000000E+02  0.51100000000E-03 0.  1.
    9900012    2    1    2    0    0  0.14253226360E+02  0.26828050231E+02  0.96861993650E+01  0.59301934094E+02  0.49999981882E+02 0.  0.
         12    1    1    2    0    0 -0.14253226360E+02 -0.26828050231E+02 -0.96861993650E+01  0.31886065906E+02  0.00000000000E+00 0. -1.
         11    1    3    3    0    0 -0.84552917879E+01  0.14549680018E+02  0.60670502787E+01  0.17888383023E+02  0.51100000000E-03 0. -1.
        -11    1    3    3    0    0  0.25376929179E+02 -0.27327349055E+01 -0.81100504735E+00  0.25536524902E+02  0.51100000000E-03 0.  1.
        -12    1    3    3    0    0 -0.26684110311E+01  0.15011105119E+02  0.44301541336E+01  0.15877026169E+02  0.00000000000E+00 0.  1.
</event>
<event>
 7    1  0.4673733E-013  0.5930194E+02  0.7816164E-02  0.1266605E+00
        -11   -1    0    0    0    0  0.00000000000E+00  0.00000000000E+00  0.45593999997E+02  0.45594000000E+02  0.51100000000E-03 0.  1.
         11   -1    0    0    0    0 -0.00000000000E+00 -0.00000000000E+00 -0.45593999997E+02  0.45594000000E+02  0.51100000000E-03 0. -1.
    9900012    2    1    2    0    0 -0.42769067369E+01  0.57683866987E+01  0.31066938258E+02  0.59301939267E+02  0.49999991318E+02 0.  0.
         12    1    1    2    0    0  0.42769067369E+01 -0.57683866987E+01 -0.31066938258E+02  0.31886060733E+02  0.00000000000E+00 0. -1.
         11    1    3    3    0    0 -0.65239550687E+01 -0.77967294229E+01  0.34205995605E+01  0.10726205342E+02  0.51100000000E-03 0. -1.
        -11    1    3    3    0    0  0.89890052892E+01  0.24840997217E+02  0.21551174179E+02  0.34092968008E+02  0.51100000000E-03 0.  1.
        -12    1    3    3    0    0 -0.67419569574E+01 -0.11275881096E+02  0.60951645183E+01  0.14482765917E+02  0.00000000000E+00 0.  1.
</event>
<event>
 7    1  0.4673733E-013  0.5930195E+02  0.7816164E-02  0.1266605E+00
        -11   -1    0    0    0    0  0.00000000000E+00  0.00000000000E+00  0.45593999997E+02  0.45594000000E+02  0.51100000000E-03 0.  1.
         11   -1    0    0    0    0 -0.00000000000E+00 -0.00000000000E+00 -0.45593999997E+02  0.45594000000E+02  0.51100000000E-03 0. -1.
    9900012    2    1    2    0    0  0.30031134034E+02  0.99681013715E+01 -0.39354620780E+01  0.59301954179E+02  0.50000018513E+02 0.  0.
         12    1    1    2    0    0 -0.30031134034E+02 -0.99681013715E+01  0.39354620780E+01  0.31886045821E+02  0.00000000000E+00 0. -1.
         11    1    3    3    0    0 -0.15940953782E+01 -0.21017030473E+00 -0.18624571693E+02  0.18693848791E+02  0.51100000000E-03 0. -1.
        -11    1    3    3    0    0  0.23949139417E+02 -0.13650260747E+01  0.97034461359E+01  0.25876271798E+02  0.51100000000E-03 0.  1.
         12    1    3    3    0    0  0.76760899954E+01  0.11543297751E+02  0.49856634789E+01  0.14731833589E+02  0.00000000000E+00 0. -1.
</event>
<event>
 7    1  0.4673733E-013  0.5930176E+02  0.7816164E-02  0.1266605E+00
        -11   -1    0    0    0    0  0.00000000000E+00  0.00000000000E+00  0.45593999997E+02  0.45594000000E+02  0.51100000000E-03 0. -1.
         11   -1    0    0    0    0 -0.00000000000E+00 -0.00000000000E+00 -0.45593999997E+02  0.45594000000E+02  0.51100000000E-03 0.  1.
    9900012    2    1    2    0    0 -0.14095535137E+02 -0.16288268284E+02 -0.23510433686E+02  0.59301760231E+02  0.49999664798E+02 0.  0.
         12    1    1    2    0    0  0.14095535137E+02  0.16288268284E+02  0.23510433686E+02  0.31886239769E+02  0.00000000000E+00 0. -1.
         11    1    3    3    0    0 -0.11453010585E+01  0.14671802745E+02 -0.14501490036E+01  0.14787712558E+02  0.51100000000E-03 0. -1.
        -11    1    3    3    0    0 -0.67786343060E+01 -0.25688944503E+02 -0.24394440725E+02  0.36068829913E+02  0.51100000000E-03 0.  1.
         12    1    3    3    0    0 -0.61715997722E+01 -0.52711265254E+01  0.23341560425E+01  0.84452177607E+01  0.00000000000E+00 0. -1.
</event>
<event>
 7    1  0.4673733E-013  0.5930199E+02  0.7816164E-02  0.1266605E+00
        -11   -1    0    0    0    0  0.00000000000E+00  0.00000000000E+00  0.45593999997E+02  0.45594000000E+02  0.51100000000E-03 0. -1.
         11   -1    0    0    0    0 -0.00000000000E+00 -0.00000000000E+00 -0.45593999997E+02  0.45594000000E+02  0.51100000000E-03 0.  1.
    9900012    2    1    2    0    0  0.92274238109E+01 -0.84577935808E+01 -0.29326405182E+02  0.59301989536E+02  0.50000082996E+02 0.  0.
         12    1    1    2    0    0 -0.92274238109E+01  0.84577935808E+01  0.29326405182E+02  0.31886010464E+02  0.00000000000E+00 0. -1.
         11    1    3    3    0    0  0.12872580286E+02  0.12292869066E+02 -0.61246637485E+01  0.18823640971E+02  0.51100000000E-03 0. -1.
        -11    1    3    3    0    0  0.10327682523E+02 -0.12688008101E+02 -0.76112352195E+01  0.18043765618E+02  0.51100000000E-03 0.  1.
         12    1    3    3    0    0 -0.13972838998E+02 -0.80626545458E+01 -0.15590506214E+02  0.22434582947E+02  0.00000000000E+00 0. -1.
</event>
<event>
 7    1  0.4673733E-013  0.5930198E+02  0.7816164E-02  0.1266605E+00
        -11   -1    0    0    0    0  0.00000000000E+00  0.00000000000E+00  0.45593999997E+02  0.45594000000E+02  0.51100000000E-03 0.  1.
         11   -1    0    0    0    0 -0.00000000000E+00 -0.00000000000E+00 -0.45593999997E+02  0.45594000000E+02  0.51100000000E-03 0. -1.
    9900012    2    1    2    0    0  0.30491419078E+02 -0.40751481896E+01 -0.83895569238E+01  0.59301982131E+02  0.50000069491E+02 0.  0.
         12    1    1    2    0    0 -0.30491419078E+02  0.40751481896E+01  0.83895569238E+01  0.31886017869E+02  0.00000000000E+00 0. -1.
         11    1    3    3    0    0  0.19310471183E+02  0.83485881075E+01  0.60141192628E+01  0.21880650161E+02  0.51100000000E-03 0.  1.
        -11    1    3    3    0    0  0.66577041594E+01 -0.35622131386E+01 -0.23040561644E+02  0.24246275348E+02  0.51100000000E-03 0. -1.
        -12    1    3    3    0    0  0.45232437357E+01 -0.88615231585E+01  0.86368854572E+01  0.13175056622E+02  0.00000000000E+00 0.  1.
</event>
<event>
 7    1  0.4673733E-013  0.5930196E+02  0.7816164E-02  0.1266605E+00
        -11   -1    0    0    0    0  0.00000000000E+00  0.00000000000E+00  0.45593999997E+02  0.45594000000E+02  0.51100000000E-03 0.  1.
         11   -1    0    0    0    0 -0.00000000000E+00 -0.00000000000E+00 -0.45593999997E+02  0.45594000000E+02  0.51100000000E-03 0. -1.
    9900012    2    1    2    0    0 -0.30985532587E+02  0.75171269051E+01 -0.33065293210E+00  0.59301956690E+02  0.50000023094E+02 0.  0.
         12    1    1    2    0    0  0.30985532587E+02 -0.75171269051E+01  0.33065293210E+00  0.31886043310E+02  0.00000000000E+00 0. -1.
         11    1    3    3    0    0 -0.23836446865E+02  0.12120309138E+02  0.18742111537E+01  0.26806543240E+02  0.51100000000E-03 0. -1.
        -11    1    3    3    0    0  0.91766374004E+01 -0.15067812760E+01  0.86066427107E+01  0.12671044266E+02  0.51100000000E-03 0.  1.
         12    1    3    3    0    0 -0.16325723122E+02 -0.30964009569E+01 -0.10811506796E+02  0.19824369184E+02  0.00000000000E+00 0. -1.
</event>
<event>
 7    1  0.4673733E-013  0.5930193E+02  0.7816164E-02  0.1266605E+00
        -11   -1    0    0    0    0  0.00000000000E+00  0.00000000000E+00  0.45593999997E+02  0.45594000000E+02  0.51100000000E-03 0.  1.
         11   -1    0    0    0    0 -0.00000000000E+00 -0.00000000000E+00 -0.45593999997E+02  0.45594000000E+02  0.51100000000E-03 0. -1.
    9900012    2    1    2    0    0 -0.46363886443E+01 -0.20525559709E+01  0.31480346516E+02  0.59301932472E+02  0.49999978925E+02 0.  0.
         12    1    1    2    0    0  0.46363886443E+01  0.20525559709E+01 -0.31480346516E+02  0.31886067528E+02  0.00000000000E+00 0. -1.
         11    1    3    3    0    0  0.23867498229E+01 -0.21956192124E+02  0.11887060321E+02  0.25081330719E+02  0.51100000000E-03 0.  1.
        -11    1    3    3    0    0 -0.64409875260E+01  0.16929685224E+02  0.23248920743E+02  0.29472239108E+02  0.51100000000E-03 0. -1.
         12    1    3    3    0    0 -0.58215094123E+00  0.29739509299E+01 -0.36556345481E+01  0.47483626442E+01  0.00000000000E+00 0. -1.
</event>
<event>
 7    1  0.4673733E-013  0.5930195E+02  0.7816164E-02  0.1266605E+00
        -11   -1    0    0    0    0  0.00000000000E+00  0.00000000000E+00  0.45593999997E+02  0.45594000000E+02  0.51100000000E-03 0.  1.
         11   -1    0    0    0    0 -0.00000000000E+00 -0.00000000000E+00 -0.45593999997E+02  0.45594000000E+02  0.51100000000E-03 0. -1.
    9900012    2    1    2    0    0  0.10155736947E+02 -0.25201854264E+01  0.30120254562E+02  0.59301951916E+02  0.50000014387E+02 0.  0.
         12    1    1    2    0    0 -0.10155736947E+02  0.25201854264E+01 -0.30120254562E+02  0.31886048084E+02  0.00000000000E+00 0. -1.
         11    1    3    3    0    0 -0.44653252905E+01 -0.17785254776E+02  0.73776351589E+01  0.19765725845E+02  0.51100000000E-03 0. -1.
        -11    1    3    3    0    0  0.58147674533E+01  0.15523697204E+02  0.25402927772E+02  0.30333239772E+02  0.51100000000E-03 0.  1.
         12    1    3    3    0    0  0.88062947844E+01 -0.25862785415E+00 -0.26603083693E+01  0.92029862989E+01  0.00000000000E+00 0. -1.
</event>
<event>
 7    1  0.4673733E-013  0.5930190E+02  0.7816164E-02  0.1266605E+00
        -11   -1    0    0    0    0  0.00000000000E+00  0.00000000000E+00  0.45593999997E+02  0.45594000000E+02  0.51100000000E-03 0. -1.
         11   -1    0    0    0    0 -0.00000000000E+00 -0.00000000000E+00 -0.45593999997E+02  0.45594000000E+02  0.51100000000E-03 0.  1.
    9900012    2    1    2    0    0  0.12414977829E+02  0.95257395445E+01 -0.27782226456E+02  0.59301898087E+02  0.49999916215E+02 0.  0.
         12    1    1    2    0    0 -0.12414977829E+02 -0.95257395445E+01  0.27782226456E+02  0.31886101913E+02  0.00000000000E+00 0. -1.
         11    1    3    3    0    0 -0.13362404098E+02  0.15780433813E+02 -0.24422176365E+02  0.32000291143E+02  0.51100000000E-03 0.  1.
        -11    1    3    3    0    0  0.18515792228E+02 -0.69829425304E+01 -0.21740547809E+01  0.19907851784E+02  0.51100000000E-03 0. -1.
        -12    1    3    3    0    0  0.72615896984E+01  0.72824826147E+00 -0.11859953105E+01  0.73937551592E+01  0.00000000000E+00 0.  1.
</event>
<event>
 7    1  0.4673733E-013  0.5930200E+02  0.7816164E-02  0.1266605E+00
        -11   -1    0    0    0    0  0.00000000000E+00  0.00000000000E+00  0.45593999997E+02  0.45594000000E+02  0.51100000000E-03 0. -1.
         11   -1    0    0    0    0 -0.00000000000E+00 -0.00000000000E+00 -0.45593999997E+02  0.45594000000E+02  0.51100000000E-03 0.  1.
    9900012    2    1    2    0    0 -0.16521606792E+02  0.95509076399E+01 -0.25544741148E+02  0.59301997930E+02  0.50000098305E+02 0.  0.
         12    1    1    2    0    0  0.16521606792E+02 -0.95509076399E+01  0.25544741148E+02  0.31886002070E+02  0.00000000000E+00 0. -1.
         11    1    3    3    0    0 -0.30610718364E+01  0.38083688251E+01  0.12214656165E+02  0.13155670237E+02  0.51100000000E-03 0. -1.
        -11    1    3    3    0    0 -0.17600758478E+02 -0.10146522843E+01 -0.31295694423E+02  0.35919865088E+02  0.51100000000E-03 0.  1.
         12    1    3    3    0    0  0.41402235226E+01  0.67571910991E+01 -0.64637028898E+01  0.10226462605E+02  0.00000000000E+00 0. -1.
</event>
<event>
 7    1  0.4673733E-013  0.5930194E+02  0.7816164E-02  0.1266605E+00
        -11   -1    0    0    0    0  0.00000000000E+00  0.00000000000E+00  0.45593999997E+02  0.45594000000E+02  0.51100000000E-03 0.  1.
         11   -1    0    0    0    0 -0.00000000000E+00 -0.00000000000E+00 -0.45593999997E+02  0.45594000000E+02  0.51100000000E-03 0. -1.
    9900012    2    1    2    0    0 -0.11920888530E+02  0.14792215419E+02  0.25608657797E+02  0.59301943886E+02  0.49999999741E+02 0.  0.
         12    1    1    2    0    0  0.11920888530E+02 -0.14792215419E+02 -0.25608657797E+02  0.31886056114E+02  0.00000000000E+00 0. -1.
         11    1    3    3    0    0 -0.12175217697E+02  0.15674686098E+02 -0.78971958710E+01  0.21361119192E+02  0.51100000000E-03 0. -1.
        -11    1    3    3    0    0 -0.65904111444E+01 -0.59644914233E+01  0.13154869785E+02  0.15876374785E+02  0.51100000000E-03 0.  1.
         12    1    3    3    0    0  0.68447403115E+01  0.50820207448E+01  0.20350983883E+02  0.22064449909E+02  0.00000000000E+00 0. -1.
</event>
<event>
 7    1  0.4673733E-013  0.5930193E+02  0.7816164E-02  0.1266605E+00
        -11   -1    0    0    0    0  0.00000000000E+00  0.00000000000E+00  0.45593999997E+02  0.45594000000E+02  0.51100000000E-03 0.  1.
         11   -1    0    0    0    0 -0.00000000000E+00 -0.00000000000E+00 -0.45593999997E+02  0.45594000000E+02  0.51100000000E-03 0. -1.
    9900012    2    1    2    0    0 -0.14384052199E+02 -0.16879714793E+02 -0.22910608391E+02  0.59301926143E+02  0.49999967382E+02 0.  0.
         12    1    1    2    0    0  0.14384052199E+02  0.16879714793E+02  0.22910608391E+02  0.31886073857E+02  0.00000000000E+00 0. -1.
         11    1    3    3    0    0  0.99138252938E+01  0.27625797498E+01  0.72917900047E+01  0.12612929103E+02  0.51100000000E-03 0. -1.
        -11    1    3    3    0    0 -0.21405493235E+02 -0.15938158582E+02 -0.14654303859E+02  0.30446160045E+02  0.51100000000E-03 0.  1.
         12    1    3    3    0    0 -0.28923842579E+01 -0.37041359609E+01 -0.15548094537E+02  0.16242836995E+02  0.00000000000E+00 0. -1.
</event>
<event>
 7    1  0.4673733E-013  0.5930201E+02  0.7816164E-02  0.1266605E+00
        -11   -1    0    0    0    0  0.00000000000E+00  0.00000000000E+00  0.45593999997E+02  0.45594000000E+02  0.51100000000E-03 0.  1.
         11   -1    0    0    0    0 -0.00000000000E+00 -0.00000000000E+00 -0.45593999997E+02  0.45594000000E+02  0.51100000000E-03 0. -1.
    9900012    2    1    2    0    0 -0.17837228802E+02  0.73636316760E+01  0.25383587745E+02  0.59302010450E+02  0.50000121138E+02 0.  0.
         12    1    1    2    0    0  0.17837228802E+02 -0.73636316760E+01 -0.25383587745E+02  0.31885989550E+02  0.00000000000E+00 0. -1.
         11    1    3    3    0    0  0.94218680075E+01 -0.84226725147E+01 -0.63313024912E+01  0.14135006209E+02  0.51100000000E-03 0. -1.
        -11    1    3    3    0    0 -0.14787804916E+02  0.58396325381E+01  0.12712555320E+02  0.20356560256E+02  0.51100000000E-03 0.  1.
         12    1    3    3    0    0 -0.12471291893E+02  0.99466716527E+01  0.19002334916E+02  0.24810443985E+02  0.00000000000E+00 0. -1.
</event>
<event>
 7    1  0.4673733E-013  0.5930194E+02  0.7816164E-02  0.1266605E+00
        -11   -1    0    0    0    0  0.00000000000E+00  0.00000000000E+00  0.45593999997E+02  0.45594000000E+02  0.51100000000E-03 0.  1.
         11   -1    0    0    0    0 -0.00000000000E+00 -0.00000000000E+00 -0.45593999997E+02  0.45594000000E+02  0.51100000000E-03 0. -1.
    9900012    2    1    2    0    0  0.20892083638E+02  0.19458598520E+02  0.14198758255E+02  0.59301937981E+02  0.49999988971E+02 0.  0.
         12    1    1    2    0    0 -0.20892083638E+02 -0.19458598520E+02 -0.14198758255E+02  0.31886062019E+02  0.00000000000E+00 0. -1.
         11    1    3    3    0    0  0.56731042757E+00 -0.14934957382E+02  0.72418398035E+01  0.16607800490E+02  0.51100000000E-03 0. -1.
        -11    1    3    3    0    0  0.17374369804E+02  0.16571073846E+02  0.49847311466E+01  0.24521760935E+02  0.51100000000E-03 0.  1.
         12    1    3    3    0    0  0.29504034073E+01  0.17822482056E+02  0.19721873047E+01  0.18172376555E+02  0.00000000000E+00 0. -1.
</event>
<event>
 7    1  0.4673733E-013  0.5930200E+02  0.7816164E-02  0.1266605E+00
        -11   -1    0    0    0    0  0.00000000000E+00  0.00000000000E+00  0.45593999997E+02  0.45594000000E+02  0.51100000000E-03 0.  1.
         11   -1    0    0    0    0 -0.00000000000E+00 -0.00000000000E+00 -0.45593999997E+02  0.45594000000E+02  0.51100000000E-03 0. -1.
    9900012    2    1    2    0    0  0.10119124818E+02  0.15709630179E+02  0.25836560769E+02  0.59301999313E+02  0.50000100827E+02 0.  0.
         12    1    1    2    0    0 -0.10119124818E+02 -0.15709630179E+02 -0.25836560769E+02  0.31886000687E+02  0.00000000000E+00 0. -1.
         11    1    3    3    0    0 -0.71546593223E+01 -0.25490042625E+01 -0.89185588128E+01  0.11714404138E+02  0.51100000000E-03 0. -1.
        -11    1    3    3    0    0  0.18669208677E+02  0.20861219808E+02  0.25482682842E+02  0.37856267243E+02  0.51100000000E-03 0.  1.
        -12    1    3    3    0    0 -0.13954245366E+01 -0.26025853666E+01  0.92724367394E+01  0.97313279317E+01  0.00000000000E+00 0.  1.
</event>
<event>
 7    1  0.4673733E-013  0.5930194E+02  0.7816164E-02  0.1266605E+00
        -11   -1    0    0    0    0  0.00000000000E+00  0.00000000000E+00  0.45593999997E+02  0.45594000000E+02  0.51100000000E-03 0. -1.
         11   -1    0    0    0    0 -0.00000000000E+00 -0.00000000000E+00 -0.45593999997E+02  0.45594000000E+02  0.51100000000E-03 0.  1.
    9900012    2    1    2    0    0  0.29912168518E+02 -0.91994414526E+01  0.61117320262E+01  0.59301940086E+02  0.49999992811E+02 0.  0.
         12    1    1    2    0    0 -0.29912168518E+02  0.91994414526E+01 -0.61117320262E+01  0.31886059914E+02  0.00000000000E+00 0. -1.
         11    1    3    3    0    0 -0.86961243257E+01 -0.39092308932E+01  0.65122401321E+01  0.11546165435E+02  0.51100000000E-03 0. -1.
        -11    1    3    3    0    0  0.22473621672E+02  0.10829519685E+02 -0.20830865939E+00  0.24947656412E+02  0.51100000000E-03 0.  1.
         12    1    3    3    0    0  0.16134671172E+02 -0.16119730244E+02 -0.19219944655E+00  0.22808118239E+02  0.00000000000E+00 0. -1.
</event>
<event>
 7    1  0.4673733E-013  0.5930194E+02  0.7816164E-02  0.1266605E+00
        -11   -1    0    0    0    0  0.00000000000E+00  0.00000000000E+00  0.45593999997E+02  0.45594000000E+02  0.51100000000E-03 0.  1.
         11   -1    0    0    0    0 -0.00000000000E+00 -0.00000000000E+00 -0.45593999997E+02  0.45594000000E+02  0.51100000000E-03 0. -1.
    9900012    2    1    2    0    0 -0.12029589800E+01 -0.30732576326E+02  0.84132160224E+01  0.59301944085E+02  0.50000000105E+02 0.  0.
         12    1    1    2    0    0  0.12029589800E+01  0.30732576326E+02 -0.84132160224E+01  0.31886055915E+02  0.00000000000E+00 0. -1.
         11    1    3    3    0    0  0.15222191400E+02 -0.68418823395E+01  0.14963834374E+02  0.22415235988E+02  0.51100000000E-03 0. -1.
        -11    1    3    3    0    0 -0.18656914704E+02 -0.25509574564E+02 -0.21287423243E+01  0.31675706857E+02  0.51100000000E-03 0.  1.
         12    1    3    3    0    0  0.22317643240E+01  0.16188805774E+01 -0.44218760277E+01  0.52110012403E+01  0.00000000000E+00 0. -1.
</event>
<event>
 7    1  0.4673733E-013  0.5930194E+02  0.7816164E-02  0.1266605E+00
        -11   -1    0    0    0    0  0.00000000000E+00  0.00000000000E+00  0.45593999997E+02  0.45594000000E+02  0.51100000000E-03 0.  1.
         11   -1    0    0    0    0 -0.00000000000E+00 -0.00000000000E+00 -0.45593999997E+02  0.45594000000E+02  0.51100000000E-03 0. -1.
    9900012    2    1    2    0    0  0.13472755864E+02 -0.21123203362E+02  0.19723485875E+02  0.59301940884E+02  0.49999994267E+02 0.  0.
         12    1    1    2    0    0 -0.13472755864E+02  0.21123203362E+02 -0.19723485875E+02  0.31886059116E+02  0.00000000000E+00 0. -1.
         11    1    3    3    0    0 -0.52557753756E+01 -0.18869279555E+02  0.25410439134E+02  0.32083692165E+02  0.51100000000E-03 0. -1.
        -11    1    3    3    0    0  0.63061545007E+01 -0.91991443973E+01  0.15357232437E+01  0.11258343056E+02  0.51100000000E-03 0.  1.
         12    1    3    3    0    0  0.12422376739E+02  0.69452205900E+01 -0.72226765022E+01  0.15959905662E+02  0.00000000000E+00 0. -1.
</event>
<event>
 7    1  0.4673733E-013  0.5930200E+02  0.7816164E-02  0.1266605E+00
        -11   -1    0    0    0    0  0.00000000000E+00  0.00000000000E+00  0.45593999997E+02  0.45594000000E+02  0.51100000000E-03 0. -1.
         11   -1    0    0    0    0 -0.00000000000E+00 -0.00000000000E+00 -0.45593999997E+02  0.45594000000E+02  0.51100000000E-03 0.  1.
    9900012    2    1    2    0    0  0.37234914200E+01 -0.30969192815E+02 -0.66152452216E+01  0.59302003680E+02  0.50000108791E+02 0.  0.
         12    1    1    2    0    0 -0.37234914200E+01  0.30969192815E+02  0.66152452216E+01  0.31885996320E+02  0.00000000000E+00 0. -1.
         11    1    3    3    0    0  0.14856513487E+01  0.81732299378E+00  0.80418934702E+01  0.82187120434E+01  0.51100000000E-03 0. -1.
        -11    1    3    3    0    0  0.16225993208E+02 -0.16887740161E+02 -0.19039429587E+02  0.30182420423E+02  0.51100000000E-03 0.  1.
        -12    1    3    3    0    0 -0.13988153137E+02 -0.14898775648E+02  0.43822908951E+01  0.20900871214E+02  0.00000000000E+00 0.  1.
</event>
<event>
 7    1  0.4673733E-013  0.5930194E+02  0.7816164E-02  0.1266605E+00
        -11   -1    0    0    0    0  0.00000000000E+00  0.00000000000E+00  0.45593999997E+02  0.45594000000E+02  0.51100000000E-03 0. -1.
         11   -1    0    0    0    0 -0.00000000000E+00 -0.00000000000E+00 -0.45593999997E+02  0.45594000000E+02  0.51100000000E-03 0.  1.
    9900012    2    1    2    0    0 -0.16891912696E+02 -0.15533618173E+02 -0.22138000937E+02  0.59301935747E+02  0.49999984898E+02 0.  0.
         12    1    1    2    0    0  0.16891912696E+02  0.15533618173E+02  0.22138000937E+02  0.31886064253E+02  0.00000000000E+00 0. -1.
         11    1    3    3    0    0 -0.29460406129E+02 -0.23153869027E+02 -0.85913326517E+01  0.38442530837E+02  0.51100000000E-03 0. -1.
        -11    1    3    3    0    0  0.96456691459E+01  0.82676315911E+01 -0.96930294912E+01  0.15979595939E+02  0.51100000000E-03 0.  1.
         12    1    3    3    0    0  0.29228242875E+01 -0.64738073756E+00 -0.38536387939E+01  0.48798089705E+01  0.00000000000E+00 0. -1.
</event>
<event>
 7    1  0.4673733E-013  0.5930200E+02  0.7816164E-02  0.1266605E+00
        -11   -1    0    0    0    0  0.00000000000E+00  0.00000000000E+00  0.45593999997E+02  0.45594000000E+02  0.51100000000E-03 0.  1.
         11   -1    0    0    0    0 -0.00000000000E+00 -0.00000000000E+00 -0.45593999997E+02  0.45594000000E+02  0.51100000000E-03 0. -1.
    9900012    2    1    2    0    0  0.12202926140E+01 -0.13224874878E+02  0.28988460701E+02  0.59301995492E+02  0.50000093859E+02 0.  0.
         12    1    1    2    0    0 -0.12202926140E+01  0.13224874878E+02 -0.28988460701E+02  0.31886004508E+02  0.00000000000E+00 0. -1.
         11    1    3    3    0    0 -0.10175287328E+01  0.18831530586E+01 -0.59789151414E+01  0.63505162541E+01  0.51100000000E-03 0. -1.
        -11    1    3    3    0    0 -0.10562486368E+02  0.66414126081E+01  0.20110146791E+02  0.23666273131E+02  0.51100000000E-03 0.  1.
        -12    1    3    3    0    0  0.12800307715E+02 -0.21749440545E+02  0.14857229052E+02  0.29285206107E+02  0.00000000000E+00 0.  1.
</event>
<event>
 7    1  0.4673733E-013  0.5930193E+02  0.7816164E-02  0.1266605E+00
        -11   -1    0    0    0    0  0.00000000000E+00  0.00000000000E+00  0.45593999997E+02  0.45594000000E+02  0.51100000000E-03 0.  1.
         11   -1    0    0    0    0 -0.00000000000E+00 -0.00000000000E+00 -0.45593999997E+02  0.45594000000E+02  0.51100000000E-03 0. -1.
    9900012    2    1    2    0    0 -0.23771364789E+02  0.21116514811E+02 -0.23950771834E+01  0.59301931311E+02  0.49999976808E+02 0.  0.
         12    1    1    2    0    0  0.23771364789E+02 -0.21116514811E+02  0.23950771834E+01  0.31886068689E+02  0.00000000000E+00 0. -1.
         11    1    3    3    0    0 -0.11146384128E+02 -0.21325962025E+01 -0.87368574345E+01  0.14322099141E+02  0.51100000000E-03 0. -1.
        -11    1    3    3    0    0  0.38477707295E+01  0.26188740271E+02  0.91623480044E+01  0.28010785026E+02  0.51100000000E-03 0.  1.
        -12    1    3    3    0    0 -0.16472751390E+02 -0.29396292576E+01 -0.28205677533E+01  0.16969047144E+02  0.00000000000E+00 0.  1.
</event>
<event>
 7    1  0.4673733E-013  0.5930194E+02  0.7816164E-02  0.1266605E+00
        -11   -1    0    0    0    0  0.00000000000E+00  0.00000000000E+00  0.45593999997E+02  0.45594000000E+02  0.51100000000E-03 0.  1.
         11   -1    0    0    0    0 -0.00000000000E+00 -0.00000000000E+00 -0.45593999997E+02  0.45594000000E+02  0.51100000000E-03 0. -1.
    9900012    2    1    2    0    0 -0.19089325511E+02 -0.17907791756E+02  0.18210702474E+02  0.59301936608E+02  0.49999986468E+02 0.  0.
         12    1    1    2    0    0  0.19089325511E+02  0.17907791756E+02 -0.18210702474E+02  0.31886063392E+02  0.00000000000E+00 0. -1.
         11    1    3    3    0    0 -0.10320255622E+02 -0.15722204348E+02 -0.14605340909E+02  0.23812000524E+02  0.51100000000E-03 0. -1.
        -11    1    3    3    0    0 -0.75036622391E+01  0.28227267221E+01  0.23604855867E+02  0.24929138652E+02  0.51100000000E-03 0.  1.
         12    1    3    3    0    0 -0.12654076500E+01 -0.50083141299E+01  0.92111875156E+01  0.10560797432E+02  0.00000000000E+00 0. -1.
</event>
<event>
 7    1  0.4673733E-013  0.5930194E+02  0.7816164E-02  0.1266605E+00
        -11   -1    0    0    0    0  0.00000000000E+00  0.00000000000E+00  0.45593999997E+02  0.45594000000E+02  0.51100000000E-03 0.  1.
         11   -1    0    0    0    0 -0.00000000000E+00 -0.00000000000E+00 -0.45593999997E+02  0.45594000000E+02  0.51100000000E-03 0. -1.
    9900012    2    1    2    0    0 -0.15001984566E+02 -0.10759762860E+02  0.25997860547E+02  0.59301940495E+02  0.49999993558E+02 0.  0.
         12    1    1    2    0    0  0.15001984566E+02  0.10759762860E+02 -0.25997860547E+02  0.31886059505E+02  0.00000000000E+00 0. -1.
         11    1    3    3    0    0 -0.30530865411E+00  0.98477597692E+01  0.13383611780E+02  0.16619044810E+02  0.51100000000E-03 0. -1.
        -11    1    3    3    0    0 -0.90599045419E+01 -0.28973568203E+02  0.11773279747E+02  0.32560092767E+02  0.51100000000E-03 0.  1.
        -12    1    3    3    0    0 -0.56367713703E+01  0.83660455743E+01  0.84096901934E+00  0.10122802918E+02  0.00000000000E+00 0.  1.
</event>
<event>
 7    1  0.4673733E-013  0.5930192E+02  0.7816164E-02  0.1266605E+00
        -11   -1    0    0    0    0  0.00000000000E+00  0.00000000000E+00  0.45593999997E+02  0.45594000000E+02  0.51100000000E-03 0.  1.
         11   -1    0    0    0    0 -0.00000000000E+00 -0.00000000000E+00 -0.45593999997E+02  0.45594000000E+02  0.51100000000E-03 0. -1.
    9900012    2    1    2    0    0 -0.22165646082E+02 -0.21584494442E+02  0.77146665902E+01  0.59301916089E+02  0.49999949047E+02 0.  0.
         12    1    1    2    0    0  0.22165646082E+02  0.21584494442E+02 -0.77146665902E+01  0.31886083911E+02  0.00000000000E+00 0. -1.
         11    1    3    3    0    0 -0.19534963152E+02 -0.50414952681E+01 -0.17874240359E+02  0.26954033623E+02  0.51100000000E-03 0. -1.
        -11    1    3    3    0    0 -0.34084624346E+01 -0.17901616947E+02  0.23557525388E+02  0.29783258857E+02  0.51100000000E-03 0.  1.
         12    1    3    3    0    0  0.77777950421E+00  0.13586177728E+01  0.20313815617E+01  0.25646236096E+01  0.00000000000E+00 0. -1.
</event>
<event>
 7    1  0.4673733E-013  0.5930193E+02  0.7816164E-02  0.1266605E+00
        -11   -1    0    0    0    0  0.00000000000E+00  0.00000000000E+00  0.45593999997E+02  0.45594000000E+02  0.51100000000E-03 0.  1.
         11   -1    0    0    0    0 -0.00000000000E+00 -0.00000000000E+00 -0.45593999997E+02  0.45594000000E+02  0.51100000000E-03 0. -1.
    9900012    2    1    2    0    0 -0.24113560761E+02 -0.66892900348E+01 -0.19761345738E+02  0.59301934092E+02  0.49999981879E+02 0.  0.
         12    1    1    2    0    0  0.24113560761E+02  0.66892900348E+01  0.19761345738E+02  0.31886065908E+02  0.00000000000E+00 0. -1.
         11    1    3    3    0    0  0.76614186758E+01 -0.90268317807E+01  0.79265250736E+01  0.14248186837E+02  0.51100000000E-03 0. -1.
        -11    1    3    3    0    0 -0.14461816453E+02 -0.59442696141E+01 -0.16956671517E+02  0.23065280956E+02  0.51100000000E-03 0.  1.
         12    1    3    3    0    0 -0.17313162984E+02  0.82818113600E+01 -0.10731199294E+02  0.21988466300E+02  0.00000000000E+00 0. -1.
</event>
<event>
 7    1  0.4673733E-013  0.5930195E+02  0.7816164E-02  0.1266605E+00
        -11   -1    0    0    0    0  0.00000000000E+00  0.00000000000E+00  0.45593999997E+02  0.45594000000E+02  0.51100000000E-03 0.  1.
         11   -1    0    0    0    0 -0.00000000000E+00 -0.00000000000E+00 -0.45593999997E+02  0.45594000000E+02  0.51100000000E-03 0. -1.
    9900012    2    1    2    0    0 -0.23272884632E+02 -0.21586891884E+02 -0.30164771224E+01  0.59301949844E+02  0.50000010608E+02 0.  0.
         12    1    1    2    0    0  0.23272884632E+02  0.21586891884E+02  0.30164771224E+01  0.31886050156E+02  0.00000000000E+00 0. -1.
         11    1    3    3    0    0  0.85089952869E+01 -0.24163355654E+01 -0.95677567917E+00  0.88970274991E+01  0.51100000000E-03 0. -1.
        -11    1    3    3    0    0 -0.33604551210E+02 -0.19356290716E+02  0.84885816120E+01  0.39698713711E+02  0.51100000000E-03 0.  1.
        -12    1    3    3    0    0  0.18226712914E+01  0.18573439666E+00 -0.10548283055E+02  0.10706208634E+02  0.00000000000E+00 0.  1.
</event>
<event>
 7    1  0.4673733E-013  0.5930191E+02  0.7816164E-02  0.1266605E+00
        -11   -1    0    0    0    0  0.00000000000E+00  0.00000000000E+00  0.45593999997E+02  0.45594000000E+02  0.51100000000E-03 0.  1.
         11   -1    0    0    0    0 -0.00000000000E+00 -0.00000000000E+00 -0.45593999997E+02  0.45594000000E+02  0.51100000000E-03 0. -1.
    9900012    2    1    2    0    0 -0.10424972075E+02 -0.21481546371E+02  0.21132572142E+02  0.59301913966E+02  0.49999945174E+02 0.  0.
         12    1    1    2    0    0  0.10424972075E+02  0.21481546371E+02 -0.21132572142E+02  0.31886086034E+02  0.00000000000E+00 0. -1.
         11    1    3    3    0    0  0.10933134300E+02 -0.26313000010E+02  0.78631385000E+00  0.28504836167E+02  0.51100000000E-03 0. -1.
        -11    1    3    3    0    0 -0.12525862875E+02  0.61548232762E+01  0.14485722540E+02  0.20115050288E+02  0.51100000000E-03 0.  1.
         12    1    3    3    0    0 -0.88322435001E+01 -0.13233696366E+01  0.58605357522E+01  0.10682027511E+02  0.00000000000E+00 0. -1.
</event>
<event>
 7    1  0.4673733E-013  0.5930192E+02  0.7816164E-02  0.1266605E+00
        -11   -1    0    0    0    0  0.00000000000E+00  0.00000000000E+00  0.45593999997E+02  0.45594000000E+02  0.51100000000E-03 0. -1.
         11   -1    0    0    0    0 -0.00000000000E+00 -0.00000000000E+00 -0.45593999997E+02  0.45594000000E+02  0.51100000000E-03 0.  1.
    9900012    2    1    2    0    0 -0.72827915982E+01 -0.33670301721E+01 -0.30860109871E+02  0.59301916407E+02  0.49999949626E+02 0.  0.
         12    1    1    2    0    0  0.72827915982E+01  0.33670301721E+01  0.30860109871E+02  0.31886083593E+02  0.00000000000E+00 0. -1.
         11    1    3    3    0    0 -0.11691619324E+02  0.75090488409E+01  0.39977946310E+01  0.14458981260E+02  0.51100000000E-03 0. -1.
        -11    1    3    3    0    0 -0.49683593571E+01 -0.52986749681E+01 -0.32981963868E+02  0.33772333233E+02  0.51100000000E-03 0.  1.
        -12    1    3    3    0    0  0.93771870831E+01 -0.55774040449E+01 -0.18759406343E+01  0.11070601914E+02  0.00000000000E+00 0.  1.
</event>
<event>
 7    1  0.4673733E-013  0.5930196E+02  0.7816164E-02  0.1266605E+00
        -11   -1    0    0    0    0  0.00000000000E+00  0.00000000000E+00  0.45593999997E+02  0.45594000000E+02  0.51100000000E-03 0. -1.
         11   -1    0    0    0    0 -0.00000000000E+00 -0.00000000000E+00 -0.45593999997E+02  0.45594000000E+02  0.51100000000E-03 0.  1.
    9900012    2    1    2    0    0  0.22916426158E+02  0.62425890599E+00 -0.22162292194E+02  0.59301961012E+02  0.50000030975E+02 0.  0.
         12    1    1    2    0    0 -0.22916426158E+02 -0.62425890599E+00  0.22162292194E+02  0.31886038988E+02  0.00000000000E+00 0. -1.
         11    1    3    3    0    0  0.19817534034E+02  0.19265851473E+02 -0.11735141282E+02  0.30027008332E+02  0.51100000000E-03 0. -1.
        -11    1    3    3    0    0 -0.78856052573E+01 -0.98475099755E+01 -0.17319443377E+01  0.12734043130E+02  0.51100000000E-03 0.  1.
        -12    1    3    3    0    0  0.10984497382E+02 -0.87940825920E+01 -0.86952065745E+01  0.16540909550E+02  0.00000000000E+00 0.  1.
</event>
<event>
 7    1  0.4673733E-013  0.5930194E+02  0.7816164E-02  0.1266605E+00
        -11   -1    0    0    0    0  0.00000000000E+00  0.00000000000E+00  0.45593999997E+02  0.45594000000E+02  0.51100000000E-03 0.  1.
         11   -1    0    0    0    0 -0.00000000000E+00 -0.00000000000E+00 -0.45593999997E+02  0.45594000000E+02  0.51100000000E-03 0. -1.
    9900012    2    1    2    0    0 -0.30104013511E+02  0.75061528322E+01  0.73570744099E+01  0.59301944997E+02  0.50000001767E+02 0.  0.
         12    1    1    2    0    0  0.30104013511E+02 -0.75061528322E+01 -0.73570744099E+01  0.31886055003E+02  0.00000000000E+00 0. -1.
         11    1    3    3    0    0 -0.13814052269E+02  0.22111776121E+00 -0.79127670922E+01  0.15921332120E+02  0.51100000000E-03 0. -1.
        -11    1    3    3    0    0  0.76464136933E+01  0.53020510978E+01  0.16915645839E+02  0.19305917814E+02  0.51100000000E-03 0.  1.
        -12    1    3    3    0    0 -0.23936374935E+02  0.19829839732E+01 -0.16458043373E+01  0.24074695063E+02  0.00000000000E+00 0.  1.
</event>
<event>
 7    1  0.4673733E-013  0.5930191E+02  0.7816164E-02  0.1266605E+00
        -11   -1    0    0    0    0  0.00000000000E+00  0.00000000000E+00  0.45593999997E+02  0.45594000000E+02  0.51100000000E-03 0.  1.
         11   -1    0    0    0    0 -0.00000000000E+00 -0.00000000000E+00 -0.45593999997E+02  0.45594000000E+02  0.51100000000E-03 0. -1.
    9900012    2    1    2    0    0 -0.31478250209E+02  0.47493656365E+01  0.18127162729E+01  0.59301911333E+02  0.49999940373E+02 0.  0.
         12    1    1    2    0    0  0.31478250209E+02 -0.47493656365E+01 -0.18127162729E+01  0.31886088667E+02  0.00000000000E+00 0. -1.
         11    1    3    3    0    0 -0.12285896468E+02 -0.67071463700E+01  0.46965230904E+00  0.14005343195E+02  0.51100000000E-03 0. -1.
        -11    1    3    3    0    0 -0.18866628657E+02  0.19936325048E+02 -0.11616998379E+02  0.29805391876E+02  0.51100000000E-03 0.  1.
        -12    1    3    3    0    0 -0.32572508442E+00 -0.84798130415E+01  0.12960062343E+02  0.15491176262E+02  0.00000000000E+00 0.  1.
</event>
<event>
 7    1  0.4673733E-013  0.5930197E+02  0.7816164E-02  0.1266605E+00
        -11   -1    0    0    0    0  0.00000000000E+00  0.00000000000E+00  0.45593999997E+02  0.45594000000E+02  0.51100000000E-03 0.  1.
         11   -1    0    0    0    0 -0.00000000000E+00 -0.00000000000E+00 -0.45593999997E+02  0.45594000000E+02  0.51100000000E-03 0. -1.
    9900012    2    1    2    0    0 -0.23180938611E+00  0.28821617113E+02  0.13637429616E+02  0.59301971161E+02  0.50000049484E+02 0.  0.
         12    1    1    2    0    0  0.23180938611E+00 -0.28821617113E+02 -0.13637429616E+02  0.31886028839E+02  0.00000000000E+00 0. -1.
         11    1    3    3    0    0  0.16402312596E+02  0.17183211277E+02  0.14845052181E+02  0.28012036392E+02  0.51100000000E-03 0. -1.
        -11    1    3    3    0    0 -0.58637227418E+01  0.16027741081E+02  0.54162135544E+01  0.17905504687E+02  0.51100000000E-03 0.  1.
         12    1    3    3    0    0 -0.10770399240E+02 -0.43893352453E+01 -0.66238361194E+01  0.13384430082E+02  0.00000000000E+00 0. -1.
</event>
<event>
 7    1  0.4673733E-013  0.5930160E+02  0.7816164E-02  0.1266606E+00
        -11   -1    0    0    0    0  0.00000000000E+00  0.00000000000E+00  0.45593999997E+02  0.45594000000E+02  0.51100000000E-03 0.  1.
         11   -1    0    0    0    0 -0.00000000000E+00 -0.00000000000E+00 -0.45593999997E+02  0.45594000000E+02  0.51100000000E-03 0. -1.
    9900012    2    1    2    0    0 -0.29002697499E+02  0.12111703164E+02 -0.53752086465E+01  0.59301597197E+02  0.49999367460E+02 0.  0.
         12    1    1    2    0    0  0.29002697499E+02 -0.12111703164E+02  0.53752086465E+01  0.31886402803E+02  0.00000000000E+00 0. -1.
         11    1    3    3    0    0 -0.10769835190E+01 -0.13905704837E+01 -0.68606455871E+01  0.70825163539E+01  0.51100000000E-03 0. -1.
        -11    1    3    3    0    0 -0.17278671165E+02  0.27320168554E+02  0.84889778481E+01  0.33421652147E+02  0.51100000000E-03 0.  1.
        -12    1    3    3    0    0 -0.10647042814E+02 -0.13817894907E+02 -0.70035409075E+01  0.18797428696E+02  0.00000000000E+00 0.  1.
</event>
<event>
 7    1  0.4673733E-013  0.5930193E+02  0.7816164E-02  0.1266605E+00
        -11   -1    0    0    0    0  0.00000000000E+00  0.00000000000E+00  0.45593999997E+02  0.45594000000E+02  0.51100000000E-03 0. -1.
         11   -1    0    0    0    0 -0.00000000000E+00 -0.00000000000E+00 -0.45593999997E+02  0.45594000000E+02  0.51100000000E-03 0.  1.
    9900012    2    1    2    0    0 -0.10315119953E+02  0.22558551344E+02 -0.20035755249E+02  0.59301930522E+02  0.49999975368E+02 0.  0.
         12    1    1    2    0    0  0.10315119953E+02 -0.22558551344E+02  0.20035755249E+02  0.31886069478E+02  0.00000000000E+00 0. -1.
         11    1    3    3    0    0 -0.12340749725E+01  0.65435069795E+01  0.94225878919E+01  0.11538006217E+02  0.51100000000E-03 0. -1.
        -11    1    3    3    0    0 -0.81296088399E+01  0.26164408675E+02 -0.21837520878E+02  0.35036325999E+02  0.51100000000E-03 0.  1.
        -12    1    3    3    0    0 -0.95143614042E+00 -0.10149364310E+02 -0.76208222634E+01  0.12727598305E+02  0.00000000000E+00 0.  1.
</event>
<event>
 7    1  0.4673733E-013  0.5930195E+02  0.7816164E-02  0.1266605E+00
        -11   -1    0    0    0    0  0.00000000000E+00  0.00000000000E+00  0.45593999997E+02  0.45594000000E+02  0.51100000000E-03 0.  1.
         11   -1    0    0    0    0 -0.00000000000E+00 -0.00000000000E+00 -0.45593999997E+02  0.45594000000E+02  0.51100000000E-03 0. -1.
    9900012    2    1    2    0    0 -0.97325046681E+01 -0.21120466732E+02 -0.21815698381E+02  0.59301945714E+02  0.50000003075E+02 0.  0.
         12    1    1    2    0    0  0.97325046681E+01  0.21120466732E+02  0.21815698381E+02  0.31886054286E+02  0.00000000000E+00 0. -1.
         11    1    3    3    0    0  0.10440404107E+02  0.24679677791E+01 -0.38706002968E+01  0.11405018623E+02  0.51100000000E-03 0.  1.
        -11    1    3    3    0    0 -0.21754830789E+02 -0.29885069994E+01 -0.24992124115E+01  0.22100902689E+02  0.51100000000E-03 0. -1.
         12    1    3    3    0    0  0.15819220137E+01 -0.20599927511E+02 -0.15445885673E+02  0.25796024402E+02  0.00000000000E+00 0. -1.
</event>
<event>
 7    1  0.4673733E-013  0.5930198E+02  0.7816164E-02  0.1266605E+00
        -11   -1    0    0    0    0  0.00000000000E+00  0.00000000000E+00  0.45593999997E+02  0.45594000000E+02  0.51100000000E-03 0.  1.
         11   -1    0    0    0    0 -0.00000000000E+00 -0.00000000000E+00 -0.45593999997E+02  0.45594000000E+02  0.51100000000E-03 0. -1.
    9900012    2    1    2    0    0  0.11788975182E+01  0.14745231903E+02  0.28247235500E+02  0.59301984623E+02  0.50000074036E+02 0.  0.
         12    1    1    2    0    0 -0.11788975182E+01 -0.14745231903E+02 -0.28247235500E+02  0.31886015377E+02  0.00000000000E+00 0. -1.
         11    1    3    3    0    0 -0.82862195663E+01 -0.12464358033E+02  0.20435546400E+02  0.25330479917E+02  0.51100000000E-03 0. -1.
        -11    1    3    3    0    0  0.26347271621E+00  0.22839965116E+02  0.46960755695E+01  0.23319231342E+02  0.51100000000E-03 0.  1.
        -12    1    3    3    0    0  0.92016443683E+01  0.43696248202E+01  0.31156135302E+01  0.10652273364E+02  0.00000000000E+00 0.  1.
</event>
<event>
 7    1  0.4673733E-013  0.5930195E+02  0.7816164E-02  0.1266605E+00
        -11   -1    0    0    0    0  0.00000000000E+00  0.00000000000E+00  0.45593999997E+02  0.45594000000E+02  0.51100000000E-03 0. -1.
         11   -1    0    0    0    0 -0.00000000000E+00 -0.00000000000E+00 -0.45593999997E+02  0.45594000000E+02  0.51100000000E-03 0.  1.
    9900012    2    1    2    0    0  0.81209056681E+01 -0.18693170375E+02 -0.24522157525E+02  0.59301953879E+02  0.50000017966E+02 0.  0.
         12    1    1    2    0    0 -0.81209056681E+01  0.18693170375E+02  0.24522157525E+02  0.31886046121E+02  0.00000000000E+00 0. -1.
         11    1    3    3    0    0 -0.11462630820E+02  0.12041995897E+01  0.77195199281E+01  0.13872021848E+02  0.51100000000E-03 0. -1.
        -11    1    3    3    0    0  0.87236998653E+01 -0.68046394594E+00 -0.40967238591E+01  0.96617346869E+01  0.51100000000E-03 0.  1.
        -12    1    3    3    0    0  0.10859836623E+02 -0.19216906019E+02 -0.28144953594E+02  0.35768197344E+02  0.00000000000E+00 0.  1.
</event>
<event>
 7    1  0.4673733E-013  0.5930196E+02  0.7816164E-02  0.1266605E+00
        -11   -1    0    0    0    0  0.00000000000E+00  0.00000000000E+00  0.45593999997E+02  0.45594000000E+02  0.51100000000E-03 0.  1.
         11   -1    0    0    0    0 -0.00000000000E+00 -0.00000000000E+00 -0.45593999997E+02  0.45594000000E+02  0.51100000000E-03 0. -1.
    9900012    2    1    2    0    0 -0.20095842868E+02 -0.24728645228E+02  0.11707202330E+01  0.59301962597E+02  0.50000033866E+02 0.  0.
         12    1    1    2    0    0  0.20095842868E+02  0.24728645228E+02 -0.11707202330E+01  0.31886037403E+02  0.00000000000E+00 0. -1.
         11    1    3    3    0    0 -0.90877010133E+01  0.60744787195E+01  0.11290843553E+02  0.15715239413E+02  0.51100000000E-03 0. -1.
        -11    1    3    3    0    0 -0.12148986494E+02 -0.30543508698E+02  0.52726209117E+00  0.32875246037E+02  0.51100000000E-03 0.  1.
         12    1    3    3    0    0  0.11408446395E+01 -0.25961525013E+00 -0.10647385411E+02  0.10711477147E+02  0.00000000000E+00 0. -1.
</event>
<event>
 7    1  0.4673733E-013  0.5930200E+02  0.7816164E-02  0.1266605E+00
        -11   -1    0    0    0    0  0.00000000000E+00  0.00000000000E+00  0.45593999997E+02  0.45594000000E+02  0.51100000000E-03 0. -1.
         11   -1    0    0    0    0 -0.00000000000E+00 -0.00000000000E+00 -0.45593999997E+02  0.45594000000E+02  0.51100000000E-03 0.  1.
    9900012    2    1    2    0    0  0.11798040778E+02  0.29563639133E+02  0.18746403928E+01  0.59302003049E+02  0.50000107640E+02 0.  0.
         12    1    1    2    0    0 -0.11798040778E+02 -0.29563639133E+02 -0.18746403928E+01  0.31885996951E+02  0.00000000000E+00 0. -1.
         11    1    3    3    0    0  0.17025604766E+02  0.98683968482E+01 -0.43146235505E+01  0.20146276347E+02  0.51100000000E-03 0. -1.
        -11    1    3    3    0    0 -0.82979162840E+01 -0.62495573261E+01  0.77845825513E+01  0.12981221329E+02  0.51100000000E-03 0.  1.
        -12    1    3    3    0    0  0.30703522964E+01  0.25944799611E+02 -0.15953186080E+01  0.26174505373E+02  0.00000000000E+00 0.  1.
</event>
<event>
 7    1  0.4673733E-013  0.5930195E+02  0.7816164E-02  0.1266605E+00
        -11   -1    0    0    0    0  0.00000000000E+00  0.00000000000E+00  0.45593999997E+02  0.45594000000E+02  0.51100000000E-03 0. -1.
         11   -1    0    0    0    0 -0.00000000000E+00 -0.00000000000E+00 -0.45593999997E+02  0.45594000000E+02  0.51100000000E-03 0.  1.
    9900012    2    1    2    0    0  0.10512557384E+02  0.29019276168E+02 -0.80054808463E+01  0.59301953277E+02  0.50000016868E+02 0.  0.
         12    1    1    2    0    0 -0.10512557384E+02 -0.29019276168E+02  0.80054808463E+01  0.31886046723E+02  0.00000000000E+00 0. -1.
         11    1    3    3    0    0  0.11630617424E+02 -0.10117961049E+02 -0.24267096099E+01  0.15605554051E+02  0.51100000000E-03 0. -1.
        -11    1    3    3    0    0 -0.63343285466E+01  0.16481526089E+02 -0.96075017248E+01  0.20101455420E+02  0.51100000000E-03 0.  1.
         12    1    3    3    0    0  0.52162685066E+01  0.22655711128E+02  0.40287304884E+01  0.23594943805E+02  0.00000000000E+00 0. -1.
</event>
<event>
 7    1  0.4673733E-013  0.5930194E+02  0.7816164E-02  0.1266605E+00
        -11   -1    0    0    0    0  0.00000000000E+00  0.00000000000E+00  0.45593999997E+02  0.45594000000E+02  0.51100000000E-03 0. -1.
         11   -1    0    0    0    0 -0.00000000000E+00 -0.00000000000E+00 -0.45593999997E+02  0.45594000000E+02  0.51100000000E-03 0.  1.
    9900012    2    1    2    0    0 -0.26542952688E+02  0.16857870873E+02 -0.52919351791E+01  0.59301941515E+02  0.49999995417E+02 0.  0.
         12    1    1    2    0    0  0.26542952688E+02 -0.16857870873E+02  0.52919351791E+01  0.31886058485E+02  0.00000000000E+00 0. -1.
         11    1    3    3    0    0 -0.10519520024E+02 -0.31519539808E+01  0.12573306905E+00  0.10982300511E+02  0.51100000000E-03 0. -1.
        -11    1    3    3    0    0  0.89216910509E+01  0.54732236184E+01  0.10936362293E+02  0.15137924840E+02  0.51100000000E-03 0.  1.
        -12    1    3    3    0    0 -0.24945123715E+02  0.14536601236E+02 -0.16354030541E+02  0.33181716164E+02  0.00000000000E+00 0.  1.
</event>
<event>
 7    1  0.4673733E-013  0.5930199E+02  0.7816164E-02  0.1266605E+00
        -11   -1    0    0    0    0  0.00000000000E+00  0.00000000000E+00  0.45593999997E+02  0.45594000000E+02  0.51100000000E-03 0. -1.
         11   -1    0    0    0    0 -0.00000000000E+00 -0.00000000000E+00 -0.45593999997E+02  0.45594000000E+02  0.51100000000E-03 0.  1.
    9900012    2    1    2    0    0 -0.76454154810E+01  0.29446669302E+02 -0.95477278439E+01  0.59301987112E+02  0.50000078576E+02 0.  0.
         12    1    1    2    0    0  0.76454154810E+01 -0.29446669302E+02  0.95477278439E+01  0.31886012888E+02  0.00000000000E+00 0. -1.
         11    1    3    3    0    0  0.12352568493E+02  0.25401322920E+02 -0.11751195932E+02  0.30592544198E+02  0.51100000000E-03 0.  1.
        -11    1    3    3    0    0 -0.89137944636E+01 -0.40218722621E+01  0.91045975660E+01  0.13361320494E+02  0.51100000000E-03 0. -1.
        -12    1    3    3    0    0 -0.11084189510E+02  0.80672186449E+01 -0.69011294784E+01  0.15348122421E+02  0.00000000000E+00 0.  1.
</event>
<event>
 7    1  0.4673733E-013  0.5930193E+02  0.7816164E-02  0.1266605E+00
        -11   -1    0    0    0    0  0.00000000000E+00  0.00000000000E+00  0.45593999997E+02  0.45594000000E+02  0.51100000000E-03 0.  1.
         11   -1    0    0    0    0 -0.00000000000E+00 -0.00000000000E+00 -0.45593999997E+02  0.45594000000E+02  0.51100000000E-03 0. -1.
    9900012    2    1    2    0    0 -0.13389373499E+02  0.37155770136E+01  0.28699141063E+02  0.59301928856E+02  0.49999972331E+02 0.  0.
         12    1    1    2    0    0  0.13389373499E+02 -0.37155770136E+01 -0.28699141063E+02  0.31886071144E+02  0.00000000000E+00 0. -1.
         11    1    3    3    0    0 -0.40544023793E+01  0.66770891418E+01 -0.12622466962E+02  0.14844135897E+02  0.51100000000E-03 0. -1.
        -11    1    3    3    0    0 -0.21023330051E+01  0.94865686345E+00  0.31775243195E+02  0.31858842324E+02  0.51100000000E-03 0.  1.
         12    1    3    3    0    0 -0.72326381146E+01 -0.39101689917E+01  0.95463648300E+01  0.12598950635E+02  0.00000000000E+00 0. -1.
</event>
<event>
 7    1  0.4673733E-013  0.5930194E+02  0.7816164E-02  0.1266605E+00
        -11   -1    0    0    0    0  0.00000000000E+00  0.00000000000E+00  0.45593999997E+02  0.45594000000E+02  0.51100000000E-03 0. -1.
         11   -1    0    0    0    0 -0.00000000000E+00 -0.00000000000E+00 -0.45593999997E+02  0.45594000000E+02  0.51100000000E-03 0.  1.
    9900012    2    1    2    0    0 -0.10680234414E+02  0.22154632909E+02 -0.20293480781E+02  0.59301944604E+02  0.50000001051E+02 0.  0.
         12    1    1    2    0    0  0.10680234414E+02 -0.22154632909E+02  0.20293480781E+02  0.31886055396E+02  0.00000000000E+00 0. -1.
         11    1    3    3    0    0 -0.14428153774E+02 -0.55484725331E+01 -0.13379952444E+01  0.15516036875E+02  0.51100000000E-03 0. -1.
        -11    1    3    3    0    0  0.45352169652E-01  0.21601222375E+02 -0.25969403787E+02  0.33779058575E+02  0.51100000000E-03 0.  1.
         12    1    3    3    0    0  0.37025671901E+01  0.61018830674E+01  0.70139182502E+01  0.10006849154E+02  0.00000000000E+00 0. -1.
</event>
<event>
 7    1  0.4673733E-013  0.5930195E+02  0.7816164E-02  0.1266605E+00
        -11   -1    0    0    0    0  0.00000000000E+00  0.00000000000E+00  0.45593999997E+02  0.45594000000E+02  0.51100000000E-03 0.  1.
         11   -1    0    0    0    0 -0.00000000000E+00 -0.00000000000E+00 -0.45593999997E+02  0.45594000000E+02  0.51100000000E-03 0. -1.
    9900012    2    1    2    0    0  0.12135439223E+02 -0.95975966041E+01  0.27880770632E+02  0.59301951064E+02  0.50000012832E+02 0.  0.
         12    1    1    2    0    0 -0.12135439223E+02  0.95975966041E+01 -0.27880770632E+02  0.31886048936E+02  0.00000000000E+00 0. -1.
         11    1    3    3    0    0  0.28127274745E+02 -0.14277863695E+02  0.21115365792E+02  0.37958657103E+02  0.51100000000E-03 0. -1.
        -11    1    3    3    0    0 -0.41783466863E+01  0.61254879831E+01  0.57790365331E+01  0.94009280167E+01  0.51100000000E-03 0.  1.
         12    1    3    3    0    0 -0.11813488836E+02 -0.14452208925E+01  0.98636830672E+00  0.11942365944E+02  0.00000000000E+00 0. -1.
</event>
<event>
 7    1  0.4673733E-013  0.5930196E+02  0.7816164E-02  0.1266605E+00
        -11   -1    0    0    0    0  0.00000000000E+00  0.00000000000E+00  0.45593999997E+02  0.45594000000E+02  0.51100000000E-03 0.  1.
         11   -1    0    0    0    0 -0.00000000000E+00 -0.00000000000E+00 -0.45593999997E+02  0.45594000000E+02  0.51100000000E-03 0. -1.
    9900012    2    1    2    0    0 -0.50267446704E+01 -0.73157832833E+01  0.30625655772E+02  0.59301958564E+02  0.50000026510E+02 0.  0.
         12    1    1    2    0    0  0.50267446704E+01  0.73157832833E+01 -0.30625655772E+02  0.31886041436E+02  0.00000000000E+00 0. -1.
         11    1    3    3    0    0  0.40766267030E+01  0.49524317992E+01 -0.49825008598E+01  0.81222399054E+01  0.51100000000E-03 0. -1.
        -11    1    3    3    0    0 -0.18177016604E+02 -0.17352096504E+02  0.18681308790E+02  0.31312784675E+02  0.51100000000E-03 0.  1.
        -12    1    3    3    0    0  0.90736452302E+01  0.50838814214E+01  0.16926847841E+02  0.19866933984E+02  0.00000000000E+00 0.  1.
</event>
<event>
 7    1  0.4673733E-013  0.5930188E+02  0.7816164E-02  0.1266605E+00
        -11   -1    0    0    0    0  0.00000000000E+00  0.00000000000E+00  0.45593999997E+02  0.45594000000E+02  0.51100000000E-03 0. -1.
         11   -1    0    0    0    0 -0.00000000000E+00 -0.00000000000E+00 -0.45593999997E+02  0.45594000000E+02  0.51100000000E-03 0.  1.
    9900012    2    1    2    0    0 -0.89383225002E+01  0.16447039441E+02 -0.25813287766E+02  0.59301881692E+02  0.49999886314E+02 0.  0.
         12    1    1    2    0    0  0.89383225002E+01 -0.16447039441E+02  0.25813287766E+02  0.31886118308E+02  0.00000000000E+00 0. -1.
         11    1    3    3    0    0  0.28592512229E+01 -0.53048469478E-01  0.36305097486E+01  0.46215509293E+01  0.51100000000E-03 0. -1.
        -11    1    3    3    0    0 -0.66050152499E+01  0.23825645852E+02 -0.35921931034E+02  0.43608173044E+02  0.51100000000E-03 0.  1.
        -12    1    3    3    0    0 -0.51925584733E+01 -0.73255579412E+01  0.64781335198E+01  0.11072157719E+02  0.00000000000E+00 0.  1.
</event>
<event>
 7    1  0.4673733E-013  0.5930195E+02  0.7816164E-02  0.1266605E+00
        -11   -1    0    0    0    0  0.00000000000E+00  0.00000000000E+00  0.45593999997E+02  0.45594000000E+02  0.51100000000E-03 0.  1.
         11   -1    0    0    0    0 -0.00000000000E+00 -0.00000000000E+00 -0.45593999997E+02  0.45594000000E+02  0.51100000000E-03 0. -1.
    9900012    2    1    2    0    0  0.23221303602E+02  0.60325406190E+01  0.21002371699E+02  0.59301951259E+02  0.50000013188E+02 0.  0.
         12    1    1    2    0    0 -0.23221303602E+02 -0.60325406190E+01 -0.21002371699E+02  0.31886048741E+02  0.00000000000E+00 0. -1.
         11    1    3    3    0    0  0.23208436253E+02 -0.11146804559E+02  0.32165771649E+01  0.25946659401E+02  0.51100000000E-03 0. -1.
        -11    1    3    3    0    0  0.29662254446E+01  0.14667109127E+02  0.22642634691E+02  0.27140587494E+02  0.51100000000E-03 0.  1.
         12    1    3    3    0    0 -0.29533580951E+01  0.25122360508E+01 -0.48568401568E+01  0.62147043632E+01  0.00000000000E+00 0. -1.
</event>
<event>
 7    1  0.4673733E-013  0.5930193E+02  0.7816164E-02  0.1266605E+00
        -11   -1    0    0    0    0  0.00000000000E+00  0.00000000000E+00  0.45593999997E+02  0.45594000000E+02  0.51100000000E-03 0.  1.
         11   -1    0    0    0    0 -0.00000000000E+00 -0.00000000000E+00 -0.45593999997E+02  0.45594000000E+02  0.51100000000E-03 0. -1.
    9900012    2    1    2    0    0 -0.30783342746E+02  0.82014403523E+01  0.13578373608E+01  0.59301928797E+02  0.49999972223E+02 0.  0.
         12    1    1    2    0    0  0.30783342746E+02 -0.82014403523E+01 -0.13578373608E+01  0.31886071203E+02  0.00000000000E+00 0. -1.
         11    1    3    3    0    0 -0.34125384303E+02  0.16313990571E+01 -0.48248122965E+01  0.34503364049E+02  0.51100000000E-03 0. -1.
        -11    1    3    3    0    0  0.41259928591E+01  0.12412232044E+02  0.11074447706E+02  0.17138573851E+02  0.51100000000E-03 0.  1.
         12    1    3    3    0    0 -0.78395130185E+00 -0.58421907491E+01 -0.48917980489E+01  0.76599908971E+01  0.00000000000E+00 0. -1.
</event>
<event>
 7    1  0.4673733E-013  0.5930193E+02  0.7816164E-02  0.1266605E+00
        -11   -1    0    0    0    0  0.00000000000E+00  0.00000000000E+00  0.45593999997E+02  0.45594000000E+02  0.51100000000E-03 0. -1.
         11   -1    0    0    0    0 -0.00000000000E+00 -0.00000000000E+00 -0.45593999997E+02  0.45594000000E+02  0.51100000000E-03 0.  1.
    9900012    2    1    2    0    0 -0.19630073514E+01  0.31017148241E+02 -0.71277290390E+01  0.59301930877E+02  0.49999976017E+02 0.  0.
         12    1    1    2    0    0  0.19630073514E+01 -0.31017148241E+02  0.71277290390E+01  0.31886069123E+02  0.00000000000E+00 0. -1.
         11    1    3    3    0    0  0.21199459117E+02  0.12276981019E+02 -0.12905739165E+02  0.27689337902E+02  0.51100000000E-03 0. -1.
        -11    1    3    3    0    0 -0.10961795509E+02  0.10397500621E+02 -0.14155050255E+01  0.15174736725E+02  0.51100000000E-03 0.  1.
         12    1    3    3    0    0 -0.12200670959E+02  0.83426666014E+01  0.71935151512E+01  0.16437856250E+02  0.00000000000E+00 0. -1.
</event>
<event>
 7    1  0.4673733E-013  0.5930195E+02  0.7816164E-02  0.1266605E+00
        -11   -1    0    0    0    0  0.00000000000E+00  0.00000000000E+00  0.45593999997E+02  0.45594000000E+02  0.51100000000E-03 0.  1.
         11   -1    0    0    0    0 -0.00000000000E+00 -0.00000000000E+00 -0.45593999997E+02  0.45594000000E+02  0.51100000000E-03 0. -1.
    9900012    2    1    2    0    0  0.11872068247E+02 -0.22448058536E+02  0.19283637938E+02  0.59301952446E+02  0.50000015352E+02 0.  0.
         12    1    1    2    0    0 -0.11872068247E+02  0.22448058536E+02 -0.19283637938E+02  0.31886047554E+02  0.00000000000E+00 0. -1.
         11    1    3    3    0    0  0.85178298858E+01 -0.57943514695E+01 -0.97468784249E+01  0.14182015872E+02  0.51100000000E-03 0. -1.
        -11    1    3    3    0    0  0.13645850280E+02 -0.11420559976E+02  0.28453913403E+02  0.33559851136E+02  0.51100000000E-03 0.  1.
        -12    1    3    3    0    0 -0.10291611918E+02 -0.52331470910E+01  0.57660295957E+00  0.11560085438E+02  0.00000000000E+00 0.  1.
</event>
<event>
 7    1  0.4673733E-013  0.5930193E+02  0.7816164E-02  0.1266605E+00
        -11   -1    0    0    0    0  0.00000000000E+00  0.00000000000E+00  0.45593999997E+02  0.45594000000E+02  0.51100000000E-03 0.  1.
         11   -1    0    0    0    0 -0.00000000000E+00 -0.00000000000E+00 -0.45593999997E+02  0.45594000000E+02  0.51100000000E-03 0. -1.
    9900012    2    1    2    0    0 -0.19507320696E+02 -0.10832029096E+02  0.22778348299E+02  0.59301928334E+02  0.49999971378E+02 0.  0.
         12    1    1    2    0    0  0.19507320696E+02  0.10832029096E+02 -0.22778348299E+02  0.31886071666E+02  0.00000000000E+00 0. -1.
         11    1    3    3    0    0  0.54350525890E+01 -0.97623790669E+01 -0.83320191154E+01  0.13937947643E+02  0.51100000000E-03 0. -1.
        -11    1    3    3    0    0 -0.12711597455E+02  0.29021737649E+01  0.29689209547E+02  0.32426169774E+02  0.51100000000E-03 0.  1.
        -12    1    3    3    0    0 -0.12230775830E+02 -0.39718237936E+01  0.14211578678E+01  0.12937810917E+02  0.00000000000E+00 0.  1.
</event>
<event>
 7    1  0.4673733E-013  0.5930194E+02  0.7816164E-02  0.1266605E+00
        -11   -1    0    0    0    0  0.00000000000E+00  0.00000000000E+00  0.45593999997E+02  0.45594000000E+02  0.51100000000E-03 0.  1.
         11   -1    0    0    0    0 -0.00000000000E+00 -0.00000000000E+00 -0.45593999997E+02  0.45594000000E+02  0.51100000000E-03 0. -1.
    9900012    2    1    2    0    0 -0.26713317762E+02 -0.13409027223E+02  0.11104835947E+02  0.59301941317E+02  0.49999995056E+02 0.  0.
         12    1    1    2    0    0  0.26713317762E+02  0.13409027223E+02 -0.11104835947E+02  0.31886058683E+02  0.00000000000E+00 0. -1.
         11    1    3    3    0    0 -0.16976229102E+02  0.13210194655E+02  0.94599518677E+00  0.21531291287E+02  0.51100000000E-03 0. -1.
        -11    1    3    3    0    0  0.55919817303E+01 -0.15349488404E+02  0.29334063409E+00  0.16339005567E+02  0.51100000000E-03 0.  1.
        -12    1    3    3    0    0 -0.15329070391E+02 -0.11269733474E+02  0.98655001265E+01  0.21431644463E+02  0.00000000000E+00 0.  1.
</event>
<event>
 7    1  0.4673733E-013  0.5930195E+02  0.7816164E-02  0.1266605E+00
        -11   -1    0    0    0    0  0.00000000000E+00  0.00000000000E+00  0.45593999997E+02  0.45594000000E+02  0.51100000000E-03 0. -1.
         11   -1    0    0    0    0 -0.00000000000E+00 -0.00000000000E+00 -0.45593999997E+02  0.45594000000E+02  0.51100000000E-03 0.  1.
    9900012    2    1    2    0    0 -0.24612635578E+02  0.50534771306E+01 -0.19631628479E+02  0.59301948223E+02  0.50000007650E+02 0.  0.
         12    1    1    2    0    0  0.24612635578E+02 -0.50534771306E+01  0.19631628479E+02  0.31886051777E+02  0.00000000000E+00 0. -1.
         11    1    3    3    0    0 -0.15524662574E+02 -0.15206462735E+02 -0.16437031724E+02  0.27247525926E+02  0.51100000000E-03 0. -1.
        -11    1    3    3    0    0 -0.14616960942E+02  0.78750214194E+01 -0.69220625606E+01  0.17988509107E+02  0.51100000000E-03 0.  1.
         12    1    3    3    0    0  0.55289879373E+01  0.12384918446E+02  0.37274658059E+01  0.14065913190E+02  0.00000000000E+00 0. -1.
</event>
<event>
 7    1  0.4673733E-013  0.5930195E+02  0.7816164E-02  0.1266605E+00
        -11   -1    0    0    0    0  0.00000000000E+00  0.00000000000E+00  0.45593999997E+02  0.45594000000E+02  0.51100000000E-03 0. -1.
         11   -1    0    0    0    0 -0.00000000000E+00 -0.00000000000E+00 -0.45593999997E+02  0.45594000000E+02  0.51100000000E-03 0.  1.
    9900012    2    1    2    0    0  0.24531650048E+02  0.19284580603E+02 -0.65592052107E+01  0.59301951701E+02  0.50000013995E+02 0.  0.
         12    1    1    2    0    0 -0.24531650048E+02 -0.19284580603E+02  0.65592052107E+01  0.31886048299E+02  0.00000000000E+00 0. -1.
         11    1    3    3    0    0  0.18971832568E+02  0.16192309559E+02  0.16015103184E+02  0.29641269374E+02  0.51100000000E-03 0. -1.
        -11    1    3    3    0    0 -0.40186271779E+01  0.61444292368E+01 -0.16122460887E+02  0.17715448636E+02  0.51100000000E-03 0.  1.
         12    1    3    3    0    0  0.95784446577E+01 -0.30521581927E+01 -0.64518475075E+01  0.11945233692E+02  0.00000000000E+00 0. -1.
</event>
<event>
 7    1  0.4673733E-013  0.5930189E+02  0.7816164E-02  0.1266605E+00
        -11   -1    0    0    0    0  0.00000000000E+00  0.00000000000E+00  0.45593999997E+02  0.45594000000E+02  0.51100000000E-03 0. -1.
         11   -1    0    0    0    0 -0.00000000000E+00 -0.00000000000E+00 -0.45593999997E+02  0.45594000000E+02  0.51100000000E-03 0.  1.
    9900012    2    1    2    0    0 -0.24361315651E+02  0.20562740756E+02 -0.65091490772E+00  0.59301894910E+02  0.49999910420E+02 0.  0.
         12    1    1    2    0    0  0.24361315651E+02 -0.20562740756E+02  0.65091490772E+00  0.31886105090E+02  0.00000000000E+00 0. -1.
         11    1    3    3    0    0 -0.11739866421E+02  0.91570281043E+01  0.12903235567E+02  0.19702007909E+02  0.51100000000E-03 0. -1.
        -11    1    3    3    0    0  0.52193007197E+01 -0.87387510136E+01 -0.51607564064E+01  0.11412286196E+02  0.51100000000E-03 0.  1.
        -12    1    3    3    0    0 -0.17840749950E+02  0.20144463665E+02 -0.83933940683E+01  0.28187600804E+02  0.00000000000E+00 0.  1.
</event>
<event>
 7    1  0.4673733E-013  0.5930195E+02  0.7816164E-02  0.1266605E+00
        -11   -1    0    0    0    0  0.00000000000E+00  0.00000000000E+00  0.45593999997E+02  0.45594000000E+02  0.51100000000E-03 0.  1.
         11   -1    0    0    0    0 -0.00000000000E+00 -0.00000000000E+00 -0.45593999997E+02  0.45594000000E+02  0.51100000000E-03 0. -1.
    9900012    2    1    2    0    0 -0.14442293746E+02  0.27604435930E+02  0.67922939136E+01  0.59301953078E+02  0.50000016506E+02 0.  0.
         12    1    1    2    0    0  0.14442293746E+02 -0.27604435930E+02 -0.67922939136E+01  0.31886046922E+02  0.00000000000E+00 0. -1.
         11    1    3    3    0    0 -0.26070875507E+01  0.39548324421E+01 -0.43130043707E+01  0.64062166764E+01  0.51100000000E-03 0. -1.
        -11    1    3    3    0    0  0.10988571871E+02  0.80402517716E+01  0.19693100767E+02  0.23941858290E+02  0.51100000000E-03 0.  1.
        -12    1    3    3    0    0 -0.22823778067E+02  0.15609351716E+02 -0.85878024825E+01  0.28953878112E+02  0.00000000000E+00 0.  1.
</event>
<event>
 7    1  0.4673733E-013  0.5930193E+02  0.7816164E-02  0.1266605E+00
        -11   -1    0    0    0    0  0.00000000000E+00  0.00000000000E+00  0.45593999997E+02  0.45594000000E+02  0.51100000000E-03 0. -1.
         11   -1    0    0    0    0 -0.00000000000E+00 -0.00000000000E+00 -0.45593999997E+02  0.45594000000E+02  0.51100000000E-03 0.  1.
    9900012    2    1    2    0    0  0.12081146459E+02 -0.25396364910E+02  0.15026376418E+02  0.59301930336E+02  0.49999975029E+02 0.  0.
         12    1    1    2    0    0 -0.12081146459E+02  0.25396364910E+02 -0.15026376418E+02  0.31886069664E+02  0.00000000000E+00 0. -1.
         11    1    3    3    0    0  0.11327069739E+02 -0.17241946237E+02  0.25649644299E+02  0.32916431638E+02  0.51100000000E-03 0. -1.
        -11    1    3    3    0    0  0.90262748422E+01 -0.58682950962E+01 -0.13560352436E+02  0.17314551202E+02  0.51100000000E-03 0.  1.
         12    1    3    3    0    0 -0.82721981218E+01 -0.22861235767E+01  0.29370845558E+01  0.90709474953E+01  0.00000000000E+00 0. -1.
</event>
<event>
 7    1  0.4673733E-013  0.5930192E+02  0.7816164E-02  0.1266605E+00
        -11   -1    0    0    0    0  0.00000000000E+00  0.00000000000E+00  0.45593999997E+02  0.45594000000E+02  0.51100000000E-03 0.  1.
         11   -1    0    0    0    0 -0.00000000000E+00 -0.00000000000E+00 -0.45593999997E+02  0.45594000000E+02  0.51100000000E-03 0. -1.
    9900012    2    1    2    0    0 -0.15460511453E+02 -0.55265640512E+01  0.27334079718E+02  0.59301917791E+02  0.49999952150E+02 0.  0.
         12    1    1    2    0    0  0.15460511453E+02  0.55265640512E+01 -0.27334079718E+02  0.31886082209E+02  0.00000000000E+00 0. -1.
         11    1    3    3    0    0 -0.12502040067E+02  0.10430379294E+02 -0.29907505122E+01  0.16554105441E+02  0.51100000000E-03 0. -1.
        -11    1    3    3    0    0  0.87242386459E+01 -0.15528245065E+02  0.13929019707E+02  0.22610977975E+02  0.51100000000E-03 0.  1.
        -12    1    3    3    0    0 -0.11682710032E+02 -0.42869828082E+00  0.16395810523E+02  0.20136834374E+02  0.00000000000E+00 0.  1.
</event>
<event>
 7    1  0.4673733E-013  0.5930194E+02  0.7816164E-02  0.1266605E+00
        -11   -1    0    0    0    0  0.00000000000E+00  0.00000000000E+00  0.45593999997E+02  0.45594000000E+02  0.51100000000E-03 0.  1.
         11   -1    0    0    0    0 -0.00000000000E+00 -0.00000000000E+00 -0.45593999997E+02  0.45594000000E+02  0.51100000000E-03 0. -1.
    9900012    2    1    2    0    0 -0.31784079009E+02 -0.23984534864E+01 -0.86058927700E+00  0.59301939230E+02  0.49999991249E+02 0.  0.
         12    1    1    2    0    0  0.31784079009E+02  0.23984534864E+01  0.86058927700E+00  0.31886060770E+02  0.00000000000E+00 0. -1.
         11    1    3    3    0    0 -0.25780467446E+02  0.60196961154E+01  0.19634728947E+02  0.32960458494E+02  0.51100000000E-03 0.  1.
        -11    1    3    3    0    0 -0.11109093030E+01 -0.59727873260E+01 -0.10801028150E+01  0.61704886575E+01  0.51100000000E-03 0. -1.
         12    1    3    3    0    0 -0.48927022598E+01 -0.24453622758E+01 -0.19415215409E+02  0.20170992078E+02  0.00000000000E+00 0. -1.
</event>
<event>
 7    1  0.4673733E-013  0.5930197E+02  0.7816164E-02  0.1266605E+00
        -11   -1    0    0    0    0  0.00000000000E+00  0.00000000000E+00  0.45593999997E+02  0.45594000000E+02  0.51100000000E-03 0. -1.
         11   -1    0    0    0    0 -0.00000000000E+00 -0.00000000000E+00 -0.45593999997E+02  0.45594000000E+02  0.51100000000E-03 0.  1.
    9900012    2    1    2    0    0 -0.16588131140E+02 -0.13860050692E+02 -0.23440386220E+02  0.59301971617E+02  0.50000050316E+02 0.  0.
         12    1    1    2    0    0  0.16588131140E+02  0.13860050692E+02  0.23440386220E+02  0.31886028383E+02  0.00000000000E+00 0. -1.
         11    1    3    3    0    0 -0.12362504315E+01 -0.14429504126E+02  0.69310544334E+01  0.16055479447E+02  0.51100000000E-03 0. -1.
        -11    1    3    3    0    0 -0.15225724465E+02 -0.49806181311E+01 -0.33312394573E+02  0.36964102518E+02  0.51100000000E-03 0.  1.
         12    1    3    3    0    0 -0.12615624309E+00  0.55500715655E+01  0.29409539200E+01  0.62823896520E+01  0.00000000000E+00 0. -1.
</event>
<event>
 7    1  0.4673733E-013  0.5930193E+02  0.7816164E-02  0.1266605E+00
        -11   -1    0    0    0    0  0.00000000000E+00  0.00000000000E+00  0.45593999997E+02  0.45594000000E+02  0.51100000000E-03 0.  1.
         11   -1    0    0    0    0 -0.00000000000E+00 -0.00000000000E+00 -0.45593999997E+02  0.45594000000E+02  0.51100000000E-03 0. -1.
    9900012    2    1    2    0    0  0.17240641041E+01  0.15729799003E+02  0.27682526410E+02  0.59301933416E+02  0.49999980647E+02 0.  0.
         12    1    1    2    0    0 -0.17240641041E+01 -0.15729799003E+02 -0.27682526410E+02  0.31886066584E+02  0.00000000000E+00 0. -1.
         11    1    3    3    0    0 -0.32375161558E+01  0.23547391267E+02  0.33633945379E+02  0.41184990329E+02  0.51100000000E-03 0.  1.
        -11    1    3    3    0    0  0.34706031101E+01 -0.11180781487E+02 -0.77319003864E+01  0.14029869723E+02  0.51100000000E-03 0. -1.
         12    1    3    3    0    0  0.14909771498E+01  0.33631892223E+01  0.17804814180E+01  0.40870733644E+01  0.00000000000E+00 0. -1.
</event>
<event>
 7    1  0.4673733E-013  0.5930174E+02  0.7816164E-02  0.1266605E+00
        -11   -1    0    0    0    0  0.00000000000E+00  0.00000000000E+00  0.45593999997E+02  0.45594000000E+02  0.51100000000E-03 0.  1.
         11   -1    0    0    0    0 -0.00000000000E+00 -0.00000000000E+00 -0.45593999997E+02  0.45594000000E+02  0.51100000000E-03 0. -1.
    9900012    2    1    2    0    0 -0.41307870803E+01 -0.14062068596E+02  0.28318338618E+02  0.59301741562E+02  0.49999630749E+02 0.  0.
         12    1    1    2    0    0  0.41307870803E+01  0.14062068596E+02 -0.28318338618E+02  0.31886258438E+02  0.00000000000E+00 0. -1.
         11    1    3    3    0    0 -0.13304208824E+02  0.61189649152E+01 -0.42612415414E+01  0.15251291217E+02  0.51100000000E-03 0. -1.
        -11    1    3    3    0    0  0.63753437344E+01 -0.20832260199E+02  0.34349790472E+02  0.40675990196E+02  0.51100000000E-03 0.  1.
        -12    1    3    3    0    0  0.27980780088E+01  0.65122668732E+00 -0.17702103126E+01  0.33744601483E+01  0.00000000000E+00 0.  1.
</event>
<event>
 7    1  0.4673733E-013  0.5930196E+02  0.7816164E-02  0.1266605E+00
        -11   -1    0    0    0    0  0.00000000000E+00  0.00000000000E+00  0.45593999997E+02  0.45594000000E+02  0.51100000000E-03 0. -1.
         11   -1    0    0    0    0 -0.00000000000E+00 -0.00000000000E+00 -0.45593999997E+02  0.45594000000E+02  0.51100000000E-03 0.  1.
    9900012    2    1    2    0    0 -0.21546026124E+02  0.13150470948E+02 -0.19482130311E+02  0.59301960275E+02  0.50000029631E+02 0.  0.
         12    1    1    2    0    0  0.21546026124E+02 -0.13150470948E+02  0.19482130311E+02  0.31886039725E+02  0.00000000000E+00 0. -1.
         11    1    3    3    0    0 -0.39425318551E+01 -0.54602447627E+01  0.14073547395E+02  0.15602005219E+02  0.51100000000E-03 0. -1.
        -11    1    3    3    0    0 -0.16637368712E+02  0.10173816284E+02 -0.23557921640E+02  0.30582417297E+02  0.51100000000E-03 0.  1.
         12    1    3    3    0    0 -0.96612555666E+00  0.84368994268E+01 -0.99977560659E+01  0.13117537760E+02  0.00000000000E+00 0. -1.
</event>
<event>
 7    1  0.4673733E-013  0.5930195E+02  0.7816164E-02  0.1266605E+00
        -11   -1    0    0    0    0  0.00000000000E+00  0.00000000000E+00  0.45593999997E+02  0.45594000000E+02  0.51100000000E-03 0.  1.
         11   -1    0    0    0    0 -0.00000000000E+00 -0.00000000000E+00 -0.45593999997E+02  0.45594000000E+02  0.51100000000E-03 0. -1.
    9900012    2    1    2    0    0  0.17771175771E+02 -0.20364445046E+02  0.16917300515E+02  0.59301947140E+02  0.50000005676E+02 0.  0.
         12    1    1    2    0    0 -0.17771175771E+02  0.20364445046E+02 -0.16917300515E+02  0.31886052860E+02  0.00000000000E+00 0. -1.
         11    1    3    3    0    0 -0.86360368417E+01  0.63755809521E+01  0.41256505942E+01  0.11500006865E+02  0.51100000000E-03 0. -1.
        -11    1    3    3    0    0  0.83925308938E+01 -0.16884378369E+02  0.18575805568E+02  0.26468421949E+02  0.51100000000E-03 0.  1.
         12    1    3    3    0    0  0.18014681718E+02 -0.98556476292E+01 -0.57841556472E+01  0.21333518326E+02  0.00000000000E+00 0. -1.
</event>
<event>
 7    1  0.4673733E-013  0.5930195E+02  0.7816164E-02  0.1266605E+00
        -11   -1    0    0    0    0  0.00000000000E+00  0.00000000000E+00  0.45593999997E+02  0.45594000000E+02  0.51100000000E-03 0.  1.
         11   -1    0    0    0    0 -0.00000000000E+00 -0.00000000000E+00 -0.45593999997E+02  0.45594000000E+02  0.51100000000E-03 0. -1.
    9900012    2    1    2    0    0  0.24823806737E+02  0.14048371923E+02  0.14252794773E+02  0.59301948293E+02  0.50000007779E+02 0.  0.
         12    1    1    2    0    0 -0.24823806737E+02 -0.14048371923E+02 -0.14252794773E+02  0.31886051707E+02  0.00000000000E+00 0. -1.
         11    1    3    3    0    0 -0.24390379165E+01  0.14901413290E+02 -0.73298517089E+01  0.16784747550E+02  0.51100000000E-03 0. -1.
        -11    1    3    3    0    0  0.30143193913E+02  0.43383583425E+01  0.16156259208E+02  0.34474022165E+02  0.51100000000E-03 0.  1.
        -12    1    3    3    0    0 -0.28803492591E+01 -0.51913997087E+01  0.54263872732E+01  0.80431785775E+01  0.00000000000E+00 0.  1.
</event>
<event>
 7    1  0.5130324E-013  0.5930194E+02  0.7816164E-02  0.1266605E+00
        -11   -1    0    0    0    0  0.00000000000E+00  0.00000000000E+00  0.45593999997E+02  0.45594000000E+02  0.51100000000E-03 0. -1.
         11   -1    0    0    0    0 -0.00000000000E+00 -0.00000000000E+00 -0.45593999997E+02  0.45594000000E+02  0.51100000000E-03 0.  1.
    9900012    2    1    2    0    0  0.46312113031E+01 -0.12388364558E+02 -0.29013808391E+02  0.59301940791E+02  0.49999994096E+02 0.  0.
         12    1    1    2    0    0 -0.46312113031E+01  0.12388364558E+02  0.29013808391E+02  0.31886059209E+02  0.00000000000E+00 0. -1.
         11    1    3    3    0    0  0.12291404363E+02  0.26290452977E+01  0.25549029199E+01  0.12826458185E+02  0.51100000000E-03 0. -1.
        -11    1    3    3    0    0  0.46015768089E+01 -0.16154326796E+02 -0.29559135061E+02  0.33998224207E+02  0.51100000000E-03 0.  1.
        -12    1    3    3    0    0 -0.12261769869E+02  0.11369169410E+01 -0.20095762494E+01  0.12477258399E+02  0.00000000000E+00 0.  1.
</event>
<event>
 7    1  0.4673733E-013  0.5930196E+02  0.7816164E-02  0.1266605E+00
        -11   -1    0    0    0    0  0.00000000000E+00  0.00000000000E+00  0.45593999997E+02  0.45594000000E+02  0.51100000000E-03 0.  1.
         11   -1    0    0    0    0 -0.00000000000E+00 -0.00000000000E+00 -0.45593999997E+02  0.45594000000E+02  0.51100000000E-03 0. -1.
    9900012    2    1    2    0    0  0.93448629757E+01 -0.11038229099E+02  0.28417436975E+02  0.59301957757E+02  0.50000025039E+02 0.  0.
         12    1    1    2    0    0 -0.93448629757E+01  0.11038229099E+02 -0.28417436975E+02  0.31886042243E+02  0.00000000000E+00 0. -1.
         11    1    3    3    0    0 -0.49859461983E+01 -0.10598632101E+02  0.14005161931E+02  0.18257470331E+02  0.51100000000E-03 0. -1.
        -11    1    3    3    0    0  0.19630662025E+02 -0.11728593200E+02  0.12341044295E+01  0.22900781734E+02  0.51100000000E-03 0.  1.
        -12    1    3    3    0    0 -0.52998528511E+01  0.11288996202E+02  0.13178170614E+02  0.18143705692E+02  0.00000000000E+00 0.  1.
</event>
<event>
 7    1  0.4673733E-013  0.5930198E+02  0.7816164E-02  0.1266605E+00
        -11   -1    0    0    0    0  0.00000000000E+00  0.00000000000E+00  0.45593999997E+02  0.45594000000E+02  0.51100000000E-03 0. -1.
         11   -1    0    0    0    0 -0.00000000000E+00 -0.00000000000E+00 -0.45593999997E+02  0.45594000000E+02  0.51100000000E-03 0.  1.
    9900012    2    1    2    0    0  0.31001226407E+02  0.61409452487E+01 -0.42344893638E+01  0.59301981944E+02  0.50000069151E+02 0.  0.
         12    1    1    2    0    0 -0.31001226407E+02 -0.61409452487E+01  0.42344893638E+01  0.31886018056E+02  0.00000000000E+00 0. -1.
         11    1    3    3    0    0  0.13871827450E+02 -0.64804309013E+01  0.74384652468E+01  0.17022172217E+02  0.51100000000E-03 0. -1.
        -11    1    3    3    0    0 -0.79162799258E+01  0.13416631992E+02 -0.45407734674E+01  0.16226278865E+02  0.51100000000E-03 0.  1.
        -12    1    3    3    0    0  0.25045678882E+02 -0.79525584204E+00 -0.71321811432E+01  0.26053530862E+02  0.00000000000E+00 0.  1.
</event>
<event>
 7    1  0.4673733E-013  0.5930201E+02  0.7816164E-02  0.1266605E+00
        -11   -1    0    0    0    0  0.00000000000E+00  0.00000000000E+00  0.45593999997E+02  0.45594000000E+02  0.51100000000E-03 0.  1.
         11   -1    0    0    0    0 -0.00000000000E+00 -0.00000000000E+00 -0.45593999997E+02  0.45594000000E+02  0.51100000000E-03 0. -1.
    9900012    2    1    2    0    0  0.27280966762E+01 -0.19894819210E+02  0.24768332152E+02  0.59302005889E+02  0.50000112820E+02 0.  0.
         12    1    1    2    0    0 -0.27280966762E+01  0.19894819210E+02 -0.24768332152E+02  0.31885994111E+02  0.00000000000E+00 0. -1.
         11    1    3    3    0    0 -0.74620132772E+01 -0.21878804342E+02  0.93236203478E+01  0.24925762139E+02  0.51100000000E-03 0. -1.
        -11    1    3    3    0    0  0.11879573725E+02  0.63555049955E+01 -0.42534037766E+01  0.14128275181E+02  0.51100000000E-03 0.  1.
        -12    1    3    3    0    0 -0.16894637715E+01 -0.43715198634E+01  0.19698115580E+02  0.20247968569E+02  0.00000000000E+00 0.  1.
</event>
<event>
 7    1  0.4673733E-013  0.5930198E+02  0.7816164E-02  0.1266605E+00
        -11   -1    0    0    0    0  0.00000000000E+00  0.00000000000E+00  0.45593999997E+02  0.45594000000E+02  0.51100000000E-03 0.  1.
         11   -1    0    0    0    0 -0.00000000000E+00 -0.00000000000E+00 -0.45593999997E+02  0.45594000000E+02  0.51100000000E-03 0. -1.
    9900012    2    1    2    0    0 -0.13738991543E+02 -0.22636359239E+02  0.17763836218E+02  0.59301976018E+02  0.50000058343E+02 0.  0.
         12    1    1    2    0    0  0.13738991543E+02  0.22636359239E+02 -0.17763836218E+02  0.31886023982E+02  0.00000000000E+00 0. -1.
         11    1    3    3    0    0 -0.65892917330E+01  0.98174966879E+01 -0.19858753518E+01  0.11989399815E+02  0.51100000000E-03 0. -1.
        -11    1    3    3    0    0 -0.96689285551E+01 -0.36349269260E+02  0.14511652505E+02  0.40315575325E+02  0.51100000000E-03 0.  1.
        -12    1    3    3    0    0  0.25192287450E+01  0.38954133335E+01  0.52380590649E+01  0.69970008772E+01  0.00000000000E+00 0.  1.
</event>
<event>
 7    1  0.4673733E-013  0.5930193E+02  0.7816164E-02  0.1266605E+00
        -11   -1    0    0    0    0  0.00000000000E+00  0.00000000000E+00  0.45593999997E+02  0.45594000000E+02  0.51100000000E-03 0.  1.
         11   -1    0    0    0    0 -0.00000000000E+00 -0.00000000000E+00 -0.45593999997E+02  0.45594000000E+02  0.51100000000E-03 0. -1.
    9900012    2    1    2    0    0 -0.18447064259E+02  0.19795110758E+02  0.16869521331E+02  0.59301931888E+02  0.49999977860E+02 0.  0.
         12    1    1    2    0    0  0.18447064259E+02 -0.19795110758E+02 -0.16869521331E+02  0.31886068112E+02  0.00000000000E+00 0. -1.
         11    1    3    3    0    0 -0.15118930825E+02  0.12639138067E+02  0.22184094836E+02  0.29672612698E+02  0.51100000000E-03 0. -1.
        -11    1    3    3    0    0 -0.77015939917E+01 -0.89084439299E+01 -0.54584740681E+01  0.12979594088E+02  0.51100000000E-03 0.  1.
         12    1    3    3    0    0  0.43734605571E+01  0.16064416621E+02  0.14390056254E+00  0.16649725103E+02  0.00000000000E+00 0. -1.
</event>
<event>
 7    1  0.4673733E-013  0.5930197E+02  0.7816164E-02  0.1266605E+00
        -11   -1    0    0    0    0  0.00000000000E+00  0.00000000000E+00  0.45593999997E+02  0.45594000000E+02  0.51100000000E-03 0. -1.
         11   -1    0    0    0    0 -0.00000000000E+00 -0.00000000000E+00 -0.45593999997E+02  0.45594000000E+02  0.51100000000E-03 0.  1.
    9900012    2    1    2    0    0  0.14446264186E+02  0.28394068225E+02  0.13421048231E+01  0.59301970071E+02  0.50000047496E+02 0.  0.
         12    1    1    2    0    0 -0.14446264186E+02 -0.28394068225E+02 -0.13421048231E+01  0.31886029929E+02  0.00000000000E+00 0. -1.
         11    1    3    3    0    0  0.94029319998E+01  0.57927419262E+01  0.45471216083E+01  0.11943504695E+02  0.51100000000E-03 0. -1.
        -11    1    3    3    0    0  0.85386186376E+01 -0.21638683787E+01 -0.16743124076E+02  0.18918840839E+02  0.51100000000E-03 0.  1.
        -12    1    3    3    0    0 -0.34952864516E+01  0.24765194678E+02  0.13538107291E+02  0.28439624537E+02  0.00000000000E+00 0.  1.
</event>
<event>
 7    1  0.4673733E-013  0.5930197E+02  0.7816164E-02  0.1266605E+00
        -11   -1    0    0    0    0  0.00000000000E+00  0.00000000000E+00  0.45593999997E+02  0.45594000000E+02  0.51100000000E-03 0.  1.
         11   -1    0    0    0    0 -0.00000000000E+00 -0.00000000000E+00 -0.45593999997E+02  0.45594000000E+02  0.51100000000E-03 0. -1.
    9900012    2    1    2    0    0  0.26846291916E+02  0.12178893657E+02  0.12151967218E+02  0.59301966261E+02  0.50000040548E+02 0.  0.
         12    1    1    2    0    0 -0.26846291916E+02 -0.12178893657E+02 -0.12151967218E+02  0.31886033739E+02  0.00000000000E+00 0. -1.
         11    1    3    3    0    0  0.30731815929E+02  0.14215579762E+02 -0.14036737372E+01  0.33889489794E+02  0.51100000000E-03 0. -1.
        -11    1    3    3    0    0 -0.11463327221E+02  0.35606411620E+01  0.65679370596E+01  0.13682976063E+02  0.51100000000E-03 0.  1.
        -12    1    3    3    0    0  0.75778032080E+01 -0.55973272666E+01  0.69877038956E+01  0.11729500404E+02  0.00000000000E+00 0.  1.
</event>
<event>
 7    1  0.4673733E-013  0.5930194E+02  0.7816164E-02  0.1266605E+00
        -11   -1    0    0    0    0  0.00000000000E+00  0.00000000000E+00  0.45593999997E+02  0.45594000000E+02  0.51100000000E-03 0.  1.
         11   -1    0    0    0    0 -0.00000000000E+00 -0.00000000000E+00 -0.45593999997E+02  0.45594000000E+02  0.51100000000E-03 0. -1.
    9900012    2    1    2    0    0 -0.61976198729E+01 -0.71685593450E+01  0.30445397058E+02  0.59301938199E+02  0.49999989370E+02 0.  0.
         12    1    1    2    0    0  0.61976198729E+01  0.71685593450E+01 -0.30445397058E+02  0.31886061801E+02  0.00000000000E+00 0. -1.
         11    1    3    3    0    0  0.15534340219E+02  0.54491327529E+01  0.14379621236E+02  0.21858231423E+02  0.51100000000E-03 0. -1.
        -11    1    3    3    0    0 -0.19630844532E+02 -0.17643642203E+02  0.17672144888E+02  0.31764333339E+02  0.51100000000E-03 0.  1.
        -12    1    3    3    0    0 -0.21011155596E+01  0.50259501055E+01 -0.16063690661E+01  0.56793734368E+01  0.00000000000E+00 0.  1.
</event>
<event>
 7    1  0.6978495E-013  0.5930194E+02  0.7816164E-02  0.1266605E+00
        -11   -1    0    0    0    0  0.00000000000E+00  0.00000000000E+00  0.45593999997E+02  0.45594000000E+02  0.51100000000E-03 0. -1.
         11   -1    0    0    0    0 -0.00000000000E+00 -0.00000000000E+00 -0.45593999997E+02  0.45594000000E+02  0.51100000000E-03 0.  1.
    9900012    2    1    2    0    0  0.88099502621E+01  0.25851476688E+02 -0.16456211798E+02  0.59301937569E+02  0.49999988222E+02 0.  0.
         12    1    1    2    0    0 -0.88099502621E+01 -0.25851476688E+02  0.16456211798E+02  0.31886062431E+02  0.00000000000E+00 0. -1.
         11    1    3    3    0    0 -0.12000575710E+02 -0.10199976909E+01 -0.64001900618E+01  0.13638791946E+02  0.51100000000E-03 0. -1.
        -11    1    3    3    0    0  0.10644765001E+02  0.98078908828E+01  0.98773530931E+01  0.17523351560E+02  0.51100000000E-03 0.  1.
        -12    1    3    3    0    0  0.10165760971E+02  0.17063583496E+02 -0.19933374829E+02  0.28139794064E+02  0.00000000000E+00 0.  1.
</event>
<event>
 7    1  0.4673733E-013  0.5930194E+02  0.7816164E-02  0.1266605E+00
        -11   -1    0    0    0    0  0.00000000000E+00  0.00000000000E+00  0.45593999997E+02  0.45594000000E+02  0.51100000000E-03 0.  1.
         11   -1    0    0    0    0 -0.00000000000E+00 -0.00000000000E+00 -0.45593999997E+02  0.45594000000E+02  0.51100000000E-03 0. -1.
    9900012    2    1    2    0    0 -0.56726860502E+01 -0.23135301400E+02  0.21196680942E+02  0.59301940024E+02  0.49999992698E+02 0.  0.
         12    1    1    2    0    0  0.56726860502E+01  0.23135301400E+02 -0.21196680942E+02  0.31886059976E+02  0.00000000000E+00 0. -1.
         11    1    3    3    0    0  0.15672000919E+02 -0.93078994783E+00  0.47311040689E+01  0.16396991453E+02  0.51100000000E-03 0. -1.
        -11    1    3    3    0    0 -0.11991193318E+02 -0.77312497142E+01  0.20717962645E+02  0.25155415238E+02  0.51100000000E-03 0.  1.
        -12    1    3    3    0    0 -0.93534936508E+01 -0.14473261738E+02 -0.42523857727E+01  0.17749533334E+02  0.00000000000E+00 0.  1.
</event>
<event>
 7    1  0.4673733E-013  0.5930193E+02  0.7816164E-02  0.1266605E+00
        -11   -1    0    0    0    0  0.00000000000E+00  0.00000000000E+00  0.45593999997E+02  0.45594000000E+02  0.51100000000E-03 0. -1.
         11   -1    0    0    0    0 -0.00000000000E+00 -0.00000000000E+00 -0.45593999997E+02  0.45594000000E+02  0.51100000000E-03 0.  1.
    9900012    2    1    2    0    0  0.11175703812E+01  0.16956749820E+02 -0.26980383940E+02  0.59301930227E+02  0.49999974830E+02 0.  0.
         12    1    1    2    0    0 -0.11175703812E+01 -0.16956749820E+02  0.26980383940E+02  0.31886069773E+02  0.00000000000E+00 0. -1.
         11    1    3    3    0    0  0.79206448226E+01  0.22780835885E+02 -0.69351097543E+01  0.25095793385E+02  0.51100000000E-03 0.  1.
        -11    1    3    3    0    0  0.35534159843E+00 -0.15326906543E+02 -0.80688195069E+01  0.17324727425E+02  0.51100000000E-03 0. -1.
        -12    1    3    3    0    0 -0.71584160398E+01  0.95028204780E+01 -0.11976454679E+02  0.16881409417E+02  0.00000000000E+00 0.  1.
</event>
<event>
 7    1  0.4673733E-013  0.5930194E+02  0.7816164E-02  0.1266605E+00
        -11   -1    0    0    0    0  0.00000000000E+00  0.00000000000E+00  0.45593999997E+02  0.45594000000E+02  0.51100000000E-03 0.  1.
         11   -1    0    0    0    0 -0.00000000000E+00 -0.00000000000E+00 -0.45593999997E+02  0.45594000000E+02  0.51100000000E-03 0. -1.
    9900012    2    1    2    0    0  0.49339158947E+01  0.14066971077E+02  0.28186837463E+02  0.59301937096E+02  0.49999987358E+02 0.  0.
         12    1    1    2    0    0 -0.49339158947E+01 -0.14066971077E+02 -0.28186837463E+02  0.31886062904E+02  0.00000000000E+00 0. -1.
         11    1    3    3    0    0  0.62205822871E+01 -0.32164044466E+00 -0.43053974968E+01  0.75720238003E+01  0.51100000000E-03 0. -1.
        -11    1    3    3    0    0 -0.16058948772E+02  0.10914370041E+02  0.30869140226E+02  0.36468028842E+02  0.51100000000E-03 0.  1.
        -12    1    3    3    0    0  0.14772282379E+02  0.34742414807E+01  0.16230947345E+01  0.15261884454E+02  0.00000000000E+00 0.  1.
</event>
<event>
 7    1  0.4673733E-013  0.5930194E+02  0.7816164E-02  0.1266605E+00
        -11   -1    0    0    0    0  0.00000000000E+00  0.00000000000E+00  0.45593999997E+02  0.45594000000E+02  0.51100000000E-03 0.  1.
         11   -1    0    0    0    0 -0.00000000000E+00 -0.00000000000E+00 -0.45593999997E+02  0.45594000000E+02  0.51100000000E-03 0. -1.
    9900012    2    1    2    0    0 -0.10500272965E+02 -0.27866647434E+02 -0.11398023592E+02  0.59301941709E+02  0.49999995770E+02 0.  0.
         12    1    1    2    0    0  0.10500272965E+02  0.27866647434E+02  0.11398023592E+02  0.31886058291E+02  0.00000000000E+00 0. -1.
         11    1    3    3    0    0  0.65380480345E+01 -0.58163487901E+01  0.93769201944E+01  0.12825857396E+02  0.51100000000E-03 0. -1.
        -11    1    3    3    0    0  0.35837358458E-02 -0.23038132680E+02 -0.17878576451E+02  0.29161602604E+02  0.51100000000E-03 0.  1.
        -12    1    3    3    0    0 -0.17041904736E+02  0.98783403628E+00 -0.28963673356E+01  0.17314481709E+02  0.00000000000E+00 0.  1.
</event>
<event>
 7    1  0.4673733E-013  0.5930195E+02  0.7816164E-02  0.1266605E+00
        -11   -1    0    0    0    0  0.00000000000E+00  0.00000000000E+00  0.45593999997E+02  0.45594000000E+02  0.51100000000E-03 0.  1.
         11   -1    0    0    0    0 -0.00000000000E+00 -0.00000000000E+00 -0.45593999997E+02  0.45594000000E+02  0.51100000000E-03 0. -1.
    9900012    2    1    2    0    0  0.13898159223E+02  0.28641600169E+02 -0.17944924330E+01  0.59301948298E+02  0.50000007788E+02 0.  0.
         12    1    1    2    0    0 -0.13898159223E+02 -0.28641600169E+02  0.17944924330E+01  0.31886051702E+02  0.00000000000E+00 0. -1.
         11    1    3    3    0    0  0.86077115389E+01  0.28925506502E+02 -0.20143579178E+02  0.36284175707E+02  0.51100000000E-03 0. -1.
        -11    1    3    3    0    0  0.79356347143E+01 -0.43274929196E+01  0.12620594196E+02  0.15523559238E+02  0.51100000000E-03 0.  1.
        -12    1    3    3    0    0 -0.26451870302E+01  0.40435865867E+01  0.57284925491E+01  0.74942133539E+01  0.00000000000E+00 0.  1.
</event>
<event>
 7    1  0.4673733E-013  0.5930191E+02  0.7816164E-02  0.1266605E+00
        -11   -1    0    0    0    0  0.00000000000E+00  0.00000000000E+00  0.45593999997E+02  0.45594000000E+02  0.51100000000E-03 0.  1.
         11   -1    0    0    0    0 -0.00000000000E+00 -0.00000000000E+00 -0.45593999997E+02  0.45594000000E+02  0.51100000000E-03 0. -1.
    9900012    2    1    2    0    0 -0.13889636952E+02  0.10924741204E+02  0.26541493086E+02  0.59301908357E+02  0.49999934945E+02 0.  0.
         12    1    1    2    0    0  0.13889636952E+02 -0.10924741204E+02 -0.26541493086E+02  0.31886091643E+02  0.00000000000E+00 0. -1.
         11    1    3    3    0    0  0.11205133466E+01  0.38521972581E+01 -0.10410117346E+02  0.11156411489E+02  0.51100000000E-03 0. -1.
        -11    1    3    3    0    0 -0.15508827474E+02  0.15788593351E+02  0.26258026032E+02  0.34340753355E+02  0.51100000000E-03 0.  1.
        -12    1    3    3    0    0  0.49867717553E+00 -0.87160494045E+01  0.10693584401E+02  0.13804743514E+02  0.00000000000E+00 0.  1.
</event>
<event>
 7    1  0.4673733E-013  0.5930197E+02  0.7816164E-02  0.1266605E+00
        -11   -1    0    0    0    0  0.00000000000E+00  0.00000000000E+00  0.45593999997E+02  0.45594000000E+02  0.51100000000E-03 0. -1.
         11   -1    0    0    0    0 -0.00000000000E+00 -0.00000000000E+00 -0.45593999997E+02  0.45594000000E+02  0.51100000000E-03 0.  1.
    9900012    2    1    2    0    0 -0.30098179553E+02 -0.10367718316E+02  0.18245113077E+01  0.59301971131E+02  0.50000049430E+02 0.  0.
         12    1    1    2    0    0  0.30098179553E+02  0.10367718316E+02 -0.18245113077E+01  0.31886028869E+02  0.00000000000E+00 0. -1.
         11    1    3    3    0    0 -0.18497728940E+02 -0.89149358441E+01 -0.20119667179E+02  0.28747922789E+02  0.51100000000E-03 0.  1.
        -11    1    3    3    0    0 -0.41098366626E-01  0.61784247738E+01  0.12018676541E+02  0.13513815443E+02  0.51100000000E-03 0. -1.
        -12    1    3    3    0    0 -0.11559352246E+02 -0.76312072459E+01  0.99255019451E+01  0.17040232899E+02  0.00000000000E+00 0.  1.
</event>
<event>
 7    1  0.4673733E-013  0.5930190E+02  0.7816164E-02  0.1266605E+00
        -11   -1    0    0    0    0  0.00000000000E+00  0.00000000000E+00  0.45593999997E+02  0.45594000000E+02  0.51100000000E-03 0. -1.
         11   -1    0    0    0    0 -0.00000000000E+00 -0.00000000000E+00 -0.45593999997E+02  0.45594000000E+02  0.51100000000E-03 0.  1.
    9900012    2    1    2    0    0 -0.15963614731E+00  0.66354672078E+01 -0.31187629630E+02  0.59301903489E+02  0.49999926068E+02 0.  0.
         12    1    1    2    0    0  0.15963614731E+00 -0.66354672078E+01  0.31187629630E+02  0.31886096511E+02  0.00000000000E+00 0. -1.
         11    1    3    3    0    0  0.94559780921E+00  0.98567404773E+01  0.86747184097E+01  0.13164354439E+02  0.51100000000E-03 0. -1.
        -11    1    3    3    0    0  0.10125010851E+02  0.26642413674E+01 -0.19970444273E+02  0.22548451643E+02  0.51100000000E-03 0.  1.
        -12    1    3    3    0    0 -0.11230244808E+02 -0.58855146369E+01 -0.19891903767E+02  0.23589097406E+02  0.00000000000E+00 0.  1.
</event>
<event>
 7    1  0.4673733E-013  0.5930194E+02  0.7816164E-02  0.1266605E+00
        -11   -1    0    0    0    0  0.00000000000E+00  0.00000000000E+00  0.45593999997E+02  0.45594000000E+02  0.51100000000E-03 0.  1.
         11   -1    0    0    0    0 -0.00000000000E+00 -0.00000000000E+00 -0.45593999997E+02  0.45594000000E+02  0.51100000000E-03 0. -1.
    9900012    2    1    2    0    0  0.13271570161E+02 -0.22278421658E+02  0.18554193950E+02  0.59301940989E+02  0.49999994458E+02 0.  0.
         12    1    1    2    0    0 -0.13271570161E+02  0.22278421658E+02 -0.18554193950E+02  0.31886059011E+02  0.00000000000E+00 0. -1.
         11    1    3    3    0    0 -0.24306054875E+01  0.45817537454E+01 -0.11790194488E+01  0.53188718297E+01  0.51100000000E-03 0. -1.
        -11    1    3    3    0    0  0.64423636912E+01 -0.19096240075E+02  0.31318465055E+02  0.37242672952E+02  0.51100000000E-03 0.  1.
        -12    1    3    3    0    0  0.92598119573E+01 -0.77639353283E+01 -0.11585251656E+02  0.16740396208E+02  0.00000000000E+00 0.  1.
</event>
<event>
 7    1  0.4673733E-013  0.5930193E+02  0.7816164E-02  0.1266605E+00
        -11   -1    0    0    0    0  0.00000000000E+00  0.00000000000E+00  0.45593999997E+02  0.45594000000E+02  0.51100000000E-03 0.  1.
         11   -1    0    0    0    0 -0.00000000000E+00 -0.00000000000E+00 -0.45593999997E+02  0.45594000000E+02  0.51100000000E-03 0. -1.
    9900012    2    1    2    0    0  0.66602983013E+01 -0.17809406426E+02  0.25596621062E+02  0.59301928738E+02  0.49999972116E+02 0.  0.
         12    1    1    2    0    0 -0.66602983013E+01  0.17809406426E+02 -0.25596621062E+02  0.31886071262E+02  0.00000000000E+00 0. -1.
         11    1    3    3    0    0 -0.11978230482E+02 -0.19801857382E+02  0.21469170108E+01  0.23242220508E+02  0.51100000000E-03 0.  1.
        -11    1    3    3    0    0  0.94102764459E+01  0.98029622126E+01  0.60560286336E+01  0.14877057975E+02  0.51100000000E-03 0. -1.
        -12    1    3    3    0    0  0.92282523370E+01 -0.78105112566E+01  0.17393675418E+02  0.21182650255E+02  0.00000000000E+00 0.  1.
</event>
<event>
 7    1  0.4673733E-013  0.5930194E+02  0.7816164E-02  0.1266605E+00
        -11   -1    0    0    0    0  0.00000000000E+00  0.00000000000E+00  0.45593999997E+02  0.45594000000E+02  0.51100000000E-03 0. -1.
         11   -1    0    0    0    0 -0.00000000000E+00 -0.00000000000E+00 -0.45593999997E+02  0.45594000000E+02  0.51100000000E-03 0.  1.
    9900012    2    1    2    0    0 -0.20335528265E+02 -0.64086165988E+01 -0.23709000978E+02  0.59301940289E+02  0.49999993182E+02 0.  0.
         12    1    1    2    0    0  0.20335528265E+02  0.64086165988E+01  0.23709000978E+02  0.31886059711E+02  0.00000000000E+00 0. -1.
         11    1    3    3    0    0  0.57573386001E+01  0.82367805252E+01  0.94259865998E+00  0.10093561991E+02  0.51100000000E-03 0. -1.
        -11    1    3    3    0    0 -0.27334503580E+02 -0.28478989094E+01 -0.25263410886E+02  0.37329955050E+02  0.51100000000E-03 0.  1.
        -12    1    3    3    0    0  0.12416367154E+01 -0.11797498215E+02  0.61181124775E+00  0.11878423248E+02  0.00000000000E+00 0.  1.
</event>
<event>
 7    1  0.4673733E-013  0.5930193E+02  0.7816164E-02  0.1266605E+00
        -11   -1    0    0    0    0  0.00000000000E+00  0.00000000000E+00  0.45593999997E+02  0.45594000000E+02  0.51100000000E-03 0.  1.
         11   -1    0    0    0    0 -0.00000000000E+00 -0.00000000000E+00 -0.45593999997E+02  0.45594000000E+02  0.51100000000E-03 0. -1.
    9900012    2    1    2    0    0 -0.54120007952E+01  0.31204250215E+02  0.37049030329E+01  0.59301932657E+02  0.49999979263E+02 0.  0.
         12    1    1    2    0    0  0.54120007952E+01 -0.31204250215E+02 -0.37049030329E+01  0.31886067343E+02  0.00000000000E+00 0. -1.
         11    1    3    3    0    0 -0.15603966236E+02  0.32784244432E+01 -0.13048318961E+02  0.20603166191E+02  0.51100000000E-03 0. -1.
        -11    1    3    3    0    0  0.11135528985E+02  0.27836548186E+02  0.95965828420E+01  0.31479641408E+02  0.51100000000E-03 0.  1.
         12    1    3    3    0    0 -0.94356354503E+00  0.89277586368E-01  0.71566391520E+01  0.72191250580E+01  0.00000000000E+00 0. -1.
</event>
<event>
 7    1  0.4673733E-013  0.5930197E+02  0.7816164E-02  0.1266605E+00
        -11   -1    0    0    0    0  0.00000000000E+00  0.00000000000E+00  0.45593999997E+02  0.45594000000E+02  0.51100000000E-03 0. -1.
         11   -1    0    0    0    0 -0.00000000000E+00 -0.00000000000E+00 -0.45593999997E+02  0.45594000000E+02  0.51100000000E-03 0.  1.
    9900012    2    1    2    0    0 -0.21973106110E+02 -0.22850074876E+02  0.34316021339E+01  0.59301965328E+02  0.50000038846E+02 0.  0.
         12    1    1    2    0    0  0.21973106110E+02  0.22850074876E+02 -0.34316021339E+01  0.31886034672E+02  0.00000000000E+00 0. -1.
         11    1    3    3    0    0  0.53279629501E+01 -0.25815048039E+01  0.13537874514E+02  0.14775838482E+02  0.51100000000E-03 0. -1.
        -11    1    3    3    0    0 -0.26318034579E+02 -0.43899640404E+01 -0.10340696629E+02  0.28615393329E+02  0.51100000000E-03 0.  1.
         12    1    3    3    0    0 -0.98303448110E+00 -0.15878606031E+02  0.23442424921E+00  0.15910733516E+02  0.00000000000E+00 0. -1.
</event>
<event>
 7    1  0.4673733E-013  0.5930197E+02  0.7816164E-02  0.1266605E+00
        -11   -1    0    0    0    0  0.00000000000E+00  0.00000000000E+00  0.45593999997E+02  0.45594000000E+02  0.51100000000E-03 0. -1.
         11   -1    0    0    0    0 -0.00000000000E+00 -0.00000000000E+00 -0.45593999997E+02  0.45594000000E+02  0.51100000000E-03 0.  1.
    9900012    2    1    2    0    0 -0.17494474910E+02  0.22987819090E+02 -0.13498972251E+02  0.59301972798E+02  0.50000052470E+02 0.  0.
         12    1    1    2    0    0  0.17494474910E+02 -0.22987819090E+02  0.13498972251E+02  0.31886027202E+02  0.00000000000E+00 0. -1.
         11    1    3    3    0    0  0.98517620875E+01 -0.53429784446E+01  0.67337295124E+01  0.13074698784E+02  0.51100000000E-03 0. -1.
        -11    1    3    3    0    0 -0.12282885100E+02  0.20062185608E+02 -0.16242997420E+02  0.28586631896E+02  0.51100000000E-03 0.  1.
         12    1    3    3    0    0 -0.15063351897E+02  0.82686119272E+01 -0.39897043432E+01  0.17640642118E+02  0.00000000000E+00 0. -1.
</event>
<event>
 7    1  0.4673733E-013  0.5930196E+02  0.7816164E-02  0.1266605E+00
        -11   -1    0    0    0    0  0.00000000000E+00  0.00000000000E+00  0.45593999997E+02  0.45594000000E+02  0.51100000000E-03 0. -1.
         11   -1    0    0    0    0 -0.00000000000E+00 -0.00000000000E+00 -0.45593999997E+02  0.45594000000E+02  0.51100000000E-03 0.  1.
    9900012    2    1    2    0    0  0.21459086046E+02 -0.20689991531E+02 -0.11320400610E+02  0.59301959270E+02  0.50000027799E+02 0.  0.
         12    1    1    2    0    0 -0.21459086046E+02  0.20689991531E+02  0.11320400610E+02  0.31886040730E+02  0.00000000000E+00 0. -1.
         11    1    3    3    0    0  0.13547567072E+02  0.39635464656E+00  0.18231466021E+01  0.13675435436E+02  0.51100000000E-03 0. -1.
        -11    1    3    3    0    0 -0.10174432759E+02 -0.13778924180E+02  0.61418215187E+01  0.18196148091E+02  0.51100000000E-03 0.  1.
        -12    1    3    3    0    0  0.18085951733E+02 -0.73074219970E+01 -0.19285368731E+02  0.27430375743E+02  0.00000000000E+00 0.  1.
</event>
<event>
 7    1  0.4673733E-013  0.5930195E+02  0.7816164E-02  0.1266605E+00
        -11   -1    0    0    0    0  0.00000000000E+00  0.00000000000E+00  0.45593999997E+02  0.45594000000E+02  0.51100000000E-03 0.  1.
         11   -1    0    0    0    0 -0.00000000000E+00 -0.00000000000E+00 -0.45593999997E+02  0.45594000000E+02  0.51100000000E-03 0. -1.
    9900012    2    1    2    0    0 -0.29587973754E+02  0.11134383706E+02  0.41590483161E+01  0.59301947026E+02  0.50000005468E+02 0.  0.
         12    1    1    2    0    0  0.29587973754E+02 -0.11134383706E+02 -0.41590483161E+01  0.31886052974E+02  0.00000000000E+00 0. -1.
         11    1    3    3    0    0  0.13296456594E+01  0.10092290899E+01 -0.33693095904E+01  0.37601526981E+01  0.51100000000E-03 0. -1.
        -11    1    3    3    0    0 -0.39093825161E+02  0.11067344998E+01 -0.33015162486E+01  0.39248592800E+02  0.51100000000E-03 0.  1.
        -12    1    3    3    0    0  0.81762057477E+01  0.90184201161E+01  0.10829874155E+02  0.16293201528E+02  0.00000000000E+00 0.  1.
</event>
<event>
 7    1  0.4673733E-013  0.5930195E+02  0.7816164E-02  0.1266605E+00
        -11   -1    0    0    0    0  0.00000000000E+00  0.00000000000E+00  0.45593999997E+02  0.45594000000E+02  0.51100000000E-03 0. -1.
         11   -1    0    0    0    0 -0.00000000000E+00 -0.00000000000E+00 -0.45593999997E+02  0.45594000000E+02  0.51100000000E-03 0.  1.
    9900012    2    1    2    0    0 -0.12901524277E+02 -0.11212675870E+02 -0.26917410317E+02  0.59301946513E+02  0.50000004532E+02 0.  0.
         12    1    1    2    0    0  0.12901524277E+02  0.11212675870E+02  0.26917410317E+02  0.31886053487E+02  0.00000000000E+00 0. -1.
         11    1    3    3    0    0  0.71207099139E+01  0.10192388790E+02  0.53012117481E+01  0.13516365827E+02  0.51100000000E-03 0. -1.
        -11    1    3    3    0    0 -0.84711998574E+01 -0.15669513209E+02 -0.10940674536E+02  0.20904383052E+02  0.51100000000E-03 0.  1.
         12    1    3    3    0    0 -0.11551034334E+02 -0.57355514500E+01 -0.21277947529E+02  0.24881197633E+02  0.00000000000E+00 0. -1.
</event>
<event>
 7    1  0.4673733E-013  0.5930195E+02  0.7816164E-02  0.1266605E+00
        -11   -1    0    0    0    0  0.00000000000E+00  0.00000000000E+00  0.45593999997E+02  0.45594000000E+02  0.51100000000E-03 0.  1.
         11   -1    0    0    0    0 -0.00000000000E+00 -0.00000000000E+00 -0.45593999997E+02  0.45594000000E+02  0.51100000000E-03 0. -1.
    9900012    2    1    2    0    0 -0.95931138209E+01 -0.22547046200E+02  0.20404001915E+02  0.59301946320E+02  0.50000004181E+02 0.  0.
         12    1    1    2    0    0  0.95931138209E+01  0.22547046200E+02 -0.20404001915E+02  0.31886053680E+02  0.00000000000E+00 0. -1.
         11    1    3    3    0    0  0.14826292135E+02 -0.66291461682E+01 -0.22355301128E+01  0.16393965735E+02  0.51100000000E-03 0. -1.
        -11    1    3    3    0    0 -0.44106132833E+01 -0.57377586895E+01  0.18783639241E+02  0.20129592338E+02  0.51100000000E-03 0.  1.
         12    1    3    3    0    0 -0.20008792672E+02 -0.10180141342E+02  0.38558927873E+01  0.22778388247E+02  0.00000000000E+00 0. -1.
</event>
<event>
 7    1  0.4673733E-013  0.5930195E+02  0.7816164E-02  0.1266605E+00
        -11   -1    0    0    0    0  0.00000000000E+00  0.00000000000E+00  0.45593999997E+02  0.45594000000E+02  0.51100000000E-03 0. -1.
         11   -1    0    0    0    0 -0.00000000000E+00 -0.00000000000E+00 -0.45593999997E+02  0.45594000000E+02  0.51100000000E-03 0.  1.
    9900012    2    1    2    0    0  0.26024108233E+02  0.12337997567E+02 -0.13683547561E+02  0.59301954978E+02  0.50000019971E+02 0.  0.
         12    1    1    2    0    0 -0.26024108233E+02 -0.12337997567E+02  0.13683547561E+02  0.31886045022E+02  0.00000000000E+00 0. -1.
         11    1    3    3    0    0 -0.18782393488E+01 -0.10284413109E+02 -0.41389058146E+01  0.11243997405E+02  0.51100000000E-03 0. -1.
        -11    1    3    3    0    0  0.18417200564E+02  0.14716336832E+02  0.94535757860E+01  0.25399487038E+02  0.51100000000E-03 0.  1.
        -12    1    3    3    0    0  0.94851470174E+01  0.79060738438E+01 -0.18998217533E+02  0.22658470535E+02  0.00000000000E+00 0.  1.
</event>
<event>
 7    1  0.4673733E-013  0.5930197E+02  0.7816164E-02  0.1266605E+00
        -11   -1    0    0    0    0  0.00000000000E+00  0.00000000000E+00  0.45593999997E+02  0.45594000000E+02  0.51100000000E-03 0.  1.
         11   -1    0    0    0    0 -0.00000000000E+00 -0.00000000000E+00 -0.45593999997E+02  0.45594000000E+02  0.51100000000E-03 0. -1.
    9900012    2    1    2    0    0 -0.78815438016E+01  0.27421141275E+02  0.14236616456E+02  0.59301969052E+02  0.50000045638E+02 0.  0.
         12    1    1    2    0    0  0.78815438016E+01 -0.27421141275E+02 -0.14236616456E+02  0.31886030948E+02  0.00000000000E+00 0. -1.
         11    1    3    3    0    0  0.19945784502E+02  0.41614487297E+01  0.30814562388E+01  0.20606973279E+02  0.51100000000E-03 0. -1.
        -11    1    3    3    0    0 -0.18392617844E+02  0.11588593134E+02  0.41440466741E+01  0.22130454244E+02  0.51100000000E-03 0.  1.
         12    1    3    3    0    0 -0.94347104598E+01  0.11671099411E+02  0.70111135427E+01  0.16564541528E+02  0.00000000000E+00 0. -1.
</event>
<event>
 7    1  0.4673733E-013  0.5930196E+02  0.7816164E-02  0.1266605E+00
        -11   -1    0    0    0    0  0.00000000000E+00  0.00000000000E+00  0.45593999997E+02  0.45594000000E+02  0.51100000000E-03 0.  1.
         11   -1    0    0    0    0 -0.00000000000E+00 -0.00000000000E+00 -0.45593999997E+02  0.45594000000E+02  0.51100000000E-03 0. -1.
    9900012    2    1    2    0    0  0.28681785234E+02 -0.27264230790E+01 -0.13661666613E+02  0.59301963532E+02  0.50000035571E+02 0.  0.
         12    1    1    2    0    0 -0.28681785234E+02  0.27264230790E+01  0.13661666613E+02  0.31886036468E+02  0.00000000000E+00 0. -1.
         11    1    3    3    0    0 -0.27127259053E+01  0.11879344421E+02  0.86819574241E+01  0.14961754265E+02  0.51100000000E-03 0. -1.
        -11    1    3    3    0    0  0.20979624934E+02 -0.51628755577E+01 -0.21144777324E+02  0.30230804732E+02  0.51100000000E-03 0.  1.
         12    1    3    3    0    0  0.10414886206E+02 -0.94428919419E+01 -0.11988467123E+01  0.14109404535E+02  0.00000000000E+00 0. -1.
</event>
<event>
 7    1  0.4673733E-013  0.5930191E+02  0.7816164E-02  0.1266605E+00
        -11   -1    0    0    0    0  0.00000000000E+00  0.00000000000E+00  0.45593999997E+02  0.45594000000E+02  0.51100000000E-03 0.  1.
         11   -1    0    0    0    0 -0.00000000000E+00 -0.00000000000E+00 -0.45593999997E+02  0.45594000000E+02  0.51100000000E-03 0. -1.
    9900012    2    1    2    0    0  0.24056154364E+02 -0.16225663470E+02 -0.13219389497E+02  0.59301906220E+02  0.49999931048E+02 0.  0.
         12    1    1    2    0    0 -0.24056154364E+02  0.16225663470E+02  0.13219389497E+02  0.31886093780E+02  0.00000000000E+00 0. -1.
         11    1    3    3    0    0 -0.20700365801E+01 -0.10390088983E+02 -0.21241699180E+02  0.23737076164E+02  0.51100000000E-03 0. -1.
        -11    1    3    3    0    0  0.97262335280E+01 -0.34837293697E+01  0.14475954961E+02  0.17784523082E+02  0.51100000000E-03 0.  1.
        -12    1    3    3    0    0  0.16399957416E+02 -0.23518451179E+01 -0.64536452786E+01  0.17780306974E+02  0.00000000000E+00 0.  1.
</event>
<event>
 7    1  0.4673733E-013  0.5930194E+02  0.7816164E-02  0.1266605E+00
        -11   -1    0    0    0    0  0.00000000000E+00  0.00000000000E+00  0.45593999997E+02  0.45594000000E+02  0.51100000000E-03 0. -1.
         11   -1    0    0    0    0 -0.00000000000E+00 -0.00000000000E+00 -0.45593999997E+02  0.45594000000E+02  0.51100000000E-03 0.  1.
    9900012    2    1    2    0    0  0.21017059906E+02  0.15056229310E+02 -0.18663165794E+02  0.59301943399E+02  0.49999998853E+02 0.  0.
         12    1    1    2    0    0 -0.21017059906E+02 -0.15056229310E+02  0.18663165794E+02  0.31886056601E+02  0.00000000000E+00 0. -1.
         11    1    3    3    0    0  0.24531789212E+02  0.42979893789E+01 -0.24689150524E+02  0.35069011228E+02  0.51100000000E-03 0.  1.
        -11    1    3    3    0    0 -0.75770528666E+01 -0.18685666748E+01  0.75783970331E+01  0.10878206351E+02  0.51100000000E-03 0. -1.
        -12    1    3    3    0    0  0.40623235602E+01  0.12626806606E+02 -0.15524123037E+01  0.13354725820E+02  0.00000000000E+00 0.  1.
</event>
<event>
 7    1  0.4673733E-013  0.5930198E+02  0.7816164E-02  0.1266605E+00
        -11   -1    0    0    0    0  0.00000000000E+00  0.00000000000E+00  0.45593999997E+02  0.45594000000E+02  0.51100000000E-03 0.  1.
         11   -1    0    0    0    0 -0.00000000000E+00 -0.00000000000E+00 -0.45593999997E+02  0.45594000000E+02  0.51100000000E-03 0. -1.
    9900012    2    1    2    0    0  0.18781109524E+02  0.77631168889E+01  0.24570759662E+02  0.59301979723E+02  0.50000065099E+02 0.  0.
         12    1    1    2    0    0 -0.18781109524E+02 -0.77631168889E+01 -0.24570759662E+02  0.31886020277E+02  0.00000000000E+00 0. -1.
         11    1    3    3    0    0  0.75075694145E+01  0.11136073224E+02 -0.13017852319E+02  0.18704015735E+02  0.51100000000E-03 0. -1.
        -11    1    3    3    0    0  0.10823299282E+02 -0.23035415884E+01  0.19107473975E+02  0.22080436435E+02  0.51100000000E-03 0.  1.
         12    1    3    3    0    0  0.45024082746E+00 -0.10694147470E+01  0.18481138005E+02  0.18517527553E+02  0.00000000000E+00 0. -1.
</event>
<event>
 7    1  0.4673733E-013  0.5930198E+02  0.7816164E-02  0.1266605E+00
        -11   -1    0    0    0    0  0.00000000000E+00  0.00000000000E+00  0.45593999997E+02  0.45594000000E+02  0.51100000000E-03 0. -1.
         11   -1    0    0    0    0 -0.00000000000E+00 -0.00000000000E+00 -0.45593999997E+02  0.45594000000E+02  0.51100000000E-03 0.  1.
    9900012    2    1    2    0    0  0.43350100384E+01 -0.28350539352E+02 -0.13934586059E+02  0.59301982967E+02  0.50000071016E+02 0.  0.
         12    1    1    2    0    0 -0.43350100384E+01  0.28350539352E+02  0.13934586059E+02  0.31886017033E+02  0.00000000000E+00 0. -1.
         11    1    3    3    0    0 -0.22590442756E+02 -0.97862403833E+01 -0.54830278854E+01  0.25222256041E+02  0.51100000000E-03 0. -1.
        -11    1    3    3    0    0  0.25078348836E+02 -0.18458125574E+02 -0.76586052982E+01  0.32066808626E+02  0.51100000000E-03 0.  1.
         12    1    3    3    0    0  0.18471039576E+01 -0.10617339475E+00 -0.79295287538E+00  0.20129183000E+01  0.00000000000E+00 0. -1.
</event>
<event>
 7    1  0.5106618E-013  0.5930196E+02  0.7816164E-02  0.1266605E+00
        -11   -1    0    0    0    0  0.00000000000E+00  0.00000000000E+00  0.45593999997E+02  0.45594000000E+02  0.51100000000E-03 0.  1.
         11   -1    0    0    0    0 -0.00000000000E+00 -0.00000000000E+00 -0.45593999997E+02  0.45594000000E+02  0.51100000000E-03 0. -1.
    9900012    2    1    2    0    0  0.16547212800E+02  0.24970687391E+02  0.10925830106E+02  0.59301964753E+02  0.50000037798E+02 0.  0.
         12    1    1    2    0    0 -0.16547212800E+02 -0.24970687391E+02 -0.10925830106E+02  0.31886035247E+02  0.00000000000E+00 0. -1.
         11    1    3    3    0    0 -0.82825417877E+01  0.32900732484E+00 -0.72683860763E+01  0.11024435618E+02  0.51100000000E-03 0. -1.
        -11    1    3    3    0    0  0.24436523511E+02  0.17894022555E+02  0.15660048155E+01  0.30328074384E+02  0.51100000000E-03 0.  1.
        -12    1    3    3    0    0  0.39323107604E+00  0.67476575117E+01  0.16628211367E+02  0.17949454751E+02  0.00000000000E+00 0.  1.
</event>
<event>
 7    1  0.4673733E-013  0.5930194E+02  0.7816164E-02  0.1266605E+00
        -11   -1    0    0    0    0  0.00000000000E+00  0.00000000000E+00  0.45593999997E+02  0.45594000000E+02  0.51100000000E-03 0. -1.
         11   -1    0    0    0    0 -0.00000000000E+00 -0.00000000000E+00 -0.45593999997E+02  0.45594000000E+02  0.51100000000E-03 0.  1.
    9900012    2    1    2    0    0 -0.26458404934E+01  0.16318061573E+02 -0.27266113853E+02  0.59301943956E+02  0.49999999868E+02 0.  0.
         12    1    1    2    0    0  0.26458404934E+01 -0.16318061573E+02  0.27266113853E+02  0.31886056044E+02  0.00000000000E+00 0. -1.
         11    1    3    3    0    0 -0.25564684592E+02  0.53329729365E+01 -0.16023395893E+02  0.30638911777E+02  0.51100000000E-03 0. -1.
        -11    1    3    3    0    0  0.21110433438E+01 -0.76845096040E+00 -0.21021722992E+01  0.30767108273E+01  0.51100000000E-03 0.  1.
         12    1    3    3    0    0  0.20807800755E+02  0.11753539597E+02 -0.91405456606E+01  0.25586321351E+02  0.00000000000E+00 0. -1.
</event>
<event>
 7    1  0.4673733E-013  0.5930195E+02  0.7816164E-02  0.1266605E+00
        -11   -1    0    0    0    0  0.00000000000E+00  0.00000000000E+00  0.45593999997E+02  0.45594000000E+02  0.51100000000E-03 0.  1.
         11   -1    0    0    0    0 -0.00000000000E+00 -0.00000000000E+00 -0.45593999997E+02  0.45594000000E+02  0.51100000000E-03 0. -1.
    9900012    2    1    2    0    0  0.21553953669E+02  0.43394018181E+01  0.23093656514E+02  0.59301948221E+02  0.50000007647E+02 0.  0.
         12    1    1    2    0    0 -0.21553953669E+02 -0.43394018181E+01 -0.23093656514E+02  0.31886051779E+02  0.00000000000E+00 0. -1.
         11    1    3    3    0    0 -0.11493571627E+01  0.57533699336E+00 -0.17884716874E+01  0.22024227072E+01  0.51100000000E-03 0. -1.
        -11    1    3    3    0    0  0.11226356620E+02 -0.17316473080E+02  0.25850420292E+02  0.33077719880E+02  0.51100000000E-03 0.  1.
        -12    1    3    3    0    0  0.11476954212E+02  0.21080537905E+02 -0.96829209141E+00  0.24021805634E+02  0.00000000000E+00 0.  1.
</event>
<event>
 7    1  0.4673733E-013  0.5930197E+02  0.7816164E-02  0.1266605E+00
        -11   -1    0    0    0    0  0.00000000000E+00  0.00000000000E+00  0.45593999997E+02  0.45594000000E+02  0.51100000000E-03 0.  1.
         11   -1    0    0    0    0 -0.00000000000E+00 -0.00000000000E+00 -0.45593999997E+02  0.45594000000E+02  0.51100000000E-03 0. -1.
    9900012    2    1    2    0    0 -0.12483287568E+02 -0.21239854410E+02  0.20242414374E+02  0.59301965070E+02  0.50000038376E+02 0.  0.
         12    1    1    2    0    0  0.12483287568E+02  0.21239854410E+02 -0.20242414374E+02  0.31886034930E+02  0.00000000000E+00 0. -1.
         11    1    3    3    0    0  0.11442593914E+02  0.18100624452E+01  0.10872093853E+01  0.11635776985E+02  0.51100000000E-03 0. -1.
        -11    1    3    3    0    0 -0.14598875654E+02 -0.16865548670E+02  0.26225402717E+02  0.34428849098E+02  0.51100000000E-03 0.  1.
         12    1    3    3    0    0 -0.93270058276E+01 -0.61843681851E+01 -0.70701977276E+01  0.13237338987E+02  0.00000000000E+00 0. -1.
</event>
<event>
 7    1  0.4673733E-013  0.5930195E+02  0.7816164E-02  0.1266605E+00
        -11   -1    0    0    0    0  0.00000000000E+00  0.00000000000E+00  0.45593999997E+02  0.45594000000E+02  0.51100000000E-03 0.  1.
         11   -1    0    0    0    0 -0.00000000000E+00 -0.00000000000E+00 -0.45593999997E+02  0.45594000000E+02  0.51100000000E-03 0. -1.
    9900012    2    1    2    0    0  0.17080123829E+02  0.24748961569E+02  0.10605597188E+02  0.59301946301E+02  0.50000004147E+02 0.  0.
         12    1    1    2    0    0 -0.17080123829E+02 -0.24748961569E+02 -0.10605597188E+02  0.31886053699E+02  0.00000000000E+00 0. -1.
         11    1    3    3    0    0  0.25586328132E+02  0.28265587490E+02  0.14220768106E+02  0.40691938627E+02  0.51100000000E-03 0. -1.
        -11    1    3    3    0    0  0.23883519814E+01 -0.27245556945E+01  0.39214374519E+01  0.53390168449E+01  0.51100000000E-03 0.  1.
         12    1    3    3    0    0 -0.10894556284E+02 -0.79207022676E+00 -0.75366083696E+01  0.13270990829E+02  0.00000000000E+00 0. -1.
</event>
<event>
 7    1  0.4673733E-013  0.5930195E+02  0.7816164E-02  0.1266605E+00
        -11   -1    0    0    0    0  0.00000000000E+00  0.00000000000E+00  0.45593999997E+02  0.45594000000E+02  0.51100000000E-03 0.  1.
         11   -1    0    0    0    0 -0.00000000000E+00 -0.00000000000E+00 -0.45593999997E+02  0.45594000000E+02  0.51100000000E-03 0. -1.
    9900012    2    1    2    0    0  0.14362674085E+02  0.14199313578E+02 -0.24674143716E+02  0.59301948488E+02  0.50000008134E+02 0.  0.
         12    1    1    2    0    0 -0.14362674085E+02 -0.14199313578E+02  0.24674143716E+02  0.31886051512E+02  0.00000000000E+00 0. -1.
         11    1    3    3    0    0  0.13170233518E+02 -0.78285748024E+00 -0.54023261620E+01  0.14256684221E+02  0.51100000000E-03 0. -1.
        -11    1    3    3    0    0  0.70745479500E+01  0.22242969417E+02  0.31560749072E+00  0.23343061615E+02  0.51100000000E-03 0.  1.
        -12    1    3    3    0    0 -0.58821073830E+01 -0.72607983592E+01 -0.19587425044E+02  0.21702202652E+02  0.00000000000E+00 0.  1.
</event>
<event>
 7    1  0.4673733E-013  0.5930201E+02  0.7816164E-02  0.1266605E+00
        -11   -1    0    0    0    0  0.00000000000E+00  0.00000000000E+00  0.45593999997E+02  0.45594000000E+02  0.51100000000E-03 0.  1.
         11   -1    0    0    0    0 -0.00000000000E+00 -0.00000000000E+00 -0.45593999997E+02  0.45594000000E+02  0.51100000000E-03 0. -1.
    9900012    2    1    2    0    0  0.10224251896E+02  0.28421597884E+02  0.10217320063E+02  0.59302012759E+02  0.50000125348E+02 0.  0.
         12    1    1    2    0    0 -0.10224251896E+02 -0.28421597884E+02 -0.10217320063E+02  0.31885987241E+02  0.00000000000E+00 0. -1.
         11    1    3    3    0    0  0.66883547217E+00 -0.60960630554E+01 -0.45800988360E+01  0.76541904388E+01  0.51100000000E-03 0. -1.
        -11    1    3    3    0    0  0.12537736119E+02  0.29386085708E+02 -0.37552310655E+01  0.32168907673E+02  0.51100000000E-03 0.  1.
        -12    1    3    3    0    0 -0.29823196959E+01  0.51315752311E+01  0.18552649964E+02  0.19478914647E+02  0.00000000000E+00 0.  1.
</event>
<event>
 7    1  0.4673733E-013  0.5930196E+02  0.7816164E-02  0.1266605E+00
        -11   -1    0    0    0    0  0.00000000000E+00  0.00000000000E+00  0.45593999997E+02  0.45594000000E+02  0.51100000000E-03 0. -1.
         11   -1    0    0    0    0 -0.00000000000E+00 -0.00000000000E+00 -0.45593999997E+02  0.45594000000E+02  0.51100000000E-03 0.  1.
    9900012    2    1    2    0    0 -0.29776120866E+02  0.86569165397E+01  0.74269613859E+01  0.59301963350E+02  0.50000035239E+02 0.  0.
         12    1    1    2    0    0  0.29776120866E+02 -0.86569165397E+01 -0.74269613859E+01  0.31886036650E+02  0.00000000000E+00 0. -1.
         11    1    3    3    0    0  0.40913114955E+01  0.12357463955E+01  0.20768147202E+02  0.21203344957E+02  0.51100000000E-03 0. -1.
        -11    1    3    3    0    0 -0.21626400266E+02  0.64051972142E+01 -0.12498955288E+02  0.25786655916E+02  0.51100000000E-03 0.  1.
        -12    1    3    3    0    0 -0.12241032096E+02  0.10159729299E+01 -0.84223052823E+00  0.12311962477E+02  0.00000000000E+00 0.  1.
</event>
<event>
 7    1  0.4673733E-013  0.5930195E+02  0.7816164E-02  0.1266605E+00
        -11   -1    0    0    0    0  0.00000000000E+00  0.00000000000E+00  0.45593999997E+02  0.45594000000E+02  0.51100000000E-03 0.  1.
         11   -1    0    0    0    0 -0.00000000000E+00 -0.00000000000E+00 -0.45593999997E+02  0.45594000000E+02  0.51100000000E-03 0. -1.
    9900012    2    1    2    0    0 -0.30433535379E+02  0.42271965326E+01 -0.85235532931E+01  0.59301949337E+02  0.50000009682E+02 0.  0.
         12    1    1    2    0    0  0.30433535379E+02 -0.42271965326E+01  0.85235532931E+01  0.31886050663E+02  0.00000000000E+00 0. -1.
         11    1    3    3    0    0 -0.17851142162E+02 -0.13294621367E+02 -0.25717070622E+01  0.22405890102E+02  0.51100000000E-03 0. -1.
        -11    1    3    3    0    0  0.46284424674E+00  0.19857172741E+02  0.40767809759E+01  0.20276628848E+02  0.51100000000E-03 0.  1.
        -12    1    3    3    0    0 -0.13045237464E+02 -0.23353548416E+01 -0.10028627207E+02  0.16619430387E+02  0.00000000000E+00 0.  1.
</event>
<event>
 7    1  0.4673733E-013  0.5930177E+02  0.7816164E-02  0.1266605E+00
        -11   -1    0    0    0    0  0.00000000000E+00  0.00000000000E+00  0.45593999997E+02  0.45594000000E+02  0.51100000000E-03 0.  1.
         11   -1    0    0    0    0 -0.00000000000E+00 -0.00000000000E+00 -0.45593999997E+02  0.45594000000E+02  0.51100000000E-03 0. -1.
    9900012    2    1    2    0    0  0.23523735986E+00  0.11930090526E+02  0.29569394713E+02  0.59301772562E+02  0.49999687286E+02 0.  0.
         12    1    1    2    0    0 -0.23523735986E+00 -0.11930090526E+02 -0.29569394713E+02  0.31886227438E+02  0.00000000000E+00 0. -1.
         11    1    3    3    0    0  0.52398863812E-01  0.10698050563E+02 -0.30490474051E+01  0.11124195334E+02  0.51100000000E-03 0. -1.
        -11    1    3    3    0    0  0.21851909559E+01  0.51104016058E+01  0.39575934456E+02  0.39964307230E+02  0.51100000000E-03 0.  1.
        -12    1    3    3    0    0 -0.20023524598E+01 -0.38783616429E+01 -0.69574923382E+01  0.82132699969E+01  0.00000000000E+00 0.  1.
</event>
<event>
 7    1  0.4673733E-013  0.5930191E+02  0.7816164E-02  0.1266605E+00
        -11   -1    0    0    0    0  0.00000000000E+00  0.00000000000E+00  0.45593999997E+02  0.45594000000E+02  0.51100000000E-03 0. -1.
         11   -1    0    0    0    0 -0.00000000000E+00 -0.00000000000E+00 -0.45593999997E+02  0.45594000000E+02  0.51100000000E-03 0.  1.
    9900012    2    1    2    0    0 -0.15350491720E+02  0.58376445094E+01 -0.27331433699E+02  0.59301906519E+02  0.49999931592E+02 0.  0.
         12    1    1    2    0    0  0.15350491720E+02 -0.58376445094E+01  0.27331433699E+02  0.31886093481E+02  0.00000000000E+00 0. -1.
         11    1    3    3    0    0 -0.15577751204E+02  0.22594877088E+02 -0.21029454462E+02  0.34575030852E+02  0.51100000000E-03 0. -1.
        -11    1    3    3    0    0 -0.71283275538E+01 -0.13257267453E+02 -0.11664001012E+01  0.15097307161E+02  0.51100000000E-03 0.  1.
        -12    1    3    3    0    0  0.73555870380E+01 -0.34999651249E+01 -0.51355791355E+01  0.96295685057E+01  0.00000000000E+00 0.  1.
</event>
<event>
 7    1  0.4673733E-013  0.5930197E+02  0.7816164E-02  0.1266605E+00
        -11   -1    0    0    0    0  0.00000000000E+00  0.00000000000E+00  0.45593999997E+02  0.45594000000E+02  0.51100000000E-03 0.  1.
         11   -1    0    0    0    0 -0.00000000000E+00 -0.00000000000E+00 -0.45593999997E+02  0.45594000000E+02  0.51100000000E-03 0. -1.
    9900012    2    1    2    0    0  0.14162414840E+02  0.46384886710E+01  0.28189175197E+02  0.59301965917E+02  0.50000039922E+02 0.  0.
         12    1    1    2    0    0 -0.14162414840E+02 -0.46384886710E+01 -0.28189175197E+02  0.31886034083E+02  0.00000000000E+00 0. -1.
         11    1    3    3    0    0  0.16616348902E+01  0.19523385692E+02  0.18956238996E+02  0.27262843148E+02  0.51100000000E-03 0. -1.
        -11    1    3    3    0    0  0.12418269837E+02 -0.10614355699E+02  0.16747372795E+02  0.23395565145E+02  0.51100000000E-03 0.  1.
         12    1    3    3    0    0  0.82510112034E-01 -0.42705413221E+01 -0.75144365933E+01  0.86435576250E+01  0.00000000000E+00 0. -1.
</event>
<event>
 7    1  0.4673733E-013  0.5930194E+02  0.7816164E-02  0.1266605E+00
        -11   -1    0    0    0    0  0.00000000000E+00  0.00000000000E+00  0.45593999997E+02  0.45594000000E+02  0.51100000000E-03 0.  1.
         11   -1    0    0    0    0 -0.00000000000E+00 -0.00000000000E+00 -0.45593999997E+02  0.45594000000E+02  0.51100000000E-03 0. -1.
    9900012    2    1    2    0    0 -0.17692568517E+02 -0.10108696650E+02  0.24525656207E+02  0.59301944410E+02  0.50000000697E+02 0.  0.
         12    1    1    2    0    0  0.17692568517E+02  0.10108696650E+02 -0.24525656207E+02  0.31886055590E+02  0.00000000000E+00 0. -1.
         11    1    3    3    0    0 -0.15831354892E+02  0.91625728133E+01 -0.71561522592E+01  0.19641666266E+02  0.51100000000E-03 0. -1.
        -11    1    3    3    0    0  0.10588541741E+01 -0.19037903873E+02  0.20064632196E+02  0.27679458475E+02  0.51100000000E-03 0.  1.
        -12    1    3    3    0    0 -0.29200677990E+01 -0.23336558989E+00  0.11617176271E+02  0.11980819669E+02  0.00000000000E+00 0.  1.
</event>
<event>
 7    1  0.4673733E-013  0.5930195E+02  0.7816164E-02  0.1266605E+00
        -11   -1    0    0    0    0  0.00000000000E+00  0.00000000000E+00  0.45593999997E+02  0.45594000000E+02  0.51100000000E-03 0.  1.
         11   -1    0    0    0    0 -0.00000000000E+00 -0.00000000000E+00 -0.45593999997E+02  0.45594000000E+02  0.51100000000E-03 0. -1.
    9900012    2    1    2    0    0 -0.15129747656E+02 -0.20017457533E+02  0.19675170455E+02  0.59301949716E+02  0.50000010375E+02 0.  0.
         12    1    1    2    0    0  0.15129747656E+02  0.20017457533E+02 -0.19675170455E+02  0.31886050284E+02  0.00000000000E+00 0. -1.
         11    1    3    3    0    0 -0.43339385484E+01  0.10697824043E+02  0.37159176962E+01  0.12125778622E+02  0.51100000000E-03 0. -1.
        -11    1    3    3    0    0 -0.16234747763E+02 -0.19658063825E+02 -0.18020851601E+01  0.25558834470E+02  0.51100000000E-03 0.  1.
         12    1    3    3    0    0  0.54389386547E+01 -0.11057217751E+02  0.17761337919E+02  0.21617336625E+02  0.00000000000E+00 0. -1.
</event>
<event>
 7    1  0.4673733E-013  0.5930200E+02  0.7816164E-02  0.1266605E+00
        -11   -1    0    0    0    0  0.00000000000E+00  0.00000000000E+00  0.45593999997E+02  0.45594000000E+02  0.51100000000E-03 0.  1.
         11   -1    0    0    0    0 -0.00000000000E+00 -0.00000000000E+00 -0.45593999997E+02  0.45594000000E+02  0.51100000000E-03 0. -1.
    9900012    2    1    2    0    0  0.29434813795E+02 -0.88721276995E+01  0.84613451237E+01  0.59301995635E+02  0.50000094119E+02 0.  0.
         12    1    1    2    0    0 -0.29434813795E+02  0.88721276995E+01 -0.84613451237E+01  0.31886004365E+02  0.00000000000E+00 0. -1.
         11    1    3    3    0    0  0.17109909223E+02  0.49726019177E+01  0.10233798524E+02  0.20547661569E+02  0.51100000000E-03 0.  1.
        -11    1    3    3    0    0  0.11681968145E+02 -0.24121955503E+02 -0.62576068051E+01  0.27522622699E+02  0.51100000000E-03 0. -1.
         12    1    3    3    0    0  0.64293642717E+00  0.10277225886E+02  0.44851534044E+01  0.11231711367E+02  0.00000000000E+00 0. -1.
</event>
<event>
 7    1  0.4673733E-013  0.5930197E+02  0.7816164E-02  0.1266605E+00
        -11   -1    0    0    0    0  0.00000000000E+00  0.00000000000E+00  0.45593999997E+02  0.45594000000E+02  0.51100000000E-03 0.  1.
         11   -1    0    0    0    0 -0.00000000000E+00 -0.00000000000E+00 -0.45593999997E+02  0.45594000000E+02  0.51100000000E-03 0. -1.
    9900012    2    1    2    0    0 -0.23858343042E+02 -0.17429232960E+02  0.11988334234E+02  0.59301970896E+02  0.50000049001E+02 0.  0.
         12    1    1    2    0    0  0.23858343042E+02  0.17429232960E+02 -0.11988334234E+02  0.31886029104E+02  0.00000000000E+00 0. -1.
         11    1    3    3    0    0 -0.50203632216E+01  0.13387846050E+02  0.71328627727E+01  0.15978616972E+02  0.51100000000E-03 0. -1.
        -11    1    3    3    0    0 -0.17326802525E+02 -0.62512841461E+01  0.14559858599E+01  0.18477460169E+02  0.51100000000E-03 0.  1.
         12    1    3    3    0    0 -0.15111772958E+01 -0.24565794865E+02  0.33994856019E+01  0.24845893755E+02  0.00000000000E+00 0. -1.
</event>
<event>
 7    1  0.4673733E-013  0.5930194E+02  0.7816164E-02  0.1266605E+00
        -11   -1    0    0    0    0  0.00000000000E+00  0.00000000000E+00  0.45593999997E+02  0.45594000000E+02  0.51100000000E-03 0.  1.
         11   -1    0    0    0    0 -0.00000000000E+00 -0.00000000000E+00 -0.45593999997E+02  0.45594000000E+02  0.51100000000E-03 0. -1.
    9900012    2    1    2    0    0 -0.12249104805E+02 -0.16636016784E+02  0.24288329135E+02  0.59301944190E+02  0.50000000296E+02 0.  0.
         12    1    1    2    0    0  0.12249104805E+02  0.16636016784E+02 -0.24288329135E+02  0.31886055810E+02  0.00000000000E+00 0. -1.
         11    1    3    3    0    0 -0.24779523244E+02 -0.10825973528E+02  0.65298749695E+01  0.27818442487E+02  0.51100000000E-03 0. -1.
        -11    1    3    3    0    0  0.15122358791E+02 -0.65832868585E+01  0.33584303667E+01  0.16831650425E+02  0.51100000000E-03 0.  1.
        -12    1    3    3    0    0 -0.25919403514E+01  0.77324360255E+00  0.14400023799E+02  0.14651851278E+02  0.00000000000E+00 0.  1.
</event>
<event>
 7    1  0.4673733E-013  0.5930208E+02  0.7816164E-02  0.1266604E+00
        -11   -1    0    0    0    0  0.00000000000E+00  0.00000000000E+00  0.45593999997E+02  0.45594000000E+02  0.51100000000E-03 0.  1.
         11   -1    0    0    0    0 -0.00000000000E+00 -0.00000000000E+00 -0.45593999997E+02  0.45594000000E+02  0.51100000000E-03 0. -1.
    9900012    2    1    2    0    0 -0.13753058854E+02  0.28476120015E+01  0.28626151827E+02  0.59302076925E+02  0.50000242371E+02 0.  0.
         12    1    1    2    0    0  0.13753058854E+02 -0.28476120015E+01 -0.28626151827E+02  0.31885923075E+02  0.00000000000E+00 0. -1.
         11    1    3    3    0    0 -0.92784922593E+01 -0.97645256922E+00 -0.87412972751E+00  0.93705912976E+01  0.51100000000E-03 0. -1.
        -11    1    3    3    0    0  0.96420689106E+01 -0.51456324115E+01  0.31258490709E+02  0.33114049397E+02  0.51100000000E-03 0.  1.
        -12    1    3    3    0    0 -0.14116635505E+02  0.89696969822E+01 -0.17582091541E+01  0.16817436230E+02  0.00000000000E+00 0.  1.
</event>
<event>
 7    1  0.4673733E-013  0.5930199E+02  0.7816164E-02  0.1266605E+00
        -11   -1    0    0    0    0  0.00000000000E+00  0.00000000000E+00  0.45593999997E+02  0.45594000000E+02  0.51100000000E-03 0. -1.
         11   -1    0    0    0    0 -0.00000000000E+00 -0.00000000000E+00 -0.45593999997E+02  0.45594000000E+02  0.51100000000E-03 0.  1.
    9900012    2    1    2    0    0  0.21970490692E+02  0.81525330523E+01 -0.21622931136E+02  0.59301993550E+02  0.50000090317E+02 0.  0.
         12    1    1    2    0    0 -0.21970490692E+02 -0.81525330523E+01  0.21622931136E+02  0.31886006450E+02  0.00000000000E+00 0. -1.
         11    1    3    3    0    0  0.85133757508E+01  0.95458216816E+01  0.14538981267E+02  0.19364458546E+02  0.51100000000E-03 0. -1.
        -11    1    3    3    0    0  0.43149797745E+01 -0.44651137430E+01 -0.77341546589E+01  0.99183385575E+01  0.51100000000E-03 0.  1.
         12    1    3    3    0    0  0.91421351664E+01  0.30718251136E+01 -0.28427757744E+02  0.30019196446E+02  0.00000000000E+00 0. -1.
</event>
<event>
 7    1  0.4673733E-013  0.5930195E+02  0.7816164E-02  0.1266605E+00
        -11   -1    0    0    0    0  0.00000000000E+00  0.00000000000E+00  0.45593999997E+02  0.45594000000E+02  0.51100000000E-03 0.  1.
         11   -1    0    0    0    0 -0.00000000000E+00 -0.00000000000E+00 -0.45593999997E+02  0.45594000000E+02  0.51100000000E-03 0. -1.
    9900012    2    1    2    0    0 -0.49114586157E+01  0.30936564895E+02  0.59604464589E+01  0.59301946698E+02  0.50000004869E+02 0.  0.
         12    1    1    2    0    0  0.49114586157E+01 -0.30936564895E+02 -0.59604464589E+01  0.31886053302E+02  0.00000000000E+00 0. -1.
         11    1    3    3    0    0  0.69236746220E+01 -0.15078972811E+01  0.12872058004E+02  0.14693566687E+02  0.51100000000E-03 0. -1.
        -11    1    3    3    0    0 -0.14205442415E+02  0.30468295210E+02  0.34530836694E+01  0.33794014178E+02  0.51100000000E-03 0.  1.
        -12    1    3    3    0    0  0.23703091777E+01  0.19761669661E+01 -0.10364695214E+02  0.10814365832E+02  0.00000000000E+00 0.  1.
</event>
<event>
 7    1  0.4673733E-013  0.5930200E+02  0.7816164E-02  0.1266605E+00
        -11   -1    0    0    0    0  0.00000000000E+00  0.00000000000E+00  0.45593999997E+02  0.45594000000E+02  0.51100000000E-03 0. -1.
         11   -1    0    0    0    0 -0.00000000000E+00 -0.00000000000E+00 -0.45593999997E+02  0.45594000000E+02  0.51100000000E-03 0.  1.
    9900012    2    1    2    0    0 -0.17502371626E+02  0.95782804273E+01 -0.24872487975E+02  0.59301997953E+02  0.50000098347E+02 0.  0.
         12    1    1    2    0    0  0.17502371626E+02 -0.95782804273E+01  0.24872487975E+02  0.31886002047E+02  0.00000000000E+00 0. -1.
         11    1    3    3    0    0 -0.53269284784E+01 -0.11958933117E+02 -0.13092090230E+02  0.18514725900E+02  0.51100000000E-03 0. -1.
        -11    1    3    3    0    0 -0.97535173835E+00  0.22209193264E+02 -0.17407471771E+02  0.28235078364E+02  0.51100000000E-03 0.  1.
        -12    1    3    3    0    0 -0.11200091409E+02 -0.67197972010E+00  0.56270740268E+01  0.12552193689E+02  0.00000000000E+00 0.  1.
</event>
<event>
 7    1  0.4673733E-013  0.5930195E+02  0.7816164E-02  0.1266605E+00
        -11   -1    0    0    0    0  0.00000000000E+00  0.00000000000E+00  0.45593999997E+02  0.45594000000E+02  0.51100000000E-03 0.  1.
         11   -1    0    0    0    0 -0.00000000000E+00 -0.00000000000E+00 -0.45593999997E+02  0.45594000000E+02  0.51100000000E-03 0. -1.
    9900012    2    1    2    0    0 -0.46043459475E+01 -0.26438535987E+02  0.17219873155E+02  0.59301949473E+02  0.50000009932E+02 0.  0.
         12    1    1    2    0    0  0.46043459475E+01  0.26438535987E+02 -0.17219873155E+02  0.31886050527E+02  0.00000000000E+00 0. -1.
         11    1    3    3    0    0  0.26974708808E+01 -0.16825395483E+02 -0.12573566432E+02  0.21176988818E+02  0.51100000000E-03 0. -1.
        -11    1    3    3    0    0 -0.64918500605E+01 -0.15594495905E+02  0.16929222104E+02  0.23915078529E+02  0.51100000000E-03 0.  1.
        -12    1    3    3    0    0 -0.80996676782E+00  0.59813554017E+01  0.12864217482E+02  0.14209882126E+02  0.00000000000E+00 0.  1.
</event>
<event>
 7    1  0.4673733E-013  0.5930194E+02  0.7816164E-02  0.1266605E+00
        -11   -1    0    0    0    0  0.00000000000E+00  0.00000000000E+00  0.45593999997E+02  0.45594000000E+02  0.51100000000E-03 0. -1.
         11   -1    0    0    0    0 -0.00000000000E+00 -0.00000000000E+00 -0.45593999997E+02  0.45594000000E+02  0.51100000000E-03 0.  1.
    9900012    2    1    2    0    0  0.14536993271E+02  0.28365937415E+01 -0.28237387779E+02  0.59301944960E+02  0.50000001700E+02 0.  0.
         12    1    1    2    0    0 -0.14536993271E+02 -0.28365937415E+01  0.28237387779E+02  0.31886055040E+02  0.00000000000E+00 0. -1.
         11    1    3    3    0    0  0.10569116721E+02  0.13579288294E+02  0.32084178826E+01  0.17504206477E+02  0.51100000000E-03 0. -1.
        -11    1    3    3    0    0 -0.94325244631E+01 -0.40371189529E+00 -0.17429352438E+02  0.19822154971E+02  0.51100000000E-03 0.  1.
         12    1    3    3    0    0  0.13400401013E+02 -0.10338982657E+02 -0.14016453224E+02  0.21975583511E+02  0.00000000000E+00 0. -1.
</event>
<event>
 7    1  0.4673733E-013  0.5930195E+02  0.7816164E-02  0.1266605E+00
        -11   -1    0    0    0    0  0.00000000000E+00  0.00000000000E+00  0.45593999997E+02  0.45594000000E+02  0.51100000000E-03 0. -1.
         11   -1    0    0    0    0 -0.00000000000E+00 -0.00000000000E+00 -0.45593999997E+02  0.45594000000E+02  0.51100000000E-03 0.  1.
    9900012    2    1    2    0    0  0.42497785901E+01 -0.18901363955E+02 -0.25325837004E+02  0.59301949799E+02  0.50000010526E+02 0.  0.
         12    1    1    2    0    0 -0.42497785901E+01  0.18901363955E+02  0.25325837004E+02  0.31886050201E+02  0.00000000000E+00 0. -1.
         11    1    3    3    0    0 -0.21030094798E+01 -0.20325257578E+01  0.11969210693E+02  0.12321356041E+02  0.51100000000E-03 0. -1.
        -11    1    3    3    0    0  0.13440425070E+02 -0.16740247841E+02 -0.27410401400E+02  0.34816821064E+02  0.51100000000E-03 0.  1.
         12    1    3    3    0    0 -0.70876370004E+01 -0.12859035643E+00 -0.98846462975E+01  0.12163772694E+02  0.00000000000E+00 0. -1.
</event>
<event>
 7    1  0.4673733E-013  0.5930182E+02  0.7816164E-02  0.1266605E+00
        -11   -1    0    0    0    0  0.00000000000E+00  0.00000000000E+00  0.45593999997E+02  0.45594000000E+02  0.51100000000E-03 0.  1.
         11   -1    0    0    0    0 -0.00000000000E+00 -0.00000000000E+00 -0.45593999997E+02  0.45594000000E+02  0.51100000000E-03 0. -1.
    9900012    2    1    2    0    0 -0.14065518972E+02 -0.93980834264E+01  0.27028977635E+02  0.59301820736E+02  0.49999775146E+02 0.  0.
         12    1    1    2    0    0  0.14065518972E+02  0.93980834264E+01 -0.27028977635E+02  0.31886179264E+02  0.00000000000E+00 0. -1.
         11    1    3    3    0    0 -0.78942980569E+01  0.20222903558E+01 -0.11581347830E+01  0.82310920619E+01  0.51100000000E-03 0. -1.
        -11    1    3    3    0    0 -0.17554645933E+02 -0.16071672991E+02  0.30366328517E+02  0.38582096553E+02  0.51100000000E-03 0.  1.
        -12    1    3    3    0    0  0.11383425018E+02  0.46512992089E+01 -0.21792160990E+01  0.12488632122E+02  0.00000000000E+00 0.  1.
</event>
<event>
 7    1  0.4673733E-013  0.5930194E+02  0.7816164E-02  0.1266605E+00
        -11   -1    0    0    0    0  0.00000000000E+00  0.00000000000E+00  0.45593999997E+02  0.45594000000E+02  0.51100000000E-03 0.  1.
         11   -1    0    0    0    0 -0.00000000000E+00 -0.00000000000E+00 -0.45593999997E+02  0.45594000000E+02  0.51100000000E-03 0. -1.
    9900012    2    1    2    0    0  0.43304748615E+01  0.19473255053E+02  0.24874891912E+02  0.59301938428E+02  0.49999989788E+02 0.  0.
         12    1    1    2    0    0 -0.43304748615E+01 -0.19473255053E+02 -0.24874891912E+02  0.31886061572E+02  0.00000000000E+00 0. -1.
         11    1    3    3    0    0  0.93901372431E+01 -0.13952872731E+02 -0.61408382259E+00  0.16829570229E+02  0.51100000000E-03 0. -1.
        -11    1    3    3    0    0 -0.41204880107E+01  0.31975388135E+02  0.24359904752E+02  0.40408029247E+02  0.51100000000E-03 0.  1.
        -12    1    3    3    0    0 -0.93917437080E+00  0.14507396488E+01  0.11290709830E+01  0.20643389528E+01  0.00000000000E+00 0.  1.
</event>
<event>
 7    1  0.4673733E-013  0.5930197E+02  0.7816164E-02  0.1266605E+00
        -11   -1    0    0    0    0  0.00000000000E+00  0.00000000000E+00  0.45593999997E+02  0.45594000000E+02  0.51100000000E-03 0. -1.
         11   -1    0    0    0    0 -0.00000000000E+00 -0.00000000000E+00 -0.45593999997E+02  0.45594000000E+02  0.51100000000E-03 0.  1.
    9900012    2    1    2    0    0  0.90857835906E+01  0.12234001435E+02 -0.28008866410E+02  0.59301970894E+02  0.50000048998E+02 0.  0.
         12    1    1    2    0    0 -0.90857835906E+01 -0.12234001435E+02  0.28008866410E+02  0.31886029106E+02  0.00000000000E+00 0. -1.
         11    1    3    3    0    0  0.12001647387E+02 -0.10320875868E+02 -0.11012196241E+01  0.15867347088E+02  0.51100000000E-03 0. -1.
        -11    1    3    3    0    0  0.22432375931E+01  0.20401869488E+01 -0.21348659984E+02  0.21562925615E+02  0.51100000000E-03 0.  1.
         12    1    3    3    0    0 -0.51591013900E+01  0.20514690354E+02 -0.55589868018E+01  0.21871698191E+02  0.00000000000E+00 0. -1.
</event>
<event>
 7    1  0.4673733E-013  0.5930194E+02  0.7816164E-02  0.1266605E+00
        -11   -1    0    0    0    0  0.00000000000E+00  0.00000000000E+00  0.45593999997E+02  0.45594000000E+02  0.51100000000E-03 0.  1.
         11   -1    0    0    0    0 -0.00000000000E+00 -0.00000000000E+00 -0.45593999997E+02  0.45594000000E+02  0.51100000000E-03 0. -1.
    9900012    2    1    2    0    0 -0.12680061086E+02 -0.25642343838E+02  0.14085696525E+02  0.59301943592E+02  0.49999999205E+02 0.  0.
         12    1    1    2    0    0  0.12680061086E+02  0.25642343838E+02 -0.14085696525E+02  0.31886056408E+02  0.00000000000E+00 0. -1.
         11    1    3    3    0    0 -0.66908008084E+01 -0.89126919383E+01 -0.13537364917E+02  0.17534626948E+02  0.51100000000E-03 0. -1.
        -11    1    3    3    0    0  0.97363956854E+00 -0.22346431473E+02  0.19143636638E+02  0.29441294088E+02  0.51100000000E-03 0.  1.
        -12    1    3    3    0    0 -0.69628998457E+01  0.56167795734E+01  0.84794248040E+01  0.12326022556E+02  0.00000000000E+00 0.  1.
</event>
<event>
 7    1  0.4673733E-013  0.5930196E+02  0.7816164E-02  0.1266605E+00
        -11   -1    0    0    0    0  0.00000000000E+00  0.00000000000E+00  0.45593999997E+02  0.45594000000E+02  0.51100000000E-03 0.  1.
         11   -1    0    0    0    0 -0.00000000000E+00 -0.00000000000E+00 -0.45593999997E+02  0.45594000000E+02  0.51100000000E-03 0. -1.
    9900012    2    1    2    0    0  0.21363317947E+02 -0.64165750941E+01  0.22784990329E+02  0.59301959576E+02  0.50000028357E+02 0.  0.
         12    1    1    2    0    0 -0.21363317947E+02  0.64165750941E+01 -0.22784990329E+02  0.31886040424E+02  0.00000000000E+00 0. -1.
         11    1    3    3    0    0 -0.92616721393E+01  0.17280046721E+01 -0.29999981952E+01  0.98875962900E+01  0.51100000000E-03 0. -1.
        -11    1    3    3    0    0  0.25996877473E+02 -0.14609839003E+02  0.95092773150E+01  0.31300341681E+02  0.51100000000E-03 0.  1.
        -12    1    3    3    0    0  0.46281126126E+01  0.64652592367E+01  0.16275711209E+02  0.18114021605E+02  0.00000000000E+00 0.  1.
</event>
<event>
 7    1  0.4673733E-013  0.5930199E+02  0.7816164E-02  0.1266605E+00
        -11   -1    0    0    0    0  0.00000000000E+00  0.00000000000E+00  0.45593999997E+02  0.45594000000E+02  0.51100000000E-03 0. -1.
         11   -1    0    0    0    0 -0.00000000000E+00 -0.00000000000E+00 -0.45593999997E+02  0.45594000000E+02  0.51100000000E-03 0.  1.
    9900012    2    1    2    0    0 -0.19527437198E+01  0.31360816691E+02  0.54225304509E+01  0.59301986325E+02  0.50000077140E+02 0.  0.
         12    1    1    2    0    0  0.19527437198E+01 -0.31360816691E+02 -0.54225304509E+01  0.31886013675E+02  0.00000000000E+00 0. -1.
         11    1    3    3    0    0  0.36399662465E+01  0.12913725384E+02  0.79669669784E+01  0.15604045010E+02  0.51100000000E-03 0. -1.
        -11    1    3    3    0    0 -0.70269100093E+01 -0.98028429266E+01 -0.85459472401E+01  0.14781962259E+02  0.51100000000E-03 0.  1.
        -12    1    3    3    0    0  0.14342000430E+01  0.28249934233E+02  0.60015107126E+01  0.28915979056E+02  0.00000000000E+00 0.  1.
</event>
<event>
 7    1  0.4673733E-013  0.5930196E+02  0.7816164E-02  0.1266605E+00
        -11   -1    0    0    0    0  0.00000000000E+00  0.00000000000E+00  0.45593999997E+02  0.45594000000E+02  0.51100000000E-03 0. -1.
         11   -1    0    0    0    0 -0.00000000000E+00 -0.00000000000E+00 -0.45593999997E+02  0.45594000000E+02  0.51100000000E-03 0.  1.
    9900012    2    1    2    0    0  0.22070194972E+01 -0.23450605120E+02 -0.21492276993E+02  0.59301956252E+02  0.50000022295E+02 0.  0.
         12    1    1    2    0    0 -0.22070194972E+01  0.23450605120E+02  0.21492276993E+02  0.31886043748E+02  0.00000000000E+00 0. -1.
         11    1    3    3    0    0 -0.12606265781E+01  0.47319194179E+01  0.38825707388E+01  0.62493676920E+01  0.51100000000E-03 0. -1.
        -11    1    3    3    0    0 -0.79806829950E+01 -0.32594602548E+02 -0.14133416911E+02  0.36412262909E+02  0.51100000000E-03 0.  1.
        -12    1    3    3    0    0  0.11448329070E+02  0.44120780108E+01 -0.11241430821E+02  0.16640325651E+02  0.00000000000E+00 0.  1.
</event>
<event>
 7    1  0.4673733E-013  0.5930195E+02  0.7816164E-02  0.1266605E+00
        -11   -1    0    0    0    0  0.00000000000E+00  0.00000000000E+00  0.45593999997E+02  0.45594000000E+02  0.51100000000E-03 0.  1.
         11   -1    0    0    0    0 -0.00000000000E+00 -0.00000000000E+00 -0.45593999997E+02  0.45594000000E+02  0.51100000000E-03 0. -1.
    9900012    2    1    2    0    0  0.46452675857E+01  0.11627439044E+02  0.29324811205E+02  0.59301946593E+02  0.50000004679E+02 0.  0.
         12    1    1    2    0    0 -0.46452675857E+01 -0.11627439044E+02 -0.29324811205E+02  0.31886053407E+02  0.00000000000E+00 0. -1.
         11    1    3    3    0    0  0.10491601862E+01 -0.34063032989E+01  0.38492061473E+02  0.38656725624E+02  0.51100000000E-03 0.  1.
        -11    1    3    3    0    0  0.42367339164E+01  0.74749317804E+01 -0.97997124570E+01  0.13032992132E+02  0.51100000000E-03 0. -1.
        -12    1    3    3    0    0 -0.64062651695E+00  0.75588105629E+01  0.63246218869E+00  0.76122288379E+01  0.00000000000E+00 0.  1.
</event>
<event>
 7    1  0.4673733E-013  0.5930194E+02  0.7816164E-02  0.1266605E+00
        -11   -1    0    0    0    0  0.00000000000E+00  0.00000000000E+00  0.45593999997E+02  0.45594000000E+02  0.51100000000E-03 0. -1.
         11   -1    0    0    0    0 -0.00000000000E+00 -0.00000000000E+00 -0.45593999997E+02  0.45594000000E+02  0.51100000000E-03 0.  1.
    9900012    2    1    2    0    0  0.20387258651E+02 -0.21350094754E+02 -0.12052133136E+02  0.59301940751E+02  0.49999994023E+02 0.  0.
         12    1    1    2    0    0 -0.20387258651E+02  0.21350094754E+02  0.12052133136E+02  0.31886059249E+02  0.00000000000E+00 0. -1.
         11    1    3    3    0    0  0.71600067866E+01 -0.19285324698E+00  0.89539773565E+01  0.11466324621E+02  0.51100000000E-03 0. -1.
        -11    1    3    3    0    0  0.93437890722E+01 -0.12603262160E+02 -0.30612845417E+02  0.34399054000E+02  0.51100000000E-03 0.  1.
         12    1    3    3    0    0  0.38834627927E+01 -0.85539793476E+01  0.96067349249E+01  0.13436562129E+02  0.00000000000E+00 0. -1.
</event>
<event>
 7    1  0.4673733E-013  0.5930166E+02  0.7816164E-02  0.1266606E+00
        -11   -1    0    0    0    0  0.00000000000E+00  0.00000000000E+00  0.45593999997E+02  0.45594000000E+02  0.51100000000E-03 0. -1.
         11   -1    0    0    0    0 -0.00000000000E+00 -0.00000000000E+00 -0.45593999997E+02  0.45594000000E+02  0.51100000000E-03 0.  1.
    9900012    2    1    2    0    0  0.18083580864E+02  0.25730001945E+02 -0.52620782734E+01  0.59301664922E+02  0.49999490975E+02 0.  0.
         12    1    1    2    0    0 -0.18083580864E+02 -0.25730001945E+02  0.52620782734E+01  0.31886335078E+02  0.00000000000E+00 0. -1.
         11    1    3    3    0    0 -0.59337468916E+01 -0.19470981521E+01  0.13952338041E+02  0.15286212103E+02  0.51100000000E-03 0. -1.
        -11    1    3    3    0    0  0.24466746007E+02  0.19301126723E+02 -0.14233282271E+02  0.34259910645E+02  0.51100000000E-03 0.  1.
         12    1    3    3    0    0 -0.44941825181E+00  0.83759733743E+01 -0.49811340440E+01  0.97555421734E+01  0.00000000000E+00 0. -1.
</event>
<event>
 7    1  0.4673733E-013  0.5930191E+02  0.7816164E-02  0.1266605E+00
        -11   -1    0    0    0    0  0.00000000000E+00  0.00000000000E+00  0.45593999997E+02  0.45594000000E+02  0.51100000000E-03 0. -1.
         11   -1    0    0    0    0 -0.00000000000E+00 -0.00000000000E+00 -0.45593999997E+02  0.45594000000E+02  0.51100000000E-03 0.  1.
    9900012    2    1    2    0    0 -0.18048565801E+02  0.23803148406E+02 -0.11152659693E+02  0.59301914951E+02  0.49999946971E+02 0.  0.
         12    1    1    2    0    0  0.18048565801E+02 -0.23803148406E+02  0.11152659693E+02  0.31886085049E+02  0.00000000000E+00 0. -1.
         11    1    3    3    0    0  0.57386448231E+01 -0.56019452780E+01 -0.13446664561E+02  0.15656520155E+02  0.51100000000E-03 0. -1.
        -11    1    3    3    0    0 -0.27871126993E+02  0.23808175922E+02  0.20395374361E+01  0.36712241471E+02  0.51100000000E-03 0.  1.
         12    1    3    3    0    0  0.40839163693E+01  0.55969177621E+01  0.25446743136E+00  0.69331533245E+01  0.00000000000E+00 0. -1.
</event>
<event>
 7    1  0.4673733E-013  0.5930189E+02  0.7816164E-02  0.1266605E+00
        -11   -1    0    0    0    0  0.00000000000E+00  0.00000000000E+00  0.45593999997E+02  0.45594000000E+02  0.51100000000E-03 0.  1.
         11   -1    0    0    0    0 -0.00000000000E+00 -0.00000000000E+00 -0.45593999997E+02  0.45594000000E+02  0.51100000000E-03 0. -1.
    9900012    2    1    2    0    0  0.41581205121E+01  0.22228431145E+02  0.22479573134E+02  0.59301885065E+02  0.49999892466E+02 0.  0.
         12    1    1    2    0    0 -0.41581205121E+01 -0.22228431145E+02 -0.22479573134E+02  0.31886114935E+02  0.00000000000E+00 0. -1.
         11    1    3    3    0    0  0.77397952885E+01  0.14067280174E+02 -0.60216447636E+01  0.17147973890E+02  0.51100000000E-03 0. -1.
        -11    1    3    3    0    0 -0.15599530674E+02  0.45675291823E+01  0.23666448572E+02  0.28710772688E+02  0.51100000000E-03 0.  1.
        -12    1    3    3    0    0  0.12017855898E+02  0.35936217890E+01  0.48347693259E+01  0.13443138487E+02  0.00000000000E+00 0.  1.
</event>
<event>
 7    1  0.4673733E-013  0.5930192E+02  0.7816164E-02  0.1266605E+00
        -11   -1    0    0    0    0  0.00000000000E+00  0.00000000000E+00  0.45593999997E+02  0.45594000000E+02  0.51100000000E-03 0.  1.
         11   -1    0    0    0    0 -0.00000000000E+00 -0.00000000000E+00 -0.45593999997E+02  0.45594000000E+02  0.51100000000E-03 0. -1.
    9900012    2    1    2    0    0  0.12164190297E+02  0.79964436192E+00  0.29463788972E+02  0.59301924399E+02  0.49999964201E+02 0.  0.
         12    1    1    2    0    0 -0.12164190297E+02 -0.79964436192E+00 -0.29463788972E+02  0.31886075601E+02  0.00000000000E+00 0. -1.
         11    1    3    3    0    0  0.25071929622E+02 -0.10044511623E+02  0.21632699680E+02  0.34604444287E+02  0.51100000000E-03 0. -1.
        -11    1    3    3    0    0 -0.12898009697E+02  0.10729328063E+02  0.11936646989E+02  0.20590305399E+02  0.51100000000E-03 0.  1.
        -12    1    3    3    0    0 -0.97296288899E-02  0.11482792128E+00 -0.41055576969E+01  0.41071747126E+01  0.00000000000E+00 0.  1.
</event>
<event>
 7    1  0.4673733E-013  0.5930188E+02  0.7816164E-02  0.1266605E+00
        -11   -1    0    0    0    0  0.00000000000E+00  0.00000000000E+00  0.45593999997E+02  0.45594000000E+02  0.51100000000E-03 0.  1.
         11   -1    0    0    0    0 -0.00000000000E+00 -0.00000000000E+00 -0.45593999997E+02  0.45594000000E+02  0.51100000000E-03 0. -1.
    9900012    2    1    2    0    0 -0.23329652968E+02 -0.21701692303E+02  0.12199117379E+01  0.59301884823E+02  0.49999892025E+02 0.  0.
         12    1    1    2    0    0  0.23329652968E+02  0.21701692303E+02 -0.12199117379E+01  0.31886115177E+02  0.00000000000E+00 0. -1.
         11    1    3    3    0    0 -0.59855389184E+01 -0.13878774251E+02 -0.12638430496E+02  0.19702207402E+02  0.51100000000E-03 0. -1.
        -11    1    3    3    0    0 -0.18690927030E+02 -0.16234536150E+02  0.17518031329E+02  0.30328078395E+02  0.51100000000E-03 0.  1.
         12    1    3    3    0    0  0.13468129797E+01  0.84116180982E+01 -0.36596890947E+01  0.92715990262E+01  0.00000000000E+00 0. -1.
</event>
<event>
 7    1  0.4673733E-013  0.5930193E+02  0.7816164E-02  0.1266605E+00
        -11   -1    0    0    0    0  0.00000000000E+00  0.00000000000E+00  0.45593999997E+02  0.45594000000E+02  0.51100000000E-03 0.  1.
         11   -1    0    0    0    0 -0.00000000000E+00 -0.00000000000E+00 -0.45593999997E+02  0.45594000000E+02  0.51100000000E-03 0. -1.
    9900012    2    1    2    0    0 -0.24965445355E+02  0.13180276459E+02 -0.14823227737E+02  0.59301933610E+02  0.49999981000E+02 0.  0.
         12    1    1    2    0    0  0.24965445355E+02 -0.13180276459E+02  0.14823227737E+02  0.31886066390E+02  0.00000000000E+00 0. -1.
         11    1    3    3    0    0 -0.21397713753E+01  0.15305202939E+01 -0.59154055785E+01  0.64740356292E+01  0.51100000000E-03 0. -1.
        -11    1    3    3    0    0 -0.32602570274E+02 -0.39181731138E+01 -0.11011941413E+01  0.32855628100E+02  0.51100000000E-03 0.  1.
        -12    1    3    3    0    0  0.97768962944E+01  0.15567929279E+02 -0.78066280170E+01  0.19972269881E+02  0.00000000000E+00 0.  1.
</event>
<event>
 7    1  0.4673733E-013  0.5930193E+02  0.7816164E-02  0.1266605E+00
        -11   -1    0    0    0    0  0.00000000000E+00  0.00000000000E+00  0.45593999997E+02  0.45594000000E+02  0.51100000000E-03 0.  1.
         11   -1    0    0    0    0 -0.00000000000E+00 -0.00000000000E+00 -0.45593999997E+02  0.45594000000E+02  0.51100000000E-03 0. -1.
    9900012    2    1    2    0    0 -0.22214032855E+02 -0.21438233077E+02  0.79787415417E+01  0.59301930788E+02  0.49999975855E+02 0.  0.
         12    1    1    2    0    0  0.22214032855E+02  0.21438233077E+02 -0.79787415417E+01  0.31886069212E+02  0.00000000000E+00 0. -1.
         11    1    3    3    0    0 -0.17534792755E+02 -0.10424434491E+01 -0.10928669020E+02  0.20687954276E+02  0.51100000000E-03 0. -1.
        -11    1    3    3    0    0  0.32084286155E+01 -0.64284097812E+01  0.21223839202E+02  0.22406914496E+02  0.51100000000E-03 0.  1.
        -12    1    3    3    0    0 -0.78876687154E+01 -0.13967379847E+02 -0.23164286399E+01  0.16207062016E+02  0.00000000000E+00 0.  1.
</event>
<event>
 7    1  0.4673733E-013  0.5930214E+02  0.7816164E-02  0.1266604E+00
        -11   -1    0    0    0    0  0.00000000000E+00  0.00000000000E+00  0.45593999997E+02  0.45594000000E+02  0.51100000000E-03 0.  1.
         11   -1    0    0    0    0 -0.00000000000E+00 -0.00000000000E+00 -0.45593999997E+02  0.45594000000E+02  0.51100000000E-03 0. -1.
    9900012    2    1    2    0    0 -0.31729102412E+02  0.75305456581E+00  0.30667362168E+01  0.59302142600E+02  0.50000362148E+02 0.  0.
         12    1    1    2    0    0  0.31729102412E+02 -0.75305456581E+00 -0.30667362168E+01  0.31885857400E+02  0.00000000000E+00 0. -1.
         11    1    3    3    0    0  0.68113447094E+01 -0.86400693735E+01 -0.11094389191E+02  0.15624681991E+02  0.51100000000E-03 0. -1.
        -11    1    3    3    0    0 -0.16208566497E+02  0.13004255419E+01  0.48329036874E+00  0.16267830350E+02  0.51100000000E-03 0.  1.
         12    1    3    3    0    0 -0.22331880625E+02  0.80926983974E+01  0.13677835039E+02  0.27409630260E+02  0.00000000000E+00 0. -1.
</event>
<event>
 7    1  0.4673733E-013  0.5930204E+02  0.7816164E-02  0.1266604E+00
        -11   -1    0    0    0    0  0.00000000000E+00  0.00000000000E+00  0.45593999997E+02  0.45594000000E+02  0.51100000000E-03 0. -1.
         11   -1    0    0    0    0 -0.00000000000E+00 -0.00000000000E+00 -0.45593999997E+02  0.45594000000E+02  0.51100000000E-03 0.  1.
    9900012    2    1    2    0    0  0.29102371474E+01 -0.26818813580E+02 -0.16999880827E+02  0.59302043997E+02  0.50000182319E+02 0.  0.
         12    1    1    2    0    0 -0.29102371474E+01  0.26818813580E+02  0.16999880827E+02  0.31885956003E+02  0.00000000000E+00 0. -1.
         11    1    3    3    0    0 -0.17229269660E+02  0.14950800827E+01 -0.69597197333E+00  0.17308014753E+02  0.51100000000E-03 0. -1.
        -11    1    3    3    0    0  0.18625492111E+02 -0.14395386092E+02 -0.15044367035E+02  0.27936876648E+02  0.51100000000E-03 0.  1.
         12    1    3    3    0    0  0.15140146956E+01 -0.13918507570E+02 -0.12595418194E+01  0.14057152595E+02  0.00000000000E+00 0. -1.
</event>
<event>
 7    1  0.4673733E-013  0.5930198E+02  0.7816164E-02  0.1266605E+00
        -11   -1    0    0    0    0  0.00000000000E+00  0.00000000000E+00  0.45593999997E+02  0.45594000000E+02  0.51100000000E-03 0.  1.
         11   -1    0    0    0    0 -0.00000000000E+00 -0.00000000000E+00 -0.45593999997E+02  0.45594000000E+02  0.51100000000E-03 0. -1.
    9900012    2    1    2    0    0  0.40756451531E+01  0.66114824378E+00  0.31617558897E+02  0.59301983770E+02  0.50000072480E+02 0.  0.
         12    1    1    2    0    0 -0.40756451531E+01 -0.66114824378E+00 -0.31617558897E+02  0.31886016230E+02  0.00000000000E+00 0. -1.
         11    1    3    3    0    0  0.11178803232E+02  0.40154735469E+01  0.63739529782E+01  0.13480242814E+02  0.51100000000E-03 0. -1.
        -11    1    3    3    0    0 -0.13457359476E+02 -0.17851264259E+02  0.13536711965E+02  0.26134473991E+02  0.51100000000E-03 0.  1.
        -12    1    3    3    0    0  0.63542013978E+01  0.14496938955E+02  0.11706893954E+02  0.19687266964E+02  0.00000000000E+00 0.  1.
</event>
<event>
 7    1  0.4673733E-013  0.5930197E+02  0.7816164E-02  0.1266605E+00
        -11   -1    0    0    0    0  0.00000000000E+00  0.00000000000E+00  0.45593999997E+02  0.45594000000E+02  0.51100000000E-03 0.  1.
         11   -1    0    0    0    0 -0.00000000000E+00 -0.00000000000E+00 -0.45593999997E+02  0.45594000000E+02  0.51100000000E-03 0. -1.
    9900012    2    1    2    0    0  0.39577668218E+01  0.50235543233E+00  0.31635464240E+02  0.59301970506E+02  0.50000048290E+02 0.  0.
         12    1    1    2    0    0 -0.39577668218E+01 -0.50235543233E+00 -0.31635464240E+02  0.31886029494E+02  0.00000000000E+00 0. -1.
         11    1    3    3    0    0  0.24374144033E+02 -0.15134312668E+01  0.27136712958E+02  0.36507404207E+02  0.51100000000E-03 0. -1.
        -11    1    3    3    0    0 -0.13818517811E+01  0.20564822583E+01 -0.14266824240E+01  0.28590307140E+01  0.51100000000E-03 0.  1.
         12    1    3    3    0    0 -0.19034525430E+02 -0.40695559202E-01  0.59254337059E+01  0.19935535585E+02  0.00000000000E+00 0. -1.
</event>
<event>
 7    1  0.4673733E-013  0.5930193E+02  0.7816164E-02  0.1266605E+00
        -11   -1    0    0    0    0  0.00000000000E+00  0.00000000000E+00  0.45593999997E+02  0.45594000000E+02  0.51100000000E-03 0. -1.
         11   -1    0    0    0    0 -0.00000000000E+00 -0.00000000000E+00 -0.45593999997E+02  0.45594000000E+02  0.51100000000E-03 0.  1.
    9900012    2    1    2    0    0 -0.26046583208E+02  0.48345708205E+00 -0.18386498349E+02  0.59301928603E+02  0.49999971869E+02 0.  0.
         12    1    1    2    0    0  0.26046583208E+02 -0.48345708205E+00  0.18386498349E+02  0.31886071397E+02  0.00000000000E+00 0. -1.
         11    1    3    3    0    0 -0.48088092890E+01 -0.15262905898E+02 -0.15725468802E+02  0.22435937969E+02  0.51100000000E-03 0. -1.
        -11    1    3    3    0    0 -0.46706893370E+01  0.13711314839E+02 -0.11017985851E+02  0.18199217181E+02  0.51100000000E-03 0.  1.
         12    1    3    3    0    0 -0.16567084582E+02  0.20350481403E+01  0.83569563047E+01  0.18666773454E+02  0.00000000000E+00 0. -1.
</event>
<event>
 7    1  0.4673733E-013  0.5930199E+02  0.7816164E-02  0.1266605E+00
        -11   -1    0    0    0    0  0.00000000000E+00  0.00000000000E+00  0.45593999997E+02  0.45594000000E+02  0.51100000000E-03 0.  1.
         11   -1    0    0    0    0 -0.00000000000E+00 -0.00000000000E+00 -0.45593999997E+02  0.45594000000E+02  0.51100000000E-03 0. -1.
    9900012    2    1    2    0    0 -0.78054949038E+01  0.15144340377E+02  0.26952568253E+02  0.59301988465E+02  0.50000081043E+02 0.  0.
         12    1    1    2    0    0  0.78054949038E+01 -0.15144340377E+02 -0.26952568253E+02  0.31886011535E+02  0.00000000000E+00 0. -1.
         11    1    3    3    0    0  0.30641376042E+01  0.19137176914E+02  0.24296674721E+02  0.31079718181E+02  0.51100000000E-03 0. -1.
        -11    1    3    3    0    0  0.44952082969E+01 -0.76914810784E+01  0.75504100932E+01  0.11677948092E+02  0.51100000000E-03 0.  1.
         12    1    3    3    0    0 -0.15364840805E+02  0.36986445417E+01 -0.48945165605E+01  0.16544322191E+02  0.00000000000E+00 0. -1.
</event>
<event>
 7    1  0.4673733E-013  0.5930199E+02  0.7816164E-02  0.1266605E+00
        -11   -1    0    0    0    0  0.00000000000E+00  0.00000000000E+00  0.45593999997E+02  0.45594000000E+02  0.51100000000E-03 0. -1.
         11   -1    0    0    0    0 -0.00000000000E+00 -0.00000000000E+00 -0.45593999997E+02  0.45594000000E+02  0.51100000000E-03 0.  1.
    9900012    2    1    2    0    0  0.29705946519E+02  0.94264481864E+01  0.67391675922E+01  0.59301991096E+02  0.50000085841E+02 0.  0.
         12    1    1    2    0    0 -0.29705946519E+02 -0.94264481864E+01 -0.67391675922E+01  0.31886008904E+02  0.00000000000E+00 0. -1.
         11    1    3    3    0    0 -0.24691472873E+01 -0.82472544835E+01 -0.12133234810E+02  0.14877139579E+02  0.51100000000E-03 0. -1.
        -11    1    3    3    0    0  0.13522599130E+02 -0.13208523544E+01  0.68072450969E+01  0.15196839284E+02  0.51100000000E-03 0.  1.
         12    1    3    3    0    0  0.18652494677E+02  0.18994555024E+02  0.12065157305E+02  0.29228012232E+02  0.00000000000E+00 0. -1.
</event>
<event>
 7    1  0.4673733E-013  0.5930199E+02  0.7816164E-02  0.1266605E+00
        -11   -1    0    0    0    0  0.00000000000E+00  0.00000000000E+00  0.45593999997E+02  0.45594000000E+02  0.51100000000E-03 0.  1.
         11   -1    0    0    0    0 -0.00000000000E+00 -0.00000000000E+00 -0.45593999997E+02  0.45594000000E+02  0.51100000000E-03 0. -1.
    9900012    2    1    2    0    0 -0.10813824622E+02 -0.12261093970E+02  0.27375982910E+02  0.59301989453E+02  0.50000082845E+02 0.  0.
         12    1    1    2    0    0  0.10813824622E+02  0.12261093970E+02 -0.27375982910E+02  0.31886010547E+02  0.00000000000E+00 0. -1.
         11    1    3    3    0    0  0.36892725107E+01 -0.16239639200E+02  0.30105975012E+02  0.34405033712E+02  0.51100000000E-03 0.  1.
        -11    1    3    3    0    0 -0.61823107152E+01  0.11763981146E+02 -0.23484611635E+01  0.13495461766E+02  0.51100000000E-03 0. -1.
        -12    1    3    3    0    0 -0.83207864172E+01 -0.77854359164E+01 -0.38153093878E+00  0.11401493975E+02  0.00000000000E+00 0.  1.
</event>
<event>
 7    1  0.4673733E-013  0.5930194E+02  0.7816164E-02  0.1266605E+00
        -11   -1    0    0    0    0  0.00000000000E+00  0.00000000000E+00  0.45593999997E+02  0.45594000000E+02  0.51100000000E-03 0. -1.
         11   -1    0    0    0    0 -0.00000000000E+00 -0.00000000000E+00 -0.45593999997E+02  0.45594000000E+02  0.51100000000E-03 0.  1.
    9900012    2    1    2    0    0  0.19757180760E+01  0.23662300642E+02 -0.21281744868E+02  0.59301943514E+02  0.49999999063E+02 0.  0.
         12    1    1    2    0    0 -0.19757180760E+01 -0.23662300642E+02  0.21281744868E+02  0.31886056486E+02  0.00000000000E+00 0. -1.
         11    1    3    3    0    0  0.11084875931E+01 -0.37441675395E+01 -0.53206380686E-01  0.39051717617E+01  0.51100000000E-03 0. -1.
        -11    1    3    3    0    0  0.95970346771E+01  0.22596741500E+02 -0.32253711285E+02  0.40534154647E+02  0.51100000000E-03 0.  1.
        -12    1    3    3    0    0 -0.87298041942E+01  0.48097266812E+01  0.11025172797E+02  0.14862617106E+02  0.00000000000E+00 0.  1.
</event>
<event>
 7    1  0.4673733E-013  0.5930194E+02  0.7816164E-02  0.1266605E+00
        -11   -1    0    0    0    0  0.00000000000E+00  0.00000000000E+00  0.45593999997E+02  0.45594000000E+02  0.51100000000E-03 0. -1.
         11   -1    0    0    0    0 -0.00000000000E+00 -0.00000000000E+00 -0.45593999997E+02  0.45594000000E+02  0.51100000000E-03 0.  1.
    9900012    2    1    2    0    0 -0.23670555970E+02 -0.20470990894E+02  0.61126286843E+01  0.59301938507E+02  0.49999989931E+02 0.  0.
         12    1    1    2    0    0  0.23670555970E+02  0.20470990894E+02 -0.61126286843E+01  0.31886061493E+02  0.00000000000E+00 0. -1.
         11    1    3    3    0    0 -0.14580667109E+02 -0.30832700859E+02  0.27593311273E+01  0.34217907653E+02  0.51100000000E-03 0. -1.
        -11    1    3    3    0    0 -0.31084949823E+01  0.14201018470E+02  0.79992186920E+01  0.16592744395E+02  0.51100000000E-03 0.  1.
        -12    1    3    3    0    0 -0.59813938793E+01 -0.38393085044E+01 -0.46459211351E+01  0.84912864587E+01  0.00000000000E+00 0.  1.
</event>
<event>
 7    1  0.4673733E-013  0.5930192E+02  0.7816164E-02  0.1266605E+00
        -11   -1    0    0    0    0  0.00000000000E+00  0.00000000000E+00  0.45593999997E+02  0.45594000000E+02  0.51100000000E-03 0. -1.
         11   -1    0    0    0    0 -0.00000000000E+00 -0.00000000000E+00 -0.45593999997E+02  0.45594000000E+02  0.51100000000E-03 0.  1.
    9900012    2    1    2    0    0 -0.21072248591E+02  0.18408505495E+02 -0.15290828295E+02  0.59301918943E+02  0.49999954252E+02 0.  0.
         12    1    1    2    0    0  0.21072248591E+02 -0.18408505495E+02  0.15290828295E+02  0.31886081057E+02  0.00000000000E+00 0. -1.
         11    1    3    3    0    0 -0.37253486058E+01 -0.16011303753E+02  0.14119641534E+01  0.16499506452E+02  0.51100000000E-03 0. -1.
        -11    1    3    3    0    0 -0.17647750665E+02  0.31641181035E+02 -0.16945614794E+02  0.39997016161E+02  0.51100000000E-03 0.  1.
         12    1    3    3    0    0  0.30085068011E+00  0.27786282133E+01  0.24282234536E+00  0.28053963305E+01  0.00000000000E+00 0. -1.
</event>
<event>
 7    1  0.4673733E-013  0.5930190E+02  0.7816164E-02  0.1266605E+00
        -11   -1    0    0    0    0  0.00000000000E+00  0.00000000000E+00  0.45593999997E+02  0.45594000000E+02  0.51100000000E-03 0. -1.
         11   -1    0    0    0    0 -0.00000000000E+00 -0.00000000000E+00 -0.45593999997E+02  0.45594000000E+02  0.51100000000E-03 0.  1.
    9900012    2    1    2    0    0 -0.18528988704E+02 -0.16540708229E+02 -0.19995117857E+02  0.59301902885E+02  0.49999924965E+02 0.  0.
         12    1    1    2    0    0  0.18528988704E+02  0.16540708229E+02  0.19995117857E+02  0.31886097115E+02  0.00000000000E+00 0. -1.
         11    1    3    3    0    0  0.79880008070E+01 -0.11311455039E+02  0.13877787952E+01  0.13917007661E+02  0.51100000000E-03 0. -1.
        -11    1    3    3    0    0 -0.27216479822E+02  0.67324399845E+01 -0.15508726670E+02  0.32040335910E+02  0.51100000000E-03 0.  1.
        -12    1    3    3    0    0  0.69949031025E+00 -0.11961693175E+02 -0.58741699827E+01  0.13344559314E+02  0.00000000000E+00 0.  1.
</event>
<event>
 7    1  0.4673733E-013  0.5930194E+02  0.7816164E-02  0.1266605E+00
        -11   -1    0    0    0    0  0.00000000000E+00  0.00000000000E+00  0.45593999997E+02  0.45594000000E+02  0.51100000000E-03 0. -1.
         11   -1    0    0    0    0 -0.00000000000E+00 -0.00000000000E+00 -0.45593999997E+02  0.45594000000E+02  0.51100000000E-03 0.  1.
    9900012    2    1    2    0    0 -0.12374247163E+02  0.29349828564E+02 -0.14786727009E+01  0.59301938742E+02  0.49999990361E+02 0.  0.
         12    1    1    2    0    0  0.12374247163E+02 -0.29349828564E+02  0.14786727009E+01  0.31886061258E+02  0.00000000000E+00 0. -1.
         11    1    3    3    0    0  0.65726767699E+01  0.41399961645E+01 -0.12608791660E-01  0.77678701976E+01  0.51100000000E-03 0. -1.
        -11    1    3    3    0    0 -0.19204554990E+02  0.20554834193E+02  0.16744129508E+02  0.32736554711E+02  0.51100000000E-03 0.  1.
        -12    1    3    3    0    0  0.25763105690E+00  0.46549982056E+01 -0.18210193417E+02  0.18797513834E+02  0.00000000000E+00 0.  1.
</event>
<event>
 7    1  0.4673733E-013  0.5930197E+02  0.7816164E-02  0.1266605E+00
        -11   -1    0    0    0    0  0.00000000000E+00  0.00000000000E+00  0.45593999997E+02  0.45594000000E+02  0.51100000000E-03 0.  1.
         11   -1    0    0    0    0 -0.00000000000E+00 -0.00000000000E+00 -0.45593999997E+02  0.45594000000E+02  0.51100000000E-03 0. -1.
    9900012    2    1    2    0    0 -0.66644606464E+01  0.10540930287E+02  0.29346085201E+02  0.59301969146E+02  0.50000045809E+02 0.  0.
         12    1    1    2    0    0  0.66644606464E+01 -0.10540930287E+02 -0.29346085201E+02  0.31886030854E+02  0.00000000000E+00 0. -1.
         11    1    3    3    0    0  0.10069300189E+02  0.26009297396E+01 -0.20558784738E+01  0.10601050814E+02  0.51100000000E-03 0. -1.
        -11    1    3    3    0    0 -0.15715907928E+02 -0.40459860328E+01  0.12951818047E+01  0.16279965023E+02  0.51100000000E-03 0.  1.
        -12    1    3    3    0    0 -0.10178529070E+01  0.11985986580E+02  0.30106781870E+02  0.32420953308E+02  0.00000000000E+00 0.  1.
</event>
<event>
 7    1  0.4673733E-013  0.5930188E+02  0.7816164E-02  0.1266605E+00
        -11   -1    0    0    0    0  0.00000000000E+00  0.00000000000E+00  0.45593999997E+02  0.45594000000E+02  0.51100000000E-03 0.  1.
         11   -1    0    0    0    0 -0.00000000000E+00 -0.00000000000E+00 -0.45593999997E+02  0.45594000000E+02  0.51100000000E-03 0. -1.
    9900012    2    1    2    0    0 -0.16463747276E+02 -0.11850983705E+01  0.27281229257E+02  0.59301876023E+02  0.49999875975E+02 0.  0.
         12    1    1    2    0    0  0.16463747276E+02  0.11850983705E+01 -0.27281229257E+02  0.31886123977E+02  0.00000000000E+00 0. -1.
         11    1    3    3    0    0  0.59909370513E+01 -0.15607606912E+02  0.19893308073E+02  0.25985234781E+02  0.51100000000E-03 0.  1.
        -11    1    3    3    0    0 -0.13441653667E+02  0.95421112137E+01  0.13566375454E+02  0.21348922290E+02  0.51100000000E-03 0. -1.
         12    1    3    3    0    0 -0.90130306606E+01  0.48803973277E+01 -0.61784542695E+01  0.11967718952E+02  0.00000000000E+00 0. -1.
</event>
<event>
 7    1  0.4673733E-013  0.5930205E+02  0.7816164E-02  0.1266604E+00
        -11   -1    0    0    0    0  0.00000000000E+00  0.00000000000E+00  0.45593999997E+02  0.45594000000E+02  0.51100000000E-03 0.  1.
         11   -1    0    0    0    0 -0.00000000000E+00 -0.00000000000E+00 -0.45593999997E+02  0.45594000000E+02  0.51100000000E-03 0. -1.
    9900012    2    1    2    0    0 -0.85606433718E+01 -0.18366364049E+02  0.24619220580E+02  0.59302047524E+02  0.50000188752E+02 0.  0.
         12    1    1    2    0    0  0.85606433718E+01  0.18366364049E+02 -0.24619220580E+02  0.31885952476E+02  0.00000000000E+00 0. -1.
         11    1    3    3    0    0  0.66157511152E+01 -0.26845795715E+02  0.23139119137E+02  0.36053900553E+02  0.51100000000E-03 0. -1.
        -11    1    3    3    0    0 -0.18056827486E+02  0.71808735184E+01  0.31315113679E+01  0.19682995886E+02  0.51100000000E-03 0.  1.
         12    1    3    3    0    0  0.28804329988E+01  0.12985581475E+01 -0.16514099245E+01  0.35651510854E+01  0.00000000000E+00 0. -1.
</event>
<event>
 7    1  0.4673733E-013  0.5930199E+02  0.7816164E-02  0.1266605E+00
        -11   -1    0    0    0    0  0.00000000000E+00  0.00000000000E+00  0.45593999997E+02  0.45594000000E+02  0.51100000000E-03 0. -1.
         11   -1    0    0    0    0 -0.00000000000E+00 -0.00000000000E+00 -0.45593999997E+02  0.45594000000E+02  0.51100000000E-03 0.  1.
    9900012    2    1    2    0    0 -0.10933011624E+02  0.23356699509E+02 -0.18752373543E+02  0.59301989453E+02  0.50000082845E+02 0.  0.
         12    1    1    2    0    0  0.10933011624E+02 -0.23356699509E+02  0.18752373543E+02  0.31886010547E+02  0.00000000000E+00 0. -1.
         11    1    3    3    0    0 -0.39684399697E+01 -0.15103266336E+02  0.52181958106E+00  0.15624642900E+02  0.51100000000E-03 0. -1.
        -11    1    3    3    0    0 -0.50615400524E+01  0.19756837208E+02 -0.10032787570E+02  0.22729026175E+02  0.51100000000E-03 0.  1.
         12    1    3    3    0    0 -0.19030316017E+01  0.18703128636E+02 -0.92414055545E+01  0.20948320379E+02  0.00000000000E+00 0. -1.
</event>
<event>
 7    1  0.4673733E-013  0.5930191E+02  0.7816164E-02  0.1266605E+00
        -11   -1    0    0    0    0  0.00000000000E+00  0.00000000000E+00  0.45593999997E+02  0.45594000000E+02  0.51100000000E-03 0.  1.
         11   -1    0    0    0    0 -0.00000000000E+00 -0.00000000000E+00 -0.45593999997E+02  0.45594000000E+02  0.51100000000E-03 0. -1.
    9900012    2    1    2    0    0  0.12105097874E+01  0.24968515972E+02  0.19794718213E+02  0.59301905963E+02  0.49999930579E+02 0.  0.
         12    1    1    2    0    0 -0.12105097874E+01 -0.24968515972E+02 -0.19794718213E+02  0.31886094037E+02  0.00000000000E+00 0. -1.
         11    1    3    3    0    0 -0.11173803606E+02  0.31212020052E+02  0.20164523855E+02  0.38802733220E+02  0.51100000000E-03 0. -1.
        -11    1    3    3    0    0  0.64371243984E+01 -0.79485913203E+01 -0.62311005272E+01  0.11976781226E+02  0.51100000000E-03 0.  1.
         12    1    3    3    0    0  0.59471889947E+01  0.17050872403E+01  0.58612948853E+01  0.85223915169E+01  0.00000000000E+00 0. -1.
</event>
<event>
 7    1  0.4673733E-013  0.5930177E+02  0.7816164E-02  0.1266605E+00
        -11   -1    0    0    0    0  0.00000000000E+00  0.00000000000E+00  0.45593999997E+02  0.45594000000E+02  0.51100000000E-03 0. -1.
         11   -1    0    0    0    0 -0.00000000000E+00 -0.00000000000E+00 -0.45593999997E+02  0.45594000000E+02  0.51100000000E-03 0.  1.
    9900012    2    1    2    0    0 -0.24104082039E+02  0.15869436241E+02 -0.13560443614E+02  0.59301774000E+02  0.49999689908E+02 0.  0.
         12    1    1    2    0    0  0.24104082039E+02 -0.15869436241E+02  0.13560443614E+02  0.31886226000E+02  0.00000000000E+00 0. -1.
         11    1    3    3    0    0 -0.21581763764E+02  0.21948497877E+02 -0.14699549014E+02  0.34111373876E+02  0.51100000000E-03 0.  1.
        -11    1    3    3    0    0 -0.23720783763E+01 -0.15417024243E+02 -0.92501420669E+00  0.15625845381E+02  0.51100000000E-03 0. -1.
        -12    1    3    3    0    0 -0.15023989823E+00  0.93379626068E+01  0.20641196064E+01  0.95645547426E+01  0.00000000000E+00 0.  1.
</event>
<event>
 7    1  0.4673733E-013  0.5930194E+02  0.7816164E-02  0.1266605E+00
        -11   -1    0    0    0    0  0.00000000000E+00  0.00000000000E+00  0.45593999997E+02  0.45594000000E+02  0.51100000000E-03 0.  1.
         11   -1    0    0    0    0 -0.00000000000E+00 -0.00000000000E+00 -0.45593999997E+02  0.45594000000E+02  0.51100000000E-03 0. -1.
    9900012    2    1    2    0    0 -0.28287067229E+02  0.10941271993E+02  0.98412944472E+01  0.59301942206E+02  0.49999996678E+02 0.  0.
         12    1    1    2    0    0  0.28287067229E+02 -0.10941271993E+02 -0.98412944472E+01  0.31886057794E+02  0.00000000000E+00 0. -1.
         11    1    3    3    0    0 -0.14213324700E+02 -0.65590120893E+01  0.13616066512E+02  0.20746963781E+02  0.51100000000E-03 0. -1.
        -11    1    3    3    0    0 -0.23195071567E+02  0.17808772429E+02 -0.28936746516E+01  0.29386001321E+02  0.51100000000E-03 0.  1.
         12    1    3    3    0    0  0.91213290377E+01 -0.30848834634E+00 -0.88109741310E+00  0.91689771036E+01  0.00000000000E+00 0. -1.
</event>
<event>
 7    1  0.4673733E-013  0.5930192E+02  0.7816164E-02  0.1266605E+00
        -11   -1    0    0    0    0  0.00000000000E+00  0.00000000000E+00  0.45593999997E+02  0.45594000000E+02  0.51100000000E-03 0.  1.
         11   -1    0    0    0    0 -0.00000000000E+00 -0.00000000000E+00 -0.45593999997E+02  0.45594000000E+02  0.51100000000E-03 0. -1.
    9900012    2    1    2    0    0  0.31769321748E+02  0.51877073493E+00  0.26763638330E+01  0.59301923873E+02  0.49999963243E+02 0.  0.
         12    1    1    2    0    0 -0.31769321748E+02 -0.51877073493E+00 -0.26763638330E+01  0.31886076127E+02  0.00000000000E+00 0. -1.
         11    1    3    3    0    0  0.10007065148E+02  0.38947683495E+01 -0.63486665682E+01  0.12474619867E+02  0.51100000000E-03 0. -1.
        -11    1    3    3    0    0 -0.91460744998E+01 -0.10790074435E+02  0.21522592594E+01  0.14307641498E+02  0.51100000000E-03 0.  1.
        -12    1    3    3    0    0  0.30908331100E+02  0.74140768201E+01  0.68727711418E+01  0.32519662508E+02  0.00000000000E+00 0.  1.
</event>
<event>
 7    1  0.4673733E-013  0.5930194E+02  0.7816164E-02  0.1266605E+00
        -11   -1    0    0    0    0  0.00000000000E+00  0.00000000000E+00  0.45593999997E+02  0.45594000000E+02  0.51100000000E-03 0.  1.
         11   -1    0    0    0    0 -0.00000000000E+00 -0.00000000000E+00 -0.45593999997E+02  0.45594000000E+02  0.51100000000E-03 0. -1.
    9900012    2    1    2    0    0  0.22146373847E+02  0.38107011300E+01  0.22621622815E+02  0.59301935074E+02  0.49999983671E+02 0.  0.
         12    1    1    2    0    0 -0.22146373847E+02 -0.38107011300E+01 -0.22621622815E+02  0.31886064926E+02  0.00000000000E+00 0. -1.
         11    1    3    3    0    0 -0.39802029387E+01  0.17409592051E+01 -0.94468012425E+01  0.10397836716E+02  0.51100000000E-03 0. -1.
        -11    1    3    3    0    0  0.10134714823E+02  0.90488124396E+01  0.27798117572E+02  0.30940730306E+02  0.51100000000E-03 0.  1.
        -12    1    3    3    0    0  0.15991861963E+02 -0.69790705147E+01  0.42703064859E+01  0.17963368052E+02  0.00000000000E+00 0.  1.
</event>
<event>
 7    1  0.4673733E-013  0.5930195E+02  0.7816164E-02  0.1266605E+00
        -11   -1    0    0    0    0  0.00000000000E+00  0.00000000000E+00  0.45593999997E+02  0.45594000000E+02  0.51100000000E-03 0.  1.
         11   -1    0    0    0    0 -0.00000000000E+00 -0.00000000000E+00 -0.45593999997E+02  0.45594000000E+02  0.51100000000E-03 0. -1.
    9900012    2    1    2    0    0 -0.25336442162E+02 -0.60230275448E+01  0.18398594480E+02  0.59301945978E+02  0.50000003557E+02 0.  0.
         12    1    1    2    0    0  0.25336442162E+02  0.60230275448E+01 -0.18398594480E+02  0.31886054022E+02  0.00000000000E+00 0. -1.
         11    1    3    3    0    0 -0.20355132740E+02 -0.19004877118E+02  0.18490885841E+02  0.33427976944E+02  0.51100000000E-03 0. -1.
        -11    1    3    3    0    0  0.33341038582E+01  0.13405558556E+02  0.64877501539E+01  0.15261590712E+02  0.51100000000E-03 0.  1.
        -12    1    3    3    0    0 -0.83154132797E+01 -0.42370898265E+00 -0.65800415145E+01  0.10612378322E+02  0.00000000000E+00 0.  1.
</event>
<event>
 7    1  0.4673733E-013  0.5930189E+02  0.7816164E-02  0.1266605E+00
        -11   -1    0    0    0    0  0.00000000000E+00  0.00000000000E+00  0.45593999997E+02  0.45594000000E+02  0.51100000000E-03 0. -1.
         11   -1    0    0    0    0 -0.00000000000E+00 -0.00000000000E+00 -0.45593999997E+02  0.45594000000E+02  0.51100000000E-03 0.  1.
    9900012    2    1    2    0    0  0.64066427303E+00  0.42831674051E+00 -0.31876793843E+02  0.59301891871E+02  0.49999904878E+02 0.  0.
         12    1    1    2    0    0 -0.64066427303E+00 -0.42831674051E+00  0.31876793843E+02  0.31886108129E+02  0.00000000000E+00 0. -1.
         11    1    3    3    0    0 -0.29899016968E+01 -0.98808968008E+01 -0.30320052762E+01  0.10759400076E+02  0.51100000000E-03 0. -1.
        -11    1    3    3    0    0  0.24700092776E+01  0.24239791110E+02 -0.13783691623E+02  0.27993902442E+02  0.51100000000E-03 0.  1.
        -12    1    3    3    0    0  0.11605566922E+01 -0.13930577569E+02 -0.15061096944E+02  0.20548589353E+02  0.00000000000E+00 0.  1.
</event>
<event>
 7    1  0.4673733E-013  0.5930194E+02  0.7816164E-02  0.1266605E+00
        -11   -1    0    0    0    0  0.00000000000E+00  0.00000000000E+00  0.45593999997E+02  0.45594000000E+02  0.51100000000E-03 0.  1.
         11   -1    0    0    0    0 -0.00000000000E+00 -0.00000000000E+00 -0.45593999997E+02  0.45594000000E+02  0.51100000000E-03 0. -1.
    9900012    2    1    2    0    0 -0.16384217551E+02  0.25259643344E+02  0.10498993810E+02  0.59301936624E+02  0.49999986497E+02 0.  0.
         12    1    1    2    0    0  0.16384217551E+02 -0.25259643344E+02 -0.10498993810E+02  0.31886063376E+02  0.00000000000E+00 0. -1.
         11    1    3    3    0    0  0.28072532746E+01  0.28278182460E+01  0.89934173352E+01  0.98366042213E+01  0.51100000000E-03 0. -1.
        -11    1    3    3    0    0 -0.20487462862E+02  0.32494538373E+02  0.49925407552E+01  0.38737018755E+02  0.51100000000E-03 0.  1.
        -12    1    3    3    0    0  0.12959920357E+01 -0.10062713276E+02 -0.34869642808E+01  0.10728313647E+02  0.00000000000E+00 0.  1.
</event>
<event>
 7    1  0.4673733E-013  0.5930195E+02  0.7816164E-02  0.1266605E+00
        -11   -1    0    0    0    0  0.00000000000E+00  0.00000000000E+00  0.45593999997E+02  0.45594000000E+02  0.51100000000E-03 0.  1.
         11   -1    0    0    0    0 -0.00000000000E+00 -0.00000000000E+00 -0.45593999997E+02  0.45594000000E+02  0.51100000000E-03 0. -1.
    9900012    2    1    2    0    0 -0.30043435761E+01 -0.16001244973E+02  0.27416315696E+02  0.59301948389E+02  0.50000007954E+02 0.  0.
         12    1    1    2    0    0  0.30043435761E+01  0.16001244973E+02 -0.27416315696E+02  0.31886051611E+02  0.00000000000E+00 0. -1.
         11    1    3    3    0    0  0.13115080626E+02  0.27473318250E+01  0.48172170037E+01  0.14239338184E+02  0.51100000000E-03 0. -1.
        -11    1    3    3    0    0 -0.56586843046E+01 -0.24079247538E+02  0.22322739069E+02  0.33318696701E+02  0.51100000000E-03 0.  1.
        -12    1    3    3    0    0 -0.10460739898E+02  0.53306707401E+01  0.27635962283E+00  0.11743913504E+02  0.00000000000E+00 0.  1.
</event>
<event>
 7    1  0.4673733E-013  0.5930194E+02  0.7816164E-02  0.1266605E+00
        -11   -1    0    0    0    0  0.00000000000E+00  0.00000000000E+00  0.45593999997E+02  0.45594000000E+02  0.51100000000E-03 0. -1.
         11   -1    0    0    0    0 -0.00000000000E+00 -0.00000000000E+00 -0.45593999997E+02  0.45594000000E+02  0.51100000000E-03 0.  1.
    9900012    2    1    2    0    0  0.20242403540E+02  0.21990434986E+02 -0.11107945172E+02  0.59301943833E+02  0.49999999645E+02 0.  0.
         12    1    1    2    0    0 -0.20242403540E+02 -0.21990434986E+02  0.11107945172E+02  0.31886056167E+02  0.00000000000E+00 0. -1.
         11    1    3    3    0    0  0.95021061783E+01  0.34329732735E+02 -0.13056980958E+02  0.37938177651E+02  0.51100000000E-03 0. -1.
        -11    1    3    3    0    0  0.10407386783E+02 -0.16003546269E+01  0.86864559038E+00  0.10565480585E+02  0.51100000000E-03 0.  1.
         12    1    3    3    0    0  0.33291057886E+00 -0.10738943123E+02  0.10803901952E+01  0.10798285596E+02  0.00000000000E+00 0. -1.
</event>
<event>
 7    1  0.4673733E-013  0.5930205E+02  0.7816164E-02  0.1266604E+00
        -11   -1    0    0    0    0  0.00000000000E+00  0.00000000000E+00  0.45593999997E+02  0.45594000000E+02  0.51100000000E-03 0.  1.
         11   -1    0    0    0    0 -0.00000000000E+00 -0.00000000000E+00 -0.45593999997E+02  0.45594000000E+02  0.51100000000E-03 0. -1.
    9900012    2    1    2    0    0  0.97083082219E+01  0.15384281508E+02  0.26187519211E+02  0.59302054374E+02  0.50000201245E+02 0.  0.
         12    1    1    2    0    0 -0.97083082219E+01 -0.15384281508E+02 -0.26187519211E+02  0.31885945626E+02  0.00000000000E+00 0. -1.
         11    1    3    3    0    0 -0.13886835966E+02 -0.52766923346E+01 -0.22487670743E+01  0.15024801122E+02  0.51100000000E-03 0. -1.
        -11    1    3    3    0    0  0.12707212741E+02  0.12908352582E+02  0.24255654307E+02  0.30272687164E+02  0.51100000000E-03 0.  1.
         12    1    3    3    0    0  0.10887931446E+02  0.77526212606E+01  0.41806319782E+01  0.14004566088E+02  0.00000000000E+00 0. -1.
</event>
<event>
 7    1  0.4673733E-013  0.5930195E+02  0.7816164E-02  0.1266605E+00
        -11   -1    0    0    0    0  0.00000000000E+00  0.00000000000E+00  0.45593999997E+02  0.45594000000E+02  0.51100000000E-03 0.  1.
         11   -1    0    0    0    0 -0.00000000000E+00 -0.00000000000E+00 -0.45593999997E+02  0.45594000000E+02  0.51100000000E-03 0. -1.
    9900012    2    1    2    0    0  0.20750648229E+02 -0.32386518441E+00  0.24207965399E+02  0.59301954787E+02  0.50000019622E+02 0.  0.
         12    1    1    2    0    0 -0.20750648229E+02  0.32386518441E+00 -0.24207965399E+02  0.31886045213E+02  0.00000000000E+00 0. -1.
         11    1    3    3    0    0 -0.76991747537E+01  0.47591223559E+01 -0.99737726156E+01  0.13468581140E+02  0.51100000000E-03 0. -1.
        -11    1    3    3    0    0  0.27446438773E+02 -0.46465020255E+01  0.34809969898E+02  0.44571638819E+02  0.51100000000E-03 0.  1.
         12    1    3    3    0    0  0.10033842094E+01 -0.43648551476E+00 -0.62823188344E+00  0.12617348278E+01  0.00000000000E+00 0. -1.
</event>
<event>
 7    1  0.4673733E-013  0.5930191E+02  0.7816164E-02  0.1266605E+00
        -11   -1    0    0    0    0  0.00000000000E+00  0.00000000000E+00  0.45593999997E+02  0.45594000000E+02  0.51100000000E-03 0.  1.
         11   -1    0    0    0    0 -0.00000000000E+00 -0.00000000000E+00 -0.45593999997E+02  0.45594000000E+02  0.51100000000E-03 0. -1.
    9900012    2    1    2    0    0 -0.17216446998E+02  0.24854277135E+02 -0.10128254388E+02  0.59301910931E+02  0.49999939640E+02 0.  0.
         12    1    1    2    0    0  0.17216446998E+02 -0.24854277135E+02  0.10128254388E+02  0.31886089069E+02  0.00000000000E+00 0. -1.
         11    1    3    3    0    0 -0.23679713058E+02  0.18492166790E+02  0.11414661649E+02  0.32140061355E+02  0.51100000000E-03 0. -1.
        -11    1    3    3    0    0  0.56950242864E+01  0.10691497563E+02 -0.15036632231E+02  0.19309110049E+02  0.51100000000E-03 0.  1.
         12    1    3    3    0    0  0.76824177329E+00 -0.43293872184E+01 -0.65062838068E+01  0.78527395273E+01  0.00000000000E+00 0. -1.
</event>
<event>
 7    1  0.4673733E-013  0.5930195E+02  0.7816164E-02  0.1266605E+00
        -11   -1    0    0    0    0  0.00000000000E+00  0.00000000000E+00  0.45593999997E+02  0.45594000000E+02  0.51100000000E-03 0.  1.
         11   -1    0    0    0    0 -0.00000000000E+00 -0.00000000000E+00 -0.45593999997E+02  0.45594000000E+02  0.51100000000E-03 0. -1.
    9900012    2    1    2    0    0  0.15053761034E+02 -0.18850256452E+00  0.28108159769E+02  0.59301954462E+02  0.50000019030E+02 0.  0.
         12    1    1    2    0    0 -0.15053761034E+02  0.18850256452E+00 -0.28108159769E+02  0.31886045538E+02  0.00000000000E+00 0. -1.
         11    1    3    3    0    0  0.38779200798E+01 -0.13196439916E+02 -0.88081184160E+01  0.16333010772E+02  0.51100000000E-03 0. -1.
        -11    1    3    3    0    0  0.79708378079E+01  0.12458516717E+02  0.36860109616E+02  0.39716703984E+02  0.51100000000E-03 0.  1.
        -12    1    3    3    0    0  0.32050031458E+01  0.54942063432E+00  0.56168568343E-01  0.32522397061E+01  0.00000000000E+00 0.  1.
</event>
<event>
 7    1  0.4673733E-013  0.5930196E+02  0.7816164E-02  0.1266605E+00
        -11   -1    0    0    0    0  0.00000000000E+00  0.00000000000E+00  0.45593999997E+02  0.45594000000E+02  0.51100000000E-03 0. -1.
         11   -1    0    0    0    0 -0.00000000000E+00 -0.00000000000E+00 -0.45593999997E+02  0.45594000000E+02  0.51100000000E-03 0.  1.
    9900012    2    1    2    0    0  0.18954123006E+02  0.10063650066E+02 -0.23583550543E+02  0.59301957791E+02  0.50000025100E+02 0.  0.
         12    1    1    2    0    0 -0.18954123006E+02 -0.10063650066E+02  0.23583550543E+02  0.31886042209E+02  0.00000000000E+00 0. -1.
         11    1    3    3    0    0  0.79719214367E+01  0.84063146069E+01  0.39452565684E+01  0.12238574521E+02  0.51100000000E-03 0. -1.
        -11    1    3    3    0    0  0.46499068069E+01  0.30977000221E+01 -0.35976655690E+02  0.36407926797E+02  0.51100000000E-03 0.  1.
        -12    1    3    3    0    0  0.63322947623E+01 -0.14403645630E+01  0.84478485789E+01  0.10655456473E+02  0.00000000000E+00 0.  1.
</event>
<event>
 7    1  0.4673733E-013  0.5930190E+02  0.7816164E-02  0.1266605E+00
        -11   -1    0    0    0    0  0.00000000000E+00  0.00000000000E+00  0.45593999997E+02  0.45594000000E+02  0.51100000000E-03 0. -1.
         11   -1    0    0    0    0 -0.00000000000E+00 -0.00000000000E+00 -0.45593999997E+02  0.45594000000E+02  0.51100000000E-03 0.  1.
    9900012    2    1    2    0    0 -0.85741102257E+01 -0.34623524547E+01 -0.30515897807E+02  0.59301901624E+02  0.49999922666E+02 0.  0.
         12    1    1    2    0    0  0.85741102257E+01  0.34623524547E+01  0.30515897807E+02  0.31886098376E+02  0.00000000000E+00 0. -1.
         11    1    3    3    0    0 -0.12072860222E+02 -0.88448132880E+01 -0.43140898789E+01  0.15575495105E+02  0.51100000000E-03 0. -1.
        -11    1    3    3    0    0 -0.13735746807E+01  0.66787734076E+01 -0.33869820744E+02  0.34549348461E+02  0.51100000000E-03 0.  1.
         12    1    3    3    0    0  0.48723246766E+01 -0.12963125742E+01  0.76680128161E+01  0.91770580576E+01  0.00000000000E+00 0. -1.
</event>
<event>
 7    1  0.4673733E-013  0.5930195E+02  0.7816164E-02  0.1266605E+00
        -11   -1    0    0    0    0  0.00000000000E+00  0.00000000000E+00  0.45593999997E+02  0.45594000000E+02  0.51100000000E-03 0. -1.
         11   -1    0    0    0    0 -0.00000000000E+00 -0.00000000000E+00 -0.45593999997E+02  0.45594000000E+02  0.51100000000E-03 0.  1.
    9900012    2    1    2    0    0  0.20241791249E+02  0.15736785241E+02 -0.18956367730E+02  0.59301946620E+02  0.50000004727E+02 0.  0.
         12    1    1    2    0    0 -0.20241791249E+02 -0.15736785241E+02  0.18956367730E+02  0.31886053380E+02  0.00000000000E+00 0. -1.
         11    1    3    3    0    0 -0.42973716544E+01  0.11477358139E+01  0.13338578621E+02  0.14060667855E+02  0.51100000000E-03 0. -1.
        -11    1    3    3    0    0  0.18779702256E+02  0.57633109801E+01 -0.13980621342E+02  0.24111216138E+02  0.51100000000E-03 0.  1.
         12    1    3    3    0    0  0.57594606465E+01  0.88257384468E+01 -0.18314325009E+02  0.21130062627E+02  0.00000000000E+00 0. -1.
</event>
<event>
 7    1  0.4673733E-013  0.5930203E+02  0.7816164E-02  0.1266604E+00
        -11   -1    0    0    0    0  0.00000000000E+00  0.00000000000E+00  0.45593999997E+02  0.45594000000E+02  0.51100000000E-03 0.  1.
         11   -1    0    0    0    0 -0.00000000000E+00 -0.00000000000E+00 -0.45593999997E+02  0.45594000000E+02  0.51100000000E-03 0. -1.
    9900012    2    1    2    0    0 -0.17037258252E+02  0.18120768960E+02  0.19952066514E+02  0.59302025111E+02  0.50000147876E+02 0.  0.
         12    1    1    2    0    0  0.17037258252E+02 -0.18120768960E+02 -0.19952066514E+02  0.31885974889E+02  0.00000000000E+00 0. -1.
         11    1    3    3    0    0  0.26540364160E+01 -0.78311566468E+01  0.42767931319E+01  0.93092364606E+01  0.51100000000E-03 0. -1.
        -11    1    3    3    0    0 -0.28387102675E+02  0.16863952726E+02  0.17357242613E+02  0.37302739460E+02  0.51100000000E-03 0.  1.
        -12    1    3    3    0    0  0.86958080065E+01  0.90879728808E+01 -0.16819692308E+01  0.12690049191E+02  0.00000000000E+00 0.  1.
</event>
<event>
 7    1  0.4673733E-013  0.5930188E+02  0.7816164E-02  0.1266605E+00
        -11   -1    0    0    0    0  0.00000000000E+00  0.00000000000E+00  0.45593999997E+02  0.45594000000E+02  0.51100000000E-03 0.  1.
         11   -1    0    0    0    0 -0.00000000000E+00 -0.00000000000E+00 -0.45593999997E+02  0.45594000000E+02  0.51100000000E-03 0. -1.
    9900012    2    1    2    0    0 -0.11061385705E+02 -0.14696205836E+02  0.26045958259E+02  0.59301879802E+02  0.49999882867E+02 0.  0.
         12    1    1    2    0    0  0.11061385705E+02  0.14696205836E+02 -0.26045958259E+02  0.31886120198E+02  0.00000000000E+00 0. -1.
         11    1    3    3    0    0  0.52397132163E+00  0.33792367272E+01 -0.88465765212E+01  0.94844980474E+01  0.51100000000E-03 0. -1.
        -11    1    3    3    0    0 -0.48715579047E+01 -0.40683367162E+01  0.33640504170E+02  0.34234002996E+02  0.51100000000E-03 0.  1.
        -12    1    3    3    0    0 -0.67137991219E+01 -0.14007105847E+02  0.12520306098E+01  0.15583378758E+02  0.00000000000E+00 0.  1.
</event>
<event>
 7    1  0.4673733E-013  0.5930196E+02  0.7816164E-02  0.1266605E+00
        -11   -1    0    0    0    0  0.00000000000E+00  0.00000000000E+00  0.45593999997E+02  0.45594000000E+02  0.51100000000E-03 0. -1.
         11   -1    0    0    0    0 -0.00000000000E+00 -0.00000000000E+00 -0.45593999997E+02  0.45594000000E+02  0.51100000000E-03 0.  1.
    9900012    2    1    2    0    0  0.26756570495E+02  0.12349218567E+02 -0.12177949544E+02  0.59301957301E+02  0.50000024208E+02 0.  0.
         12    1    1    2    0    0 -0.26756570495E+02 -0.12349218567E+02  0.12177949544E+02  0.31886042699E+02  0.00000000000E+00 0. -1.
         11    1    3    3    0    0  0.27197574901E+02 -0.97277344656E+00  0.28206997343E+01  0.27360751377E+02  0.51100000000E-03 0. -1.
        -11    1    3    3    0    0  0.77785464234E+01  0.11997314668E+02 -0.18091597673E+02  0.23059645495E+02  0.51100000000E-03 0.  1.
         12    1    3    3    0    0 -0.82195508288E+01  0.13246773455E+01  0.30929483948E+01  0.88815604298E+01  0.00000000000E+00 0. -1.
</event>
<event>
 7    1  0.4673733E-013  0.5930191E+02  0.7816164E-02  0.1266605E+00
        -11   -1    0    0    0    0  0.00000000000E+00  0.00000000000E+00  0.45593999997E+02  0.45594000000E+02  0.51100000000E-03 0.  1.
         11   -1    0    0    0    0 -0.00000000000E+00 -0.00000000000E+00 -0.45593999997E+02  0.45594000000E+02  0.51100000000E-03 0. -1.
    9900012    2    1    2    0    0 -0.17755790925E+02 -0.25725782631E+02  0.62959173112E+01  0.59301912468E+02  0.49999942442E+02 0.  0.
         12    1    1    2    0    0  0.17755790925E+02  0.25725782631E+02 -0.62959173112E+01  0.31886087532E+02  0.00000000000E+00 0. -1.
         11    1    3    3    0    0 -0.10862597716E+02  0.80995784051E+01  0.11561564862E+02  0.17812045975E+02  0.51100000000E-03 0. -1.
        -11    1    3    3    0    0  0.20853732523E+01 -0.71135605872E+01 -0.10474356985E+02  0.12832134676E+02  0.51100000000E-03 0.  1.
        -12    1    3    3    0    0 -0.89785664613E+01 -0.26711800449E+02  0.52087094345E+01  0.28657731817E+02  0.00000000000E+00 0.  1.
</event>
<event>
 7    1  0.4673733E-013  0.5930195E+02  0.7816164E-02  0.1266605E+00
        -11   -1    0    0    0    0  0.00000000000E+00  0.00000000000E+00  0.45593999997E+02  0.45594000000E+02  0.51100000000E-03 0.  1.
         11   -1    0    0    0    0 -0.00000000000E+00 -0.00000000000E+00 -0.45593999997E+02  0.45594000000E+02  0.51100000000E-03 0. -1.
    9900012    2    1    2    0    0 -0.15014301756E+02  0.56428503706E+01  0.27558102044E+02  0.59301952804E+02  0.50000016006E+02 0.  0.
         12    1    1    2    0    0  0.15014301756E+02 -0.56428503706E+01 -0.27558102044E+02  0.31886047196E+02  0.00000000000E+00 0. -1.
         11    1    3    3    0    0  0.11946239158E+02 -0.12020684100E+02  0.37128967277E+01  0.17349209741E+02  0.51100000000E-03 0. -1.
        -11    1    3    3    0    0 -0.13148776331E+02  0.15142602976E+02  0.17197137364E+02  0.26418370080E+02  0.51100000000E-03 0.  1.
         12    1    3    3    0    0 -0.13811764582E+02  0.25209314947E+01  0.66480679523E+01  0.15534372983E+02  0.00000000000E+00 0. -1.
</event>
<event>
 7    1  0.4673733E-013  0.5930195E+02  0.7816164E-02  0.1266605E+00
        -11   -1    0    0    0    0  0.00000000000E+00  0.00000000000E+00  0.45593999997E+02  0.45594000000E+02  0.51100000000E-03 0. -1.
         11   -1    0    0    0    0 -0.00000000000E+00 -0.00000000000E+00 -0.45593999997E+02  0.45594000000E+02  0.51100000000E-03 0.  1.
    9900012    2    1    2    0    0 -0.77408130487E+01  0.26541170144E+02 -0.15886042825E+02  0.59301948882E+02  0.50000008853E+02 0.  0.
         12    1    1    2    0    0  0.77408130487E+01 -0.26541170144E+02  0.15886042825E+02  0.31886051118E+02  0.00000000000E+00 0. -1.
         11    1    3    3    0    0 -0.13072720001E+02 -0.87865946052E+01 -0.11405456694E+02  0.19446971375E+02  0.51100000000E-03 0. -1.
        -11    1    3    3    0    0  0.21669515650E+01  0.15861964025E+02 -0.10606493333E+02  0.19204043400E+02  0.51100000000E-03 0.  1.
         12    1    3    3    0    0  0.31649553877E+01  0.19465800724E+02  0.61259072023E+01  0.20650934107E+02  0.00000000000E+00 0. -1.
</event>
<event>
 7    1  0.4673733E-013  0.5930191E+02  0.7816164E-02  0.1266605E+00
        -11   -1    0    0    0    0  0.00000000000E+00  0.00000000000E+00  0.45593999997E+02  0.45594000000E+02  0.51100000000E-03 0. -1.
         11   -1    0    0    0    0 -0.00000000000E+00 -0.00000000000E+00 -0.45593999997E+02  0.45594000000E+02  0.51100000000E-03 0.  1.
    9900012    2    1    2    0    0 -0.84056266230E+01 -0.30386969465E+02  0.47644858699E+01  0.59301909023E+02  0.49999936160E+02 0.  0.
         12    1    1    2    0    0  0.84056266230E+01  0.30386969465E+02 -0.47644858699E+01  0.31886090977E+02  0.00000000000E+00 0. -1.
         11    1    3    3    0    0  0.13053856340E+02  0.19516801877E+01  0.27792653675E+01  0.13488385268E+02  0.51100000000E-03 0. -1.
        -11    1    3    3    0    0 -0.75339634319E+01 -0.57137335945E+01  0.10940773052E+02  0.14460562639E+02  0.51100000000E-03 0.  1.
        -12    1    3    3    0    0 -0.13925519531E+02 -0.26624916058E+02 -0.89555525500E+01  0.31352961116E+02  0.00000000000E+00 0.  1.
</event>
<event>
 7    1  0.4673733E-013  0.5930192E+02  0.7816164E-02  0.1266605E+00
        -11   -1    0    0    0    0  0.00000000000E+00  0.00000000000E+00  0.45593999997E+02  0.45594000000E+02  0.51100000000E-03 0.  1.
         11   -1    0    0    0    0 -0.00000000000E+00 -0.00000000000E+00 -0.45593999997E+02  0.45594000000E+02  0.51100000000E-03 0. -1.
    9900012    2    1    2    0    0  0.30449690249E+02 -0.91494905743E+01  0.24136135608E+01  0.59301916131E+02  0.49999949124E+02 0.  0.
         12    1    1    2    0    0 -0.30449690249E+02  0.91494905743E+01 -0.24136135608E+01  0.31886083869E+02  0.00000000000E+00 0. -1.
         11    1    3    3    0    0  0.61018916817E+01  0.12214697921E+02  0.13562172817E+02  0.19244855394E+02  0.51100000000E-03 0. -1.
        -11    1    3    3    0    0  0.23287181304E+02 -0.22815114980E+02 -0.41887594081E+01  0.32868951767E+02  0.51100000000E-03 0.  1.
         12    1    3    3    0    0  0.10606172635E+01  0.14509264849E+01 -0.69597998476E+01  0.71881089699E+01  0.00000000000E+00 0. -1.
</event>
<event>
 7    1  0.4673733E-013  0.5930195E+02  0.7816164E-02  0.1266605E+00
        -11   -1    0    0    0    0  0.00000000000E+00  0.00000000000E+00  0.45593999997E+02  0.45594000000E+02  0.51100000000E-03 0. -1.
         11   -1    0    0    0    0 -0.00000000000E+00 -0.00000000000E+00 -0.45593999997E+02  0.45594000000E+02  0.51100000000E-03 0.  1.
    9900012    2    1    2    0    0 -0.26026496060E+01  0.21839547884E+02 -0.23086376524E+02  0.59301946345E+02  0.50000004225E+02 0.  0.
         12    1    1    2    0    0  0.26026496060E+01 -0.21839547884E+02  0.23086376524E+02  0.31886053655E+02  0.00000000000E+00 0. -1.
         11    1    3    3    0    0  0.35128128226E+01  0.17587577168E+01 -0.14488031684E+01  0.41871366726E+01  0.51100000000E-03 0. -1.
        -11    1    3    3    0    0 -0.76075175379E+01  0.36066090540E+01 -0.33639984432E+02  0.34677521607E+02  0.51100000000E-03 0.  1.
        -12    1    3    3    0    0  0.14920551093E+01  0.16474181113E+02  0.12002411077E+02  0.20437288065E+02  0.00000000000E+00 0.  1.
</event>
<event>
 7    1  0.4673733E-013  0.5930194E+02  0.7816164E-02  0.1266605E+00
        -11   -1    0    0    0    0  0.00000000000E+00  0.00000000000E+00  0.45593999997E+02  0.45594000000E+02  0.51100000000E-03 0.  1.
         11   -1    0    0    0    0 -0.00000000000E+00 -0.00000000000E+00 -0.45593999997E+02  0.45594000000E+02  0.51100000000E-03 0. -1.
    9900012    2    1    2    0    0 -0.43102270189E+01  0.31586590832E+02  0.65582523048E+00  0.59301939031E+02  0.49999990888E+02 0.  0.
         12    1    1    2    0    0  0.43102270189E+01 -0.31586590832E+02 -0.65582523048E+00  0.31886060969E+02  0.00000000000E+00 0. -1.
         11    1    3    3    0    0  0.94485985823E+01 -0.30416380975E+01 -0.19909074057E+01  0.10123798202E+02  0.51100000000E-03 0. -1.
        -11    1    3    3    0    0 -0.93484081305E+00  0.27397738037E+02  0.13816350520E+02  0.30698558905E+02  0.51100000000E-03 0.  1.
         12    1    3    3    0    0 -0.12823984788E+02  0.72304908924E+01 -0.11169617884E+02  0.18479581924E+02  0.00000000000E+00 0. -1.
</event>
<event>
 7    1  0.4673733E-013  0.5930201E+02  0.7816164E-02  0.1266605E+00
        -11   -1    0    0    0    0  0.00000000000E+00  0.00000000000E+00  0.45593999997E+02  0.45594000000E+02  0.51100000000E-03 0.  1.
         11   -1    0    0    0    0 -0.00000000000E+00 -0.00000000000E+00 -0.45593999997E+02  0.45594000000E+02  0.51100000000E-03 0. -1.
    9900012    2    1    2    0    0 -0.11894217698E+02  0.84415104163E+01  0.28354628553E+02  0.59302008199E+02  0.50000117034E+02 0.  0.
         12    1    1    2    0    0  0.11894217698E+02 -0.84415104163E+01 -0.28354628553E+02  0.31885991801E+02  0.00000000000E+00 0. -1.
         11    1    3    3    0    0  0.90206474866E+01 -0.15472138976E+02  0.18405770457E+02  0.25681346381E+02  0.51100000000E-03 0. -1.
        -11    1    3    3    0    0 -0.25857704829E+01  0.57580498114E+01  0.17436917680E+01  0.65484202571E+01  0.51100000000E-03 0.  1.
         12    1    3    3    0    0 -0.18329094701E+02  0.18155599580E+02  0.82051663277E+01  0.27072241561E+02  0.00000000000E+00 0. -1.
</event>
<event>
 7    1  0.4673733E-013  0.5930194E+02  0.7816164E-02  0.1266605E+00
        -11   -1    0    0    0    0  0.00000000000E+00  0.00000000000E+00  0.45593999997E+02  0.45594000000E+02  0.51100000000E-03 0.  1.
         11   -1    0    0    0    0 -0.00000000000E+00 -0.00000000000E+00 -0.45593999997E+02  0.45594000000E+02  0.51100000000E-03 0. -1.
    9900012    2    1    2    0    0 -0.52113262238E+01 -0.29442470307E+02  0.11077162659E+02  0.59301944876E+02  0.50000001547E+02 0.  0.
         12    1    1    2    0    0  0.52113262238E+01  0.29442470307E+02 -0.11077162659E+02  0.31886055124E+02  0.00000000000E+00 0. -1.
         11    1    3    3    0    0  0.31598772597E+01 -0.75327313981E+01 -0.15488045446E+02  0.17510180428E+02  0.51100000000E-03 0. -1.
        -11    1    3    3    0    0  0.15143661216E+01 -0.22124807576E+02  0.20446023642E+02  0.30163559108E+02  0.51100000000E-03 0.  1.
        -12    1    3    3    0    0 -0.98855696052E+01  0.21506866719E+00  0.61191844633E+01  0.11628205341E+02  0.00000000000E+00 0.  1.
</event>
<event>
 7    1  0.4673733E-013  0.5930193E+02  0.7816164E-02  0.1266605E+00
        -11   -1    0    0    0    0  0.00000000000E+00  0.00000000000E+00  0.45593999997E+02  0.45594000000E+02  0.51100000000E-03 0.  1.
         11   -1    0    0    0    0 -0.00000000000E+00 -0.00000000000E+00 -0.45593999997E+02  0.45594000000E+02  0.51100000000E-03 0. -1.
    9900012    2    1    2    0    0  0.11504791848E+02  0.18632804136E+02  0.23177138206E+02  0.59301931555E+02  0.49999977254E+02 0.  0.
         12    1    1    2    0    0 -0.11504791848E+02 -0.18632804136E+02 -0.23177138206E+02  0.31886068445E+02  0.00000000000E+00 0. -1.
         11    1    3    3    0    0 -0.85978882804E+01  0.15517924931E+02  0.11513468316E+02  0.21149222917E+02  0.51100000000E-03 0. -1.
        -11    1    3    3    0    0  0.17633943363E+02 -0.27807551171E+01  0.20540631614E+02  0.27214079167E+02  0.51100000000E-03 0.  1.
         12    1    3    3    0    0  0.24687367651E+01  0.58956343224E+01 -0.88769617241E+01  0.10938629472E+02  0.00000000000E+00 0. -1.
</event>
<event>
 7    1  0.4673733E-013  0.5930198E+02  0.7816164E-02  0.1266605E+00
        -11   -1    0    0    0    0  0.00000000000E+00  0.00000000000E+00  0.45593999997E+02  0.45594000000E+02  0.51100000000E-03 0.  1.
         11   -1    0    0    0    0 -0.00000000000E+00 -0.00000000000E+00 -0.45593999997E+02  0.45594000000E+02  0.51100000000E-03 0. -1.
    9900012    2    1    2    0    0  0.22758053606E+02  0.20280909536E+02  0.93527578367E+01  0.59301978381E+02  0.50000062652E+02 0.  0.
         12    1    1    2    0    0 -0.22758053606E+02 -0.20280909536E+02 -0.93527578367E+01  0.31886021619E+02  0.00000000000E+00 0. -1.
         11    1    3    3    0    0  0.18973424947E+02 -0.96222253306E+01  0.38124999215E+01  0.21612802466E+02  0.51100000000E-03 0. -1.
        -11    1    3    3    0    0  0.12390811488E+02  0.23193143631E+02  0.28492501192E+01  0.26449430000E+02  0.51100000000E-03 0.  1.
        -12    1    3    3    0    0 -0.86061828289E+01  0.67099912361E+01  0.26910077959E+01  0.11239745915E+02  0.00000000000E+00 0.  1.
</event>
<event>
 7    1  0.4673733E-013  0.5930195E+02  0.7816164E-02  0.1266605E+00
        -11   -1    0    0    0    0  0.00000000000E+00  0.00000000000E+00  0.45593999997E+02  0.45594000000E+02  0.51100000000E-03 0.  1.
         11   -1    0    0    0    0 -0.00000000000E+00 -0.00000000000E+00 -0.45593999997E+02  0.45594000000E+02  0.51100000000E-03 0. -1.
    9900012    2    1    2    0    0  0.19519465664E+02  0.23721511654E+02  0.85440395928E+01  0.59301948700E+02  0.50000008521E+02 0.  0.
         12    1    1    2    0    0 -0.19519465664E+02 -0.23721511654E+02 -0.85440395928E+01  0.31886051300E+02  0.00000000000E+00 0. -1.
         11    1    3    3    0    0 -0.38753355724E+01  0.38589057600E+01  0.46395410214E+01  0.71718003747E+01  0.51100000000E-03 0. -1.
        -11    1    3    3    0    0  0.19685759849E+02 -0.82601692424E+01 -0.58465760452E+01  0.22134633235E+02  0.51100000000E-03 0.  1.
        -12    1    3    3    0    0  0.37090413877E+01  0.28122775136E+02  0.97510746166E+01  0.29995515091E+02  0.00000000000E+00 0.  1.
</event>
<event>
 7    1  0.4673733E-013  0.5930190E+02  0.7816164E-02  0.1266605E+00
        -11   -1    0    0    0    0  0.00000000000E+00  0.00000000000E+00  0.45593999997E+02  0.45594000000E+02  0.51100000000E-03 0.  1.
         11   -1    0    0    0    0 -0.00000000000E+00 -0.00000000000E+00 -0.45593999997E+02  0.45594000000E+02  0.51100000000E-03 0. -1.
    9900012    2    1    2    0    0  0.20100143230E+02  0.24594408991E+02  0.27969312087E+01  0.59301897452E+02  0.49999915057E+02 0.  0.
         12    1    1    2    0    0 -0.20100143230E+02 -0.24594408991E+02 -0.27969312087E+01  0.31886102548E+02  0.00000000000E+00 0. -1.
         11    1    3    3    0    0  0.86440410399E+01  0.21666291565E+02 -0.11968225571E+02  0.26218048350E+02  0.51100000000E-03 0. -1.
        -11    1    3    3    0    0  0.16493903002E+02  0.85675376393E+01  0.17010725825E+02  0.25195561728E+02  0.51100000000E-03 0.  1.
        -12    1    3    3    0    0 -0.50378008120E+01 -0.56394202130E+01 -0.22455690452E+01  0.78882873742E+01  0.00000000000E+00 0.  1.
</event>
<event>
 7    1  0.4673733E-013  0.5930188E+02  0.7816164E-02  0.1266605E+00
        -11   -1    0    0    0    0  0.00000000000E+00  0.00000000000E+00  0.45593999997E+02  0.45594000000E+02  0.51100000000E-03 0. -1.
         11   -1    0    0    0    0 -0.00000000000E+00 -0.00000000000E+00 -0.45593999997E+02  0.45594000000E+02  0.51100000000E-03 0.  1.
    9900012    2    1    2    0    0  0.15738984743E+02 -0.14666746097E+02 -0.23534981801E+02  0.59301883112E+02  0.49999888905E+02 0.  0.
         12    1    1    2    0    0 -0.15738984743E+02  0.14666746097E+02  0.23534981801E+02  0.31886116888E+02  0.00000000000E+00 0. -1.
         11    1    3    3    0    0  0.10915711398E+02 -0.12197893211E+02 -0.83449991188E+01  0.18373360190E+02  0.51100000000E-03 0. -1.
        -11    1    3    3    0    0 -0.79989474594E+00  0.79360909351E+01  0.10182629042E+02  0.12934732521E+02  0.51100000000E-03 0.  1.
        -12    1    3    3    0    0  0.56231680907E+01 -0.10404943821E+02 -0.25372611725E+02  0.27993790401E+02  0.00000000000E+00 0.  1.
</event>
<event>
 7    1  0.4673733E-013  0.5930194E+02  0.7816164E-02  0.1266605E+00
        -11   -1    0    0    0    0  0.00000000000E+00  0.00000000000E+00  0.45593999997E+02  0.45594000000E+02  0.51100000000E-03 0.  1.
         11   -1    0    0    0    0 -0.00000000000E+00 -0.00000000000E+00 -0.45593999997E+02  0.45594000000E+02  0.51100000000E-03 0. -1.
    9900012    2    1    2    0    0  0.14832762070E+02 -0.26786026431E+02 -0.89004998642E+01  0.59301938148E+02  0.49999989277E+02 0.  0.
         12    1    1    2    0    0 -0.14832762070E+02  0.26786026431E+02  0.89004998642E+01  0.31886061852E+02  0.00000000000E+00 0. -1.
         11    1    3    3    0    0  0.40221960054E+00 -0.15613187602E+02 -0.15536795997E+02  0.22030102992E+02  0.51100000000E-03 0. -1.
        -11    1    3    3    0    0  0.11222605497E+02 -0.11267670200E+02  0.18839143002E+02  0.24654017424E+02  0.51100000000E-03 0.  1.
        -12    1    3    3    0    0  0.32079369731E+01  0.94831370961E-01 -0.12202846869E+02  0.12617817732E+02  0.00000000000E+00 0.  1.
</event>
<event>
 7    1  0.4673733E-013  0.5930192E+02  0.7816164E-02  0.1266605E+00
        -11   -1    0    0    0    0  0.00000000000E+00  0.00000000000E+00  0.45593999997E+02  0.45594000000E+02  0.51100000000E-03 0.  1.
         11   -1    0    0    0    0 -0.00000000000E+00 -0.00000000000E+00 -0.45593999997E+02  0.45594000000E+02  0.51100000000E-03 0. -1.
    9900012    2    1    2    0    0 -0.17250704118E+02 -0.26812294763E+02 -0.48606227236E+00  0.59301918404E+02  0.49999953268E+02 0.  0.
         12    1    1    2    0    0  0.17250704118E+02  0.26812294763E+02  0.48606227236E+00  0.31886081596E+02  0.00000000000E+00 0. -1.
         11    1    3    3    0    0 -0.50878526002E+01 -0.20786655726E+02 -0.22147860520E+02  0.30797711380E+02  0.51100000000E-03 0. -1.
        -11    1    3    3    0    0  0.24633464451E+01 -0.23041201896E+00  0.50582423377E+01  0.56308952410E+01  0.51100000000E-03 0.  1.
         12    1    3    3    0    0 -0.14626197963E+02 -0.57952270185E+01  0.16603555910E+02  0.22873311783E+02  0.00000000000E+00 0. -1.
</event>
<event>
 7    1  0.4673733E-013  0.5930194E+02  0.7816164E-02  0.1266605E+00
        -11   -1    0    0    0    0  0.00000000000E+00  0.00000000000E+00  0.45593999997E+02  0.45594000000E+02  0.51100000000E-03 0. -1.
         11   -1    0    0    0    0 -0.00000000000E+00 -0.00000000000E+00 -0.45593999997E+02  0.45594000000E+02  0.51100000000E-03 0.  1.
    9900012    2    1    2    0    0  0.19720997983E+02 -0.23357502965E+02 -0.90680794793E+01  0.59301940794E+02  0.49999994103E+02 0.  0.
         12    1    1    2    0    0 -0.19720997983E+02  0.23357502965E+02  0.90680794793E+01  0.31886059206E+02  0.00000000000E+00 0. -1.
         11    1    3    3    0    0  0.10040572461E+02  0.40895276306E+01 -0.23284047267E+02  0.25684317958E+02  0.51100000000E-03 0. -1.
        -11    1    3    3    0    0  0.74059758536E+01 -0.99133647885E+01  0.31831998392E+01  0.12777168749E+02  0.51100000000E-03 0.  1.
         12    1    3    3    0    0  0.22744496682E+01 -0.17533665807E+02  0.11032767948E+02  0.20840454087E+02  0.00000000000E+00 0. -1.
</event>
<event>
 7    1  0.4673733E-013  0.5930207E+02  0.7816164E-02  0.1266604E+00
        -11   -1    0    0    0    0  0.00000000000E+00  0.00000000000E+00  0.45593999997E+02  0.45594000000E+02  0.51100000000E-03 0. -1.
         11   -1    0    0    0    0 -0.00000000000E+00 -0.00000000000E+00 -0.45593999997E+02  0.45594000000E+02  0.51100000000E-03 0.  1.
    9900012    2    1    2    0    0 -0.21507869511E+02  0.22177932053E+02 -0.78906974868E+01  0.59302074768E+02  0.50000238439E+02 0.  0.
         12    1    1    2    0    0  0.21507869511E+02 -0.22177932053E+02  0.78906974868E+01  0.31885925232E+02  0.00000000000E+00 0. -1.
         11    1    3    3    0    0 -0.25286834355E+02  0.64784927549E-01 -0.38417576929E+00  0.25289835509E+02  0.51100000000E-03 0. -1.
        -11    1    3    3    0    0  0.22079043665E+01  0.28308621493E+01 -0.13332873608E+02  0.13807756556E+02  0.51100000000E-03 0.  1.
         12    1    3    3    0    0  0.15710604781E+01  0.19282284977E+02  0.58263518905E+01  0.20204482703E+02  0.00000000000E+00 0. -1.
</event>
<event>
 7    1  0.4673733E-013  0.5930201E+02  0.7816164E-02  0.1266605E+00
        -11   -1    0    0    0    0  0.00000000000E+00  0.00000000000E+00  0.45593999997E+02  0.45594000000E+02  0.51100000000E-03 0.  1.
         11   -1    0    0    0    0 -0.00000000000E+00 -0.00000000000E+00 -0.45593999997E+02  0.45594000000E+02  0.51100000000E-03 0. -1.
    9900012    2    1    2    0    0 -0.15331994902E+02  0.72100978857E+01  0.27012230777E+02  0.59302012627E+02  0.50000125109E+02 0.  0.
         12    1    1    2    0    0  0.15331994902E+02 -0.72100978857E+01 -0.27012230777E+02  0.31885987373E+02  0.00000000000E+00 0. -1.
         11    1    3    3    0    0  0.13263841832E-01  0.16500969633E+02  0.90559167590E+01  0.18822640712E+02  0.51100000000E-03 0. -1.
        -11    1    3    3    0    0  0.23194649338E+01 -0.16213682155E+02  0.12887602157E+02  0.20841153908E+02  0.51100000000E-03 0.  1.
        -12    1    3    3    0    0 -0.17664723678E+02  0.69228104073E+01  0.50687118602E+01  0.19638218007E+02  0.00000000000E+00 0.  1.
</event>
<event>
 7    1  0.4673733E-013  0.5930194E+02  0.7816164E-02  0.1266605E+00
        -11   -1    0    0    0    0  0.00000000000E+00  0.00000000000E+00  0.45593999997E+02  0.45594000000E+02  0.51100000000E-03 0.  1.
         11   -1    0    0    0    0 -0.00000000000E+00 -0.00000000000E+00 -0.45593999997E+02  0.45594000000E+02  0.51100000000E-03 0. -1.
    9900012    2    1    2    0    0  0.23103329542E+02  0.19575514144E+02 -0.99878152278E+01  0.59301936540E+02  0.49999986345E+02 0.  0.
         12    1    1    2    0    0 -0.23103329542E+02 -0.19575514144E+02  0.99878152278E+01  0.31886063460E+02  0.00000000000E+00 0. -1.
         11    1    3    3    0    0  0.19338780652E+02 -0.34830255316E+00 -0.21640776580E+02  0.29024695744E+02  0.51100000000E-03 0. -1.
        -11    1    3    3    0    0  0.53203239813E+01  0.23419545265E+02  0.10915748660E+02  0.26380570819E+02  0.51100000000E-03 0.  1.
         12    1    3    3    0    0 -0.15557750916E+01 -0.34957285679E+01  0.73721269203E+00  0.38966699770E+01  0.00000000000E+00 0. -1.
</event>
<event>
 7    1  0.4673733E-013  0.5930195E+02  0.7816164E-02  0.1266605E+00
        -11   -1    0    0    0    0  0.00000000000E+00  0.00000000000E+00  0.45593999997E+02  0.45594000000E+02  0.51100000000E-03 0. -1.
         11   -1    0    0    0    0 -0.00000000000E+00 -0.00000000000E+00 -0.45593999997E+02  0.45594000000E+02  0.51100000000E-03 0.  1.
    9900012    2    1    2    0    0  0.25804571235E+02  0.17573721371E+02 -0.64814129227E+01  0.59301948301E+02  0.50000007794E+02 0.  0.
         12    1    1    2    0    0 -0.25804571235E+02 -0.17573721371E+02  0.64814129227E+01  0.31886051699E+02  0.00000000000E+00 0. -1.
         11    1    3    3    0    0 -0.17884828471E+01  0.16105819392E+02  0.65560068055E+01  0.17480769854E+02  0.51100000000E-03 0. -1.
        -11    1    3    3    0    0  0.60456044959E+01 -0.68760980489E+01 -0.16091166758E+02  0.18513662685E+02  0.51100000000E-03 0.  1.
         12    1    3    3    0    0  0.21547449586E+02  0.83440000283E+01  0.30537470299E+01  0.23307515763E+02  0.00000000000E+00 0. -1.
</event>
<event>
 7    1  0.4756182E-013  0.5930193E+02  0.7816164E-02  0.1266605E+00
        -11   -1    0    0    0    0  0.00000000000E+00  0.00000000000E+00  0.45593999997E+02  0.45594000000E+02  0.51100000000E-03 0.  1.
         11   -1    0    0    0    0 -0.00000000000E+00 -0.00000000000E+00 -0.45593999997E+02  0.45594000000E+02  0.51100000000E-03 0. -1.
    9900012    2    1    2    0    0  0.25893510299E+02 -0.60559286762E+01 -0.17594694394E+02  0.59301930651E+02  0.49999975603E+02 0.  0.
         12    1    1    2    0    0 -0.25893510299E+02  0.60559286762E+01  0.17594694394E+02  0.31886069349E+02  0.00000000000E+00 0. -1.
         11    1    3    3    0    0 -0.30243152178E+01 -0.14851240511E+02 -0.20902202437E+01  0.15299504835E+02  0.51100000000E-03 0. -1.
        -11    1    3    3    0    0  0.16934892365E+02  0.13046505864E+02  0.29622126053E+01  0.21581858086E+02  0.51100000000E-03 0.  1.
        -12    1    3    3    0    0  0.11982933151E+02 -0.42511940289E+01 -0.18466686756E+02  0.22420567730E+02  0.00000000000E+00 0.  1.
</event>
<event>
 7    1  0.4673733E-013  0.5930206E+02  0.7816164E-02  0.1266604E+00
        -11   -1    0    0    0    0  0.00000000000E+00  0.00000000000E+00  0.45593999997E+02  0.45594000000E+02  0.51100000000E-03 0. -1.
         11   -1    0    0    0    0 -0.00000000000E+00 -0.00000000000E+00 -0.45593999997E+02  0.45594000000E+02  0.51100000000E-03 0.  1.
    9900012    2    1    2    0    0 -0.76645012071E+00 -0.29859979259E+02 -0.11158286397E+02  0.59302060114E+02  0.50000211712E+02 0.  0.
         12    1    1    2    0    0  0.76645012071E+00  0.29859979259E+02  0.11158286397E+02  0.31885939886E+02  0.00000000000E+00 0. -1.
         11    1    3    3    0    0 -0.13926997826E+02 -0.14804596032E+02  0.96611987804E+01  0.22505023756E+02  0.51100000000E-03 0. -1.
        -11    1    3    3    0    0  0.15507351593E+01  0.60119458912E+01 -0.53665915729E+01  0.82066179577E+01  0.51100000000E-03 0.  1.
         12    1    3    3    0    0  0.11609812546E+02 -0.21067329117E+02 -0.15452893605E+02  0.28590418400E+02  0.00000000000E+00 0. -1.
</event>
<event>
 7    1  0.4673733E-013  0.5930194E+02  0.7816164E-02  0.1266605E+00
        -11   -1    0    0    0    0  0.00000000000E+00  0.00000000000E+00  0.45593999997E+02  0.45594000000E+02  0.51100000000E-03 0.  1.
         11   -1    0    0    0    0 -0.00000000000E+00 -0.00000000000E+00 -0.45593999997E+02  0.45594000000E+02  0.51100000000E-03 0. -1.
    9900012    2    1    2    0    0  0.21694955318E+02 -0.22851301297E+02  0.48854451784E+01  0.59301942987E+02  0.49999998103E+02 0.  0.
         12    1    1    2    0    0 -0.21694955318E+02  0.22851301297E+02 -0.48854451784E+01  0.31886057013E+02  0.00000000000E+00 0. -1.
         11    1    3    3    0    0  0.12723523519E+02  0.48030463116E+01 -0.10555202125E+02  0.17215388371E+02  0.51100000000E-03 0. -1.
        -11    1    3    3    0    0  0.11043538759E+01 -0.25992829030E+02  0.15820813211E+01  0.26064338473E+02  0.51100000000E-03 0.  1.
        -12    1    3    3    0    0  0.78670779240E+01 -0.16615185781E+01  0.13858565982E+02  0.16022216143E+02  0.00000000000E+00 0.  1.
</event>
<event>
 7    1  0.4673733E-013  0.5930194E+02  0.7816164E-02  0.1266605E+00
        -11   -1    0    0    0    0  0.00000000000E+00  0.00000000000E+00  0.45593999997E+02  0.45594000000E+02  0.51100000000E-03 0.  1.
         11   -1    0    0    0    0 -0.00000000000E+00 -0.00000000000E+00 -0.45593999997E+02  0.45594000000E+02  0.51100000000E-03 0. -1.
    9900012    2    1    2    0    0  0.30709023034E+02 -0.53060722294E+01  0.67470088521E+01  0.59301943068E+02  0.49999998251E+02 0.  0.
         12    1    1    2    0    0 -0.30709023034E+02  0.53060722294E+01 -0.67470088521E+01  0.31886056932E+02  0.00000000000E+00 0. -1.
         11    1    3    3    0    0  0.12941696573E+02 -0.15830454582E+02 -0.88859324282E+01  0.22294631592E+02  0.51100000000E-03 0. -1.
        -11    1    3    3    0    0  0.66873048221E+01  0.14622248950E+02 -0.15518834864E+01  0.16153592565E+02  0.51100000000E-03 0.  1.
        -12    1    3    3    0    0  0.11080021638E+02 -0.40978665981E+01  0.17184824767E+02  0.20853718911E+02  0.00000000000E+00 0.  1.
</event>
<event>
 7    1  0.4673733E-013  0.5930194E+02  0.7816164E-02  0.1266605E+00
        -11   -1    0    0    0    0  0.00000000000E+00  0.00000000000E+00  0.45593999997E+02  0.45594000000E+02  0.51100000000E-03 0.  1.
         11   -1    0    0    0    0 -0.00000000000E+00 -0.00000000000E+00 -0.45593999997E+02  0.45594000000E+02  0.51100000000E-03 0. -1.
    9900012    2    1    2    0    0 -0.15108883919E+02  0.27590676185E+02 -0.52150753502E+01  0.59301940405E+02  0.49999993392E+02 0.  0.
         12    1    1    2    0    0  0.15108883919E+02 -0.27590676185E+02  0.52150753502E+01  0.31886059595E+02  0.00000000000E+00 0. -1.
         11    1    3    3    0    0  0.47070736887E+01 -0.67845064322E+01 -0.92803910269E+01  0.12422227180E+02  0.51100000000E-03 0. -1.
        -11    1    3    3    0    0 -0.19447905182E+02  0.12115638107E+02  0.80051007950E+01  0.24271203961E+02  0.51100000000E-03 0.  1.
         12    1    3    3    0    0 -0.36805242624E+00  0.22259544510E+02 -0.39397851182E+01  0.22608509264E+02  0.00000000000E+00 0. -1.
</event>
<event>
 7    1  0.4673733E-013  0.5930193E+02  0.7816164E-02  0.1266605E+00
        -11   -1    0    0    0    0  0.00000000000E+00  0.00000000000E+00  0.45593999997E+02  0.45594000000E+02  0.51100000000E-03 0.  1.
         11   -1    0    0    0    0 -0.00000000000E+00 -0.00000000000E+00 -0.45593999997E+02  0.45594000000E+02  0.51100000000E-03 0. -1.
    9900012    2    1    2    0    0 -0.27316066891E+02  0.71693855282E+01 -0.14803853621E+02  0.59301926531E+02  0.49999968090E+02 0.  0.
         12    1    1    2    0    0  0.27316066891E+02 -0.71693855282E+01  0.14803853621E+02  0.31886073469E+02  0.00000000000E+00 0. -1.
         11    1    3    3    0    0 -0.46261933306E+01 -0.16173089678E+02  0.75609241416E+00  0.16838710475E+02  0.51100000000E-03 0. -1.
        -11    1    3    3    0    0 -0.86948877713E+01  0.22087995666E+02 -0.35957665231E+01  0.24008543543E+02  0.51100000000E-03 0.  1.
         12    1    3    3    0    0 -0.13994985789E+02  0.12544795407E+01 -0.11964179512E+02  0.18454672513E+02  0.00000000000E+00 0. -1.
</event>
<event>
 7    1  0.4673733E-013  0.5930191E+02  0.7816164E-02  0.1266605E+00
        -11   -1    0    0    0    0  0.00000000000E+00  0.00000000000E+00  0.45593999997E+02  0.45594000000E+02  0.51100000000E-03 0. -1.
         11   -1    0    0    0    0 -0.00000000000E+00 -0.00000000000E+00 -0.45593999997E+02  0.45594000000E+02  0.51100000000E-03 0.  1.
    9900012    2    1    2    0    0 -0.15363976061E+02  0.25099918977E+02 -0.12274558399E+02  0.59301914054E+02  0.49999945335E+02 0.  0.
         12    1    1    2    0    0  0.15363976061E+02 -0.25099918977E+02  0.12274558399E+02  0.31886085946E+02  0.00000000000E+00 0. -1.
         11    1    3    3    0    0 -0.29808390697E+00  0.30817172913E+02 -0.22155250865E+00  0.30819410866E+02  0.51100000000E-03 0. -1.
        -11    1    3    3    0    0 -0.56875780002E+01 -0.73305052474E+01  0.37728615765E+01  0.10015954045E+02  0.51100000000E-03 0.  1.
        -12    1    3    3    0    0 -0.93783141537E+01  0.16132513112E+01 -0.15825867467E+02  0.18466549143E+02  0.00000000000E+00 0.  1.
</event>
<event>
 7    1  0.4673733E-013  0.5930194E+02  0.7816164E-02  0.1266605E+00
        -11   -1    0    0    0    0  0.00000000000E+00  0.00000000000E+00  0.45593999997E+02  0.45594000000E+02  0.51100000000E-03 0. -1.
         11   -1    0    0    0    0 -0.00000000000E+00 -0.00000000000E+00 -0.45593999997E+02  0.45594000000E+02  0.51100000000E-03 0.  1.
    9900012    2    1    2    0    0  0.16884370467E+02  0.25753467319E+02  0.82702843328E+01  0.59301942734E+02  0.49999997640E+02 0.  0.
         12    1    1    2    0    0 -0.16884370467E+02 -0.25753467319E+02 -0.82702843328E+01  0.31886057266E+02  0.00000000000E+00 0. -1.
         11    1    3    3    0    0  0.24440169588E+02  0.17542461656E+02  0.22185188088E+02  0.37379706007E+02  0.51100000000E-03 0. -1.
        -11    1    3    3    0    0 -0.10769288574E+01 -0.18485147878E+01  0.13477397301E+01  0.25284749011E+01  0.51100000000E-03 0.  1.
         12    1    3    3    0    0 -0.64788702636E+01  0.10059520451E+02 -0.15262643485E+02  0.19393761825E+02  0.00000000000E+00 0. -1.
</event>
<event>
 7    1  0.4673733E-013  0.5930195E+02  0.7816164E-02  0.1266605E+00
        -11   -1    0    0    0    0  0.00000000000E+00  0.00000000000E+00  0.45593999997E+02  0.45594000000E+02  0.51100000000E-03 0.  1.
         11   -1    0    0    0    0 -0.00000000000E+00 -0.00000000000E+00 -0.45593999997E+02  0.45594000000E+02  0.51100000000E-03 0. -1.
    9900012    2    1    2    0    0 -0.22718314332E+02 -0.21537237526E+02 -0.60618487833E+01  0.59301946355E+02  0.50000004245E+02 0.  0.
         12    1    1    2    0    0  0.22718314332E+02  0.21537237526E+02  0.60618487833E+01  0.31886053645E+02  0.00000000000E+00 0. -1.
         11    1    3    3    0    0 -0.12256691562E+02  0.12422235914E+02  0.58261957154E+01  0.18397907216E+02  0.51100000000E-03 0.  1.
        -11    1    3    3    0    0 -0.52567086250E+00 -0.19937495126E+02  0.11002766088E+00  0.19944727326E+02  0.51100000000E-03 0. -1.
        -12    1    3    3    0    0 -0.99359519077E+01 -0.14021978314E+02 -0.11998072160E+02  0.20959311814E+02  0.00000000000E+00 0.  1.
</event>
<event>
 7    1  0.4673733E-013  0.5930201E+02  0.7816164E-02  0.1266605E+00
        -11   -1    0    0    0    0  0.00000000000E+00  0.00000000000E+00  0.45593999997E+02  0.45594000000E+02  0.51100000000E-03 0. -1.
         11   -1    0    0    0    0 -0.00000000000E+00 -0.00000000000E+00 -0.45593999997E+02  0.45594000000E+02  0.51100000000E-03 0.  1.
    9900012    2    1    2    0    0 -0.72019666867E+01  0.18652617822E+02 -0.24838036773E+02  0.59302007048E+02  0.50000114935E+02 0.  0.
         12    1    1    2    0    0  0.72019666867E+01 -0.18652617822E+02  0.24838036773E+02  0.31885992952E+02  0.00000000000E+00 0. -1.
         11    1    3    3    0    0  0.28502911027E+01 -0.13943949523E+02 -0.13321707710E+02  0.19494250030E+02  0.51100000000E-03 0. -1.
        -11    1    3    3    0    0  0.69963468968E+00  0.20791461831E+02 -0.11642835887E+02  0.23839672849E+02  0.51100000000E-03 0.  1.
         12    1    3    3    0    0 -0.10751892479E+02  0.11805105514E+02  0.12650682394E+00  0.15968084170E+02  0.00000000000E+00 0. -1.
</event>
<event>
 7    1  0.4673733E-013  0.5930195E+02  0.7816164E-02  0.1266605E+00
        -11   -1    0    0    0    0  0.00000000000E+00  0.00000000000E+00  0.45593999997E+02  0.45594000000E+02  0.51100000000E-03 0.  1.
         11   -1    0    0    0    0 -0.00000000000E+00 -0.00000000000E+00 -0.45593999997E+02  0.45594000000E+02  0.51100000000E-03 0. -1.
    9900012    2    1    2    0    0 -0.34868078311E+01  0.31677914708E+02  0.10353503049E+01  0.59301951964E+02  0.50000014474E+02 0.  0.
         12    1    1    2    0    0  0.34868078311E+01 -0.31677914708E+02 -0.10353503049E+01  0.31886048036E+02  0.00000000000E+00 0. -1.
         11    1    3    3    0    0  0.12407101077E+02  0.95744143303E+01 -0.96838496699E+01  0.18422337300E+02  0.51100000000E-03 0. -1.
        -11    1    3    3    0    0 -0.51995231539E+01  0.17338669753E+02  0.19226832659E+02  0.26407112757E+02  0.51100000000E-03 0.  1.
         12    1    3    3    0    0 -0.10694385755E+02  0.47648306250E+01 -0.85076326839E+01  0.14472501907E+02  0.00000000000E+00 0. -1.
</event>
<event>
 7    1  0.4673733E-013  0.5930189E+02  0.7816164E-02  0.1266605E+00
        -11   -1    0    0    0    0  0.00000000000E+00  0.00000000000E+00  0.45593999997E+02  0.45594000000E+02  0.51100000000E-03 0. -1.
         11   -1    0    0    0    0 -0.00000000000E+00 -0.00000000000E+00 -0.45593999997E+02  0.45594000000E+02  0.51100000000E-03 0.  1.
    9900012    2    1    2    0    0  0.29075082400E+02 -0.12434925673E+02  0.40909571207E+01  0.59301894511E+02  0.49999909693E+02 0.  0.
         12    1    1    2    0    0 -0.29075082400E+02  0.12434925673E+02 -0.40909571207E+01  0.31886105489E+02  0.00000000000E+00 0. -1.
         11    1    3    3    0    0  0.17783623907E+02 -0.85701519067E+01  0.10602257114E+02  0.22407870027E+02  0.51100000000E-03 0. -1.
        -11    1    3    3    0    0 -0.12077676751E+02 -0.38399623410E+01 -0.44588664252E+01  0.13434920042E+02  0.51100000000E-03 0.  1.
        -12    1    3    3    0    0  0.23369135244E+02 -0.24811425656E-01 -0.20524335681E+01  0.23459104442E+02  0.00000000000E+00 0.  1.
</event>
<event>
 7    1  0.4673733E-013  0.5930194E+02  0.7816164E-02  0.1266605E+00
        -11   -1    0    0    0    0  0.00000000000E+00  0.00000000000E+00  0.45593999997E+02  0.45594000000E+02  0.51100000000E-03 0. -1.
         11   -1    0    0    0    0 -0.00000000000E+00 -0.00000000000E+00 -0.45593999997E+02  0.45594000000E+02  0.51100000000E-03 0.  1.
    9900012    2    1    2    0    0  0.33527111668E+01 -0.22154158748E+02 -0.22686421228E+02  0.59301935173E+02  0.49999983852E+02 0.  0.
         12    1    1    2    0    0 -0.33527111668E+01  0.22154158748E+02  0.22686421228E+02  0.31886064827E+02  0.00000000000E+00 0. -1.
         11    1    3    3    0    0 -0.15468176939E+02  0.19588643392E+00 -0.22428112658E+02  0.27245607113E+02  0.51100000000E-03 0.  1.
        -11    1    3    3    0    0  0.15999390741E+02 -0.11294119076E+02 -0.41152376929E+01  0.20011816792E+02  0.51100000000E-03 0. -1.
        -12    1    3    3    0    0  0.28214973647E+01 -0.11055926105E+02  0.38569291226E+01  0.12044511268E+02  0.00000000000E+00 0.  1.
</event>
<event>
 7    1  0.4673733E-013  0.5930194E+02  0.7816164E-02  0.1266605E+00
        -11   -1    0    0    0    0  0.00000000000E+00  0.00000000000E+00  0.45593999997E+02  0.45594000000E+02  0.51100000000E-03 0.  1.
         11   -1    0    0    0    0 -0.00000000000E+00 -0.00000000000E+00 -0.45593999997E+02  0.45594000000E+02  0.51100000000E-03 0. -1.
    9900012    2    1    2    0    0  0.94359741879E+01  0.22502715369E+02  0.20525855197E+02  0.59301944436E+02  0.50000000745E+02 0.  0.
         12    1    1    2    0    0 -0.94359741879E+01 -0.22502715369E+02 -0.20525855197E+02  0.31886055564E+02  0.00000000000E+00 0. -1.
         11    1    3    3    0    0  0.11634822135E+02 -0.55267105726E+01 -0.67433626608E+01  0.14539138768E+02  0.51100000000E-03 0. -1.
        -11    1    3    3    0    0  0.48005590156E+01  0.26747066213E+02  0.16301663592E+02  0.31689038389E+02  0.51100000000E-03 0.  1.
        -12    1    3    3    0    0 -0.69994069631E+01  0.12823597288E+01  0.10967554265E+02  0.13073767279E+02  0.00000000000E+00 0.  1.
</event>
<event>
 7    1  0.4673733E-013  0.5930194E+02  0.7816164E-02  0.1266605E+00
        -11   -1    0    0    0    0  0.00000000000E+00  0.00000000000E+00  0.45593999997E+02  0.45594000000E+02  0.51100000000E-03 0.  1.
         11   -1    0    0    0    0 -0.00000000000E+00 -0.00000000000E+00 -0.45593999997E+02  0.45594000000E+02  0.51100000000E-03 0. -1.
    9900012    2    1    2    0    0 -0.18972371658E+02 -0.22839585577E+02  0.11624251066E+02  0.59301940844E+02  0.49999994193E+02 0.  0.
         12    1    1    2    0    0  0.18972371658E+02  0.22839585577E+02 -0.11624251066E+02  0.31886059156E+02  0.00000000000E+00 0. -1.
         11    1    3    3    0    0  0.97247276931E+01 -0.87769105032E+01  0.15551853074E+02  0.20333829472E+02  0.51100000000E-03 0. -1.
        -11    1    3    3    0    0 -0.17171595019E+02 -0.17420061951E+02  0.37092896118E+01  0.24740272100E+02  0.51100000000E-03 0.  1.
         12    1    3    3    0    0 -0.11525504332E+02  0.33573868776E+01 -0.76368916195E+01  0.14227839272E+02  0.00000000000E+00 0. -1.
</event>
<event>
 7    1  0.4673733E-013  0.5930195E+02  0.7816164E-02  0.1266605E+00
        -11   -1    0    0    0    0  0.00000000000E+00  0.00000000000E+00  0.45593999997E+02  0.45594000000E+02  0.51100000000E-03 0.  1.
         11   -1    0    0    0    0 -0.00000000000E+00 -0.00000000000E+00 -0.45593999997E+02  0.45594000000E+02  0.51100000000E-03 0. -1.
    9900012    2    1    2    0    0 -0.17643793812E+02  0.22369686963E+02 -0.14318312420E+02  0.59301946223E+02  0.50000004004E+02 0.  0.
         12    1    1    2    0    0  0.17643793812E+02 -0.22369686963E+02  0.14318312420E+02  0.31886053777E+02  0.00000000000E+00 0. -1.
         11    1    3    3    0    0 -0.12038393198E+02  0.12124373045E+02 -0.14714100896E+02  0.22548350227E+02  0.51100000000E-03 0. -1.
        -11    1    3    3    0    0  0.13496958003E+02  0.28097306288E+01  0.66718149554E+01  0.15315860296E+02  0.51100000000E-03 0.  1.
        -12    1    3    3    0    0 -0.19102358617E+02  0.74355832899E+01 -0.62760264793E+01  0.21437735700E+02  0.00000000000E+00 0.  1.
</event>
<event>
 7    1  0.4673733E-013  0.5930194E+02  0.7816164E-02  0.1266605E+00
        -11   -1    0    0    0    0  0.00000000000E+00  0.00000000000E+00  0.45593999997E+02  0.45594000000E+02  0.51100000000E-03 0.  1.
         11   -1    0    0    0    0 -0.00000000000E+00 -0.00000000000E+00 -0.45593999997E+02  0.45594000000E+02  0.51100000000E-03 0. -1.
    9900012    2    1    2    0    0 -0.24332197364E+02 -0.14751646581E+02  0.14389364424E+02  0.59301941700E+02  0.49999995754E+02 0.  0.
         12    1    1    2    0    0  0.24332197364E+02  0.14751646581E+02 -0.14389364424E+02  0.31886058300E+02  0.00000000000E+00 0. -1.
         11    1    3    3    0    0 -0.16941089791E+02 -0.15557655086E+02  0.16317378533E+02  0.28201028307E+02  0.51100000000E-03 0.  1.
        -11    1    3    3    0    0 -0.96841484256E+01  0.12979688190E+01 -0.14955325382E+02  0.17864187956E+02  0.51100000000E-03 0. -1.
         12    1    3    3    0    0  0.22930408529E+01 -0.49196031320E+00  0.13027311273E+02  0.13236725437E+02  0.00000000000E+00 0. -1.
</event>
<event>
 7    1  0.4673733E-013  0.5930194E+02  0.7816164E-02  0.1266605E+00
        -11   -1    0    0    0    0  0.00000000000E+00  0.00000000000E+00  0.45593999997E+02  0.45594000000E+02  0.51100000000E-03 0. -1.
         11   -1    0    0    0    0 -0.00000000000E+00 -0.00000000000E+00 -0.45593999997E+02  0.45594000000E+02  0.51100000000E-03 0.  1.
    9900012    2    1    2    0    0  0.21367235573E+02  0.21586721053E+02 -0.97044208002E+01  0.59301936196E+02  0.49999985717E+02 0.  0.
         12    1    1    2    0    0 -0.21367235573E+02 -0.21586721053E+02  0.97044208002E+01  0.31886063804E+02  0.00000000000E+00 0. -1.
         11    1    3    3    0    0  0.18305047486E+01 -0.76743106694E+01  0.72887888515E+01  0.10741146823E+02  0.51100000000E-03 0. -1.
        -11    1    3    3    0    0  0.17461333981E+02  0.33559336999E+02 -0.20126684069E+02  0.42851029113E+02  0.51100000000E-03 0.  1.
         12    1    3    3    0    0  0.20753968434E+01 -0.42983052765E+01  0.31334744169E+01  0.57097602602E+01  0.00000000000E+00 0. -1.
</event>
<event>
 7    1  0.4673733E-013  0.5930195E+02  0.7816164E-02  0.1266605E+00
        -11   -1    0    0    0    0  0.00000000000E+00  0.00000000000E+00  0.45593999997E+02  0.45594000000E+02  0.51100000000E-03 0.  1.
         11   -1    0    0    0    0 -0.00000000000E+00 -0.00000000000E+00 -0.45593999997E+02  0.45594000000E+02  0.51100000000E-03 0. -1.
    9900012    2    1    2    0    0  0.46473300616E+01  0.28624860536E+01  0.31415418806E+02  0.59301952238E+02  0.50000014974E+02 0.  0.
         12    1    1    2    0    0 -0.46473300616E+01 -0.28624860536E+01 -0.31415418806E+02  0.31886047762E+02  0.00000000000E+00 0. -1.
         11    1    3    3    0    0  0.18276757692E+02 -0.17496048064E+01  0.17179293515E+02  0.25144166613E+02  0.51100000000E-03 0. -1.
        -11    1    3    3    0    0 -0.21587308170E+02  0.40119644040E+00  0.12625597243E+02  0.25011568096E+02  0.51100000000E-03 0.  1.
        -12    1    3    3    0    0  0.79578805395E+01  0.42108944196E+01  0.16105280484E+01  0.91462175290E+01  0.00000000000E+00 0.  1.
</event>
<event>
 7    1  0.4673733E-013  0.5930193E+02  0.7816164E-02  0.1266605E+00
        -11   -1    0    0    0    0  0.00000000000E+00  0.00000000000E+00  0.45593999997E+02  0.45594000000E+02  0.51100000000E-03 0.  1.
         11   -1    0    0    0    0 -0.00000000000E+00 -0.00000000000E+00 -0.45593999997E+02  0.45594000000E+02  0.51100000000E-03 0. -1.
    9900012    2    1    2    0    0 -0.25643816626E+02 -0.18945431799E+02  0.43236737888E+00  0.59301926884E+02  0.49999968735E+02 0.  0.
         12    1    1    2    0    0  0.25643816626E+02  0.18945431799E+02 -0.43236737888E+00  0.31886073116E+02  0.00000000000E+00 0. -1.
         11    1    3    3    0    0  0.78203924500E+01 -0.65515832466E+01 -0.12526179740E+02  0.16155090846E+02  0.51100000000E-03 0. -1.
        -11    1    3    3    0    0 -0.18871825376E+02 -0.87959116666E+01 -0.32155017605E+01  0.21067826345E+02  0.51100000000E-03 0.  1.
         12    1    3    3    0    0 -0.14592383700E+02 -0.35979368855E+01  0.16174048879E+02  0.22079009693E+02  0.00000000000E+00 0. -1.
</event>
<event>
 7    1  0.4673733E-013  0.5930199E+02  0.7816164E-02  0.1266605E+00
        -11   -1    0    0    0    0  0.00000000000E+00  0.00000000000E+00  0.45593999997E+02  0.45594000000E+02  0.51100000000E-03 0.  1.
         11   -1    0    0    0    0 -0.00000000000E+00 -0.00000000000E+00 -0.45593999997E+02  0.45594000000E+02  0.51100000000E-03 0. -1.
    9900012    2    1    2    0    0  0.25650208690E+02  0.17068525423E+02  0.82127743989E+01  0.59301993206E+02  0.50000089688E+02 0.  0.
         12    1    1    2    0    0 -0.25650208690E+02 -0.17068525423E+02 -0.82127743989E+01  0.31886006794E+02  0.00000000000E+00 0. -1.
         11    1    3    3    0    0 -0.19540302193E+01 -0.65279213052E+01  0.29752252275E+01  0.74353181559E+01  0.51100000000E-03 0. -1.
        -11    1    3    3    0    0  0.24405479010E+02  0.29228357706E+02 -0.63385308998E+01  0.38601829933E+02  0.51100000000E-03 0.  1.
        -12    1    3    3    0    0  0.31987598992E+01 -0.56319109780E+01  0.11576080071E+02  0.13264845117E+02  0.00000000000E+00 0.  1.
</event>
<event>
 7    1  0.4673733E-013  0.5930193E+02  0.7816164E-02  0.1266605E+00
        -11   -1    0    0    0    0  0.00000000000E+00  0.00000000000E+00  0.45593999997E+02  0.45594000000E+02  0.51100000000E-03 0. -1.
         11   -1    0    0    0    0 -0.00000000000E+00 -0.00000000000E+00 -0.45593999997E+02  0.45594000000E+02  0.51100000000E-03 0.  1.
    9900012    2    1    2    0    0  0.16774716988E+02 -0.25092475564E+02  0.10280963944E+02  0.59301926557E+02  0.49999968138E+02 0.  0.
         12    1    1    2    0    0 -0.16774716988E+02  0.25092475564E+02 -0.10280963944E+02  0.31886073443E+02  0.00000000000E+00 0. -1.
         11    1    3    3    0    0 -0.75619215097E+01 -0.12367795376E+01 -0.71029053826E+01  0.10448135991E+02  0.51100000000E-03 0. -1.
        -11    1    3    3    0    0  0.23998194785E+02 -0.27555926980E+02  0.22211311837E+02  0.42761955503E+02  0.51100000000E-03 0.  1.
        -12    1    3    3    0    0  0.33844371325E+00  0.37002309539E+01 -0.48274425098E+01  0.60918350638E+01  0.00000000000E+00 0.  1.
</event>
<event>
 7    1  0.4673733E-013  0.5930193E+02  0.7816164E-02  0.1266605E+00
        -11   -1    0    0    0    0  0.00000000000E+00  0.00000000000E+00  0.45593999997E+02  0.45594000000E+02  0.51100000000E-03 0.  1.
         11   -1    0    0    0    0 -0.00000000000E+00 -0.00000000000E+00 -0.45593999997E+02  0.45594000000E+02  0.51100000000E-03 0. -1.
    9900012    2    1    2    0    0  0.89685361851E+01 -0.15500423121E+02  0.26382255583E+02  0.59301934581E+02  0.49999982772E+02 0.  0.
         12    1    1    2    0    0 -0.89685361851E+01  0.15500423121E+02 -0.26382255583E+02  0.31886065419E+02  0.00000000000E+00 0. -1.
         11    1    3    3    0    0 -0.25965570298E+01 -0.11035541162E+01  0.21251293278E+01  0.35321544441E+01  0.51100000000E-03 0. -1.
        -11    1    3    3    0    0  0.19082332846E+02 -0.19081221871E+01  0.33435010689E+02  0.38544471681E+02  0.51100000000E-03 0.  1.
        -12    1    3    3    0    0 -0.75172396312E+01 -0.12488746818E+02 -0.91778844335E+01  0.17225308456E+02  0.00000000000E+00 0.  1.
</event>
<event>
 7    1  0.4673733E-013  0.5930193E+02  0.7816164E-02  0.1266605E+00
        -11   -1    0    0    0    0  0.00000000000E+00  0.00000000000E+00  0.45593999997E+02  0.45594000000E+02  0.51100000000E-03 0.  1.
         11   -1    0    0    0    0 -0.00000000000E+00 -0.00000000000E+00 -0.45593999997E+02  0.45594000000E+02  0.51100000000E-03 0. -1.
    9900012    2    1    2    0    0 -0.27763113225E+02 -0.79441275138E+01  0.13521158388E+02  0.59301931850E+02  0.49999977791E+02 0.  0.
         12    1    1    2    0    0  0.27763113225E+02  0.79441275138E+01 -0.13521158388E+02  0.31886068150E+02  0.00000000000E+00 0. -1.
         11    1    3    3    0    0 -0.36258854402E+02  0.60838513836E+01  0.17833758262E+01  0.36808941846E+02  0.51100000000E-03 0. -1.
        -11    1    3    3    0    0 -0.17274562196E+01 -0.55527988543E+01  0.46144928853E+01  0.74236934848E+01  0.51100000000E-03 0.  1.
         12    1    3    3    0    0  0.10223197397E+02 -0.84751800431E+01  0.71232896764E+01  0.15069296519E+02  0.00000000000E+00 0. -1.
</event>
<event>
 7    1  0.4673733E-013  0.5930193E+02  0.7816164E-02  0.1266605E+00
        -11   -1    0    0    0    0  0.00000000000E+00  0.00000000000E+00  0.45593999997E+02  0.45594000000E+02  0.51100000000E-03 0.  1.
         11   -1    0    0    0    0 -0.00000000000E+00 -0.00000000000E+00 -0.45593999997E+02  0.45594000000E+02  0.51100000000E-03 0. -1.
    9900012    2    1    2    0    0 -0.61775145738E+01  0.29783501513E+02  0.95657179132E+01  0.59301927682E+02  0.49999970188E+02 0.  0.
         12    1    1    2    0    0  0.61775145738E+01 -0.29783501513E+02 -0.95657179132E+01  0.31886072318E+02  0.00000000000E+00 0. -1.
         11    1    3    3    0    0 -0.12128907102E+02  0.37524099658E+00 -0.13836624354E+02  0.18403895432E+02  0.51100000000E-03 0. -1.
        -11    1    3    3    0    0  0.87383700333E+01  0.14637127357E+02  0.64131589343E+01  0.18213544847E+02  0.51100000000E-03 0.  1.
         12    1    3    3    0    0 -0.27869775048E+01  0.14771133160E+02  0.16989183333E+02  0.22684487403E+02  0.00000000000E+00 0. -1.
</event>
<event>
 7    1  0.4673733E-013  0.5930193E+02  0.7816164E-02  0.1266605E+00
        -11   -1    0    0    0    0  0.00000000000E+00  0.00000000000E+00  0.45593999997E+02  0.45594000000E+02  0.51100000000E-03 0. -1.
         11   -1    0    0    0    0 -0.00000000000E+00 -0.00000000000E+00 -0.45593999997E+02  0.45594000000E+02  0.51100000000E-03 0.  1.
    9900012    2    1    2    0    0 -0.10271139071E+02 -0.18798378818E+01 -0.30127918785E+02  0.59301928141E+02  0.49999971027E+02 0.  0.
         12    1    1    2    0    0  0.10271139071E+02  0.18798378818E+01  0.30127918785E+02  0.31886071859E+02  0.00000000000E+00 0. -1.
         11    1    3    3    0    0  0.88871842168E+01 -0.62373093200E+01 -0.36746599027E+01  0.11462512662E+02  0.51100000000E-03 0. -1.
        -11    1    3    3    0    0 -0.18686870341E+02  0.16498137603E+02 -0.25487790966E+02  0.35651299501E+02  0.51100000000E-03 0.  1.
         12    1    3    3    0    0 -0.47145294644E+00 -0.12140666165E+02 -0.96546791608E+00  0.12188115979E+02  0.00000000000E+00 0. -1.
</event>
<event>
 7    1  0.4673733E-013  0.5930196E+02  0.7816164E-02  0.1266605E+00
        -11   -1    0    0    0    0  0.00000000000E+00  0.00000000000E+00  0.45593999997E+02  0.45594000000E+02  0.51100000000E-03 0. -1.
         11   -1    0    0    0    0 -0.00000000000E+00 -0.00000000000E+00 -0.45593999997E+02  0.45594000000E+02  0.51100000000E-03 0.  1.
    9900012    2    1    2    0    0 -0.14302726647E+02 -0.80439018206E+00 -0.28486914494E+02  0.59301963393E+02  0.50000035318E+02 0.  0.
         12    1    1    2    0    0  0.14302726647E+02  0.80439018206E+00  0.28486914494E+02  0.31886036607E+02  0.00000000000E+00 0. -1.
         11    1    3    3    0    0 -0.12534917458E+01  0.18685351874E+01  0.17384956725E+01  0.28434192037E+01  0.51100000000E-03 0. -1.
        -11    1    3    3    0    0 -0.16964056896E+02  0.13549262081E+02 -0.33040140204E+02  0.39534954082E+02  0.51100000000E-03 0.  1.
        -12    1    3    3    0    0  0.39148219953E+01 -0.16222187450E+02  0.28147300373E+01  0.16923590107E+02  0.00000000000E+00 0.  1.
</event>
<event>
 7    1  0.4673733E-013  0.5930196E+02  0.7816164E-02  0.1266605E+00
        -11   -1    0    0    0    0  0.00000000000E+00  0.00000000000E+00  0.45593999997E+02  0.45594000000E+02  0.51100000000E-03 0.  1.
         11   -1    0    0    0    0 -0.00000000000E+00 -0.00000000000E+00 -0.45593999997E+02  0.45594000000E+02  0.51100000000E-03 0. -1.
    9900012    2    1    2    0    0 -0.30632264477E+02  0.62987880233E+01  0.62216825203E+01  0.59301957741E+02  0.50000025009E+02 0.  0.
         12    1    1    2    0    0  0.30632264477E+02 -0.62987880233E+01 -0.62216825203E+01  0.31886042259E+02  0.00000000000E+00 0. -1.
         11    1    3    3    0    0 -0.70254493900E+01 -0.13854744094E+02 -0.35304799470E+01  0.15930322092E+02  0.51100000000E-03 0. -1.
        -11    1    3    3    0    0 -0.69905706745E+01  0.89125486759E+01  0.18334763761E+02  0.21551453888E+02  0.51100000000E-03 0.  1.
        -12    1    3    3    0    0 -0.16616244413E+02  0.11240983441E+02 -0.85826012936E+01  0.21820181761E+02  0.00000000000E+00 0.  1.
</event>
<event>
 7    1  0.4673733E-013  0.5930194E+02  0.7816164E-02  0.1266605E+00
        -11   -1    0    0    0    0  0.00000000000E+00  0.00000000000E+00  0.45593999997E+02  0.45594000000E+02  0.51100000000E-03 0.  1.
         11   -1    0    0    0    0 -0.00000000000E+00 -0.00000000000E+00 -0.45593999997E+02  0.45594000000E+02  0.51100000000E-03 0. -1.
    9900012    2    1    2    0    0 -0.18989179032E+02  0.34902163115E+00  0.25612693096E+02  0.59301940600E+02  0.49999993749E+02 0.  0.
         12    1    1    2    0    0  0.18989179032E+02 -0.34902163115E+00 -0.25612693096E+02  0.31886059400E+02  0.00000000000E+00 0. -1.
         11    1    3    3    0    0 -0.14147603979E+02  0.10376130369E+02 -0.10099540677E+02  0.20243999159E+02  0.51100000000E-03 0. -1.
        -11    1    3    3    0    0 -0.26721646115E+01  0.21526846536E+01  0.84379835776E+01  0.91090110355E+01  0.51100000000E-03 0.  1.
         12    1    3    3    0    0 -0.21694104413E+01 -0.12179793391E+02  0.27274250196E+02  0.29948930406E+02  0.00000000000E+00 0. -1.
</event>
<event>
 7    1  0.4673733E-013  0.5930197E+02  0.7816164E-02  0.1266605E+00
        -11   -1    0    0    0    0  0.00000000000E+00  0.00000000000E+00  0.45593999997E+02  0.45594000000E+02  0.51100000000E-03 0. -1.
         11   -1    0    0    0    0 -0.00000000000E+00 -0.00000000000E+00 -0.45593999997E+02  0.45594000000E+02  0.51100000000E-03 0.  1.
    9900012    2    1    2    0    0 -0.73633095425E+01 -0.63335912928E+01 -0.30370808392E+02  0.59301973147E+02  0.50000053107E+02 0.  0.
         12    1    1    2    0    0  0.73633095425E+01  0.63335912928E+01  0.30370808392E+02  0.31886026853E+02  0.00000000000E+00 0. -1.
         11    1    3    3    0    0 -0.42203915745E+01 -0.81941728595E+01  0.87076725808E+01  0.12679894949E+02  0.51100000000E-03 0. -1.
        -11    1    3    3    0    0 -0.37691550309E+01  0.13166326980E+02 -0.17192311308E+02  0.21980315379E+02  0.51100000000E-03 0.  1.
         12    1    3    3    0    0  0.62623706286E+00 -0.11305745414E+02 -0.21886169665E+02  0.24641762818E+02  0.00000000000E+00 0. -1.
</event>
<event>
 7    1  0.4673733E-013  0.5930194E+02  0.7816164E-02  0.1266605E+00
        -11   -1    0    0    0    0  0.00000000000E+00  0.00000000000E+00  0.45593999997E+02  0.45594000000E+02  0.51100000000E-03 0.  1.
         11   -1    0    0    0    0 -0.00000000000E+00 -0.00000000000E+00 -0.45593999997E+02  0.45594000000E+02  0.51100000000E-03 0. -1.
    9900012    2    1    2    0    0  0.29115584825E+02 -0.11154215281E+02  0.66773492362E+01  0.59301940491E+02  0.49999993549E+02 0.  0.
         12    1    1    2    0    0 -0.29115584825E+02  0.11154215281E+02 -0.66773492362E+01  0.31886059509E+02  0.00000000000E+00 0. -1.
         11    1    3    3    0    0 -0.11391636129E+02 -0.13662830189E+02 -0.93528207794E+00  0.17813395389E+02  0.51100000000E-03 0. -1.
        -11    1    3    3    0    0  0.26823570688E+02  0.35430106616E+01  0.47463021406E+01  0.27469697000E+02  0.51100000000E-03 0.  1.
         12    1    3    3    0    0  0.13683650266E+02 -0.10343957536E+01  0.28663291735E+01  0.14018848102E+02  0.00000000000E+00 0. -1.
</event>
<event>
 7    1  0.4673733E-013  0.5930195E+02  0.7816164E-02  0.1266605E+00
        -11   -1    0    0    0    0  0.00000000000E+00  0.00000000000E+00  0.45593999997E+02  0.45594000000E+02  0.51100000000E-03 0.  1.
         11   -1    0    0    0    0 -0.00000000000E+00 -0.00000000000E+00 -0.45593999997E+02  0.45594000000E+02  0.51100000000E-03 0. -1.
    9900012    2    1    2    0    0 -0.10740486132E+02 -0.54836844109E+01  0.29517640399E+02  0.59301953965E+02  0.50000018123E+02 0.  0.
         12    1    1    2    0    0  0.10740486132E+02  0.54836844109E+01 -0.29517640399E+02  0.31886046035E+02  0.00000000000E+00 0. -1.
         11    1    3    3    0    0 -0.22775950288E+02  0.30617656935E+01  0.11489946030E+02  0.25693134894E+02  0.51100000000E-03 0.  1.
        -11    1    3    3    0    0  0.16202774392E+02 -0.10966340278E+02  0.57090547767E+01  0.20380967195E+02  0.51100000000E-03 0. -1.
         12    1    3    3    0    0 -0.41673102360E+01  0.24208901733E+01  0.12318639592E+02  0.13227851876E+02  0.00000000000E+00 0. -1.
</event>
<event>
 7    1  0.4673733E-013  0.5930194E+02  0.7816164E-02  0.1266605E+00
        -11   -1    0    0    0    0  0.00000000000E+00  0.00000000000E+00  0.45593999997E+02  0.45594000000E+02  0.51100000000E-03 0.  1.
         11   -1    0    0    0    0 -0.00000000000E+00 -0.00000000000E+00 -0.45593999997E+02  0.45594000000E+02  0.51100000000E-03 0. -1.
    9900012    2    1    2    0    0  0.33512015633E+01  0.30995945772E+02 -0.66889104949E+01  0.59301941451E+02  0.49999995300E+02 0.  0.
         12    1    1    2    0    0 -0.33512015633E+01 -0.30995945772E+02  0.66889104949E+01  0.31886058549E+02  0.00000000000E+00 0. -1.
         11    1    3    3    0    0 -0.32811473833E+01 -0.10582026452E+02 -0.88492176770E+01  0.14179346449E+02  0.51100000000E-03 0. -1.
        -11    1    3    3    0    0  0.29770777121E+01  0.23403259138E+02  0.91583071878E+01  0.25307116011E+02  0.51100000000E-03 0.  1.
         12    1    3    3    0    0  0.36552712345E+01  0.18174713085E+02 -0.69980000056E+01  0.19815478990E+02  0.00000000000E+00 0. -1.
</event>
<event>
 7    1  0.4673733E-013  0.5930195E+02  0.7816164E-02  0.1266605E+00
        -11   -1    0    0    0    0  0.00000000000E+00  0.00000000000E+00  0.45593999997E+02  0.45594000000E+02  0.51100000000E-03 0. -1.
         11   -1    0    0    0    0 -0.00000000000E+00 -0.00000000000E+00 -0.45593999997E+02  0.45594000000E+02  0.51100000000E-03 0.  1.
    9900012    2    1    2    0    0 -0.23384912392E+02  0.14708380728E+02  0.15922617268E+02  0.59301947691E+02  0.50000006680E+02 0.  0.
         12    1    1    2    0    0  0.23384912392E+02 -0.14708380728E+02 -0.15922617268E+02  0.31886052309E+02  0.00000000000E+00 0. -1.
         11    1    3    3    0    0 -0.35906642815E+01 -0.88441035357E+01  0.13961625910E+02  0.16912659036E+02  0.51100000000E-03 0. -1.
        -11    1    3    3    0    0 -0.23920194422E+02  0.25822446268E+02  0.65620645675E+01  0.35805518067E+02  0.51100000000E-03 0.  1.
        -12    1    3    3    0    0  0.41259463118E+01 -0.22699620039E+01 -0.46010732098E+01  0.65837705875E+01  0.00000000000E+00 0.  1.
</event>
<event>
 7    1  0.4673733E-013  0.5930195E+02  0.7816164E-02  0.1266605E+00
        -11   -1    0    0    0    0  0.00000000000E+00  0.00000000000E+00  0.45593999997E+02  0.45594000000E+02  0.51100000000E-03 0. -1.
         11   -1    0    0    0    0 -0.00000000000E+00 -0.00000000000E+00 -0.45593999997E+02  0.45594000000E+02  0.51100000000E-03 0.  1.
    9900012    2    1    2    0    0 -0.23586044984E+02  0.19191559743E+02 -0.95970225055E+01  0.59301947808E+02  0.50000006895E+02 0.  0.
         12    1    1    2    0    0  0.23586044984E+02 -0.19191559743E+02  0.95970225055E+01  0.31886052192E+02  0.00000000000E+00 0. -1.
         11    1    3    3    0    0 -0.23513650444E+02 -0.16268892633E+01 -0.40139653347E+01  0.23909212531E+02  0.51100000000E-03 0. -1.
        -11    1    3    3    0    0 -0.17621037568E+01  0.25841667642E+02  0.21798461979E+01  0.25993240004E+02  0.51100000000E-03 0.  1.
        -12    1    3    3    0    0  0.16897092164E+01 -0.50232186352E+01 -0.77629033687E+01  0.93994952739E+01  0.00000000000E+00 0.  1.
</event>
<event>
 7    1  0.4673733E-013  0.5930194E+02  0.7816164E-02  0.1266605E+00
        -11   -1    0    0    0    0  0.00000000000E+00  0.00000000000E+00  0.45593999997E+02  0.45594000000E+02  0.51100000000E-03 0.  1.
         11   -1    0    0    0    0 -0.00000000000E+00 -0.00000000000E+00 -0.45593999997E+02  0.45594000000E+02  0.51100000000E-03 0. -1.
    9900012    2    1    2    0    0 -0.13489646951E+01  0.15411755991E+02  0.27881519617E+02  0.59301936201E+02  0.49999985726E+02 0.  0.
         12    1    1    2    0    0  0.13489646951E+01 -0.15411755991E+02 -0.27881519617E+02  0.31886063799E+02  0.00000000000E+00 0. -1.
         11    1    3    3    0    0  0.18481455001E+00 -0.94863516267E+01  0.57494578884E+01  0.11094200732E+02  0.51100000000E-03 0. -1.
        -11    1    3    3    0    0 -0.14608229071E+02  0.15676206958E+02  0.23913694044E+02  0.32109322389E+02  0.51100000000E-03 0.  1.
        -12    1    3    3    0    0  0.13074449826E+02  0.92219006590E+01 -0.17816323151E+01  0.16098413081E+02  0.00000000000E+00 0.  1.
</event>
<event>
 7    1  0.4673733E-013  0.5930197E+02  0.7816164E-02  0.1266605E+00
        -11   -1    0    0    0    0  0.00000000000E+00  0.00000000000E+00  0.45593999997E+02  0.45594000000E+02  0.51100000000E-03 0.  1.
         11   -1    0    0    0    0 -0.00000000000E+00 -0.00000000000E+00 -0.45593999997E+02  0.45594000000E+02  0.51100000000E-03 0. -1.
    9900012    2    1    2    0    0  0.24033986271E+02 -0.13681930000E+02  0.15871082909E+02  0.59301968931E+02  0.50000045418E+02 0.  0.
         12    1    1    2    0    0 -0.24033986271E+02  0.13681930000E+02 -0.15871082909E+02  0.31886031069E+02  0.00000000000E+00 0. -1.
         11    1    3    3    0    0  0.11245672994E+01  0.14317408158E+02 -0.15286670379E+01  0.14442633110E+02  0.51100000000E-03 0. -1.
        -11    1    3    3    0    0  0.79514454215E+01 -0.57675075221E+01  0.15035447386E+02  0.17959796927E+02  0.51100000000E-03 0.  1.
         12    1    3    3    0    0  0.14957973550E+02 -0.22231830635E+02  0.23643025611E+01  0.26899538894E+02  0.00000000000E+00 0. -1.
</event>
<event>
 7    1  0.4673733E-013  0.5930191E+02  0.7816164E-02  0.1266605E+00
        -11   -1    0    0    0    0  0.00000000000E+00  0.00000000000E+00  0.45593999997E+02  0.45594000000E+02  0.51100000000E-03 0.  1.
         11   -1    0    0    0    0 -0.00000000000E+00 -0.00000000000E+00 -0.45593999997E+02  0.45594000000E+02  0.51100000000E-03 0. -1.
    9900012    2    1    2    0    0 -0.29215327080E+02 -0.24812824887E+01 -0.12531192400E+02  0.59301907700E+02  0.49999933747E+02 0.  0.
         12    1    1    2    0    0  0.29215327080E+02  0.24812824887E+01  0.12531192400E+02  0.31886092300E+02  0.00000000000E+00 0. -1.
         11    1    3    3    0    0 -0.34007835091E+02 -0.10924046271E+02 -0.13427055031E+02  0.38159578635E+02  0.51100000000E-03 0. -1.
        -11    1    3    3    0    0 -0.51963255842E+01  0.83477981601E+01 -0.32077856654E+01  0.10342989067E+02  0.51100000000E-03 0.  1.
         12    1    3    3    0    0  0.99888335949E+01  0.94965622060E-01  0.41036482969E+01  0.10799339998E+02  0.00000000000E+00 0. -1.
</event>
<event>
 7    1  0.4673733E-013  0.5930186E+02  0.7816164E-02  0.1266605E+00
        -11   -1    0    0    0    0  0.00000000000E+00  0.00000000000E+00  0.45593999997E+02  0.45594000000E+02  0.51100000000E-03 0.  1.
         11   -1    0    0    0    0 -0.00000000000E+00 -0.00000000000E+00 -0.45593999997E+02  0.45594000000E+02  0.51100000000E-03 0. -1.
    9900012    2    1    2    0    0  0.27085043540E+01  0.15531291486E+02  0.27715859315E+02  0.59301860869E+02  0.49999848339E+02 0.  0.
         12    1    1    2    0    0 -0.27085043540E+01 -0.15531291486E+02 -0.27715859315E+02  0.31886139131E+02  0.00000000000E+00 0. -1.
         11    1    3    3    0    0  0.24302733089E+00 -0.66437511557E+01 -0.90006777070E-01  0.66488038912E+01  0.51100000000E-03 0. -1.
        -11    1    3    3    0    0  0.13931695539E+02  0.14853026856E+02 -0.14221601410E+01  0.20413894462E+02  0.51100000000E-03 0.  1.
        -12    1    3    3    0    0 -0.11466218516E+02  0.73220157864E+01  0.29228026233E+02  0.32239162516E+02  0.00000000000E+00 0.  1.
</event>
<event>
 7    1  0.4673733E-013  0.5930190E+02  0.7816164E-02  0.1266605E+00
        -11   -1    0    0    0    0  0.00000000000E+00  0.00000000000E+00  0.45593999997E+02  0.45594000000E+02  0.51100000000E-03 0. -1.
         11   -1    0    0    0    0 -0.00000000000E+00 -0.00000000000E+00 -0.45593999997E+02  0.45594000000E+02  0.51100000000E-03 0.  1.
    9900012    2    1    2    0    0 -0.12736460853E+02  0.28949714360E+02 -0.40521956920E+01  0.59301895087E+02  0.49999910744E+02 0.  0.
         12    1    1    2    0    0  0.12736460853E+02 -0.28949714360E+02  0.40521956920E+01  0.31886104913E+02  0.00000000000E+00 0. -1.
         11    1    3    3    0    0  0.12416829931E+01  0.12329639954E+02  0.18095453978E+02  0.21931877553E+02  0.51100000000E-03 0. -1.
        -11    1    3    3    0    0 -0.13492330726E+02  0.15160129669E+02 -0.60193545618E+01  0.21168494269E+02  0.51100000000E-03 0.  1.
         12    1    3    3    0    0 -0.48581312011E+00  0.14599447369E+01 -0.16128295108E+02  0.16201523265E+02  0.00000000000E+00 0. -1.
</event>
<event>
 7    1  0.4673733E-013  0.5930195E+02  0.7816164E-02  0.1266605E+00
        -11   -1    0    0    0    0  0.00000000000E+00  0.00000000000E+00  0.45593999997E+02  0.45594000000E+02  0.51100000000E-03 0.  1.
         11   -1    0    0    0    0 -0.00000000000E+00 -0.00000000000E+00 -0.45593999997E+02  0.45594000000E+02  0.51100000000E-03 0. -1.
    9900012    2    1    2    0    0  0.15388776020E+02 -0.88117152206E+01  0.26500182554E+02  0.59301946185E+02  0.50000003934E+02 0.  0.
         12    1    1    2    0    0 -0.15388776020E+02  0.88117152206E+01 -0.26500182554E+02  0.31886053815E+02  0.00000000000E+00 0. -1.
         11    1    3    3    0    0  0.18303640846E+02  0.81535551304E+01 -0.73003238738E+01  0.21326004277E+02  0.51100000000E-03 0. -1.
        -11    1    3    3    0    0 -0.10027938186E+01 -0.26641015031E+01  0.46983155033E+01  0.54933779309E+01  0.51100000000E-03 0.  1.
         12    1    3    3    0    0 -0.19120710071E+01 -0.14301168848E+02  0.29102190924E+02  0.32482563977E+02  0.00000000000E+00 0. -1.
</event>
<event>
 7    1  0.4673733E-013  0.5930194E+02  0.7816164E-02  0.1266605E+00
        -11   -1    0    0    0    0  0.00000000000E+00  0.00000000000E+00  0.45593999997E+02  0.45594000000E+02  0.51100000000E-03 0.  1.
         11   -1    0    0    0    0 -0.00000000000E+00 -0.00000000000E+00 -0.45593999997E+02  0.45594000000E+02  0.51100000000E-03 0. -1.
    9900012    2    1    2    0    0 -0.28878787393E+02  0.95925360615E+01 -0.95246927852E+01  0.59301939064E+02  0.49999990947E+02 0.  0.
         12    1    1    2    0    0  0.28878787393E+02 -0.95925360615E+01  0.95246927852E+01  0.31886060936E+02  0.00000000000E+00 0. -1.
         11    1    3    3    0    0  0.82175495008E+01  0.14339398042E+01 -0.12978845411E+02  0.15428374238E+02  0.51100000000E-03 0. -1.
        -11    1    3    3    0    0 -0.23452599617E+02  0.15367637518E+02  0.45399151688E+01  0.28404216971E+02  0.51100000000E-03 0.  1.
         12    1    3    3    0    0 -0.13643737276E+02 -0.72090412609E+01 -0.10857625424E+01  0.15469347855E+02  0.00000000000E+00 0. -1.
</event>
<event>
 7    1  0.4673733E-013  0.5930195E+02  0.7816164E-02  0.1266605E+00
        -11   -1    0    0    0    0  0.00000000000E+00  0.00000000000E+00  0.45593999997E+02  0.45594000000E+02  0.51100000000E-03 0.  1.
         11   -1    0    0    0    0 -0.00000000000E+00 -0.00000000000E+00 -0.45593999997E+02  0.45594000000E+02  0.51100000000E-03 0. -1.
    9900012    2    1    2    0    0 -0.25865897487E+01  0.27393330045E+02 -0.16113203664E+02  0.59301948036E+02  0.50000007311E+02 0.  0.
         12    1    1    2    0    0  0.25865897487E+01 -0.27393330045E+02  0.16113203664E+02  0.31886051964E+02  0.00000000000E+00 0. -1.
         11    1    3    3    0    0  0.17232533230E+02  0.23151644833E+02 -0.19274445905E+02  0.34705376027E+02  0.51100000000E-03 0. -1.
        -11    1    3    3    0    0 -0.48854712508E+01  0.31613254271E+01  0.70360850259E+01  0.91306243243E+01  0.51100000000E-03 0.  1.
         12    1    3    3    0    0 -0.14933651728E+02  0.10803597858E+01 -0.38748427853E+01  0.15465947685E+02  0.00000000000E+00 0. -1.
</event>
<event>
 7    1  0.4673733E-013  0.5930194E+02  0.7816164E-02  0.1266605E+00
        -11   -1    0    0    0    0  0.00000000000E+00  0.00000000000E+00  0.45593999997E+02  0.45594000000E+02  0.51100000000E-03 0.  1.
         11   -1    0    0    0    0 -0.00000000000E+00 -0.00000000000E+00 -0.45593999997E+02  0.45594000000E+02  0.51100000000E-03 0. -1.
    9900012    2    1    2    0    0  0.14545403354E+02  0.28116178164E+02 -0.38252932351E+01  0.59301935621E+02  0.49999984668E+02 0.  0.
         12    1    1    2    0    0 -0.14545403354E+02 -0.28116178164E+02  0.38252932351E+01  0.31886064379E+02  0.00000000000E+00 0. -1.
         11    1    3    3    0    0  0.41180394834E+01  0.55888992294E+01 -0.24870604167E+02  0.25821328310E+02  0.51100000000E-03 0. -1.
        -11    1    3    3    0    0  0.31187797647E+01  0.48354892061E+01  0.95579608959E+01  0.11156314796E+02  0.51100000000E-03 0.  1.
         12    1    3    3    0    0  0.73085841058E+01  0.17691789728E+02  0.11487350036E+02  0.22324292515E+02  0.00000000000E+00 0. -1.
</event>
<event>
 7    1  0.4673733E-013  0.5930195E+02  0.7816164E-02  0.1266605E+00
        -11   -1    0    0    0    0  0.00000000000E+00  0.00000000000E+00  0.45593999997E+02  0.45594000000E+02  0.51100000000E-03 0.  1.
         11   -1    0    0    0    0 -0.00000000000E+00 -0.00000000000E+00 -0.45593999997E+02  0.45594000000E+02  0.51100000000E-03 0. -1.
    9900012    2    1    2    0    0 -0.26798815629E+02  0.17232534907E+02  0.12583206873E+01  0.59301950553E+02  0.50000011900E+02 0.  0.
         12    1    1    2    0    0  0.26798815629E+02 -0.17232534907E+02 -0.12583206873E+01  0.31886049447E+02  0.00000000000E+00 0. -1.
         11    1    3    3    0    0 -0.26462396436E+02  0.13717315709E+02 -0.16337290580E+02  0.33990149149E+02  0.51100000000E-03 0. -1.
        -11    1    3    3    0    0  0.33273532884E+01 -0.63079482116E+01  0.41134886805E+01  0.82329994493E+01  0.51100000000E-03 0.  1.
         12    1    3    3    0    0 -0.36637724809E+01  0.98231674093E+01  0.13482122587E+02  0.17078801954E+02  0.00000000000E+00 0. -1.
</event>
<event>
 7    1  0.4673733E-013  0.5930191E+02  0.7816164E-02  0.1266605E+00
        -11   -1    0    0    0    0  0.00000000000E+00  0.00000000000E+00  0.45593999997E+02  0.45594000000E+02  0.51100000000E-03 0. -1.
         11   -1    0    0    0    0 -0.00000000000E+00 -0.00000000000E+00 -0.45593999997E+02  0.45594000000E+02  0.51100000000E-03 0.  1.
    9900012    2    1    2    0    0  0.28148437069E+02  0.79961755993E+01  0.12666853480E+02  0.59301913525E+02  0.49999944370E+02 0.  0.
         12    1    1    2    0    0 -0.28148437069E+02 -0.79961755993E+01 -0.12666853480E+02  0.31886086475E+02  0.00000000000E+00 0. -1.
         11    1    3    3    0    0  0.13690123952E+00 -0.11864846599E+01 -0.26029150853E+01  0.28638531736E+01  0.51100000000E-03 0. -1.
        -11    1    3    3    0    0  0.11477087019E+02  0.17330366065E+02  0.27384897842E+02  0.34380194072E+02  0.51100000000E-03 0.  1.
        -12    1    3    3    0    0  0.16534448811E+02 -0.81477058053E+01 -0.12115129277E+02  0.22057866279E+02  0.00000000000E+00 0.  1.
</event>
<event>
 7    1  0.4673733E-013  0.5930197E+02  0.7816164E-02  0.1266605E+00
        -11   -1    0    0    0    0  0.00000000000E+00  0.00000000000E+00  0.45593999997E+02  0.45594000000E+02  0.51100000000E-03 0.  1.
         11   -1    0    0    0    0 -0.00000000000E+00 -0.00000000000E+00 -0.45593999997E+02  0.45594000000E+02  0.51100000000E-03 0. -1.
    9900012    2    1    2    0    0  0.25076666918E+02 -0.72950809135E+01  0.18293761658E+02  0.59301966304E+02  0.50000040627E+02 0.  0.
         12    1    1    2    0    0 -0.25076666918E+02  0.72950809135E+01 -0.18293761658E+02  0.31886033696E+02  0.00000000000E+00 0. -1.
         11    1    3    3    0    0  0.26813439388E+02  0.10508646651E+02  0.11403278068E+02  0.30974617628E+02  0.51100000000E-03 0. -1.
        -11    1    3    3    0    0  0.59633395585E+01 -0.18176566514E+02  0.20849358913E+01  0.19243075297E+02  0.51100000000E-03 0.  1.
        -12    1    3    3    0    0 -0.77001120288E+01  0.37283894995E+00  0.48055476993E+01  0.90842733793E+01  0.00000000000E+00 0.  1.
</event>
<event>
 7    1  0.4673733E-013  0.5930195E+02  0.7816164E-02  0.1266605E+00
        -11   -1    0    0    0    0  0.00000000000E+00  0.00000000000E+00  0.45593999997E+02  0.45594000000E+02  0.51100000000E-03 0.  1.
         11   -1    0    0    0    0 -0.00000000000E+00 -0.00000000000E+00 -0.45593999997E+02  0.45594000000E+02  0.51100000000E-03 0. -1.
    9900012    2    1    2    0    0  0.76358966699E+01 -0.67833651654E+01  0.30205946525E+02  0.59301950286E+02  0.50000011413E+02 0.  0.
         12    1    1    2    0    0 -0.76358966699E+01  0.67833651654E+01 -0.30205946525E+02  0.31886049714E+02  0.00000000000E+00 0. -1.
         11    1    3    3    0    0 -0.69405183922E+01  0.13832287262E+02  0.12243582569E+02  0.19733430539E+02  0.51100000000E-03 0. -1.
        -11    1    3    3    0    0  0.16082114212E+02 -0.13261641506E+02  0.22599784704E+02  0.30745012634E+02  0.51100000000E-03 0.  1.
         12    1    3    3    0    0 -0.15056991498E+01 -0.73540109216E+01 -0.46374207483E+01  0.88235071124E+01  0.00000000000E+00 0. -1.
</event>
<event>
 7    1  0.4673733E-013  0.5930197E+02  0.7816164E-02  0.1266605E+00
        -11   -1    0    0    0    0  0.00000000000E+00  0.00000000000E+00  0.45593999997E+02  0.45594000000E+02  0.51100000000E-03 0. -1.
         11   -1    0    0    0    0 -0.00000000000E+00 -0.00000000000E+00 -0.45593999997E+02  0.45594000000E+02  0.51100000000E-03 0.  1.
    9900012    2    1    2    0    0 -0.46554104711E+01  0.26482060798E+02 -0.17139033481E+02  0.59301970780E+02  0.50000048789E+02 0.  0.
         12    1    1    2    0    0  0.46554104711E+01 -0.26482060798E+02  0.17139033481E+02  0.31886029220E+02  0.00000000000E+00 0. -1.
         11    1    3    3    0    0 -0.17639387517E+02  0.12587877895E+01 -0.13625716725E+01  0.17736660917E+02  0.51100000000E-03 0. -1.
        -11    1    3    3    0    0  0.18102885153E+02  0.26069621578E+02 -0.17313800236E+02  0.36153938913E+02  0.51100000000E-03 0.  1.
        -12    1    3    3    0    0 -0.51189081068E+01 -0.84634856986E+00  0.15373384273E+01  0.54113709490E+01  0.00000000000E+00 0.  1.
</event>
<event>
 7    1  0.4673733E-013  0.5930209E+02  0.7816164E-02  0.1266604E+00
        -11   -1    0    0    0    0  0.00000000000E+00  0.00000000000E+00  0.45593999997E+02  0.45594000000E+02  0.51100000000E-03 0.  1.
         11   -1    0    0    0    0 -0.00000000000E+00 -0.00000000000E+00 -0.45593999997E+02  0.45594000000E+02  0.51100000000E-03 0. -1.
    9900012    2    1    2    0    0  0.12984596402E+02  0.58855340716E+01  0.28521431436E+02  0.59302089221E+02  0.50000264797E+02 0.  0.
         12    1    1    2    0    0 -0.12984596402E+02 -0.58855340716E+01 -0.28521431436E+02  0.31885910779E+02  0.00000000000E+00 0. -1.
         11    1    3    3    0    0 -0.60498462204E+01 -0.25542225918E+01 -0.21418830621E+01  0.69074130941E+01  0.51100000000E-03 0. -1.
        -11    1    3    3    0    0  0.19822971378E+02  0.15256334492E+02  0.45877837607E+01  0.25431352627E+02  0.51100000000E-03 0.  1.
        -12    1    3    3    0    0 -0.78852875491E+00 -0.68165778280E+01  0.26075530738E+02  0.26963323499E+02  0.00000000000E+00 0.  1.
</event>
<event>
 7    1  0.4673733E-013  0.5930195E+02  0.7816164E-02  0.1266605E+00
        -11   -1    0    0    0    0  0.00000000000E+00  0.00000000000E+00  0.45593999997E+02  0.45594000000E+02  0.51100000000E-03 0. -1.
         11   -1    0    0    0    0 -0.00000000000E+00 -0.00000000000E+00 -0.45593999997E+02  0.45594000000E+02  0.51100000000E-03 0.  1.
    9900012    2    1    2    0    0  0.89011550809E+01  0.39377792323E+01 -0.30364179447E+02  0.59301951945E+02  0.50000014440E+02 0.  0.
         12    1    1    2    0    0 -0.89011550809E+01 -0.39377792323E+01  0.30364179447E+02  0.31886048055E+02  0.00000000000E+00 0. -1.
         11    1    3    3    0    0  0.22186548155E+02  0.65940289171E+01  0.98151824341E+00  0.23166517104E+02  0.51100000000E-03 0. -1.
        -11    1    3    3    0    0 -0.51822659616E+01  0.39278232976E+01 -0.18331906437E+02  0.19451027485E+02  0.51100000000E-03 0.  1.
         12    1    3    3    0    0 -0.81031271128E+01 -0.65840729823E+01 -0.13013791253E+02  0.16684407356E+02  0.00000000000E+00 0. -1.
</event>
<event>
 7    1  0.4673733E-013  0.5930195E+02  0.7816164E-02  0.1266605E+00
        -11   -1    0    0    0    0  0.00000000000E+00  0.00000000000E+00  0.45593999997E+02  0.45594000000E+02  0.51100000000E-03 0. -1.
         11   -1    0    0    0    0 -0.00000000000E+00 -0.00000000000E+00 -0.45593999997E+02  0.45594000000E+02  0.51100000000E-03 0.  1.
    9900012    2    1    2    0    0 -0.34411804460E+01  0.28459602210E+02 -0.13961715317E+02  0.59301950144E+02  0.50000011155E+02 0.  0.
         12    1    1    2    0    0  0.34411804460E+01 -0.28459602210E+02  0.13961715317E+02  0.31886049856E+02  0.00000000000E+00 0. -1.
         11    1    3    3    0    0 -0.14972682459E+02  0.94791989519E-01  0.31622998682E+00  0.14976321551E+02  0.51100000000E-03 0. -1.
        -11    1    3    3    0    0  0.17802135561E+02  0.11696716054E+02  0.31264570911E+00  0.21303214419E+02  0.51100000000E-03 0.  1.
        -12    1    3    3    0    0 -0.62706335483E+01  0.16668094167E+02 -0.14590591013E+02  0.23022414173E+02  0.00000000000E+00 0.  1.
</event>
<event>
 7    1  0.4673733E-013  0.5930193E+02  0.7816164E-02  0.1266605E+00
        -11   -1    0    0    0    0  0.00000000000E+00  0.00000000000E+00  0.45593999997E+02  0.45594000000E+02  0.51100000000E-03 0.  1.
         11   -1    0    0    0    0 -0.00000000000E+00 -0.00000000000E+00 -0.45593999997E+02  0.45594000000E+02  0.51100000000E-03 0. -1.
    9900012    2    1    2    0    0  0.11365433746E+02 -0.20110116475E+02  0.21980252032E+02  0.59301931753E+02  0.49999977613E+02 0.  0.
         12    1    1    2    0    0 -0.11365433746E+02  0.20110116475E+02 -0.21980252032E+02  0.31886068247E+02  0.00000000000E+00 0. -1.
         11    1    3    3    0    0 -0.19758223293E+01 -0.16528556771E+02 -0.54731708495E+01  0.17522918199E+02  0.51100000000E-03 0. -1.
        -11    1    3    3    0    0  0.96893323201E+01 -0.15823846367E+02  0.18317388738E+02  0.26073051319E+02  0.51100000000E-03 0.  1.
         12    1    3    3    0    0  0.36519237548E+01  0.12242286662E+02  0.91360341436E+01  0.15705962234E+02  0.00000000000E+00 0. -1.
</event>
<event>
 7    1  0.4673733E-013  0.5930195E+02  0.7816164E-02  0.1266605E+00
        -11   -1    0    0    0    0  0.00000000000E+00  0.00000000000E+00  0.45593999997E+02  0.45594000000E+02  0.51100000000E-03 0.  1.
         11   -1    0    0    0    0 -0.00000000000E+00 -0.00000000000E+00 -0.45593999997E+02  0.45594000000E+02  0.51100000000E-03 0. -1.
    9900012    2    1    2    0    0  0.19795756383E+02 -0.23758453301E+02  0.77707399155E+01  0.59301945480E+02  0.50000002648E+02 0.  0.
         12    1    1    2    0    0 -0.19795756383E+02  0.23758453301E+02 -0.77707399155E+01  0.31886054520E+02  0.00000000000E+00 0. -1.
         11    1    3    3    0    0  0.15677495612E+02  0.85106523484E+01  0.19575264340E+01  0.17945667501E+02  0.51100000000E-03 0. -1.
        -11    1    3    3    0    0  0.51409803127E+01 -0.21662934980E+02  0.15360668533E+02  0.27049261886E+02  0.51100000000E-03 0.  1.
         12    1    3    3    0    0 -0.10227195414E+01 -0.10606170669E+02 -0.95474550517E+01  0.14307016093E+02  0.00000000000E+00 0. -1.
</event>
<event>
 7    1  0.4673733E-013  0.5930195E+02  0.7816164E-02  0.1266605E+00
        -11   -1    0    0    0    0  0.00000000000E+00  0.00000000000E+00  0.45593999997E+02  0.45594000000E+02  0.51100000000E-03 0. -1.
         11   -1    0    0    0    0 -0.00000000000E+00 -0.00000000000E+00 -0.45593999997E+02  0.45594000000E+02  0.51100000000E-03 0.  1.
    9900012    2    1    2    0    0  0.21626149927E+02 -0.10330532593E+02 -0.21031172812E+02  0.59301945146E+02  0.50000002039E+02 0.  0.
         12    1    1    2    0    0 -0.21626149927E+02  0.10330532593E+02  0.21031172812E+02  0.31886054854E+02  0.00000000000E+00 0. -1.
         11    1    3    3    0    0  0.29340528902E+01  0.17097820351E+02 -0.63484395049E+01  0.18472866900E+02  0.51100000000E-03 0. -1.
        -11    1    3    3    0    0 -0.15965372784E+01 -0.12735697161E+02 -0.70391267070E+01  0.14638859877E+02  0.51100000000E-03 0.  1.
        -12    1    3    3    0    0  0.20288634315E+02 -0.14692655783E+02 -0.76436065999E+01  0.26190218368E+02  0.00000000000E+00 0.  1.
</event>
<event>
 7    1  0.4673733E-013  0.5930194E+02  0.7816164E-02  0.1266605E+00
        -11   -1    0    0    0    0  0.00000000000E+00  0.00000000000E+00  0.45593999997E+02  0.45594000000E+02  0.51100000000E-03 0.  1.
         11   -1    0    0    0    0 -0.00000000000E+00 -0.00000000000E+00 -0.45593999997E+02  0.45594000000E+02  0.51100000000E-03 0. -1.
    9900012    2    1    2    0    0 -0.25014575998E+02 -0.14856568173E+02 -0.13048908379E+02  0.59301942857E+02  0.49999997864E+02 0.  0.
         12    1    1    2    0    0  0.25014575998E+02  0.14856568173E+02  0.13048908379E+02  0.31886057143E+02  0.00000000000E+00 0. -1.
         11    1    3    3    0    0 -0.92040895877E+01  0.15735021421E+01 -0.23702296132E+02  0.25475282458E+02  0.51100000000E-03 0. -1.
        -11    1    3    3    0    0 -0.24537308199E+01  0.28391997041E+01  0.96560719751E+01  0.10359612741E+02  0.51100000000E-03 0.  1.
        -12    1    3    3    0    0 -0.13356755591E+02 -0.19269270019E+02  0.99731577777E+00  0.23467047657E+02  0.00000000000E+00 0.  1.
</event>
<event>
 7    1  0.4673733E-013  0.5930196E+02  0.7816164E-02  0.1266605E+00
        -11   -1    0    0    0    0  0.00000000000E+00  0.00000000000E+00  0.45593999997E+02  0.45594000000E+02  0.51100000000E-03 0.  1.
         11   -1    0    0    0    0 -0.00000000000E+00 -0.00000000000E+00 -0.45593999997E+02  0.45594000000E+02  0.51100000000E-03 0. -1.
    9900012    2    1    2    0    0 -0.40619294190E+01  0.28150703271E+02 -0.14413819192E+02  0.59301959968E+02  0.50000029071E+02 0.  0.
         12    1    1    2    0    0  0.40619294190E+01 -0.28150703271E+02  0.14413819192E+02  0.31886040032E+02  0.00000000000E+00 0. -1.
         11    1    3    3    0    0 -0.12423269686E+02  0.10836205136E+02 -0.37888071371E+01  0.16914964712E+02  0.51100000000E-03 0. -1.
        -11    1    3    3    0    0  0.17696947918E+02  0.23705652413E+02 -0.61190871212E+01  0.30208991202E+02  0.51100000000E-03 0.  1.
        -12    1    3    3    0    0 -0.93356076511E+01 -0.63911542783E+01 -0.45059249334E+01  0.12178004054E+02  0.00000000000E+00 0.  1.
</event>
<event>
 7    1  0.4673733E-013  0.5930194E+02  0.7816164E-02  0.1266605E+00
        -11   -1    0    0    0    0  0.00000000000E+00  0.00000000000E+00  0.45593999997E+02  0.45594000000E+02  0.51100000000E-03 0.  1.
         11   -1    0    0    0    0 -0.00000000000E+00 -0.00000000000E+00 -0.45593999997E+02  0.45594000000E+02  0.51100000000E-03 0. -1.
    9900012    2    1    2    0    0  0.26739255529E+02 -0.13564497471E+02  0.10850681119E+02  0.59301942567E+02  0.49999997335E+02 0.  0.
         12    1    1    2    0    0 -0.26739255529E+02  0.13564497471E+02 -0.10850681119E+02  0.31886057433E+02  0.00000000000E+00 0. -1.
         11    1    3    3    0    0 -0.83918205606E+01 -0.13332717620E+02 -0.48058296583E+01  0.16470580148E+02  0.51100000000E-03 0. -1.
        -11    1    3    3    0    0  0.16105906499E+02  0.88638008451E+01  0.42993884208E+01  0.18879934604E+02  0.51100000000E-03 0.  1.
        -12    1    3    3    0    0  0.19025169590E+02 -0.90955806960E+01  0.11357122357E+02  0.23951427815E+02  0.00000000000E+00 0.  1.
</event>
<event>
 7    1  0.4673733E-013  0.5930198E+02  0.7816164E-02  0.1266605E+00
        -11   -1    0    0    0    0  0.00000000000E+00  0.00000000000E+00  0.45593999997E+02  0.45594000000E+02  0.51100000000E-03 0.  1.
         11   -1    0    0    0    0 -0.00000000000E+00 -0.00000000000E+00 -0.45593999997E+02  0.45594000000E+02  0.51100000000E-03 0. -1.
    9900012    2    1    2    0    0 -0.28639282586E+02  0.34753662166E+01 -0.13580549411E+02  0.59301984261E+02  0.50000073377E+02 0.  0.
         12    1    1    2    0    0  0.28639282586E+02 -0.34753662166E+01  0.13580549411E+02  0.31886015739E+02  0.00000000000E+00 0. -1.
         11    1    3    3    0    0 -0.13589913803E+02 -0.16303981516E+02 -0.11521090665E+02  0.24150385107E+02  0.51100000000E-03 0. -1.
        -11    1    3    3    0    0 -0.21241463737E+02  0.14580436978E+02 -0.55334749864E+01  0.26351627461E+02  0.51100000000E-03 0.  1.
         12    1    3    3    0    0  0.61920949538E+01  0.51989107546E+01  0.34740162408E+01  0.87999716927E+01  0.00000000000E+00 0. -1.
</event>
<event>
 7    1  0.4673733E-013  0.5930193E+02  0.7816164E-02  0.1266605E+00
        -11   -1    0    0    0    0  0.00000000000E+00  0.00000000000E+00  0.45593999997E+02  0.45594000000E+02  0.51100000000E-03 0.  1.
         11   -1    0    0    0    0 -0.00000000000E+00 -0.00000000000E+00 -0.45593999997E+02  0.45594000000E+02  0.51100000000E-03 0. -1.
    9900012    2    1    2    0    0  0.22187773936E+02  0.21580136581E+02  0.76630365441E+01  0.59301925670E+02  0.49999966520E+02 0.  0.
         12    1    1    2    0    0 -0.22187773936E+02 -0.21580136581E+02 -0.76630365441E+01  0.31886074330E+02  0.00000000000E+00 0. -1.
         11    1    3    3    0    0 -0.10522067819E+02 -0.65342409100E+01 -0.29581940606E+01  0.12734250186E+02  0.51100000000E-03 0. -1.
        -11    1    3    3    0    0  0.18333216445E+02  0.23698828512E+02  0.97270200729E+01  0.31501685952E+02  0.51100000000E-03 0.  1.
         12    1    3    3    0    0  0.14376625310E+02  0.44155489784E+01  0.89421053186E+00  0.15065989532E+02  0.00000000000E+00 0. -1.
</event>
<event>
 7    1  0.4673733E-013  0.5930195E+02  0.7816164E-02  0.1266605E+00
        -11   -1    0    0    0    0  0.00000000000E+00  0.00000000000E+00  0.45593999997E+02  0.45594000000E+02  0.51100000000E-03 0.  1.
         11   -1    0    0    0    0 -0.00000000000E+00 -0.00000000000E+00 -0.45593999997E+02  0.45594000000E+02  0.51100000000E-03 0. -1.
    9900012    2    1    2    0    0  0.10757340515E+02 -0.26238472524E+02  0.14578824634E+02  0.59301953787E+02  0.50000017799E+02 0.  0.
         12    1    1    2    0    0 -0.10757340515E+02  0.26238472524E+02 -0.14578824634E+02  0.31886046213E+02  0.00000000000E+00 0. -1.
         11    1    3    3    0    0  0.11895462538E+02  0.38739756974E+01  0.63490861390E+01  0.14029276951E+02  0.51100000000E-03 0. -1.
        -11    1    3    3    0    0  0.62353864981E+01 -0.34364953536E+02  0.10487073031E+02  0.36466543260E+02  0.51100000000E-03 0.  1.
        -12    1    3    3    0    0 -0.73735085214E+01  0.42525053143E+01 -0.22573345358E+01  0.88061335766E+01  0.00000000000E+00 0.  1.
</event>
<event>
 7    1  0.4673733E-013  0.5930188E+02  0.7816164E-02  0.1266605E+00
        -11   -1    0    0    0    0  0.00000000000E+00  0.00000000000E+00  0.45593999997E+02  0.45594000000E+02  0.51100000000E-03 0.  1.
         11   -1    0    0    0    0 -0.00000000000E+00 -0.00000000000E+00 -0.45593999997E+02  0.45594000000E+02  0.51100000000E-03 0. -1.
    9900012    2    1    2    0    0 -0.14537423586E+02 -0.19182330084E+02  0.20914737784E+02  0.59301878747E+02  0.49999880944E+02 0.  0.
         12    1    1    2    0    0  0.14537423586E+02  0.19182330084E+02 -0.20914737784E+02  0.31886121253E+02  0.00000000000E+00 0. -1.
         11    1    3    3    0    0 -0.28489950257E+02 -0.26408483374E+02  0.11617126224E+02  0.40546798662E+02  0.51100000000E-03 0.  1.
        -11    1    3    3    0    0  0.52555076033E+01  0.48894751067E+00  0.33045279026E+01  0.62273055776E+01  0.51100000000E-03 0. -1.
         12    1    3    3    0    0  0.86970190683E+01  0.67372057795E+01  0.59930836569E+01  0.12527774507E+02  0.00000000000E+00 0. -1.
</event>
<event>
 7    1  0.4673733E-013  0.5930194E+02  0.7816164E-02  0.1266605E+00
        -11   -1    0    0    0    0  0.00000000000E+00  0.00000000000E+00  0.45593999997E+02  0.45594000000E+02  0.51100000000E-03 0. -1.
         11   -1    0    0    0    0 -0.00000000000E+00 -0.00000000000E+00 -0.45593999997E+02  0.45594000000E+02  0.51100000000E-03 0.  1.
    9900012    2    1    2    0    0  0.48964134563E+01 -0.14138772655E+02 -0.28157438629E+02  0.59301935535E+02  0.49999984511E+02 0.  0.
         12    1    1    2    0    0 -0.48964134563E+01  0.14138772655E+02  0.28157438629E+02  0.31886064465E+02  0.00000000000E+00 0. -1.
         11    1    3    3    0    0 -0.57079693843E+01 -0.58184160698E+01  0.35222346743E+01  0.88792464441E+01  0.51100000000E-03 0. -1.
        -11    1    3    3    0    0  0.24153066358E+02 -0.71920428161E+01 -0.16912585318E+02  0.30350150523E+02  0.51100000000E-03 0.  1.
        -12    1    3    3    0    0 -0.13548683517E+02 -0.11283137694E+01 -0.14767087985E+02  0.20072538568E+02  0.00000000000E+00 0.  1.
</event>
<event>
 7    1  0.4673733E-013  0.5930194E+02  0.7816164E-02  0.1266605E+00
        -11   -1    0    0    0    0  0.00000000000E+00  0.00000000000E+00  0.45593999997E+02  0.45594000000E+02  0.51100000000E-03 0.  1.
         11   -1    0    0    0    0 -0.00000000000E+00 -0.00000000000E+00 -0.45593999997E+02  0.45594000000E+02  0.51100000000E-03 0. -1.
    9900012    2    1    2    0    0 -0.16255654435E+02  0.23700455698E+02  0.13811692650E+02  0.59301941051E+02  0.49999994571E+02 0.  0.
         12    1    1    2    0    0  0.16255654435E+02 -0.23700455698E+02 -0.13811692650E+02  0.31886058949E+02  0.00000000000E+00 0. -1.
         11    1    3    3    0    0 -0.13723084062E+02  0.40420061667E+01  0.77391425914E+01  0.16265152269E+02  0.51100000000E-03 0. -1.
        -11    1    3    3    0    0 -0.27078531891E+01  0.27561712931E+02 -0.62552934603E+01  0.28392062009E+02  0.51100000000E-03 0.  1.
        -12    1    3    3    0    0  0.17528281611E+00 -0.79032633990E+01  0.12327843519E+02  0.14644726773E+02  0.00000000000E+00 0.  1.
</event>
<event>
 7    1  0.4673733E-013  0.5930196E+02  0.7816164E-02  0.1266605E+00
        -11   -1    0    0    0    0  0.00000000000E+00  0.00000000000E+00  0.45593999997E+02  0.45594000000E+02  0.51100000000E-03 0. -1.
         11   -1    0    0    0    0 -0.00000000000E+00 -0.00000000000E+00 -0.45593999997E+02  0.45594000000E+02  0.51100000000E-03 0.  1.
    9900012    2    1    2    0    0  0.24299882287E+01 -0.31773877213E+02  0.11114989147E+01  0.59301960018E+02  0.50000029162E+02 0.  0.
         12    1    1    2    0    0 -0.24299882287E+01  0.31773877213E+02 -0.11114989147E+01  0.31886039982E+02  0.00000000000E+00 0. -1.
         11    1    3    3    0    0  0.18580517012E+01 -0.15485928791E+02  0.74495122611E+01  0.17284720994E+02  0.51100000000E-03 0. -1.
        -11    1    3    3    0    0 -0.82300316067E+01 -0.31704318438E+01 -0.19534684925E+02  0.21433361232E+02  0.51100000000E-03 0.  1.
        -12    1    3    3    0    0  0.88019681342E+01 -0.13117516578E+02  0.13196671578E+02  0.20583877792E+02  0.00000000000E+00 0.  1.
</event>
<event>
 7    1  0.4673733E-013  0.5930194E+02  0.7816164E-02  0.1266605E+00
        -11   -1    0    0    0    0  0.00000000000E+00  0.00000000000E+00  0.45593999997E+02  0.45594000000E+02  0.51100000000E-03 0. -1.
         11   -1    0    0    0    0 -0.00000000000E+00 -0.00000000000E+00 -0.45593999997E+02  0.45594000000E+02  0.51100000000E-03 0.  1.
    9900012    2    1    2    0    0  0.21891590613E+02  0.22328101098E+02  0.62397719211E+01  0.59301943614E+02  0.49999999246E+02 0.  0.
         12    1    1    2    0    0 -0.21891590613E+02 -0.22328101098E+02 -0.62397719211E+01  0.31886056386E+02  0.00000000000E+00 0. -1.
         11    1    3    3    0    0 -0.52883749827E+01 -0.52565170730E+01 -0.31317832970E+01  0.80873944245E+01  0.51100000000E-03 0. -1.
        -11    1    3    3    0    0  0.33006409907E+02  0.25823196372E+02  0.13302892454E+02  0.43968483187E+02  0.51100000000E-03 0.  1.
        -12    1    3    3    0    0 -0.58264443107E+01  0.17614217984E+01 -0.39313372363E+01  0.72460660032E+01  0.00000000000E+00 0.  1.
</event>
<event>
 7    1  0.4673733E-013  0.5930197E+02  0.7816164E-02  0.1266605E+00
        -11   -1    0    0    0    0  0.00000000000E+00  0.00000000000E+00  0.45593999997E+02  0.45594000000E+02  0.51100000000E-03 0.  1.
         11   -1    0    0    0    0 -0.00000000000E+00 -0.00000000000E+00 -0.45593999997E+02  0.45594000000E+02  0.51100000000E-03 0. -1.
    9900012    2    1    2    0    0 -0.28552746008E+02  0.61807400307E+01  0.12777235168E+02  0.59301974998E+02  0.50000056481E+02 0.  0.
         12    1    1    2    0    0  0.28552746008E+02 -0.61807400307E+01 -0.12777235168E+02  0.31886025002E+02  0.00000000000E+00 0. -1.
         11    1    3    3    0    0 -0.18075824219E+02 -0.15195193617E+02 -0.82683701350E+01  0.25019897586E+02  0.51100000000E-03 0. -1.
        -11    1    3    3    0    0 -0.88401885206E+01  0.61800362472E+01  0.13372254832E+02  0.17180191520E+02  0.51100000000E-03 0.  1.
         12    1    3    3    0    0 -0.16367332686E+01  0.15195897401E+02  0.76733504712E+01  0.17101885892E+02  0.00000000000E+00 0. -1.
</event>
<event>
 7    1  0.4673733E-013  0.5930190E+02  0.7816164E-02  0.1266605E+00
        -11   -1    0    0    0    0  0.00000000000E+00  0.00000000000E+00  0.45593999997E+02  0.45594000000E+02  0.51100000000E-03 0. -1.
         11   -1    0    0    0    0 -0.00000000000E+00 -0.00000000000E+00 -0.45593999997E+02  0.45594000000E+02  0.51100000000E-03 0.  1.
    9900012    2    1    2    0    0 -0.15562331642E+02  0.19800962675E+02 -0.19556560064E+02  0.59301900669E+02  0.49999920924E+02 0.  0.
         12    1    1    2    0    0  0.15562331642E+02 -0.19800962675E+02  0.19556560064E+02  0.31886099331E+02  0.00000000000E+00 0. -1.
         11    1    3    3    0    0 -0.13622453331E+02 -0.72907606641E+01 -0.21681597356E+02  0.26623637805E+02  0.51100000000E-03 0.  1.
        -11    1    3    3    0    0 -0.81172012545E+01  0.20621823027E+02  0.59542549026E+01  0.22947803661E+02  0.51100000000E-03 0. -1.
        -12    1    3    3    0    0  0.61773229428E+01  0.64699003122E+01 -0.38292176113E+01  0.97304592032E+01  0.00000000000E+00 0.  1.
</event>
<event>
 7    1  0.4673733E-013  0.5930195E+02  0.7816164E-02  0.1266605E+00
        -11   -1    0    0    0    0  0.00000000000E+00  0.00000000000E+00  0.45593999997E+02  0.45594000000E+02  0.51100000000E-03 0.  1.
         11   -1    0    0    0    0 -0.00000000000E+00 -0.00000000000E+00 -0.45593999997E+02  0.45594000000E+02  0.51100000000E-03 0. -1.
    9900012    2    1    2    0    0  0.10166554518E+00  0.41054440788E+01  0.31620488256E+02  0.59301948434E+02  0.50000008036E+02 0.  0.
         12    1    1    2    0    0 -0.10166554518E+00 -0.41054440788E+01 -0.31620488256E+02  0.31886051566E+02  0.00000000000E+00 0. -1.
         11    1    3    3    0    0  0.73799453924E+00 -0.17549797106E+01 -0.40049137874E+01  0.44344023757E+01  0.51100000000E-03 0. -1.
        -11    1    3    3    0    0 -0.20039763179E+02  0.83246828424E+01  0.22813603435E+02  0.31485757965E+02  0.51100000000E-03 0.  1.
        -12    1    3    3    0    0  0.19403434185E+02 -0.24642590530E+01  0.12811798608E+02  0.23381788093E+02  0.00000000000E+00 0.  1.
</event>
<event>
 7    1  0.4673733E-013  0.5930198E+02  0.7816164E-02  0.1266605E+00
        -11   -1    0    0    0    0  0.00000000000E+00  0.00000000000E+00  0.45593999997E+02  0.45594000000E+02  0.51100000000E-03 0. -1.
         11   -1    0    0    0    0 -0.00000000000E+00 -0.00000000000E+00 -0.45593999997E+02  0.45594000000E+02  0.51100000000E-03 0.  1.
    9900012    2    1    2    0    0  0.39214202191E+01 -0.10478850012E+02 -0.29858576775E+02  0.59301977339E+02  0.50000060752E+02 0.  0.
         12    1    1    2    0    0 -0.39214202191E+01  0.10478850012E+02  0.29858576775E+02  0.31886022661E+02  0.00000000000E+00 0. -1.
         11    1    3    3    0    0 -0.33302608372E+01 -0.45984310373E+01  0.13211360850E+02  0.14379717001E+02  0.51100000000E-03 0. -1.
        -11    1    3    3    0    0  0.11096399744E+01 -0.53072446572E+01 -0.10991370599E+02  0.12255952620E+02  0.51100000000E-03 0.  1.
         12    1    3    3    0    0  0.61420410819E+01 -0.57317431732E+00 -0.32078567026E+02  0.32666307718E+02  0.00000000000E+00 0. -1.
</event>
<event>
 7    1  0.4673733E-013  0.5930196E+02  0.7816164E-02  0.1266605E+00
        -11   -1    0    0    0    0  0.00000000000E+00  0.00000000000E+00  0.45593999997E+02  0.45594000000E+02  0.51100000000E-03 0.  1.
         11   -1    0    0    0    0 -0.00000000000E+00 -0.00000000000E+00 -0.45593999997E+02  0.45594000000E+02  0.51100000000E-03 0. -1.
    9900012    2    1    2    0    0 -0.12009425492E+02  0.43761457200E+01  0.29212030358E+02  0.59301958075E+02  0.50000025618E+02 0.  0.
         12    1    1    2    0    0  0.12009425492E+02 -0.43761457200E+01 -0.29212030358E+02  0.31886041925E+02  0.00000000000E+00 0. -1.
         11    1    3    3    0    0  0.56908239680E+01  0.25139815105E+01 -0.56150751827E+01  0.83806115551E+01  0.51100000000E-03 0. -1.
        -11    1    3    3    0    0 -0.21823211549E+02 -0.98417806326E+01  0.17705076516E+02  0.29775542700E+02  0.51100000000E-03 0.  1.
        -12    1    3    3    0    0  0.41229620899E+01  0.11703944842E+02  0.17122029025E+02  0.21145803820E+02  0.00000000000E+00 0.  1.
</event>
<event>
 7    1  0.4673733E-013  0.5930194E+02  0.7816164E-02  0.1266605E+00
        -11   -1    0    0    0    0  0.00000000000E+00  0.00000000000E+00  0.45593999997E+02  0.45594000000E+02  0.51100000000E-03 0.  1.
         11   -1    0    0    0    0 -0.00000000000E+00 -0.00000000000E+00 -0.45593999997E+02  0.45594000000E+02  0.51100000000E-03 0. -1.
    9900012    2    1    2    0    0 -0.19698491667E+02 -0.20101373236E+02 -0.14987494741E+02  0.59301940686E+02  0.49999993906E+02 0.  0.
         12    1    1    2    0    0  0.19698491667E+02  0.20101373236E+02  0.14987494741E+02  0.31886059314E+02  0.00000000000E+00 0. -1.
         11    1    3    3    0    0  0.39934358975E+01  0.10424956395E+02  0.22166070072E+01  0.11381590091E+02  0.51100000000E-03 0. -1.
        -11    1    3    3    0    0 -0.14595880092E+02 -0.31327084954E+02 -0.91661959536E+01  0.35755350871E+02  0.51100000000E-03 0.  1.
         12    1    3    3    0    0 -0.90960474730E+01  0.80075532225E+00 -0.80379057951E+01  0.12164999724E+02  0.00000000000E+00 0. -1.
</event>
<event>
 7    1  0.4673733E-013  0.5930184E+02  0.7816164E-02  0.1266605E+00
        -11   -1    0    0    0    0  0.00000000000E+00  0.00000000000E+00  0.45593999997E+02  0.45594000000E+02  0.51100000000E-03 0. -1.
         11   -1    0    0    0    0 -0.00000000000E+00 -0.00000000000E+00 -0.45593999997E+02  0.45594000000E+02  0.51100000000E-03 0.  1.
    9900012    2    1    2    0    0 -0.31363804411E+02 -0.36169298292E+01  0.44673246782E+01  0.59301836884E+02  0.49999804594E+02 0.  0.
         12    1    1    2    0    0  0.31363804411E+02  0.36169298292E+01 -0.44673246782E+01  0.31886163116E+02  0.00000000000E+00 0. -1.
         11    1    3    3    0    0 -0.60928712987E+01 -0.43389150006E+01  0.62104762364E+01  0.97221026218E+01  0.51100000000E-03 0. -1.
        -11    1    3    3    0    0  0.16600972363E+01 -0.69774229033E+01 -0.16448498848E+02  0.17944176432E+02  0.51100000000E-03 0.  1.
        -12    1    3    3    0    0 -0.26931030348E+02  0.76994080748E+01  0.14705347289E+02  0.31635557830E+02  0.00000000000E+00 0.  1.
</event>
<event>
 7    1  0.4673733E-013  0.5930197E+02  0.7816164E-02  0.1266605E+00
        -11   -1    0    0    0    0  0.00000000000E+00  0.00000000000E+00  0.45593999997E+02  0.45594000000E+02  0.51100000000E-03 0.  1.
         11   -1    0    0    0    0 -0.00000000000E+00 -0.00000000000E+00 -0.45593999997E+02  0.45594000000E+02  0.51100000000E-03 0. -1.
    9900012    2    1    2    0    0 -0.47037246240E+01 -0.29509271059E+02  0.11126410388E+02  0.59301966821E+02  0.50000041569E+02 0.  0.
         12    1    1    2    0    0  0.47037246240E+01  0.29509271059E+02 -0.11126410388E+02  0.31886033179E+02  0.00000000000E+00 0. -1.
         11    1    3    3    0    0  0.10767668196E+02 -0.14153243459E+02 -0.12249675167E+01  0.17825754528E+02  0.51100000000E-03 0. -1.
        -11    1    3    3    0    0 -0.21305194223E+02 -0.13006622484E+01  0.14920724458E+02  0.26042869308E+02  0.51100000000E-03 0.  1.
        -12    1    3    3    0    0  0.58338014028E+01 -0.14055365352E+02 -0.25693465533E+01  0.15433342985E+02  0.00000000000E+00 0.  1.
</event>
<event>
 7    1  0.4673733E-013  0.5930194E+02  0.7816164E-02  0.1266605E+00
        -11   -1    0    0    0    0  0.00000000000E+00  0.00000000000E+00  0.45593999997E+02  0.45594000000E+02  0.51100000000E-03 0.  1.
         11   -1    0    0    0    0 -0.00000000000E+00 -0.00000000000E+00 -0.45593999997E+02  0.45594000000E+02  0.51100000000E-03 0. -1.
    9900012    2    1    2    0    0  0.26053396660E+02 -0.52567414165E+01  0.17615560772E+02  0.59301940520E+02  0.49999993603E+02 0.  0.
         12    1    1    2    0    0 -0.26053396660E+02  0.52567414165E+01 -0.17615560772E+02  0.31886059480E+02  0.00000000000E+00 0. -1.
         11    1    3    3    0    0 -0.41782841130E+01 -0.11762175153E+02 -0.24005247758E+01  0.12710992955E+02  0.51100000000E-03 0. -1.
        -11    1    3    3    0    0  0.31450044001E+02 -0.22975988337E+01  0.20630301898E+02  0.37682802241E+02  0.51100000000E-03 0.  1.
        -12    1    3    3    0    0 -0.12183632283E+01  0.88030325699E+01 -0.61421634986E+00  0.89081453236E+01  0.00000000000E+00 0.  1.
</event>
<event>
 7    1  0.4673733E-013  0.5930197E+02  0.7816164E-02  0.1266605E+00
        -11   -1    0    0    0    0  0.00000000000E+00  0.00000000000E+00  0.45593999997E+02  0.45594000000E+02  0.51100000000E-03 0.  1.
         11   -1    0    0    0    0 -0.00000000000E+00 -0.00000000000E+00 -0.45593999997E+02  0.45594000000E+02  0.51100000000E-03 0. -1.
    9900012    2    1    2    0    0 -0.12658633558E+02  0.28983926061E+02  0.40509543816E+01  0.59301965363E+02  0.50000038911E+02 0.  0.
         12    1    1    2    0    0  0.12658633558E+02 -0.28983926061E+02 -0.40509543816E+01  0.31886034637E+02  0.00000000000E+00 0. -1.
         11    1    3    3    0    0 -0.26365827331E+01 -0.74960282734E+01 -0.60523459353E+01  0.99886385442E+01  0.51100000000E-03 0. -1.
        -11    1    3    3    0    0  0.27841701586E+01  0.30250094801E+02 -0.22496244455E+01  0.30461133422E+02  0.51100000000E-03 0.  1.
        -12    1    3    3    0    0 -0.12806220984E+02  0.62298595327E+01  0.12352924762E+02  0.18852193397E+02  0.00000000000E+00 0.  1.
</event>
<event>
 7    1  0.4673733E-013  0.5930193E+02  0.7816164E-02  0.1266605E+00
        -11   -1    0    0    0    0  0.00000000000E+00  0.00000000000E+00  0.45593999997E+02  0.45594000000E+02  0.51100000000E-03 0.  1.
         11   -1    0    0    0    0 -0.00000000000E+00 -0.00000000000E+00 -0.45593999997E+02  0.45594000000E+02  0.51100000000E-03 0. -1.
    9900012    2    1    2    0    0  0.67068374441E+01  0.22444282608E+02  0.21633161647E+02  0.59301934499E+02  0.49999982621E+02 0.  0.
         12    1    1    2    0    0 -0.67068374441E+01 -0.22444282608E+02 -0.21633161647E+02  0.31886065501E+02  0.00000000000E+00 0. -1.
         11    1    3    3    0    0  0.25047556305E+02  0.26308361147E+02  0.14938931362E+02  0.39276985801E+02  0.51100000000E-03 0. -1.
        -11    1    3    3    0    0 -0.16101269575E+02 -0.39734246714E+01  0.63408687620E+01  0.17755157067E+02  0.51100000000E-03 0.  1.
         12    1    3    3    0    0 -0.22394492856E+01  0.10934613224E+00  0.35336152295E+00  0.22697916303E+01  0.00000000000E+00 0. -1.
</event>
<event>
 7    1  0.4673733E-013  0.5930195E+02  0.7816164E-02  0.1266605E+00
        -11   -1    0    0    0    0  0.00000000000E+00  0.00000000000E+00  0.45593999997E+02  0.45594000000E+02  0.51100000000E-03 0. -1.
         11   -1    0    0    0    0 -0.00000000000E+00 -0.00000000000E+00 -0.45593999997E+02  0.45594000000E+02  0.51100000000E-03 0.  1.
    9900012    2    1    2    0    0 -0.30634554497E+02 -0.59674118344E+01  0.65295100078E+01  0.59301946086E+02  0.50000003754E+02 0.  0.
         12    1    1    2    0    0  0.30634554497E+02  0.59674118344E+01 -0.65295100078E+01  0.31886053914E+02  0.00000000000E+00 0. -1.
         11    1    3    3    0    0 -0.39449443443E+01 -0.13019435216E+02 -0.14354445686E+02  0.19776713337E+02  0.51100000000E-03 0. -1.
        -11    1    3    3    0    0 -0.27764266877E+02  0.62802785133E+01  0.23290042352E+02  0.36779375830E+02  0.51100000000E-03 0.  1.
        -12    1    3    3    0    0  0.10746567240E+01  0.77174486783E+00 -0.24060866583E+01  0.27458569196E+01  0.00000000000E+00 0.  1.
</event>
<event>
 7    1  0.4673733E-013  0.5930180E+02  0.7816164E-02  0.1266605E+00
        -11   -1    0    0    0    0  0.00000000000E+00  0.00000000000E+00  0.45593999997E+02  0.45594000000E+02  0.51100000000E-03 0.  1.
         11   -1    0    0    0    0 -0.00000000000E+00 -0.00000000000E+00 -0.45593999997E+02  0.45594000000E+02  0.51100000000E-03 0. -1.
    9900012    2    1    2    0    0  0.11224612626E+01 -0.12490833148E+02  0.29316356561E+02  0.59301802453E+02  0.49999741801E+02 0.  0.
         12    1    1    2    0    0 -0.11224612626E+01  0.12490833148E+02 -0.29316356561E+02  0.31886197547E+02  0.00000000000E+00 0. -1.
         11    1    3    3    0    0  0.97910496970E+01 -0.10506971401E+02 -0.56244507562E+01  0.15423862965E+02  0.51100000000E-03 0. -1.
        -11    1    3    3    0    0  0.30169954926E+01 -0.76140980598E+01  0.27986163966E+02  0.29159940412E+02  0.51100000000E-03 0.  1.
         12    1    3    3    0    0 -0.11685583927E+02  0.56302363129E+01  0.69546433508E+01  0.14717999076E+02  0.00000000000E+00 0. -1.
</event>
<event>
 7    1  0.4673733E-013  0.5930190E+02  0.7816164E-02  0.1266605E+00
        -11   -1    0    0    0    0  0.00000000000E+00  0.00000000000E+00  0.45593999997E+02  0.45594000000E+02  0.51100000000E-03 0. -1.
         11   -1    0    0    0    0 -0.00000000000E+00 -0.00000000000E+00 -0.45593999997E+02  0.45594000000E+02  0.51100000000E-03 0.  1.
    9900012    2    1    2    0    0 -0.10943173808E+02 -0.26438805478E+02 -0.14069812844E+02  0.59301903946E+02  0.49999926901E+02 0.  0.
         12    1    1    2    0    0  0.10943173808E+02  0.26438805478E+02  0.14069812844E+02  0.31886096054E+02  0.00000000000E+00 0. -1.
         11    1    3    3    0    0 -0.20564122173E+02  0.36038910492E+01  0.33853040064E+01  0.21150211226E+02  0.51100000000E-03 0. -1.
        -11    1    3    3    0    0  0.29830512425E+01 -0.25618828310E+02 -0.14842652092E+02  0.29757810404E+02  0.51100000000E-03 0.  1.
         12    1    3    3    0    0  0.66378971226E+01 -0.44238682173E+01 -0.26124647582E+01  0.83938823156E+01  0.00000000000E+00 0. -1.
</event>
<event>
 7    1  0.4673733E-013  0.5930195E+02  0.7816164E-02  0.1266605E+00
        -11   -1    0    0    0    0  0.00000000000E+00  0.00000000000E+00  0.45593999997E+02  0.45594000000E+02  0.51100000000E-03 0.  1.
         11   -1    0    0    0    0 -0.00000000000E+00 -0.00000000000E+00 -0.45593999997E+02  0.45594000000E+02  0.51100000000E-03 0. -1.
    9900012    2    1    2    0    0 -0.30478502572E+01  0.11746720196E+02  0.29486357202E+02  0.59301951521E+02  0.50000013667E+02 0.  0.
         12    1    1    2    0    0  0.30478502572E+01 -0.11746720196E+02 -0.29486357202E+02  0.31886048479E+02  0.00000000000E+00 0. -1.
         11    1    3    3    0    0  0.14978154379E+02  0.96630987869E+01 -0.34569887287E+01  0.18156854301E+02  0.51100000000E-03 0. -1.
        -11    1    3    3    0    0 -0.66391138491E+01  0.90473490559E+01  0.13393488982E+02  0.17473348420E+02  0.51100000000E-03 0.  1.
         12    1    3    3    0    0 -0.11386890788E+02 -0.69637276470E+01  0.19549856949E+02  0.23671748800E+02  0.00000000000E+00 0. -1.
</event>
<event>
 7    1  0.4673733E-013  0.5930194E+02  0.7816164E-02  0.1266605E+00
        -11   -1    0    0    0    0  0.00000000000E+00  0.00000000000E+00  0.45593999997E+02  0.45594000000E+02  0.51100000000E-03 0.  1.
         11   -1    0    0    0    0 -0.00000000000E+00 -0.00000000000E+00 -0.45593999997E+02  0.45594000000E+02  0.51100000000E-03 0. -1.
    9900012    2    1    2    0    0  0.89923822571E+01  0.26682341199E+02  0.14963645407E+02  0.59301937929E+02  0.49999988877E+02 0.  0.
         12    1    1    2    0    0 -0.89923822571E+01 -0.26682341199E+02 -0.14963645407E+02  0.31886062071E+02  0.00000000000E+00 0. -1.
         11    1    3    3    0    0  0.13007656961E+02  0.31833782679E+02 -0.55259385014E+01  0.34829941945E+02  0.51100000000E-03 0. -1.
        -11    1    3    3    0    0 -0.25298011011E+01 -0.89052139261E+01  0.15495398402E+02  0.18050210541E+02  0.51100000000E-03 0.  1.
         12    1    3    3    0    0 -0.14854736025E+01  0.37537724460E+01  0.49941855066E+01  0.64217854429E+01  0.00000000000E+00 0. -1.
</event>
<event>
 7    1  0.4673733E-013  0.5930190E+02  0.7816164E-02  0.1266605E+00
        -11   -1    0    0    0    0  0.00000000000E+00  0.00000000000E+00  0.45593999997E+02  0.45594000000E+02  0.51100000000E-03 0.  1.
         11   -1    0    0    0    0 -0.00000000000E+00 -0.00000000000E+00 -0.45593999997E+02  0.45594000000E+02  0.51100000000E-03 0. -1.
    9900012    2    1    2    0    0 -0.22112878675E+02 -0.39799073438E+01  0.22625296971E+02  0.59301903833E+02  0.49999926694E+02 0.  0.
         12    1    1    2    0    0  0.22112878675E+02  0.39799073438E+01 -0.22625296971E+02  0.31886096167E+02  0.00000000000E+00 0. -1.
         11    1    3    3    0    0 -0.64109319924E+01  0.36942472561E+01  0.40078259715E+01  0.84148785541E+01  0.51100000000E-03 0.  1.
        -11    1    3    3    0    0  0.11795383100E+02  0.80693583799E+01  0.31385314345E+00  0.14294898083E+02  0.51100000000E-03 0. -1.
        -12    1    3    3    0    0 -0.27497329782E+02 -0.15743512980E+02  0.18303617856E+02  0.36592127196E+02  0.00000000000E+00 0.  1.
</event>
<event>
 7    1  0.4673733E-013  0.5930193E+02  0.7816164E-02  0.1266605E+00
        -11   -1    0    0    0    0  0.00000000000E+00  0.00000000000E+00  0.45593999997E+02  0.45594000000E+02  0.51100000000E-03 0.  1.
         11   -1    0    0    0    0 -0.00000000000E+00 -0.00000000000E+00 -0.45593999997E+02  0.45594000000E+02  0.51100000000E-03 0. -1.
    9900012    2    1    2    0    0 -0.90536153563E+01  0.27150320445E+02  0.14057499858E+02  0.59301934806E+02  0.49999983181E+02 0.  0.
         12    1    1    2    0    0  0.90536153563E+01 -0.27150320445E+02 -0.14057499858E+02  0.31886065194E+02  0.00000000000E+00 0. -1.
         11    1    3    3    0    0 -0.24794544911E+02  0.21165054069E+02  0.51740107449E+01  0.33007565172E+02  0.51100000000E-03 0. -1.
        -11    1    3    3    0    0  0.33847519321E+01  0.18639507895E+00  0.11850970133E+02  0.12326263915E+02  0.51100000000E-03 0.  1.
         12    1    3    3    0    0  0.12356177623E+02  0.57988712970E+01 -0.29674810192E+01  0.13968105719E+02  0.00000000000E+00 0. -1.
</event>
<event>
 7    1  0.4673733E-013  0.5930194E+02  0.7816164E-02  0.1266605E+00
        -11   -1    0    0    0    0  0.00000000000E+00  0.00000000000E+00  0.45593999997E+02  0.45594000000E+02  0.51100000000E-03 0.  1.
         11   -1    0    0    0    0 -0.00000000000E+00 -0.00000000000E+00 -0.45593999997E+02  0.45594000000E+02  0.51100000000E-03 0. -1.
    9900012    2    1    2    0    0 -0.78503630209E+01 -0.15419901226E+02  0.26782816838E+02  0.59301939861E+02  0.49999992401E+02 0.  0.
         12    1    1    2    0    0  0.78503630209E+01  0.15419901226E+02 -0.26782816838E+02  0.31886060139E+02  0.00000000000E+00 0. -1.
         11    1    3    3    0    0 -0.16775263348E+02 -0.22163050058E+01  0.19168687045E+01  0.17029264640E+02  0.51100000000E-03 0. -1.
        -11    1    3    3    0    0  0.79961963563E+01 -0.22996478389E+02  0.17910992352E+02  0.30225499529E+02  0.51100000000E-03 0.  1.
         12    1    3    3    0    0  0.92870397124E+00  0.97928821688E+01  0.69549557819E+01  0.12047175693E+02  0.00000000000E+00 0. -1.
</event>
<event>
 7    1  0.4673733E-013  0.5930194E+02  0.7816164E-02  0.1266605E+00
        -11   -1    0    0    0    0  0.00000000000E+00  0.00000000000E+00  0.45593999997E+02  0.45594000000E+02  0.51100000000E-03 0. -1.
         11   -1    0    0    0    0 -0.00000000000E+00 -0.00000000000E+00 -0.45593999997E+02  0.45594000000E+02  0.51100000000E-03 0.  1.
    9900012    2    1    2    0    0  0.23792304713E+02 -0.59639612194E+01 -0.20373465112E+02  0.59301942268E+02  0.49999996791E+02 0.  0.
         12    1    1    2    0    0 -0.23792304713E+02  0.59639612194E+01  0.20373465112E+02  0.31886057732E+02  0.00000000000E+00 0. -1.
         11    1    3    3    0    0  0.31953626366E+01 -0.41115958331E+01  0.20019229586E+01  0.55788223191E+01  0.51100000000E-03 0. -1.
        -11    1    3    3    0    0  0.96045460281E+01  0.51361644970E+00 -0.35302951087E+02  0.36589745311E+02  0.51100000000E-03 0.  1.
        -12    1    3    3    0    0  0.10992396049E+02 -0.23659818360E+01  0.12927563016E+02  0.17133374638E+02  0.00000000000E+00 0.  1.
</event>
<event>
 7    1  0.4673733E-013  0.5930194E+02  0.7816164E-02  0.1266605E+00
        -11   -1    0    0    0    0  0.00000000000E+00  0.00000000000E+00  0.45593999997E+02  0.45594000000E+02  0.51100000000E-03 0.  1.
         11   -1    0    0    0    0 -0.00000000000E+00 -0.00000000000E+00 -0.45593999997E+02  0.45594000000E+02  0.51100000000E-03 0. -1.
    9900012    2    1    2    0    0  0.17561028606E+02 -0.19131751862E+02  0.18501540190E+02  0.59301942790E+02  0.49999997743E+02 0.  0.
         12    1    1    2    0    0 -0.17561028606E+02  0.19131751862E+02 -0.18501540190E+02  0.31886057210E+02  0.00000000000E+00 0. -1.
         11    1    3    3    0    0  0.13413017278E+02 -0.44572455436E+00 -0.28545081448E+01  0.13720638465E+02  0.51100000000E-03 0. -1.
        -11    1    3    3    0    0  0.20108526623E+01 -0.29265782844E+02  0.17266208493E+02  0.34038970752E+02  0.51100000000E-03 0.  1.
        -12    1    3    3    0    0  0.21371586650E+01  0.10579755536E+02  0.40898398426E+01  0.11542333573E+02  0.00000000000E+00 0.  1.
</event>
<event>
 7    1  0.4673733E-013  0.5930199E+02  0.7816164E-02  0.1266605E+00
        -11   -1    0    0    0    0  0.00000000000E+00  0.00000000000E+00  0.45593999997E+02  0.45594000000E+02  0.51100000000E-03 0.  1.
         11   -1    0    0    0    0 -0.00000000000E+00 -0.00000000000E+00 -0.45593999997E+02  0.45594000000E+02  0.51100000000E-03 0. -1.
    9900012    2    1    2    0    0  0.20579573363E+02 -0.11590835528E+02  0.21420812250E+02  0.59301992011E+02  0.50000087510E+02 0.  0.
         12    1    1    2    0    0 -0.20579573363E+02  0.11590835528E+02 -0.21420812250E+02  0.31886007989E+02  0.00000000000E+00 0. -1.
         11    1    3    3    0    0 -0.36269626262E+00 -0.30659974716E+01 -0.88903113942E+01  0.94111384020E+01  0.51100000000E-03 0. -1.
        -11    1    3    3    0    0  0.28773922313E+02 -0.93951794981E+01  0.28968776891E+02  0.41897470543E+02  0.51100000000E-03 0.  1.
        -12    1    3    3    0    0 -0.78316526873E+01  0.87034144140E+00  0.13423467533E+01  0.79933830664E+01  0.00000000000E+00 0.  1.
</event>
<event>
 7    1  0.4673733E-013  0.5930227E+02  0.7816164E-02  0.1266604E+00
        -11   -1    0    0    0    0  0.00000000000E+00  0.00000000000E+00  0.45593999997E+02  0.45594000000E+02  0.51100000000E-03 0. -1.
         11   -1    0    0    0    0 -0.00000000000E+00 -0.00000000000E+00 -0.45593999997E+02  0.45594000000E+02  0.51100000000E-03 0.  1.
    9900012    2    1    2    0    0  0.31393633870E+02 -0.38159930441E+01 -0.40715408793E+01  0.59302274422E+02  0.50000602556E+02 0.  0.
         12    1    1    2    0    0 -0.31393633870E+02  0.38159930441E+01  0.40715408793E+01  0.31885725578E+02  0.00000000000E+00 0. -1.
         11    1    3    3    0    0  0.72845810396E+01  0.10790452152E+02  0.18981592291E+01  0.13156822842E+02  0.51100000000E-03 0. -1.
        -11    1    3    3    0    0  0.14211937010E+02 -0.13787144412E+02 -0.20528793757E+02  0.28521849133E+02  0.51100000000E-03 0.  1.
        -12    1    3    3    0    0  0.98971158209E+01 -0.81930078424E+00  0.14559093648E+02  0.17623602447E+02  0.00000000000E+00 0.  1.
</event>
<event>
 7    1  0.4673733E-013  0.5930195E+02  0.7816164E-02  0.1266605E+00
        -11   -1    0    0    0    0  0.00000000000E+00  0.00000000000E+00  0.45593999997E+02  0.45594000000E+02  0.51100000000E-03 0. -1.
         11   -1    0    0    0    0 -0.00000000000E+00 -0.00000000000E+00 -0.45593999997E+02  0.45594000000E+02  0.51100000000E-03 0.  1.
    9900012    2    1    2    0    0  0.19873756372E+02  0.97665854133E+01 -0.22942710920E+02  0.59301947135E+02  0.50000005667E+02 0.  0.
         12    1    1    2    0    0 -0.19873756372E+02 -0.97665854133E+01  0.22942710920E+02  0.31886052865E+02  0.00000000000E+00 0. -1.
         11    1    3    3    0    0  0.11856507477E+02  0.22597332272E+02 -0.22807636497E+02  0.34225786743E+02  0.51100000000E-03 0.  1.
        -11    1    3    3    0    0  0.33260705797E+01 -0.16032590035E+02  0.53045632476E+01  0.17211771560E+02  0.51100000000E-03 0. -1.
         12    1    3    3    0    0  0.46911783152E+01  0.32018431767E+01 -0.54396376703E+01  0.78643888318E+01  0.00000000000E+00 0. -1.
</event>
<event>
 7    1  0.4673733E-013  0.5930188E+02  0.7816164E-02  0.1266605E+00
        -11   -1    0    0    0    0  0.00000000000E+00  0.00000000000E+00  0.45593999997E+02  0.45594000000E+02  0.51100000000E-03 0. -1.
         11   -1    0    0    0    0 -0.00000000000E+00 -0.00000000000E+00 -0.45593999997E+02  0.45594000000E+02  0.51100000000E-03 0.  1.
    9900012    2    1    2    0    0  0.22291459294E+01  0.11145185991E+01 -0.31788573085E+02  0.59301880417E+02  0.49999883989E+02 0.  0.
         12    1    1    2    0    0 -0.22291459294E+01 -0.11145185991E+01  0.31788573085E+02  0.31886119583E+02  0.00000000000E+00 0. -1.
         11    1    3    3    0    0 -0.34618389380E+00  0.13187287879E+02  0.19322118051E+01  0.13332585931E+02  0.51100000000E-03 0. -1.
        -11    1    3    3    0    0 -0.46079736929E+01 -0.19052675586E+02 -0.14802541986E+02  0.24563247302E+02  0.51100000000E-03 0.  1.
        -12    1    3    3    0    0  0.71833035162E+01  0.69799063062E+01 -0.18918242904E+02  0.21406047184E+02  0.00000000000E+00 0.  1.
</event>
<event>
 7    1  0.4673733E-013  0.5930197E+02  0.7816164E-02  0.1266605E+00
        -11   -1    0    0    0    0  0.00000000000E+00  0.00000000000E+00  0.45593999997E+02  0.45594000000E+02  0.51100000000E-03 0.  1.
         11   -1    0    0    0    0 -0.00000000000E+00 -0.00000000000E+00 -0.45593999997E+02  0.45594000000E+02  0.51100000000E-03 0. -1.
    9900012    2    1    2    0    0  0.19730672572E+02 -0.41624943112E+01  0.24700064548E+02  0.59301968768E+02  0.50000045120E+02 0.  0.
         12    1    1    2    0    0 -0.19730672572E+02  0.41624943112E+01 -0.24700064548E+02  0.31886031232E+02  0.00000000000E+00 0. -1.
         11    1    3    3    0    0 -0.42914806969E+01 -0.55976027233E+01  0.21261016654E+02  0.22400464108E+02  0.51100000000E-03 0. -1.
        -11    1    3    3    0    0  0.18176466083E+02 -0.42786384405E+01 -0.99919875123E+01  0.21178538214E+02  0.51100000000E-03 0.  1.
         12    1    3    3    0    0  0.58456871857E+01  0.57137468525E+01  0.13431035406E+02  0.15722966446E+02  0.00000000000E+00 0. -1.
</event>
<event>
 7    1  0.4673733E-013  0.5930197E+02  0.7816164E-02  0.1266605E+00
        -11   -1    0    0    0    0  0.00000000000E+00  0.00000000000E+00  0.45593999997E+02  0.45594000000E+02  0.51100000000E-03 0.  1.
         11   -1    0    0    0    0 -0.00000000000E+00 -0.00000000000E+00 -0.45593999997E+02  0.45594000000E+02  0.51100000000E-03 0. -1.
    9900012    2    1    2    0    0  0.64078287850E+01 -0.78267358873E+01  0.30239062190E+02  0.59301969414E+02  0.50000046299E+02 0.  0.
         12    1    1    2    0    0 -0.64078287850E+01  0.78267358873E+01 -0.30239062190E+02  0.31886030586E+02  0.00000000000E+00 0. -1.
         11    1    3    3    0    0 -0.37805065427E+01  0.60385924138E+01  0.12069380061E+02  0.14015233262E+02  0.51100000000E-03 0. -1.
        -11    1    3    3    0    0  0.14341901697E+02 -0.21012493099E+02  0.12724538234E+00  0.25440739025E+02  0.51100000000E-03 0.  1.
        -12    1    3    3    0    0 -0.41535663690E+01  0.71471647977E+01  0.18042436746E+02  0.19845997127E+02  0.00000000000E+00 0.  1.
</event>
<event>
 7    1  0.4673733E-013  0.5930195E+02  0.7816164E-02  0.1266605E+00
        -11   -1    0    0    0    0  0.00000000000E+00  0.00000000000E+00  0.45593999997E+02  0.45594000000E+02  0.51100000000E-03 0.  1.
         11   -1    0    0    0    0 -0.00000000000E+00 -0.00000000000E+00 -0.45593999997E+02  0.45594000000E+02  0.51100000000E-03 0. -1.
    9900012    2    1    2    0    0 -0.56464571996E+01 -0.77491242387E+01  0.30410337739E+02  0.59301952162E+02  0.50000014834E+02 0.  0.
         12    1    1    2    0    0  0.56464571996E+01  0.77491242387E+01 -0.30410337739E+02  0.31886047838E+02  0.00000000000E+00 0. -1.
         11    1    3    3    0    0  0.10409982294E+02  0.12674867636E+02  0.26360064496E+00  0.16403947285E+02  0.51100000000E-03 0. -1.
        -11    1    3    3    0    0 -0.16219277730E+02 -0.82125561227E+01  0.16094661990E+02  0.24280634114E+02  0.51100000000E-03 0.  1.
         12    1    3    3    0    0  0.16283823602E+00 -0.12211435752E+02  0.14052075103E+02  0.18617370763E+02  0.00000000000E+00 0. -1.
</event>
<event>
 7    1  0.4673733E-013  0.5930195E+02  0.7816164E-02  0.1266605E+00
        -11   -1    0    0    0    0  0.00000000000E+00  0.00000000000E+00  0.45593999997E+02  0.45594000000E+02  0.51100000000E-03 0.  1.
         11   -1    0    0    0    0 -0.00000000000E+00 -0.00000000000E+00 -0.45593999997E+02  0.45594000000E+02  0.51100000000E-03 0. -1.
    9900012    2    1    2    0    0 -0.10084079435E+02  0.35536152232E+01  0.30040029858E+02  0.59301949240E+02  0.50000009506E+02 0.  0.
         12    1    1    2    0    0  0.10084079435E+02 -0.35536152232E+01 -0.30040029858E+02  0.31886050760E+02  0.00000000000E+00 0. -1.
         11    1    3    3    0    0  0.62108398377E+01  0.92275297855E+01 -0.10124300851E+02  0.15040721572E+02  0.51100000000E-03 0. -1.
        -11    1    3    3    0    0 -0.92857497835E+01  0.39072356487E+00  0.21472029880E+02  0.23397134042E+02  0.51100000000E-03 0.  1.
         12    1    3    3    0    0 -0.70091694887E+01 -0.60646381271E+01  0.18692300829E+02  0.20864093626E+02  0.00000000000E+00 0. -1.
</event>
<event>
 7    1  0.4673733E-013  0.5930191E+02  0.7816164E-02  0.1266605E+00
        -11   -1    0    0    0    0  0.00000000000E+00  0.00000000000E+00  0.45593999997E+02  0.45594000000E+02  0.51100000000E-03 0.  1.
         11   -1    0    0    0    0 -0.00000000000E+00 -0.00000000000E+00 -0.45593999997E+02  0.45594000000E+02  0.51100000000E-03 0. -1.
    9900012    2    1    2    0    0 -0.22653492207E+02 -0.21572401293E+02  0.61784702311E+01  0.59301910538E+02  0.49999938923E+02 0.  0.
         12    1    1    2    0    0  0.22653492207E+02  0.21572401293E+02 -0.61784702311E+01  0.31886089462E+02  0.00000000000E+00 0. -1.
         11    1    3    3    0    0 -0.16688904900E+02  0.97216849601E-01 -0.63932326445E+01  0.17871833196E+02  0.51100000000E-03 0. -1.
        -11    1    3    3    0    0 -0.14996712188E+02 -0.80280002286E+01  0.17438484918E+02  0.24360848109E+02  0.51100000000E-03 0.  1.
         12    1    3    3    0    0  0.90321248802E+01 -0.13641617914E+02 -0.48667820421E+01  0.17069229233E+02  0.00000000000E+00 0. -1.
</event>
<event>
 7    1  0.4673733E-013  0.5930167E+02  0.7816164E-02  0.1266606E+00
        -11   -1    0    0    0    0  0.00000000000E+00  0.00000000000E+00  0.45593999997E+02  0.45594000000E+02  0.51100000000E-03 0.  1.
         11   -1    0    0    0    0 -0.00000000000E+00 -0.00000000000E+00 -0.45593999997E+02  0.45594000000E+02  0.51100000000E-03 0. -1.
    9900012    2    1    2    0    0 -0.20092351475E+02 -0.24339274389E+02  0.45426085581E+01  0.59301668162E+02  0.49999496885E+02 0.  0.
         12    1    1    2    0    0  0.20092351475E+02  0.24339274389E+02 -0.45426085581E+01  0.31886331838E+02  0.00000000000E+00 0. -1.
         11    1    3    3    0    0 -0.29946083492E+02 -0.73425979850E+01 -0.10220083818E+02  0.32482791986E+02  0.51100000000E-03 0. -1.
        -11    1    3    3    0    0  0.38977689567E+01 -0.54284997655E+01  0.11665180230E+02  0.13443870075E+02  0.51100000000E-03 0.  1.
         12    1    3    3    0    0  0.59559630610E+01 -0.11568176638E+02  0.30975121462E+01  0.13375006101E+02  0.00000000000E+00 0. -1.
</event>
<event>
 7    1  0.4673733E-013  0.5930196E+02  0.7816164E-02  0.1266605E+00
        -11   -1    0    0    0    0  0.00000000000E+00  0.00000000000E+00  0.45593999997E+02  0.45594000000E+02  0.51100000000E-03 0.  1.
         11   -1    0    0    0    0 -0.00000000000E+00 -0.00000000000E+00 -0.45593999997E+02  0.45594000000E+02  0.51100000000E-03 0. -1.
    9900012    2    1    2    0    0  0.17120543946E+02 -0.11878118030E+02  0.24135379214E+02  0.59301964769E+02  0.50000037828E+02 0.  0.
         12    1    1    2    0    0 -0.17120543946E+02  0.11878118030E+02 -0.24135379214E+02  0.31886035231E+02  0.00000000000E+00 0. -1.
         11    1    3    3    0    0 -0.74976018730E+01 -0.82961624704E+01 -0.10181062138E+01  0.11228396417E+02  0.51100000000E-03 0. -1.
        -11    1    3    3    0    0  0.22170526645E+02  0.55729982230E+01  0.29768242652E+02  0.37533169753E+02  0.51100000000E-03 0.  1.
        -12    1    3    3    0    0  0.24476191735E+01 -0.91549537825E+01 -0.46147572237E+01  0.10540398598E+02  0.00000000000E+00 0.  1.
</event>
<event>
 7    1  0.4673733E-013  0.5930195E+02  0.7816164E-02  0.1266605E+00
        -11   -1    0    0    0    0  0.00000000000E+00  0.00000000000E+00  0.45593999997E+02  0.45594000000E+02  0.51100000000E-03 0.  1.
         11   -1    0    0    0    0 -0.00000000000E+00 -0.00000000000E+00 -0.45593999997E+02  0.45594000000E+02  0.51100000000E-03 0. -1.
    9900012    2    1    2    0    0 -0.24675127413E+02  0.19764724057E+02 -0.41490020160E+01  0.59301945876E+02  0.50000003371E+02 0.  0.
         12    1    1    2    0    0  0.24675127413E+02 -0.19764724057E+02  0.41490020160E+01  0.31886054124E+02  0.00000000000E+00 0. -1.
         11    1    3    3    0    0 -0.12328761854E+02  0.21611676531E+02 -0.21861414045E+02  0.33120754153E+02  0.51100000000E-03 0. -1.
        -11    1    3    3    0    0 -0.30789242630E+01 -0.76630379036E+01  0.64462191110E+01  0.10476433822E+02  0.51100000000E-03 0.  1.
         12    1    3    3    0    0 -0.92674412954E+01  0.58160854298E+01  0.11266192918E+02  0.15704757902E+02  0.00000000000E+00 0. -1.
</event>
<event>
 7    1  0.4673733E-013  0.5930197E+02  0.7816164E-02  0.1266605E+00
        -11   -1    0    0    0    0  0.00000000000E+00  0.00000000000E+00  0.45593999997E+02  0.45594000000E+02  0.51100000000E-03 0. -1.
         11   -1    0    0    0    0 -0.00000000000E+00 -0.00000000000E+00 -0.45593999997E+02  0.45594000000E+02  0.51100000000E-03 0.  1.
    9900012    2    1    2    0    0 -0.28512461689E+00 -0.10456926069E+02 -0.30121261740E+02  0.59301968455E+02  0.50000044550E+02 0.  0.
         12    1    1    2    0    0  0.28512461689E+00  0.10456926069E+02  0.30121261740E+02  0.31886031545E+02  0.00000000000E+00 0. -1.
         11    1    3    3    0    0 -0.86744490552E+01  0.93814676060E+01 -0.26901785430E+02  0.29781941851E+02  0.51100000000E-03 0. -1.
        -11    1    3    3    0    0  0.48406002038E+01 -0.21315523081E+02 -0.80971400286E+01  0.23309796469E+02  0.51100000000E-03 0.  1.
         12    1    3    3    0    0  0.35487242346E+01  0.14771294057E+01  0.48776637186E+01  0.62102301347E+01  0.00000000000E+00 0. -1.
</event>
<event>
 7    1  0.4673733E-013  0.5930195E+02  0.7816164E-02  0.1266605E+00
        -11   -1    0    0    0    0  0.00000000000E+00  0.00000000000E+00  0.45593999997E+02  0.45594000000E+02  0.51100000000E-03 0.  1.
         11   -1    0    0    0    0 -0.00000000000E+00 -0.00000000000E+00 -0.45593999997E+02  0.45594000000E+02  0.51100000000E-03 0. -1.
    9900012    2    1    2    0    0  0.13193358730E+02  0.18030394247E+02  0.22749954026E+02  0.59301949139E+02  0.50000009323E+02 0.  0.
         12    1    1    2    0    0 -0.13193358730E+02 -0.18030394247E+02 -0.22749954026E+02  0.31886050861E+02  0.00000000000E+00 0. -1.
         11    1    3    3    0    0 -0.69205180372E+00 -0.79793205970E+01 -0.71983938268E+01  0.10768721690E+02  0.51100000000E-03 0. -1.
        -11    1    3    3    0    0  0.81448713009E+01 -0.17826439659E+01  0.13104195873E+02  0.15531796346E+02  0.51100000000E-03 0.  1.
         12    1    3    3    0    0  0.57405392328E+01  0.27792358810E+02  0.16844151980E+02  0.33001431103E+02  0.00000000000E+00 0. -1.
</event>
<event>
 7    1  0.4673733E-013  0.5930192E+02  0.7816164E-02  0.1266605E+00
        -11   -1    0    0    0    0  0.00000000000E+00  0.00000000000E+00  0.45593999997E+02  0.45594000000E+02  0.51100000000E-03 0.  1.
         11   -1    0    0    0    0 -0.00000000000E+00 -0.00000000000E+00 -0.45593999997E+02  0.45594000000E+02  0.51100000000E-03 0. -1.
    9900012    2    1    2    0    0  0.22814865383E+02  0.22120057560E+02 -0.26280992322E+01  0.59301922561E+02  0.49999960850E+02 0.  0.
         12    1    1    2    0    0 -0.22814865383E+02 -0.22120057560E+02  0.26280992322E+01  0.31886077439E+02  0.00000000000E+00 0. -1.
         11    1    3    3    0    0  0.88905463560E+01  0.32247112365E+02 -0.25865451234E+01  0.33550086234E+02  0.51100000000E-03 0. -1.
        -11    1    3    3    0    0 -0.27642736182E+01 -0.84636737770E+01  0.93214342282E+00  0.89523111017E+01  0.51100000000E-03 0.  1.
        -12    1    3    3    0    0  0.16688592645E+02 -0.16633810282E+01 -0.97369753158E+00  0.16799525225E+02  0.00000000000E+00 0.  1.
</event>
<event>
 7    1  0.4673733E-013  0.5930167E+02  0.7816164E-02  0.1266606E+00
        -11   -1    0    0    0    0  0.00000000000E+00  0.00000000000E+00  0.45593999997E+02  0.45594000000E+02  0.51100000000E-03 0.  1.
         11   -1    0    0    0    0 -0.00000000000E+00 -0.00000000000E+00 -0.45593999997E+02  0.45594000000E+02  0.51100000000E-03 0. -1.
    9900012    2    1    2    0    0 -0.14385015020E+02  0.19959542496E+01  0.28387066008E+02  0.59301670531E+02  0.49999501205E+02 0.  0.
         12    1    1    2    0    0  0.14385015020E+02 -0.19959542496E+01 -0.28387066008E+02  0.31886329469E+02  0.00000000000E+00 0. -1.
         11    1    3    3    0    0 -0.10821395871E+02  0.18236312877E+02  0.15058779583E+02  0.26008317107E+02  0.51100000000E-03 0. -1.
        -11    1    3    3    0    0 -0.25128652370E+01 -0.22455877731E+02  0.55244388590E+01  0.23261564035E+02  0.51100000000E-03 0.  1.
        -12    1    3    3    0    0 -0.10507539117E+01  0.62155191041E+01  0.78038475655E+01  0.10031789389E+02  0.00000000000E+00 0.  1.
</event>
<event>
 7    1  0.4673733E-013  0.5930194E+02  0.7816164E-02  0.1266605E+00
        -11   -1    0    0    0    0  0.00000000000E+00  0.00000000000E+00  0.45593999997E+02  0.45594000000E+02  0.51100000000E-03 0. -1.
         11   -1    0    0    0    0 -0.00000000000E+00 -0.00000000000E+00 -0.45593999997E+02  0.45594000000E+02  0.51100000000E-03 0.  1.
    9900012    2    1    2    0    0 -0.17960991691E+02 -0.87801662492E+01 -0.24840130717E+02  0.59301942923E+02  0.49999997986E+02 0.  0.
         12    1    1    2    0    0  0.17960991691E+02  0.87801662492E+01  0.24840130717E+02  0.31886057077E+02  0.00000000000E+00 0. -1.
         11    1    3    3    0    0 -0.15349179859E+02  0.50455502370E+01  0.12225581111E+01  0.16203380763E+02  0.51100000000E-03 0. -1.
        -11    1    3    3    0    0  0.26276080321E+01 -0.20958087271E+02 -0.72907170954E+01  0.22345028576E+02  0.51100000000E-03 0.  1.
        -12    1    3    3    0    0 -0.52394198636E+01  0.71323707848E+01 -0.18771971733E+02  0.20753533585E+02  0.00000000000E+00 0.  1.
</event>
<event>
 7    1  0.4673733E-013  0.5930194E+02  0.7816164E-02  0.1266605E+00
        -11   -1    0    0    0    0  0.00000000000E+00  0.00000000000E+00  0.45593999997E+02  0.45594000000E+02  0.51100000000E-03 0. -1.
         11   -1    0    0    0    0 -0.00000000000E+00 -0.00000000000E+00 -0.45593999997E+02  0.45594000000E+02  0.51100000000E-03 0.  1.
    9900012    2    1    2    0    0  0.39648886750E+01 -0.26290709165E+02  0.17601110893E+02  0.59301939797E+02  0.49999992285E+02 0.  0.
         12    1    1    2    0    0 -0.39648886750E+01  0.26290709165E+02 -0.17601110893E+02  0.31886060203E+02  0.00000000000E+00 0. -1.
         11    1    3    3    0    0 -0.22035677059E+01  0.14630539478E+00  0.16655247025E+02  0.16801022875E+02  0.51100000000E-03 0. -1.
        -11    1    3    3    0    0  0.18184024891E+02 -0.21824532426E+02  0.53326415359E+01  0.28903391546E+02  0.51100000000E-03 0.  1.
         12    1    3    3    0    0 -0.12015568510E+02 -0.46124821336E+01 -0.43867776686E+01  0.13597525377E+02  0.00000000000E+00 0. -1.
</event>
<event>
 7    1  0.4673733E-013  0.5930195E+02  0.7816164E-02  0.1266605E+00
        -11   -1    0    0    0    0  0.00000000000E+00  0.00000000000E+00  0.45593999997E+02  0.45594000000E+02  0.51100000000E-03 0.  1.
         11   -1    0    0    0    0 -0.00000000000E+00 -0.00000000000E+00 -0.45593999997E+02  0.45594000000E+02  0.51100000000E-03 0. -1.
    9900012    2    1    2    0    0 -0.11697718520E+02  0.69297054382E+01  0.28842032527E+02  0.59301948561E+02  0.50000008268E+02 0.  0.
         12    1    1    2    0    0  0.11697718520E+02 -0.69297054382E+01 -0.28842032527E+02  0.31886051439E+02  0.00000000000E+00 0. -1.
         11    1    3    3    0    0  0.22525405844E+01  0.26081045259E+01 -0.18774430824E+01  0.39244032784E+01  0.51100000000E-03 0. -1.
        -11    1    3    3    0    0 -0.18840193267E+02 -0.10394675627E+02  0.33309740611E+02  0.39655276869E+02  0.51100000000E-03 0.  1.
        -12    1    3    3    0    0  0.48899341628E+01  0.14716276539E+02 -0.25902650014E+01  0.15722268414E+02  0.00000000000E+00 0.  1.
</event>
<event>
 7    1  0.4673733E-013  0.5930191E+02  0.7816164E-02  0.1266605E+00
        -11   -1    0    0    0    0  0.00000000000E+00  0.00000000000E+00  0.45593999997E+02  0.45594000000E+02  0.51100000000E-03 0.  1.
         11   -1    0    0    0    0 -0.00000000000E+00 -0.00000000000E+00 -0.45593999997E+02  0.45594000000E+02  0.51100000000E-03 0. -1.
    9900012    2    1    2    0    0  0.98245046386E+00  0.20403442967E+02  0.24483815743E+02  0.59301906994E+02  0.49999932460E+02 0.  0.
         12    1    1    2    0    0 -0.98245046386E+00 -0.20403442967E+02 -0.24483815743E+02  0.31886093006E+02  0.00000000000E+00 0. -1.
         11    1    3    3    0    0 -0.57300264065E-01  0.23987731837E+02 -0.89348037483E+01  0.25597759282E+02  0.51100000000E-03 0. -1.
        -11    1    3    3    0    0  0.13219789353E+00 -0.98181261395E+00  0.18917543593E+02  0.18943465579E+02  0.51100000000E-03 0.  1.
         12    1    3    3    0    0  0.90755283440E+00 -0.26024762556E+01  0.14501075899E+02  0.14760682133E+02  0.00000000000E+00 0. -1.
</event>
<event>
 7    1  0.4673733E-013  0.5930197E+02  0.7816164E-02  0.1266605E+00
        -11   -1    0    0    0    0  0.00000000000E+00  0.00000000000E+00  0.45593999997E+02  0.45594000000E+02  0.51100000000E-03 0. -1.
         11   -1    0    0    0    0 -0.00000000000E+00 -0.00000000000E+00 -0.45593999997E+02  0.45594000000E+02  0.51100000000E-03 0.  1.
    9900012    2    1    2    0    0  0.10213014493E+02 -0.11387564866E+02 -0.27977427822E+02  0.59301972242E+02  0.50000051456E+02 0.  0.
         12    1    1    2    0    0 -0.10213014493E+02  0.11387564866E+02  0.27977427822E+02  0.31886027758E+02  0.00000000000E+00 0. -1.
         11    1    3    3    0    0  0.79820254976E+01  0.94403118115E+01 -0.22197187655E+01  0.12560229687E+02  0.51100000000E-03 0. -1.
        -11    1    3    3    0    0  0.14063099983E+02 -0.22960035736E+02 -0.16625361053E+02  0.31643903877E+02  0.51100000000E-03 0.  1.
         12    1    3    3    0    0 -0.11832110988E+02  0.21321590584E+01 -0.91323480041E+01  0.15097838678E+02  0.00000000000E+00 0. -1.
</event>
<event>
 7    1  0.4673733E-013  0.5930191E+02  0.7816164E-02  0.1266605E+00
        -11   -1    0    0    0    0  0.00000000000E+00  0.00000000000E+00  0.45593999997E+02  0.45594000000E+02  0.51100000000E-03 0.  1.
         11   -1    0    0    0    0 -0.00000000000E+00 -0.00000000000E+00 -0.45593999997E+02  0.45594000000E+02  0.51100000000E-03 0. -1.
    9900012    2    1    2    0    0  0.25451300682E+02 -0.15771280627E+02  0.10964532209E+02  0.59301906392E+02  0.49999931361E+02 0.  0.
         12    1    1    2    0    0 -0.25451300682E+02  0.15771280627E+02 -0.10964532209E+02  0.31886093608E+02  0.00000000000E+00 0. -1.
         11    1    3    3    0    0  0.35239188083E+02 -0.17939705857E+02 -0.20827546055E+01  0.39597617226E+02  0.51100000000E-03 0. -1.
        -11    1    3    3    0    0  0.76722118947E+00  0.12154549660E+01  0.77012221347E+01  0.78342058791E+01  0.51100000000E-03 0.  1.
         12    1    3    3    0    0 -0.10555108590E+02  0.95297026397E+00  0.53460646800E+01  0.11870083287E+02  0.00000000000E+00 0. -1.
</event>
<event>
 7    1  0.4673733E-013  0.5930194E+02  0.7816164E-02  0.1266605E+00
        -11   -1    0    0    0    0  0.00000000000E+00  0.00000000000E+00  0.45593999997E+02  0.45594000000E+02  0.51100000000E-03 0. -1.
         11   -1    0    0    0    0 -0.00000000000E+00 -0.00000000000E+00 -0.45593999997E+02  0.45594000000E+02  0.51100000000E-03 0.  1.
    9900012    2    1    2    0    0 -0.13511086775E+02  0.17819415673E+02 -0.22729715928E+02  0.59301936791E+02  0.49999986803E+02 0.  0.
         12    1    1    2    0    0  0.13511086775E+02 -0.17819415673E+02  0.22729715928E+02  0.31886063209E+02  0.00000000000E+00 0. -1.
         11    1    3    3    0    0 -0.67431853465E+01 -0.52941909139E+01  0.51921723222E+01  0.10022856865E+02  0.51100000000E-03 0. -1.
        -11    1    3    3    0    0 -0.74822295688E+01  0.25893769275E+02 -0.33505379527E+02  0.43000947712E+02  0.51100000000E-03 0.  1.
        -12    1    3    3    0    0  0.71432814036E+00 -0.27801626885E+01  0.55834912767E+01  0.62781322146E+01  0.00000000000E+00 0.  1.
</event>
<event>
 7    1  0.4673733E-013  0.5930194E+02  0.7816164E-02  0.1266605E+00
        -11   -1    0    0    0    0  0.00000000000E+00  0.00000000000E+00  0.45593999997E+02  0.45594000000E+02  0.51100000000E-03 0.  1.
         11   -1    0    0    0    0 -0.00000000000E+00 -0.00000000000E+00 -0.45593999997E+02  0.45594000000E+02  0.51100000000E-03 0. -1.
    9900012    2    1    2    0    0  0.77881768111E+01 -0.29919724869E+02 -0.78022752458E+01  0.59301935124E+02  0.49999983762E+02 0.  0.
         12    1    1    2    0    0 -0.77881768111E+01  0.29919724869E+02  0.78022752458E+01  0.31886064876E+02  0.00000000000E+00 0. -1.
         11    1    3    3    0    0  0.45204397720E+01 -0.12987979732E+02 -0.25440062657E+02  0.28919176709E+02  0.51100000000E-03 0. -1.
        -11    1    3    3    0    0  0.82885660810E+01 -0.17803971343E+02  0.13774689243E+02  0.23987992565E+02  0.51100000000E-03 0.  1.
         12    1    3    3    0    0 -0.50208290420E+01  0.87222620650E+00  0.38630981681E+01  0.63947658503E+01  0.00000000000E+00 0. -1.
</event>
<event>
 7    1  0.4673733E-013  0.5930195E+02  0.7816164E-02  0.1266605E+00
        -11   -1    0    0    0    0  0.00000000000E+00  0.00000000000E+00  0.45593999997E+02  0.45594000000E+02  0.51100000000E-03 0.  1.
         11   -1    0    0    0    0 -0.00000000000E+00 -0.00000000000E+00 -0.45593999997E+02  0.45594000000E+02  0.51100000000E-03 0. -1.
    9900012    2    1    2    0    0 -0.92607341760E+01 -0.30406961317E+02  0.25250726765E+01  0.59301945274E+02  0.50000002272E+02 0.  0.
         12    1    1    2    0    0  0.92607341760E+01  0.30406961317E+02 -0.25250726765E+01  0.31886054726E+02  0.00000000000E+00 0. -1.
         11    1    3    3    0    0 -0.81421054368E+01  0.78612047725E+01 -0.52030063267E+00  0.11329745559E+02  0.51100000000E-03 0. -1.
        -11    1    3    3    0    0  0.10307899838E+02 -0.27592057965E+02  0.96523367478E+01  0.30995839507E+02  0.51100000000E-03 0.  1.
        -12    1    3    3    0    0 -0.11426528577E+02 -0.10676108124E+02 -0.66069634387E+01  0.16976360207E+02  0.00000000000E+00 0.  1.
</event>
<event>
 7    1  0.4673733E-013  0.5930196E+02  0.7816164E-02  0.1266605E+00
        -11   -1    0    0    0    0  0.00000000000E+00  0.00000000000E+00  0.45593999997E+02  0.45594000000E+02  0.51100000000E-03 0.  1.
         11   -1    0    0    0    0 -0.00000000000E+00 -0.00000000000E+00 -0.45593999997E+02  0.45594000000E+02  0.51100000000E-03 0. -1.
    9900012    2    1    2    0    0  0.23583656575E+02 -0.10999393375E+02  0.18426719690E+02  0.59301960569E+02  0.50000030168E+02 0.  0.
         12    1    1    2    0    0 -0.23583656575E+02  0.10999393375E+02 -0.18426719690E+02  0.31886039431E+02  0.00000000000E+00 0. -1.
         11    1    3    3    0    0  0.26438527878E+02 -0.21542978022E+02  0.30249033560E+01  0.34238073821E+02  0.51100000000E-03 0. -1.
        -11    1    3    3    0    0  0.83139985342E+00 -0.11397038585E+01  0.12360831702E+02  0.12441073556E+02  0.51100000000E-03 0.  1.
         12    1    3    3    0    0 -0.36862711565E+01  0.11683288506E+02  0.30409846315E+01  0.12622813192E+02  0.00000000000E+00 0. -1.
</event>
<event>
 7    1  0.4673733E-013  0.5930220E+02  0.7816164E-02  0.1266604E+00
        -11   -1    0    0    0    0  0.00000000000E+00  0.00000000000E+00  0.45593999997E+02  0.45594000000E+02  0.51100000000E-03 0.  1.
         11   -1    0    0    0    0 -0.00000000000E+00 -0.00000000000E+00 -0.45593999997E+02  0.45594000000E+02  0.51100000000E-03 0. -1.
    9900012    2    1    2    0    0 -0.16821292016E+02 -0.92031316932E+01  0.25476480465E+02  0.59302195088E+02  0.50000457871E+02 0.  0.
         12    1    1    2    0    0  0.16821292016E+02  0.92031316932E+01 -0.25476480465E+02  0.31885804912E+02  0.00000000000E+00 0. -1.
         11    1    3    3    0    0  0.10929575397E+02 -0.55717494181E+01  0.78900008904E+00  0.12293190446E+02  0.51100000000E-03 0. -1.
        -11    1    3    3    0    0 -0.16483732865E+02  0.10720520675E+02  0.20260264915E+02  0.28233337518E+02  0.51100000000E-03 0.  1.
        -12    1    3    3    0    0 -0.11267134548E+02 -0.14351902950E+02  0.44272154608E+01  0.18775667124E+02  0.00000000000E+00 0.  1.
</event>
<event>
 7    1  0.4673733E-013  0.5930197E+02  0.7816164E-02  0.1266605E+00
        -11   -1    0    0    0    0  0.00000000000E+00  0.00000000000E+00  0.45593999997E+02  0.45594000000E+02  0.51100000000E-03 0.  1.
         11   -1    0    0    0    0 -0.00000000000E+00 -0.00000000000E+00 -0.45593999997E+02  0.45594000000E+02  0.51100000000E-03 0. -1.
    9900012    2    1    2    0    0 -0.24788348881E+02  0.16634140596E+01  0.19987237830E+02  0.59301970729E+02  0.50000048697E+02 0.  0.
         12    1    1    2    0    0  0.24788348881E+02 -0.16634140596E+01 -0.19987237830E+02  0.31886029271E+02  0.00000000000E+00 0. -1.
         11    1    3    3    0    0 -0.17547392885E+02  0.25479373255E+01  0.75636602922E+01  0.19277238883E+02  0.51100000000E-03 0. -1.
        -11    1    3    3    0    0  0.67644880192E+01 -0.93913187550E+01  0.19097774123E+02  0.22331147370E+02  0.51100000000E-03 0.  1.
        -12    1    3    3    0    0 -0.14005444016E+02  0.85067954890E+01 -0.66741965860E+01  0.17693584477E+02  0.00000000000E+00 0.  1.
</event>
<event>
 7    1  0.4673733E-013  0.5930194E+02  0.7816164E-02  0.1266605E+00
        -11   -1    0    0    0    0  0.00000000000E+00  0.00000000000E+00  0.45593999997E+02  0.45594000000E+02  0.51100000000E-03 0. -1.
         11   -1    0    0    0    0 -0.00000000000E+00 -0.00000000000E+00 -0.45593999997E+02  0.45594000000E+02  0.51100000000E-03 0.  1.
    9900012    2    1    2    0    0  0.54759549472E+01 -0.29272335483E+02 -0.11395834226E+02  0.59301941214E+02  0.49999994868E+02 0.  0.
         12    1    1    2    0    0 -0.54759549472E+01  0.29272335483E+02  0.11395834226E+02  0.31886058786E+02  0.00000000000E+00 0. -1.
         11    1    3    3    0    0 -0.46379494995E+01  0.12225672835E+02  0.24712847879E+01  0.13307325073E+02  0.51100000000E-03 0. -1.
        -11    1    3    3    0    0  0.71432571202E+01 -0.12795614045E+02 -0.19852168417E+01  0.14788338218E+02  0.51100000000E-03 0.  1.
         12    1    3    3    0    0  0.29706473265E+01 -0.28702394273E+02 -0.11881902173E+02  0.31206277922E+02  0.00000000000E+00 0. -1.
</event>
<event>
 7    1  0.4673733E-013  0.5930193E+02  0.7816164E-02  0.1266605E+00
        -11   -1    0    0    0    0  0.00000000000E+00  0.00000000000E+00  0.45593999997E+02  0.45594000000E+02  0.51100000000E-03 0. -1.
         11   -1    0    0    0    0 -0.00000000000E+00 -0.00000000000E+00 -0.45593999997E+02  0.45594000000E+02  0.51100000000E-03 0.  1.
    9900012    2    1    2    0    0 -0.59713495939E+01  0.30358132225E+02  0.77102509451E+01  0.59301934426E+02  0.49999982488E+02 0.  0.
         12    1    1    2    0    0  0.59713495939E+01 -0.30358132225E+02 -0.77102509451E+01  0.31886065574E+02  0.00000000000E+00 0. -1.
         11    1    3    3    0    0  0.91652012971E+00  0.27570140412E+02  0.26086681286E+02  0.37966664224E+02  0.51100000000E-03 0. -1.
        -11    1    3    3    0    0 -0.69792976763E+00  0.43694842895E+01 -0.82553738782E+01  0.93664666256E+01  0.51100000000E-03 0.  1.
         12    1    3    3    0    0 -0.61899399560E+01 -0.15814924767E+01 -0.10121056463E+02  0.11968803576E+02  0.00000000000E+00 0. -1.
</event>
<event>
 7    1  0.4673733E-013  0.5930195E+02  0.7816164E-02  0.1266605E+00
        -11   -1    0    0    0    0  0.00000000000E+00  0.00000000000E+00  0.45593999997E+02  0.45594000000E+02  0.51100000000E-03 0. -1.
         11   -1    0    0    0    0 -0.00000000000E+00 -0.00000000000E+00 -0.45593999997E+02  0.45594000000E+02  0.51100000000E-03 0.  1.
    9900012    2    1    2    0    0  0.19679814137E+02  0.14216463176E+02 -0.20671651110E+02  0.59301951808E+02  0.50000014189E+02 0.  0.
         12    1    1    2    0    0 -0.19679814137E+02 -0.14216463176E+02  0.20671651110E+02  0.31886048192E+02  0.00000000000E+00 0. -1.
         11    1    3    3    0    0  0.89955143790E+00  0.94530916052E+01  0.53135735709E+01  0.10881369309E+02  0.51100000000E-03 0. -1.
        -11    1    3    3    0    0 -0.60287232336E+01 -0.64634347868E+01 -0.17983713886E+02  0.20038349694E+02  0.51100000000E-03 0.  1.
        -12    1    3    3    0    0  0.24808985932E+02  0.11226806358E+02 -0.80015107948E+01  0.28382232805E+02  0.00000000000E+00 0.  1.
</event>
<event>
 7    1  0.4673733E-013  0.5930194E+02  0.7816164E-02  0.1266605E+00
        -11   -1    0    0    0    0  0.00000000000E+00  0.00000000000E+00  0.45593999997E+02  0.45594000000E+02  0.51100000000E-03 0. -1.
         11   -1    0    0    0    0 -0.00000000000E+00 -0.00000000000E+00 -0.45593999997E+02  0.45594000000E+02  0.51100000000E-03 0.  1.
    9900012    2    1    2    0    0  0.32283283057E+01  0.26412827711E+02 -0.17568750792E+02  0.59301943867E+02  0.49999999707E+02 0.  0.
         12    1    1    2    0    0 -0.32283283057E+01 -0.26412827711E+02  0.17568750792E+02  0.31886056133E+02  0.00000000000E+00 0. -1.
         11    1    3    3    0    0  0.59706663869E+01 -0.16476436176E+01  0.47734655390E+01  0.78198184191E+01  0.51100000000E-03 0. -1.
        -11    1    3    3    0    0  0.14679159209E+01  0.12024979803E+02 -0.30636100108E+02  0.32944279420E+02  0.51100000000E-03 0.  1.
        -12    1    3    3    0    0 -0.42102540022E+01  0.16035491526E+02  0.82938837775E+01  0.18537846028E+02  0.00000000000E+00 0.  1.
</event>
<event>
 7    1  0.4673733E-013  0.5930195E+02  0.7816164E-02  0.1266605E+00
        -11   -1    0    0    0    0  0.00000000000E+00  0.00000000000E+00  0.45593999997E+02  0.45594000000E+02  0.51100000000E-03 0.  1.
         11   -1    0    0    0    0 -0.00000000000E+00 -0.00000000000E+00 -0.45593999997E+02  0.45594000000E+02  0.51100000000E-03 0. -1.
    9900012    2    1    2    0    0  0.18947854547E+02 -0.23933821054E+02  0.92125572176E+01  0.59301949874E+02  0.50000010662E+02 0.  0.
         12    1    1    2    0    0 -0.18947854547E+02  0.23933821054E+02 -0.92125572176E+01  0.31886050126E+02  0.00000000000E+00 0. -1.
         11    1    3    3    0    0 -0.22661731537E+01  0.42327774409E+01  0.15321500338E+02  0.16056161387E+02  0.51100000000E-03 0. -1.
        -11    1    3    3    0    0  0.95991059460E+01 -0.27874382292E+02  0.12245995780E+01  0.29506332668E+02  0.51100000000E-03 0.  1.
         12    1    3    3    0    0  0.11614921754E+02 -0.29221620233E+00 -0.73335426985E+01  0.13739455818E+02  0.00000000000E+00 0. -1.
</event>
<event>
 7    1  0.4673733E-013  0.5930196E+02  0.7816164E-02  0.1266605E+00
        -11   -1    0    0    0    0  0.00000000000E+00  0.00000000000E+00  0.45593999997E+02  0.45594000000E+02  0.51100000000E-03 0.  1.
         11   -1    0    0    0    0 -0.00000000000E+00 -0.00000000000E+00 -0.45593999997E+02  0.45594000000E+02  0.51100000000E-03 0. -1.
    9900012    2    1    2    0    0 -0.12970659227E+02  0.16479017586E+00  0.29128239561E+02  0.59301960790E+02  0.50000030571E+02 0.  0.
         12    1    1    2    0    0  0.12970659227E+02 -0.16479017586E+00 -0.29128239561E+02  0.31886039210E+02  0.00000000000E+00 0. -1.
         11    1    3    3    0    0  0.11016194732E+02  0.45014369545E+00 -0.21792225644E+01  0.11238691515E+02  0.51100000000E-03 0. -1.
        -11    1    3    3    0    0 -0.28233021895E+02 -0.58241206509E+01  0.21213740006E+02  0.35791712336E+02  0.51100000000E-03 0.  1.
        -12    1    3    3    0    0  0.42461679363E+01  0.55387671313E+01  0.10093722119E+02  0.12271556939E+02  0.00000000000E+00 0.  1.
</event>
<event>
 7    1  0.4673733E-013  0.5930202E+02  0.7816164E-02  0.1266604E+00
        -11   -1    0    0    0    0  0.00000000000E+00  0.00000000000E+00  0.45593999997E+02  0.45594000000E+02  0.51100000000E-03 0. -1.
         11   -1    0    0    0    0 -0.00000000000E+00 -0.00000000000E+00 -0.45593999997E+02  0.45594000000E+02  0.51100000000E-03 0.  1.
    9900012    2    1    2    0    0 -0.74203658712E+01  0.28946979610E+02  0.11123218118E+02  0.59302024407E+02  0.50000146593E+02 0.  0.
         12    1    1    2    0    0  0.74203658712E+01 -0.28946979610E+02 -0.11123218118E+02  0.31885975593E+02  0.00000000000E+00 0. -1.
         11    1    3    3    0    0 -0.10899995756E+02 -0.10618910283E+02  0.61487847155E+01  0.16412760792E+02  0.51100000000E-03 0. -1.
        -11    1    3    3    0    0  0.91150915097E+01  0.16809688540E+02  0.30898534695E+01  0.19370021083E+02  0.51100000000E-03 0.  1.
        -12    1    3    3    0    0 -0.56354616252E+01  0.22756201353E+02  0.18845799332E+01  0.23519242532E+02  0.00000000000E+00 0.  1.
</event>
<event>
 7    1  0.4673733E-013  0.5930198E+02  0.7816164E-02  0.1266605E+00
        -11   -1    0    0    0    0  0.00000000000E+00  0.00000000000E+00  0.45593999997E+02  0.45594000000E+02  0.51100000000E-03 0. -1.
         11   -1    0    0    0    0 -0.00000000000E+00 -0.00000000000E+00 -0.45593999997E+02  0.45594000000E+02  0.51100000000E-03 0.  1.
    9900012    2    1    2    0    0  0.29813946377E+02  0.42130082072E+01 -0.10492734876E+02  0.59301979208E+02  0.50000064161E+02 0.  0.
         12    1    1    2    0    0 -0.29813946377E+02 -0.42130082072E+01  0.10492734876E+02  0.31886020792E+02  0.00000000000E+00 0. -1.
         11    1    3    3    0    0 -0.36083415586E+01 -0.69252978495E+01  0.14207643790E+01  0.79371563415E+01  0.51100000000E-03 0. -1.
        -11    1    3    3    0    0  0.30811783326E+02  0.82536585249E+00 -0.21063824824E+02  0.37332719390E+02  0.51100000000E-03 0.  1.
        -12    1    3    3    0    0  0.26105046097E+01  0.10312940204E+02  0.91503255694E+01  0.14032103477E+02  0.00000000000E+00 0.  1.
</event>
<event>
 7    1  0.4673733E-013  0.5930195E+02  0.7816164E-02  0.1266605E+00
        -11   -1    0    0    0    0  0.00000000000E+00  0.00000000000E+00  0.45593999997E+02  0.45594000000E+02  0.51100000000E-03 0. -1.
         11   -1    0    0    0    0 -0.00000000000E+00 -0.00000000000E+00 -0.45593999997E+02  0.45594000000E+02  0.51100000000E-03 0.  1.
    9900012    2    1    2    0    0 -0.30864894969E+02 -0.27422005873E+01 -0.75205774505E+01  0.59301945200E+02  0.50000002138E+02 0.  0.
         12    1    1    2    0    0  0.30864894969E+02  0.27422005873E+01  0.75205774505E+01  0.31886054800E+02  0.00000000000E+00 0. -1.
         11    1    3    3    0    0 -0.18100370968E+02  0.19757509638E+02  0.54202619899E+01  0.27337919756E+02  0.51100000000E-03 0. -1.
        -11    1    3    3    0    0 -0.23693084026E+01 -0.13328991510E+02 -0.84140528328E+00  0.13564055444E+02  0.51100000000E-03 0.  1.
         12    1    3    3    0    0 -0.10395215598E+02 -0.91707187153E+01 -0.12099434157E+02  0.18399970000E+02  0.00000000000E+00 0. -1.
</event>
<event>
 7    1  0.4673733E-013  0.5930197E+02  0.7816164E-02  0.1266605E+00
        -11   -1    0    0    0    0  0.00000000000E+00  0.00000000000E+00  0.45593999997E+02  0.45594000000E+02  0.51100000000E-03 0. -1.
         11   -1    0    0    0    0 -0.00000000000E+00 -0.00000000000E+00 -0.45593999997E+02  0.45594000000E+02  0.51100000000E-03 0.  1.
    9900012    2    1    2    0    0  0.14179721986E+02 -0.17278679339E+02 -0.22739869166E+02  0.59301969751E+02  0.50000046914E+02 0.  0.
         12    1    1    2    0    0 -0.14179721986E+02  0.17278679339E+02  0.22739869166E+02  0.31886030249E+02  0.00000000000E+00 0. -1.
         11    1    3    3    0    0  0.25019978503E+01 -0.63389404177E+01  0.14406785915E+02  0.15937303396E+02  0.51100000000E-03 0. -1.
        -11    1    3    3    0    0 -0.23697888004E+01  0.10632156890E+00 -0.13596517466E+02  0.13801901706E+02  0.51100000000E-03 0.  1.
         12    1    3    3    0    0  0.14047512936E+02 -0.11046060491E+02 -0.23550137615E+02  0.29562764650E+02  0.00000000000E+00 0. -1.
</event>
<event>
 7    1  0.4673733E-013  0.5930200E+02  0.7816164E-02  0.1266605E+00
        -11   -1    0    0    0    0  0.00000000000E+00  0.00000000000E+00  0.45593999997E+02  0.45594000000E+02  0.51100000000E-03 0.  1.
         11   -1    0    0    0    0 -0.00000000000E+00 -0.00000000000E+00 -0.45593999997E+02  0.45594000000E+02  0.51100000000E-03 0. -1.
    9900012    2    1    2    0    0  0.90009200047E+01  0.24488735135E+01  0.30491039591E+02  0.59301999346E+02  0.50000100886E+02 0.  0.
         12    1    1    2    0    0 -0.90009200047E+01 -0.24488735135E+01 -0.30491039591E+02  0.31886000654E+02  0.00000000000E+00 0. -1.
         11    1    3    3    0    0 -0.39896531333E+01 -0.16319269142E+02  0.17825257786E+02  0.24494401255E+02  0.51100000000E-03 0. -1.
        -11    1    3    3    0    0  0.19693801168E+02  0.13298454781E+02  0.89768016836E+01  0.25402316287E+02  0.51100000000E-03 0.  1.
         12    1    3    3    0    0 -0.67032280304E+01  0.54696878747E+01  0.36889801212E+01  0.94052818037E+01  0.00000000000E+00 0. -1.
</event>
<event>
 7    1  0.4673733E-013  0.5930194E+02  0.7816164E-02  0.1266605E+00
        -11   -1    0    0    0    0  0.00000000000E+00  0.00000000000E+00  0.45593999997E+02  0.45594000000E+02  0.51100000000E-03 0.  1.
         11   -1    0    0    0    0 -0.00000000000E+00 -0.00000000000E+00 -0.45593999997E+02  0.45594000000E+02  0.51100000000E-03 0. -1.
    9900012    2    1    2    0    0 -0.91248325070E+01  0.13082887965E+02  0.27609714423E+02  0.59301939467E+02  0.49999991682E+02 0.  0.
         12    1    1    2    0    0  0.91248325070E+01 -0.13082887965E+02 -0.27609714423E+02  0.31886060533E+02  0.00000000000E+00 0. -1.
         11    1    3    3    0    0 -0.14652806935E+02  0.70001902059E+01  0.31813631564E+02  0.35718546549E+02  0.51100000000E-03 0.  1.
        -11    1    3    3    0    0  0.85916101665E+01  0.12837496466E+02 -0.92802691959E+00  0.15475086914E+02  0.51100000000E-03 0. -1.
        -12    1    3    3    0    0 -0.30636357384E+01 -0.67547987068E+01 -0.32758902218E+01  0.81083060039E+01  0.00000000000E+00 0.  1.
</event>
<event>
 7    1  0.4673733E-013  0.5930202E+02  0.7816164E-02  0.1266605E+00
        -11   -1    0    0    0    0  0.00000000000E+00  0.00000000000E+00  0.45593999997E+02  0.45594000000E+02  0.51100000000E-03 0. -1.
         11   -1    0    0    0    0 -0.00000000000E+00 -0.00000000000E+00 -0.45593999997E+02  0.45594000000E+02  0.51100000000E-03 0.  1.
    9900012    2    1    2    0    0 -0.24536643691E+02 -0.19908700558E+02  0.42793191225E+01  0.59302018540E+02  0.50000135892E+02 0.  0.
         12    1    1    2    0    0  0.24536643691E+02  0.19908700558E+02 -0.42793191225E+01  0.31885981460E+02  0.00000000000E+00 0. -1.
         11    1    3    3    0    0  0.68452696974E+01 -0.63848361679E+00  0.17102500535E+01  0.70845136788E+01  0.51100000000E-03 0. -1.
        -11    1    3    3    0    0 -0.17367922770E+02 -0.20198702863E+02 -0.14326295980E+02  0.30246902246E+02  0.51100000000E-03 0.  1.
        -12    1    3    3    0    0 -0.14013990618E+02  0.92848592216E+00  0.16895365049E+02  0.21970602615E+02  0.00000000000E+00 0.  1.
</event>
<event>
 7    1  0.4673733E-013  0.5930194E+02  0.7816164E-02  0.1266605E+00
        -11   -1    0    0    0    0  0.00000000000E+00  0.00000000000E+00  0.45593999997E+02  0.45594000000E+02  0.51100000000E-03 0. -1.
         11   -1    0    0    0    0 -0.00000000000E+00 -0.00000000000E+00 -0.45593999997E+02  0.45594000000E+02  0.51100000000E-03 0.  1.
    9900012    2    1    2    0    0 -0.52471526423E+01  0.31448739671E+02 -0.40633555099E+00  0.59301938056E+02  0.49999989109E+02 0.  0.
         12    1    1    2    0    0  0.52471526423E+01 -0.31448739671E+02  0.40633555099E+00  0.31886061944E+02  0.00000000000E+00 0. -1.
         11    1    3    3    0    0  0.11951804762E+02 -0.44691645047E+01 -0.10219470355E+02  0.16347985902E+02  0.51100000000E-03 0. -1.
        -11    1    3    3    0    0 -0.15208216334E+02  0.17213342475E+02  0.44774936411E+01  0.23401644233E+02  0.51100000000E-03 0.  1.
         12    1    3    3    0    0 -0.19907410703E+01  0.18704561700E+02  0.53356411634E+01  0.19552307921E+02  0.00000000000E+00 0. -1.
</event>
<event>
 7    1  0.4673733E-013  0.5930189E+02  0.7816164E-02  0.1266605E+00
        -11   -1    0    0    0    0  0.00000000000E+00  0.00000000000E+00  0.45593999997E+02  0.45594000000E+02  0.51100000000E-03 0. -1.
         11   -1    0    0    0    0 -0.00000000000E+00 -0.00000000000E+00 -0.45593999997E+02  0.45594000000E+02  0.51100000000E-03 0.  1.
    9900012    2    1    2    0    0  0.26508064751E+02 -0.94339868027E+01  0.15001537272E+02  0.59301894493E+02  0.49999909661E+02 0.  0.
         12    1    1    2    0    0 -0.26508064751E+02  0.94339868027E+01 -0.15001537272E+02  0.31886105507E+02  0.00000000000E+00 0. -1.
         11    1    3    3    0    0  0.20611861654E+01  0.11103401205E+02  0.19474669814E+02  0.22512147195E+02  0.51100000000E-03 0. -1.
        -11    1    3    3    0    0  0.18300217558E+01 -0.74382636508E+01 -0.71985142771E+01  0.10511677022E+02  0.51100000000E-03 0.  1.
         12    1    3    3    0    0  0.22616856830E+02 -0.13099124357E+02  0.27253817354E+01  0.26278070275E+02  0.00000000000E+00 0. -1.
</event>
<event>
 7    1  0.4673733E-013  0.5930194E+02  0.7816164E-02  0.1266605E+00
        -11   -1    0    0    0    0  0.00000000000E+00  0.00000000000E+00  0.45593999997E+02  0.45594000000E+02  0.51100000000E-03 0. -1.
         11   -1    0    0    0    0 -0.00000000000E+00 -0.00000000000E+00 -0.45593999997E+02  0.45594000000E+02  0.51100000000E-03 0.  1.
    9900012    2    1    2    0    0 -0.21394987670E+02  0.13596313902E+02 -0.19342060849E+02  0.59301944004E+02  0.49999999956E+02 0.  0.
         12    1    1    2    0    0  0.21394987670E+02 -0.13596313902E+02  0.19342060849E+02  0.31886055996E+02  0.00000000000E+00 0. -1.
         11    1    3    3    0    0  0.12194773643E+02  0.45343331716E+01 -0.52634606816E+01  0.14034838799E+02  0.51100000000E-03 0.  1.
        -11    1    3    3    0    0 -0.27241316739E+02  0.12347452731E+02 -0.20004205133E+02  0.35982178226E+02  0.51100000000E-03 0. -1.
         12    1    3    3    0    0 -0.63484445736E+01 -0.32854720011E+01  0.59256049657E+01  0.92849269778E+01  0.00000000000E+00 0. -1.
</event>
<event>
 7    1  0.4673733E-013  0.5930196E+02  0.7816164E-02  0.1266605E+00
        -11   -1    0    0    0    0  0.00000000000E+00  0.00000000000E+00  0.45593999997E+02  0.45594000000E+02  0.51100000000E-03 0. -1.
         11   -1    0    0    0    0 -0.00000000000E+00 -0.00000000000E+00 -0.45593999997E+02  0.45594000000E+02  0.51100000000E-03 0.  1.
    9900012    2    1    2    0    0 -0.22075664428E+01 -0.27003049652E+02 -0.16813141416E+02  0.59301956590E+02  0.50000022910E+02 0.  0.
         12    1    1    2    0    0  0.22075664428E+01  0.27003049652E+02  0.16813141416E+02  0.31886043410E+02  0.00000000000E+00 0. -1.
         11    1    3    3    0    0  0.18506448320E+02 -0.59839658782E+01 -0.13707797420E+01  0.19498090020E+02  0.51100000000E-03 0. -1.
        -11    1    3    3    0    0 -0.29999045065E+01 -0.18292045913E+02 -0.56390188474E+01  0.19375162053E+02  0.51100000000E-03 0.  1.
         12    1    3    3    0    0 -0.17714110257E+02 -0.27270378600E+01 -0.98033428264E+01  0.20428704517E+02  0.00000000000E+00 0. -1.
</event>
<event>
 7    1  0.4673733E-013  0.5930195E+02  0.7816164E-02  0.1266605E+00
        -11   -1    0    0    0    0  0.00000000000E+00  0.00000000000E+00  0.45593999997E+02  0.45594000000E+02  0.51100000000E-03 0.  1.
         11   -1    0    0    0    0 -0.00000000000E+00 -0.00000000000E+00 -0.45593999997E+02  0.45594000000E+02  0.51100000000E-03 0. -1.
    9900012    2    1    2    0    0 -0.53425379129E+01  0.12219312798E+02  0.28963185975E+02  0.59301945707E+02  0.50000003062E+02 0.  0.
         12    1    1    2    0    0  0.53425379129E+01 -0.12219312798E+02 -0.28963185975E+02  0.31886054293E+02  0.00000000000E+00 0. -1.
         11    1    3    3    0    0 -0.83322679320E+01 -0.16701759076E+02  0.14912742968E+01  0.18724298236E+02  0.51100000000E-03 0. -1.
        -11    1    3    3    0    0  0.90520483232E+00  0.13768662543E+02  0.84930252145E+01  0.16202683159E+02  0.51100000000E-03 0.  1.
         12    1    3    3    0    0  0.20845251868E+01  0.15152409331E+02  0.18978886463E+02  0.24374964311E+02  0.00000000000E+00 0. -1.
</event>
<event>
 7    1  0.4673733E-013  0.5930194E+02  0.7816164E-02  0.1266605E+00
        -11   -1    0    0    0    0  0.00000000000E+00  0.00000000000E+00  0.45593999997E+02  0.45594000000E+02  0.51100000000E-03 0. -1.
         11   -1    0    0    0    0 -0.00000000000E+00 -0.00000000000E+00 -0.45593999997E+02  0.45594000000E+02  0.51100000000E-03 0.  1.
    9900012    2    1    2    0    0 -0.19980232301E+01  0.71165322751E+01 -0.31017470161E+02  0.59301943743E+02  0.49999999480E+02 0.  0.
         12    1    1    2    0    0  0.19980232301E+01 -0.71165322751E+01  0.31017470161E+02  0.31886056257E+02  0.00000000000E+00 0. -1.
         11    1    3    3    0    0  0.88331341155E+01 -0.88062086022E+01 -0.60570576842E+01  0.13865839906E+02  0.51100000000E-03 0. -1.
        -11    1    3    3    0    0  0.42690715668E+01  0.20359362514E+02 -0.79708463489E+01  0.22276961323E+02  0.51100000000E-03 0.  1.
        -12    1    3    3    0    0 -0.15100228912E+02 -0.44366216364E+01 -0.16989566128E+02  0.23159142514E+02  0.00000000000E+00 0.  1.
</event>
<event>
 7    1  0.4673733E-013  0.5930194E+02  0.7816164E-02  0.1266605E+00
        -11   -1    0    0    0    0  0.00000000000E+00  0.00000000000E+00  0.45593999997E+02  0.45594000000E+02  0.51100000000E-03 0. -1.
         11   -1    0    0    0    0 -0.00000000000E+00 -0.00000000000E+00 -0.45593999997E+02  0.45594000000E+02  0.51100000000E-03 0.  1.
    9900012    2    1    2    0    0 -0.11978189461E+02 -0.27609462859E+02 -0.10533812947E+02  0.59301942274E+02  0.49999996801E+02 0.  0.
         12    1    1    2    0    0  0.11978189461E+02  0.27609462859E+02  0.10533812947E+02  0.31886057726E+02  0.00000000000E+00 0. -1.
         11    1    3    3    0    0  0.51457053220E+01  0.34049650633E+01 -0.20711989807E+01  0.65086047523E+01  0.51100000000E-03 0. -1.
        -11    1    3    3    0    0 -0.96157443412E+00 -0.32806407898E+02 -0.13906215942E+02  0.35645025833E+02  0.51100000000E-03 0.  1.
        -12    1    3    3    0    0 -0.16162320349E+02  0.17919799751E+01  0.54436019762E+01  0.17148311688E+02  0.00000000000E+00 0.  1.
</event>
<event>
 7    1  0.4673733E-013  0.5930196E+02  0.7816164E-02  0.1266605E+00
        -11   -1    0    0    0    0  0.00000000000E+00  0.00000000000E+00  0.45593999997E+02  0.45594000000E+02  0.51100000000E-03 0. -1.
         11   -1    0    0    0    0 -0.00000000000E+00 -0.00000000000E+00 -0.45593999997E+02  0.45594000000E+02  0.51100000000E-03 0.  1.
    9900012    2    1    2    0    0  0.12677994966E+02 -0.81024695548E+01 -0.28112952825E+02  0.59301957822E+02  0.50000025158E+02 0.  0.
         12    1    1    2    0    0 -0.12677994966E+02  0.81024695548E+01  0.28112952825E+02  0.31886042178E+02  0.00000000000E+00 0. -1.
         11    1    3    3    0    0 -0.10076649802E+02 -0.12386142542E+02  0.20694890966E+00  0.15968663890E+02  0.51100000000E-03 0. -1.
        -11    1    3    3    0    0  0.20409512677E+02 -0.35620277329E+01 -0.94663823748E+01  0.22778249380E+02  0.51100000000E-03 0.  1.
         12    1    3    3    0    0  0.23451320910E+01  0.78457007202E+01 -0.18853519360E+02  0.20555044552E+02  0.00000000000E+00 0. -1.
</event>
<event>
 7    1  0.4673733E-013  0.5930193E+02  0.7816164E-02  0.1266605E+00
        -11   -1    0    0    0    0  0.00000000000E+00  0.00000000000E+00  0.45593999997E+02  0.45594000000E+02  0.51100000000E-03 0.  1.
         11   -1    0    0    0    0 -0.00000000000E+00 -0.00000000000E+00 -0.45593999997E+02  0.45594000000E+02  0.51100000000E-03 0. -1.
    9900012    2    1    2    0    0 -0.16069601751E+02 -0.14456231112E+02  0.23441559248E+02  0.59301930654E+02  0.49999975609E+02 0.  0.
         12    1    1    2    0    0  0.16069601751E+02  0.14456231112E+02 -0.23441559248E+02  0.31886069346E+02  0.00000000000E+00 0. -1.
         11    1    3    3    0    0  0.27508209345E+01  0.11482640964E+02  0.12674055467E+02  0.17321943931E+02  0.51100000000E-03 0. -1.
        -11    1    3    3    0    0 -0.17989511870E+02 -0.24703739590E+02  0.17411117956E+02  0.35171640789E+02  0.51100000000E-03 0.  1.
        -12    1    3    3    0    0 -0.83091081494E+00 -0.12351324859E+01 -0.66436141748E+01  0.68083459331E+01  0.00000000000E+00 0.  1.
</event>
<event>
 7    1  0.4673733E-013  0.5930195E+02  0.7816164E-02  0.1266605E+00
        -11   -1    0    0    0    0  0.00000000000E+00  0.00000000000E+00  0.45593999997E+02  0.45594000000E+02  0.51100000000E-03 0.  1.
         11   -1    0    0    0    0 -0.00000000000E+00 -0.00000000000E+00 -0.45593999997E+02  0.45594000000E+02  0.51100000000E-03 0. -1.
    9900012    2    1    2    0    0 -0.18440317369E+02  0.20507440500E+02  0.16003734715E+02  0.59301953752E+02  0.50000017734E+02 0.  0.
         12    1    1    2    0    0  0.18440317369E+02 -0.20507440500E+02 -0.16003734715E+02  0.31886046248E+02  0.00000000000E+00 0. -1.
         11    1    3    3    0    0  0.28305521330E+01 -0.99108809325E+01  0.91395934363E+01  0.13775694345E+02  0.51100000000E-03 0. -1.
        -11    1    3    3    0    0 -0.23916531329E+02  0.20468989289E+02 -0.25405626303E+01  0.31582185676E+02  0.51100000000E-03 0.  1.
         12    1    3    3    0    0  0.26456618274E+01  0.99493321437E+01  0.94047039085E+01  0.13944073731E+02  0.00000000000E+00 0. -1.
</event>
<event>
 7    1  0.4673733E-013  0.5930194E+02  0.7816164E-02  0.1266605E+00
        -11   -1    0    0    0    0  0.00000000000E+00  0.00000000000E+00  0.45593999997E+02  0.45594000000E+02  0.51100000000E-03 0.  1.
         11   -1    0    0    0    0 -0.00000000000E+00 -0.00000000000E+00 -0.45593999997E+02  0.45594000000E+02  0.51100000000E-03 0. -1.
    9900012    2    1    2    0    0  0.85552482110E+01 -0.16564476748E+01  0.30672211222E+02  0.59301942983E+02  0.49999998095E+02 0.  0.
         12    1    1    2    0    0 -0.85552482110E+01  0.16564476748E+01 -0.30672211222E+02  0.31886057017E+02  0.00000000000E+00 0. -1.
         11    1    3    3    0    0 -0.69835842722E+01  0.75908532963E+01  0.17288984125E+02  0.20132075785E+02  0.51100000000E-03 0.  1.
        -11    1    3    3    0    0  0.23957361232E+02 -0.44148865706E+00  0.12314319120E+02  0.26940536838E+02  0.51100000000E-03 0. -1.
         12    1    3    3    0    0 -0.84185287491E+01 -0.88058123140E+01  0.10689079766E+01  0.12229330361E+02  0.00000000000E+00 0. -1.
</event>
<event>
 7    1  0.4673733E-013  0.5930194E+02  0.7816164E-02  0.1266605E+00
        -11   -1    0    0    0    0  0.00000000000E+00  0.00000000000E+00  0.45593999997E+02  0.45594000000E+02  0.51100000000E-03 0.  1.
         11   -1    0    0    0    0 -0.00000000000E+00 -0.00000000000E+00 -0.45593999997E+02  0.45594000000E+02  0.51100000000E-03 0. -1.
    9900012    2    1    2    0    0 -0.10248588069E+02 -0.17664135019E+02  0.24488070858E+02  0.59301939759E+02  0.49999992214E+02 0.  0.
         12    1    1    2    0    0  0.10248588069E+02  0.17664135019E+02 -0.24488070858E+02  0.31886060241E+02  0.00000000000E+00 0. -1.
         11    1    3    3    0    0 -0.99676467236E+01 -0.25978134200E+02  0.26922081212E+02  0.38717126634E+02  0.51100000000E-03 0.  1.
        -11    1    3    3    0    0  0.19445384323E+01  0.28379843008E+01 -0.10234777103E+02  0.10797501897E+02  0.51100000000E-03 0. -1.
        -12    1    3    3    0    0 -0.22254797775E+01  0.54760148797E+01  0.78007667484E+01  0.97873112276E+01  0.00000000000E+00 0.  1.
</event>
<event>
 7    1  0.4673733E-013  0.5930194E+02  0.7816164E-02  0.1266605E+00
        -11   -1    0    0    0    0  0.00000000000E+00  0.00000000000E+00  0.45593999997E+02  0.45594000000E+02  0.51100000000E-03 0. -1.
         11   -1    0    0    0    0 -0.00000000000E+00 -0.00000000000E+00 -0.45593999997E+02  0.45594000000E+02  0.51100000000E-03 0.  1.
    9900012    2    1    2    0    0 -0.20866573124E+02 -0.21451088592E+02  0.11007180009E+02  0.59301935842E+02  0.49999985072E+02 0.  0.
         12    1    1    2    0    0  0.20866573124E+02  0.21451088592E+02 -0.11007180009E+02  0.31886064158E+02  0.00000000000E+00 0. -1.
         11    1    3    3    0    0  0.26157474047E+01  0.10283241093E+02  0.40847676383E+01  0.11369806893E+02  0.51100000000E-03 0. -1.
        -11    1    3    3    0    0 -0.50376248177E+01 -0.25850526391E+02 -0.23965968289E+01  0.26445624498E+02  0.51100000000E-03 0.  1.
         12    1    3    3    0    0 -0.18444695711E+02 -0.58838032945E+01  0.93190091992E+01  0.21486504451E+02  0.00000000000E+00 0. -1.
</event>
<event>
 7    1  0.4673733E-013  0.5930198E+02  0.7816164E-02  0.1266605E+00
        -11   -1    0    0    0    0  0.00000000000E+00  0.00000000000E+00  0.45593999997E+02  0.45594000000E+02  0.51100000000E-03 0. -1.
         11   -1    0    0    0    0 -0.00000000000E+00 -0.00000000000E+00 -0.45593999997E+02  0.45594000000E+02  0.51100000000E-03 0.  1.
    9900012    2    1    2    0    0  0.19352721331E+02 -0.25100732062E+02 -0.34848009153E+01  0.59301977821E+02  0.50000061631E+02 0.  0.
         12    1    1    2    0    0 -0.19352721331E+02  0.25100732062E+02  0.34848009153E+01  0.31886022179E+02  0.00000000000E+00 0. -1.
         11    1    3    3    0    0 -0.14823473050E+01 -0.30817143743E+01  0.35730950752E+01  0.49458392306E+01  0.51100000000E-03 0. -1.
        -11    1    3    3    0    0  0.34456478204E+02 -0.14695152237E+02 -0.25396280764E+00  0.37460123957E+02  0.51100000000E-03 0.  1.
        -12    1    3    3    0    0 -0.13621409568E+02 -0.73238654507E+01 -0.68039331828E+01  0.16896014634E+02  0.00000000000E+00 0.  1.
</event>
<event>
 7    1  0.4673733E-013  0.5930188E+02  0.7816164E-02  0.1266605E+00
        -11   -1    0    0    0    0  0.00000000000E+00  0.00000000000E+00  0.45593999997E+02  0.45594000000E+02  0.51100000000E-03 0.  1.
         11   -1    0    0    0    0 -0.00000000000E+00 -0.00000000000E+00 -0.45593999997E+02  0.45594000000E+02  0.51100000000E-03 0. -1.
    9900012    2    1    2    0    0 -0.26683405653E+02 -0.68153564722E+00  0.17442928649E+02  0.59301884088E+02  0.49999890685E+02 0.  0.
         12    1    1    2    0    0  0.26683405653E+02  0.68153564722E+00 -0.17442928649E+02  0.31886115912E+02  0.00000000000E+00 0. -1.
         11    1    3    3    0    0 -0.15452755182E+02 -0.20056924545E+02 -0.21016916617E+00  0.25320190288E+02  0.51100000000E-03 0. -1.
        -11    1    3    3    0    0  0.16712160317E+01  0.13708989326E+02  0.13447814216E+02  0.19276230410E+02  0.51100000000E-03 0.  1.
         12    1    3    3    0    0 -0.12901866503E+02  0.56663995714E+01  0.42052835996E+01  0.14705463390E+02  0.00000000000E+00 0. -1.
</event>
<event>
 7    1  0.4673733E-013  0.5930193E+02  0.7816164E-02  0.1266605E+00
        -11   -1    0    0    0    0  0.00000000000E+00  0.00000000000E+00  0.45593999997E+02  0.45594000000E+02  0.51100000000E-03 0. -1.
         11   -1    0    0    0    0 -0.00000000000E+00 -0.00000000000E+00 -0.45593999997E+02  0.45594000000E+02  0.51100000000E-03 0.  1.
    9900012    2    1    2    0    0  0.24299122372E+02  0.19630111969E+02 -0.63978931483E+01  0.59301926540E+02  0.49999968107E+02 0.  0.
         12    1    1    2    0    0 -0.24299122372E+02 -0.19630111969E+02  0.63978931483E+01  0.31886073460E+02  0.00000000000E+00 0. -1.
         11    1    3    3    0    0  0.20779681860E+02  0.14125857486E+02  0.19611980283E+02  0.31874202716E+02  0.51100000000E-03 0. -1.
        -11    1    3    3    0    0  0.43447236321E+01  0.15247171422E+01 -0.15047049364E+02  0.15735789799E+02  0.51100000000E-03 0.  1.
         12    1    3    3    0    0 -0.82528312033E+00  0.39795373409E+01 -0.10962824068E+02  0.11691934024E+02  0.00000000000E+00 0. -1.
</event>
<event>
 7    1  0.7596218E-013  0.5930195E+02  0.7816164E-02  0.1266605E+00
        -11   -1    0    0    0    0  0.00000000000E+00  0.00000000000E+00  0.45593999997E+02  0.45594000000E+02  0.51100000000E-03 0.  1.
         11   -1    0    0    0    0 -0.00000000000E+00 -0.00000000000E+00 -0.45593999997E+02  0.45594000000E+02  0.51100000000E-03 0. -1.
    9900012    2    1    2    0    0  0.25826936247E+02  0.10195511435E+01 -0.18672174417E+02  0.59301949478E+02  0.50000009940E+02 0.  0.
         12    1    1    2    0    0 -0.25826936247E+02 -0.10195511435E+01  0.18672174417E+02  0.31886050522E+02  0.00000000000E+00 0. -1.
         11    1    3    3    0    0  0.15404400920E+01 -0.16265149100E+02  0.67771707002E+00  0.16351982498E+02  0.51100000000E-03 0. -1.
        -11    1    3    3    0    0  0.55617992152E+01  0.18403642113E+02 -0.12729215026E+02  0.23057765915E+02  0.51100000000E-03 0.  1.
        -12    1    3    3    0    0  0.18724696940E+02 -0.11189418690E+01 -0.66206764603E+01  0.19892201065E+02  0.00000000000E+00 0.  1.
</event>
<event>
 7    1  0.4673733E-013  0.5930199E+02  0.7816164E-02  0.1266605E+00
        -11   -1    0    0    0    0  0.00000000000E+00  0.00000000000E+00  0.45593999997E+02  0.45594000000E+02  0.51100000000E-03 0. -1.
         11   -1    0    0    0    0 -0.00000000000E+00 -0.00000000000E+00 -0.45593999997E+02  0.45594000000E+02  0.51100000000E-03 0.  1.
    9900012    2    1    2    0    0  0.23949946158E+02  0.19012749541E+02 -0.90351015020E+01  0.59301990134E+02  0.50000084086E+02 0.  0.
         12    1    1    2    0    0 -0.23949946158E+02 -0.19012749541E+02  0.90351015020E+01  0.31886009866E+02  0.00000000000E+00 0. -1.
         11    1    3    3    0    0  0.82921518634E+01  0.99586957043E+00  0.12639456776E+02  0.15149501859E+02  0.51100000000E-03 0. -1.
        -11    1    3    3    0    0  0.10007788634E+02  0.26287988238E+02 -0.18408597409E+02  0.33616820459E+02  0.51100000000E-03 0.  1.
        -12    1    3    3    0    0  0.56500056598E+01 -0.82711082676E+01 -0.32659608691E+01  0.10535667816E+02  0.00000000000E+00 0.  1.
</event>
<event>
 7    1  0.4673733E-013  0.5930195E+02  0.7816164E-02  0.1266605E+00
        -11   -1    0    0    0    0  0.00000000000E+00  0.00000000000E+00  0.45593999997E+02  0.45594000000E+02  0.51100000000E-03 0.  1.
         11   -1    0    0    0    0 -0.00000000000E+00 -0.00000000000E+00 -0.45593999997E+02  0.45594000000E+02  0.51100000000E-03 0. -1.
    9900012    2    1    2    0    0 -0.11584810640E+02  0.13718807242E+02  0.26349705440E+02  0.59301945266E+02  0.50000002259E+02 0.  0.
         12    1    1    2    0    0  0.11584810640E+02 -0.13718807242E+02 -0.26349705440E+02  0.31886054734E+02  0.00000000000E+00 0. -1.
         11    1    3    3    0    0 -0.10357522276E+01  0.62388482320E+01 -0.13335051692E+02  0.14758713150E+02  0.51100000000E-03 0. -1.
        -11    1    3    3    0    0  0.11328574468E+01  0.78184049711E+01  0.10776699890E+02  0.13362188559E+02  0.51100000000E-03 0.  1.
         12    1    3    3    0    0 -0.11681915859E+02 -0.33844596139E+00  0.28908057242E+02  0.31181043558E+02  0.00000000000E+00 0. -1.
</event>
<event>
 7    1  0.4673733E-013  0.5930193E+02  0.7816164E-02  0.1266605E+00
        -11   -1    0    0    0    0  0.00000000000E+00  0.00000000000E+00  0.45593999997E+02  0.45594000000E+02  0.51100000000E-03 0.  1.
         11   -1    0    0    0    0 -0.00000000000E+00 -0.00000000000E+00 -0.45593999997E+02  0.45594000000E+02  0.51100000000E-03 0. -1.
    9900012    2    1    2    0    0  0.52496241456E+01  0.30295118606E+02  0.84479867245E+01  0.59301933376E+02  0.49999980574E+02 0.  0.
         12    1    1    2    0    0 -0.52496241456E+01 -0.30295118606E+02 -0.84479867245E+01  0.31886066624E+02  0.00000000000E+00 0. -1.
         11    1    3    3    0    0 -0.43592250930E+01  0.19459934708E+02 -0.55885352131E+01  0.20710471466E+02  0.51100000000E-03 0. -1.
        -11    1    3    3    0    0  0.21703362634E+02  0.41189358411E+01  0.93050770168E+01  0.23970524413E+02  0.51100000000E-03 0.  1.
         12    1    3    3    0    0 -0.12094513396E+02  0.67162480574E+01  0.47314449208E+01  0.14620937497E+02  0.00000000000E+00 0. -1.
</event>
<event>
 7    1  0.4673733E-013  0.5930195E+02  0.7816164E-02  0.1266605E+00
        -11   -1    0    0    0    0  0.00000000000E+00  0.00000000000E+00  0.45593999997E+02  0.45594000000E+02  0.51100000000E-03 0.  1.
         11   -1    0    0    0    0 -0.00000000000E+00 -0.00000000000E+00 -0.45593999997E+02  0.45594000000E+02  0.51100000000E-03 0. -1.
    9900012    2    1    2    0    0 -0.31642375758E+01  0.79636637139E+01  0.30712987961E+02  0.59301953386E+02  0.50000017068E+02 0.  0.
         12    1    1    2    0    0  0.31642375758E+01 -0.79636637139E+01 -0.30712987961E+02  0.31886046614E+02  0.00000000000E+00 0. -1.
         11    1    3    3    0    0 -0.14450641185E+02 -0.20957707598E+01 -0.36765823447E+00  0.14606452635E+02  0.51100000000E-03 0. -1.
        -11    1    3    3    0    0  0.23656617057E+01  0.19046225157E+02  0.21476429688E+02  0.28802640165E+02  0.51100000000E-03 0.  1.
        -12    1    3    3    0    0  0.89207419038E+01 -0.89867906836E+01  0.96042165067E+01  0.15892860586E+02  0.00000000000E+00 0.  1.
</event>
<event>
 7    1  0.4673733E-013  0.5930194E+02  0.7816164E-02  0.1266605E+00
        -11   -1    0    0    0    0  0.00000000000E+00  0.00000000000E+00  0.45593999997E+02  0.45594000000E+02  0.51100000000E-03 0. -1.
         11   -1    0    0    0    0 -0.00000000000E+00 -0.00000000000E+00 -0.45593999997E+02  0.45594000000E+02  0.51100000000E-03 0.  1.
    9900012    2    1    2    0    0  0.29730842217E+02 -0.11328531327E+02  0.21123897205E+01  0.59301940486E+02  0.49999993541E+02 0.  0.
         12    1    1    2    0    0 -0.29730842217E+02  0.11328531327E+02 -0.21123897205E+01  0.31886059514E+02  0.00000000000E+00 0. -1.
         11    1    3    3    0    0 -0.94587259590E+01 -0.48675616601E+01 -0.12128363932E+02  0.16132509575E+02  0.51100000000E-03 0. -1.
        -11    1    3    3    0    0  0.23635460354E+02 -0.60190356002E+01  0.44709683498E+01  0.24796236286E+02  0.51100000000E-03 0.  1.
         12    1    3    3    0    0  0.15554107823E+02 -0.44193406666E+00  0.97697853023E+01  0.18373194625E+02  0.00000000000E+00 0. -1.
</event>
<event>
 7    1  0.4673733E-013  0.5930195E+02  0.7816164E-02  0.1266605E+00
        -11   -1    0    0    0    0  0.00000000000E+00  0.00000000000E+00  0.45593999997E+02  0.45594000000E+02  0.51100000000E-03 0. -1.
         11   -1    0    0    0    0 -0.00000000000E+00 -0.00000000000E+00 -0.45593999997E+02  0.45594000000E+02  0.51100000000E-03 0.  1.
    9900012    2    1    2    0    0  0.21232078745E+02  0.23489044109E+02 -0.37661674764E+01  0.59301946960E+02  0.50000005349E+02 0.  0.
         12    1    1    2    0    0 -0.21232078745E+02 -0.23489044109E+02  0.37661674764E+01  0.31886053040E+02  0.00000000000E+00 0. -1.
         11    1    3    3    0    0 -0.50081189437E+01  0.22737116500E+02  0.43968989880E+01  0.23693679390E+02  0.51100000000E-03 0. -1.
        -11    1    3    3    0    0  0.12942469101E+02 -0.51193571468E+01  0.61425528006E+01  0.15213358577E+02  0.51100000000E-03 0.  1.
        -12    1    3    3    0    0  0.13297728587E+02  0.58712847557E+01 -0.14305619265E+02  0.20394908993E+02  0.00000000000E+00 0.  1.
</event>
<event>
 7    1  0.4673733E-013  0.5930194E+02  0.7816164E-02  0.1266605E+00
        -11   -1    0    0    0    0  0.00000000000E+00  0.00000000000E+00  0.45593999997E+02  0.45594000000E+02  0.51100000000E-03 0.  1.
         11   -1    0    0    0    0 -0.00000000000E+00 -0.00000000000E+00 -0.45593999997E+02  0.45594000000E+02  0.51100000000E-03 0. -1.
    9900012    2    1    2    0    0 -0.82301700542E+01  0.30804690877E+02 -0.23718363019E+00  0.59301938230E+02  0.49999989426E+02 0.  0.
         12    1    1    2    0    0  0.82301700542E+01 -0.30804690877E+02  0.23718363019E+00  0.31886061770E+02  0.00000000000E+00 0. -1.
         11    1    3    3    0    0 -0.72524095244E+01  0.13018234588E+02 -0.19876535326E+02  0.24842474364E+02  0.51100000000E-03 0. -1.
        -11    1    3    3    0    0  0.76411884035E+01  0.57151833407E+01  0.16854037617E+02  0.19367748065E+02  0.51100000000E-03 0.  1.
        -12    1    3    3    0    0 -0.86189489332E+01  0.12071272948E+02  0.27853140791E+01  0.15091715801E+02  0.00000000000E+00 0.  1.
</event>
<event>
 7    1  0.4673733E-013  0.5930193E+02  0.7816164E-02  0.1266605E+00
        -11   -1    0    0    0    0  0.00000000000E+00  0.00000000000E+00  0.45593999997E+02  0.45594000000E+02  0.51100000000E-03 0. -1.
         11   -1    0    0    0    0 -0.00000000000E+00 -0.00000000000E+00 -0.45593999997E+02  0.45594000000E+02  0.51100000000E-03 0.  1.
    9900012    2    1    2    0    0  0.22442485168E+02  0.17030730832E+02 -0.14933527473E+02  0.59301934454E+02  0.49999982540E+02 0.  0.
         12    1    1    2    0    0 -0.22442485168E+02 -0.17030730832E+02  0.14933527473E+02  0.31886065546E+02  0.00000000000E+00 0. -1.
         11    1    3    3    0    0  0.19429396587E+02  0.40942447851E+01  0.15712727319E+02  0.25321020757E+02  0.51100000000E-03 0. -1.
        -11    1    3    3    0    0  0.33418813580E+01  0.48477656227E+01 -0.80148528093E+01  0.99451932289E+01  0.51100000000E-03 0.  1.
         12    1    3    3    0    0 -0.32879277701E+00  0.80887204246E+01 -0.22631401982E+02  0.24035720469E+02  0.00000000000E+00 0. -1.
</event>
<event>
 7    1  0.4673733E-013  0.5930194E+02  0.7816164E-02  0.1266605E+00
        -11   -1    0    0    0    0  0.00000000000E+00  0.00000000000E+00  0.45593999997E+02  0.45594000000E+02  0.51100000000E-03 0.  1.
         11   -1    0    0    0    0 -0.00000000000E+00 -0.00000000000E+00 -0.45593999997E+02  0.45594000000E+02  0.51100000000E-03 0. -1.
    9900012    2    1    2    0    0  0.20803478640E+01  0.11404724364E+02  0.29703960254E+02  0.59301939726E+02  0.49999992154E+02 0.  0.
         12    1    1    2    0    0 -0.20803478640E+01 -0.11404724364E+02 -0.29703960254E+02  0.31886060274E+02  0.00000000000E+00 0. -1.
         11    1    3    3    0    0  0.44315303242E+01  0.13013141679E+02  0.50689796936E+00  0.13756353557E+02  0.51100000000E-03 0. -1.
        -11    1    3    3    0    0 -0.17920545467E+02 -0.57391367951E+01  0.16685282963E+02  0.25149200958E+02  0.51100000000E-03 0.  1.
        -12    1    3    3    0    0  0.15569363007E+02  0.41307194800E+01  0.12511779321E+02  0.20396385210E+02  0.00000000000E+00 0.  1.
</event>
<event>
 7    1  0.4673733E-013  0.5930199E+02  0.7816164E-02  0.1266605E+00
        -11   -1    0    0    0    0  0.00000000000E+00  0.00000000000E+00  0.45593999997E+02  0.45594000000E+02  0.51100000000E-03 0.  1.
         11   -1    0    0    0    0 -0.00000000000E+00 -0.00000000000E+00 -0.45593999997E+02  0.45594000000E+02  0.51100000000E-03 0. -1.
    9900012    2    1    2    0    0  0.25445769863E+02 -0.19193666490E+00  0.19214418264E+02  0.59301985623E+02  0.50000075860E+02 0.  0.
         12    1    1    2    0    0 -0.25445769863E+02  0.19193666490E+00 -0.19214418264E+02  0.31886014377E+02  0.00000000000E+00 0. -1.
         11    1    3    3    0    0  0.27269089673E+02  0.15198493261E+02  0.14515001452E+02  0.34427935117E+02  0.51100000000E-03 0. -1.
        -11    1    3    3    0    0 -0.63567000538E+01 -0.38150946777E+01  0.90539936293E+01  0.11702024777E+02  0.51100000000E-03 0.  1.
         12    1    3    3    0    0  0.45333802438E+01 -0.11575335249E+02 -0.43545768176E+01  0.13172025729E+02  0.00000000000E+00 0. -1.
</event>
<event>
 7    1  0.4673733E-013  0.5930194E+02  0.7816164E-02  0.1266605E+00
        -11   -1    0    0    0    0  0.00000000000E+00  0.00000000000E+00  0.45593999997E+02  0.45594000000E+02  0.51100000000E-03 0.  1.
         11   -1    0    0    0    0 -0.00000000000E+00 -0.00000000000E+00 -0.45593999997E+02  0.45594000000E+02  0.51100000000E-03 0. -1.
    9900012    2    1    2    0    0 -0.94167283029E+01  0.28429277574E+02 -0.10946325568E+02  0.59301942879E+02  0.49999997905E+02 0.  0.
         12    1    1    2    0    0  0.94167283029E+01 -0.28429277574E+02  0.10946325568E+02  0.31886057121E+02  0.00000000000E+00 0. -1.
         11    1    3    3    0    0  0.96432087101E+01  0.98017925551E+01 -0.68528208623E+01  0.15363195161E+02  0.51100000000E-03 0. -1.
        -11    1    3    3    0    0 -0.20229845140E+02  0.23006078434E+02 -0.13514831270E+02  0.33483980406E+02  0.51100000000E-03 0.  1.
        -12    1    3    3    0    0  0.11699081271E+01 -0.43785934154E+01  0.94213265641E+01  0.10454767312E+02  0.00000000000E+00 0.  1.
</event>
<event>
 7    1  0.4673733E-013  0.5930196E+02  0.7816164E-02  0.1266605E+00
        -11   -1    0    0    0    0  0.00000000000E+00  0.00000000000E+00  0.45593999997E+02  0.45594000000E+02  0.51100000000E-03 0. -1.
         11   -1    0    0    0    0 -0.00000000000E+00 -0.00000000000E+00 -0.45593999997E+02  0.45594000000E+02  0.51100000000E-03 0.  1.
    9900012    2    1    2    0    0 -0.29856535397E+02 -0.98284920939E+01 -0.53579563529E+01  0.59301958241E+02  0.50000025922E+02 0.  0.
         12    1    1    2    0    0  0.29856535397E+02  0.98284920939E+01  0.53579563529E+01  0.31886041759E+02  0.00000000000E+00 0. -1.
         11    1    3    3    0    0  0.15896733831E+01  0.10205046021E+02 -0.86376236253E+01  0.13463972961E+02  0.51100000000E-03 0. -1.
        -11    1    3    3    0    0 -0.28740521997E+02 -0.22994765131E+02  0.98837113964E+01  0.38111213302E+02  0.51100000000E-03 0.  1.
        -12    1    3    3    0    0 -0.27056867833E+01  0.29612270167E+01 -0.66040441240E+01  0.77267719783E+01  0.00000000000E+00 0.  1.
</event>
<event>
 7    1  0.4673733E-013  0.5930195E+02  0.7816164E-02  0.1266605E+00
        -11   -1    0    0    0    0  0.00000000000E+00  0.00000000000E+00  0.45593999997E+02  0.45594000000E+02  0.51100000000E-03 0. -1.
         11   -1    0    0    0    0 -0.00000000000E+00 -0.00000000000E+00 -0.45593999997E+02  0.45594000000E+02  0.51100000000E-03 0.  1.
    9900012    2    1    2    0    0  0.43453529114E-01  0.18834410226E+02 -0.25729041137E+02  0.59301945766E+02  0.50000003171E+02 0.  0.
         12    1    1    2    0    0 -0.43453529114E-01 -0.18834410226E+02  0.25729041137E+02  0.31886054234E+02  0.00000000000E+00 0. -1.
         11    1    3    3    0    0  0.81886857603E+01 -0.62660070196E+01  0.55827220714E+01  0.11725365855E+02  0.51100000000E-03 0. -1.
        -11    1    3    3    0    0 -0.19029547458E+01  0.18003800900E+02 -0.33314031344E+02  0.37915468720E+02  0.51100000000E-03 0.  1.
        -12    1    3    3    0    0 -0.62422774855E+01  0.70966163455E+01  0.20022681355E+01  0.96611111911E+01  0.00000000000E+00 0.  1.
</event>
<event>
 7    1  0.4673733E-013  0.5930194E+02  0.7816164E-02  0.1266605E+00
        -11   -1    0    0    0    0  0.00000000000E+00  0.00000000000E+00  0.45593999997E+02  0.45594000000E+02  0.51100000000E-03 0.  1.
         11   -1    0    0    0    0 -0.00000000000E+00 -0.00000000000E+00 -0.45593999997E+02  0.45594000000E+02  0.51100000000E-03 0. -1.
    9900012    2    1    2    0    0  0.17415737097E+02 -0.87995458288E+01  0.25218667725E+02  0.59301935532E+02  0.49999984506E+02 0.  0.
         12    1    1    2    0    0 -0.17415737097E+02  0.87995458288E+01 -0.25218667725E+02  0.31886064468E+02  0.00000000000E+00 0. -1.
         11    1    3    3    0    0 -0.11634137210E+02  0.63552348727E+00  0.85446820179E+01  0.14448827972E+02  0.51100000000E-03 0. -1.
        -11    1    3    3    0    0  0.25850281484E+02  0.11489131527E+01  0.12901930283E+01  0.25907945742E+02  0.51100000000E-03 0.  1.
         12    1    3    3    0    0  0.31995928221E+01 -0.10583982469E+02  0.15383792679E+02  0.18945161818E+02  0.00000000000E+00 0. -1.
</event>
<event>
 7    1  0.4673733E-013  0.5930210E+02  0.7816164E-02  0.1266604E+00
        -11   -1    0    0    0    0  0.00000000000E+00  0.00000000000E+00  0.45593999997E+02  0.45594000000E+02  0.51100000000E-03 0.  1.
         11   -1    0    0    0    0 -0.00000000000E+00 -0.00000000000E+00 -0.45593999997E+02  0.45594000000E+02  0.51100000000E-03 0. -1.
    9900012    2    1    2    0    0 -0.10482436923E+02 -0.30044404866E+02 -0.20403495432E+01  0.59302097569E+02  0.50000280021E+02 0.  0.
         12    1    1    2    0    0  0.10482436923E+02  0.30044404866E+02  0.20403495432E+01  0.31885902431E+02  0.00000000000E+00 0. -1.
         11    1    3    3    0    0 -0.21445911378E+02 -0.17276890865E+02 -0.10328389481E+02  0.29412475283E+02  0.51100000000E-03 0. -1.
        -11    1    3    3    0    0  0.14486411773E+02 -0.15473758410E+02  0.83489745244E+00  0.21212976675E+02  0.51100000000E-03 0.  1.
         12    1    3    3    0    0 -0.35229373187E+01  0.27062444087E+01  0.74531424849E+01  0.86766456105E+01  0.00000000000E+00 0. -1.
</event>
<event>
 7    1  0.4673733E-013  0.5930195E+02  0.7816164E-02  0.1266605E+00
        -11   -1    0    0    0    0  0.00000000000E+00  0.00000000000E+00  0.45593999997E+02  0.45594000000E+02  0.51100000000E-03 0. -1.
         11   -1    0    0    0    0 -0.00000000000E+00 -0.00000000000E+00 -0.45593999997E+02  0.45594000000E+02  0.51100000000E-03 0.  1.
    9900012    2    1    2    0    0 -0.10982733612E+01  0.31464010825E+02 -0.50527406434E+01  0.59301947100E+02  0.50000005603E+02 0.  0.
         12    1    1    2    0    0  0.10982733612E+01 -0.31464010825E+02  0.50527406434E+01  0.31886052900E+02  0.00000000000E+00 0. -1.
         11    1    3    3    0    0 -0.11004781004E+02  0.26128598370E+02  0.76951669123E+01  0.29377277815E+02  0.51100000000E-03 0. -1.
        -11    1    3    3    0    0 -0.54030295867E+01  0.11930580243E+01 -0.12929359674E+02  0.14063586242E+02  0.51100000000E-03 0.  1.
         12    1    3    3    0    0  0.15309537230E+02  0.41423544306E+01  0.18145211806E+00  0.15861083043E+02  0.00000000000E+00 0. -1.
</event>
<event>
 7    1  0.4680108E-013  0.5930194E+02  0.7816164E-02  0.1266605E+00
        -11   -1    0    0    0    0  0.00000000000E+00  0.00000000000E+00  0.45593999997E+02  0.45594000000E+02  0.51100000000E-03 0.  1.
         11   -1    0    0    0    0 -0.00000000000E+00 -0.00000000000E+00 -0.45593999997E+02  0.45594000000E+02  0.51100000000E-03 0. -1.
    9900012    2    1    2    0    0  0.31668163306E+02  0.22812720436E+01 -0.29400540432E+01  0.59301942120E+02  0.49999996521E+02 0.  0.
         12    1    1    2    0    0 -0.31668163306E+02 -0.22812720436E+01  0.29400540432E+01  0.31886057880E+02  0.00000000000E+00 0. -1.
         11    1    3    3    0    0  0.52643942102E+01  0.24123317500E+01 -0.17530073620E+02  0.18461762436E+02  0.51100000000E-03 0. -1.
        -11    1    3    3    0    0  0.20230055317E+02  0.12662108253E+02  0.10370995005E+02  0.26021945761E+02  0.51100000000E-03 0.  1.
        -12    1    3    3    0    0  0.61737137792E+01 -0.12793167959E+02  0.42190245723E+01  0.14818233923E+02  0.00000000000E+00 0.  1.
</event>
<event>
 7    1  0.4673733E-013  0.5930196E+02  0.7816164E-02  0.1266605E+00
        -11   -1    0    0    0    0  0.00000000000E+00  0.00000000000E+00  0.45593999997E+02  0.45594000000E+02  0.51100000000E-03 0.  1.
         11   -1    0    0    0    0 -0.00000000000E+00 -0.00000000000E+00 -0.45593999997E+02  0.45594000000E+02  0.51100000000E-03 0. -1.
    9900012    2    1    2    0    0  0.15864467098E+02  0.11159887585E+02  0.25308006010E+02  0.59301959553E+02  0.50000028315E+02 0.  0.
         12    1    1    2    0    0 -0.15864467098E+02 -0.11159887585E+02 -0.25308006010E+02  0.31886040447E+02  0.00000000000E+00 0. -1.
         11    1    3    3    0    0  0.11681873721E+02  0.24743949301E+02  0.26853787455E+02  0.38338689356E+02  0.51100000000E-03 0. -1.
        -11    1    3    3    0    0 -0.80515122631E-01 -0.23516735991E+01  0.62251003036E+01  0.66549774945E+01  0.51100000000E-03 0.  1.
         12    1    3    3    0    0  0.42631084996E+01 -0.11232388117E+02 -0.77708817486E+01  0.14308292702E+02  0.00000000000E+00 0. -1.
</event>
<event>
 7    1  0.4673733E-013  0.5930195E+02  0.7816164E-02  0.1266605E+00
        -11   -1    0    0    0    0  0.00000000000E+00  0.00000000000E+00  0.45593999997E+02  0.45594000000E+02  0.51100000000E-03 0. -1.
         11   -1    0    0    0    0 -0.00000000000E+00 -0.00000000000E+00 -0.45593999997E+02  0.45594000000E+02  0.51100000000E-03 0.  1.
    9900012    2    1    2    0    0  0.30216281813E+02 -0.69997675713E+01 -0.73959129226E+01  0.59301953512E+02  0.50000017297E+02 0.  0.
         12    1    1    2    0    0 -0.30216281813E+02  0.69997675713E+01  0.73959129226E+01  0.31886046488E+02  0.00000000000E+00 0. -1.
         11    1    3    3    0    0  0.11366010100E+02  0.47463742739E+01 -0.77478013657E+00  0.12341577649E+02  0.51100000000E-03 0. -1.
        -11    1    3    3    0    0  0.47783123157E+01 -0.17383125718E+02 -0.19868649255E+02  0.26828502601E+02  0.51100000000E-03 0.  1.
        -12    1    3    3    0    0  0.14071959398E+02  0.56369838726E+01  0.13247516469E+02  0.20131873263E+02  0.00000000000E+00 0.  1.
</event>
<event>
 7    1  0.4673733E-013  0.5930194E+02  0.7816164E-02  0.1266605E+00
        -11   -1    0    0    0    0  0.00000000000E+00  0.00000000000E+00  0.45593999997E+02  0.45594000000E+02  0.51100000000E-03 0. -1.
         11   -1    0    0    0    0 -0.00000000000E+00 -0.00000000000E+00 -0.45593999997E+02  0.45594000000E+02  0.51100000000E-03 0.  1.
    9900012    2    1    2    0    0  0.21832935126E+02 -0.23226177193E+02 -0.76708650861E+00  0.59301940587E+02  0.49999993724E+02 0.  0.
         12    1    1    2    0    0 -0.21832935126E+02  0.23226177193E+02  0.76708650861E+00  0.31886059413E+02  0.00000000000E+00 0. -1.
         11    1    3    3    0    0  0.64182240313E+01  0.38179329502E+01  0.10829944561E+02  0.13155147707E+02  0.51100000000E-03 0. -1.
        -11    1    3    3    0    0  0.11183011786E+02 -0.31026125151E+02  0.21744807730E+00  0.32980713734E+02  0.51100000000E-03 0.  1.
         12    1    3    3    0    0  0.42316993088E+01  0.39820150081E+01 -0.11814479147E+02  0.13166079146E+02  0.00000000000E+00 0. -1.
</event>
<event>
 7    1  0.4673733E-013  0.5930188E+02  0.7816164E-02  0.1266605E+00
        -11   -1    0    0    0    0  0.00000000000E+00  0.00000000000E+00  0.45593999997E+02  0.45594000000E+02  0.51100000000E-03 0. -1.
         11   -1    0    0    0    0 -0.00000000000E+00 -0.00000000000E+00 -0.45593999997E+02  0.45594000000E+02  0.51100000000E-03 0.  1.
    9900012    2    1    2    0    0  0.14950374338E+02 -0.27706190484E+02 -0.50574936980E+01  0.59301875643E+02  0.49999875282E+02 0.  0.
         12    1    1    2    0    0 -0.14950374338E+02  0.27706190484E+02  0.50574936980E+01  0.31886124357E+02  0.00000000000E+00 0. -1.
         11    1    3    3    0    0  0.44598503894E+01  0.44288604953E+01  0.19168932453E+01  0.65711148793E+01  0.51100000000E-03 0. -1.
        -11    1    3    3    0    0 -0.75242285897E+01 -0.33679717983E+01 -0.15657864046E+02  0.17695365400E+02  0.51100000000E-03 0.  1.
        -12    1    3    3    0    0  0.18014752539E+02 -0.28767079181E+02  0.86834771028E+01  0.35035395363E+02  0.00000000000E+00 0.  1.
</event>
<event>
 7    1  0.4673733E-013  0.5930183E+02  0.7816164E-02  0.1266605E+00
        -11   -1    0    0    0    0  0.00000000000E+00  0.00000000000E+00  0.45593999997E+02  0.45594000000E+02  0.51100000000E-03 0.  1.
         11   -1    0    0    0    0 -0.00000000000E+00 -0.00000000000E+00 -0.45593999997E+02  0.45594000000E+02  0.51100000000E-03 0. -1.
    9900012    2    1    2    0    0  0.30347791938E+02 -0.97042561964E+01 -0.12517328120E+01  0.59301829034E+02  0.49999790278E+02 0.  0.
         12    1    1    2    0    0 -0.30347791938E+02  0.97042561964E+01  0.12517328120E+01  0.31886170966E+02  0.00000000000E+00 0. -1.
         11    1    3    3    0    0  0.31872314104E+02 -0.15041008877E+02  0.15216319848E+02  0.38387663960E+02  0.51100000000E-03 0.  1.
        -11    1    3    3    0    0 -0.11011107903E+01  0.77069474676E+01 -0.16768650725E+02  0.18487756263E+02  0.51100000000E-03 0. -1.
        -12    1    3    3    0    0 -0.42341137507E+00 -0.23701947867E+01  0.30059806509E+00  0.24264088106E+01  0.00000000000E+00 0.  1.
</event>
<event>
 7    1  0.4673733E-013  0.5930194E+02  0.7816164E-02  0.1266605E+00
        -11   -1    0    0    0    0  0.00000000000E+00  0.00000000000E+00  0.45593999997E+02  0.45594000000E+02  0.51100000000E-03 0. -1.
         11   -1    0    0    0    0 -0.00000000000E+00 -0.00000000000E+00 -0.45593999997E+02  0.45594000000E+02  0.51100000000E-03 0.  1.
    9900012    2    1    2    0    0 -0.18975459771E+02 -0.22898922219E+02 -0.11501820836E+02  0.59301943567E+02  0.49999999159E+02 0.  0.
         12    1    1    2    0    0  0.18975459771E+02  0.22898922219E+02  0.11501820836E+02  0.31886056433E+02  0.00000000000E+00 0. -1.
         11    1    3    3    0    0  0.68741471073E+01 -0.29616459109E+02 -0.20373333431E+01  0.30471942440E+02  0.51100000000E-03 0. -1.
        -11    1    3    3    0    0 -0.96162027776E+01  0.85237649960E-01 -0.44140254073E+01  0.10581221190E+02  0.51100000000E-03 0.  1.
         12    1    3    3    0    0 -0.16233404101E+02  0.66322992401E+01 -0.50504620858E+01  0.18248779937E+02  0.00000000000E+00 0. -1.
</event>
<event>
 7    1  0.4673733E-013  0.5930199E+02  0.7816164E-02  0.1266605E+00
        -11   -1    0    0    0    0  0.00000000000E+00  0.00000000000E+00  0.45593999997E+02  0.45594000000E+02  0.51100000000E-03 0.  1.
         11   -1    0    0    0    0 -0.00000000000E+00 -0.00000000000E+00 -0.45593999997E+02  0.45594000000E+02  0.51100000000E-03 0. -1.
    9900012    2    1    2    0    0 -0.31656954100E+02  0.22988337027E+01 -0.30446788038E+01  0.59301992908E+02  0.50000089145E+02 0.  0.
         12    1    1    2    0    0  0.31656954100E+02 -0.22988337027E+01  0.30446788038E+01  0.31886007092E+02  0.00000000000E+00 0. -1.
         11    1    3    3    0    0 -0.25933135064E+02 -0.19869598179E+02 -0.60751291418E+01  0.33230040933E+02  0.51100000000E-03 0. -1.
        -11    1    3    3    0    0 -0.24859968436E+01  0.74935797979E+01 -0.46836323876E+01  0.91798873140E+01  0.51100000000E-03 0.  1.
         12    1    3    3    0    0 -0.32378221923E+01  0.14674852083E+02  0.77140827257E+01  0.16892064661E+02  0.00000000000E+00 0. -1.
</event>
<event>
 7    1  0.4673733E-013  0.5930196E+02  0.7816164E-02  0.1266605E+00
        -11   -1    0    0    0    0  0.00000000000E+00  0.00000000000E+00  0.45593999997E+02  0.45594000000E+02  0.51100000000E-03 0. -1.
         11   -1    0    0    0    0 -0.00000000000E+00 -0.00000000000E+00 -0.45593999997E+02  0.45594000000E+02  0.51100000000E-03 0.  1.
    9900012    2    1    2    0    0  0.28591561204E+02  0.50173196756E+01 -0.13193514630E+02  0.59301957644E+02  0.50000024833E+02 0.  0.
         12    1    1    2    0    0 -0.28591561204E+02 -0.50173196756E+01  0.13193514630E+02  0.31886042356E+02  0.00000000000E+00 0. -1.
         11    1    3    3    0    0 -0.13026114246E+01 -0.48679830998E+01 -0.22137133315E+02  0.22703451889E+02  0.51100000000E-03 0. -1.
        -11    1    3    3    0    0  0.76194016390E+01  0.10487088683E+02  0.12418922564E+01  0.13022158309E+02  0.51100000000E-03 0.  1.
        -12    1    3    3    0    0  0.22274770990E+02 -0.60178590772E+00  0.77017264288E+01  0.23576347446E+02  0.00000000000E+00 0.  1.
</event>
<event>
 7    1  0.4673733E-013  0.5930194E+02  0.7816164E-02  0.1266605E+00
        -11   -1    0    0    0    0  0.00000000000E+00  0.00000000000E+00  0.45593999997E+02  0.45594000000E+02  0.51100000000E-03 0. -1.
         11   -1    0    0    0    0 -0.00000000000E+00 -0.00000000000E+00 -0.45593999997E+02  0.45594000000E+02  0.51100000000E-03 0.  1.
    9900012    2    1    2    0    0 -0.26256188666E+02  0.12907566494E+02 -0.12677853513E+02  0.59301942142E+02  0.49999996560E+02 0.  0.
         12    1    1    2    0    0  0.26256188666E+02 -0.12907566494E+02  0.12677853513E+02  0.31886057858E+02  0.00000000000E+00 0. -1.
         11    1    3    3    0    0 -0.48190421981E+01  0.43202211358E+01 -0.26760875151E+01  0.70034936295E+01  0.51100000000E-03 0. -1.
        -11    1    3    3    0    0 -0.12280744334E+02 -0.57438324136E+01  0.16160615215E+02  0.21094401546E+02  0.51100000000E-03 0.  1.
        -12    1    3    3    0    0 -0.91564021335E+01  0.14331177772E+02 -0.26162381212E+02  0.31204046966E+02  0.00000000000E+00 0.  1.
</event>
<event>
 7    1  0.4673733E-013  0.5930195E+02  0.7816164E-02  0.1266605E+00
        -11   -1    0    0    0    0  0.00000000000E+00  0.00000000000E+00  0.45593999997E+02  0.45594000000E+02  0.51100000000E-03 0.  1.
         11   -1    0    0    0    0 -0.00000000000E+00 -0.00000000000E+00 -0.45593999997E+02  0.45594000000E+02  0.51100000000E-03 0. -1.
    9900012    2    1    2    0    0 -0.17359624166E+02  0.14579400373E+01  0.26706512349E+02  0.59301953802E+02  0.50000017825E+02 0.  0.
         12    1    1    2    0    0  0.17359624166E+02 -0.14579400373E+01 -0.26706512349E+02  0.31886046198E+02  0.00000000000E+00 0. -1.
         11    1    3    3    0    0 -0.14443470298E+02 -0.15512751168E+02  0.24888037797E+02  0.32690575228E+02  0.51100000000E-03 0. -1.
        -11    1    3    3    0    0  0.73108352895E+01  0.15987854828E+01  0.31078739552E+01  0.81032899758E+01  0.51100000000E-03 0.  1.
         12    1    3    3    0    0 -0.10226989157E+02  0.15371905722E+02 -0.12893994040E+01  0.18508088598E+02  0.00000000000E+00 0. -1.
</event>
<event>
 7    1  0.4673733E-013  0.5930192E+02  0.7816164E-02  0.1266605E+00
        -11   -1    0    0    0    0  0.00000000000E+00  0.00000000000E+00  0.45593999997E+02  0.45594000000E+02  0.51100000000E-03 0.  1.
         11   -1    0    0    0    0 -0.00000000000E+00 -0.00000000000E+00 -0.45593999997E+02  0.45594000000E+02  0.51100000000E-03 0. -1.
    9900012    2    1    2    0    0  0.14451234146E+02 -0.72034035152E+01  0.27495364775E+02  0.59301917226E+02  0.49999951120E+02 0.  0.
         12    1    1    2    0    0 -0.14451234146E+02  0.72034035152E+01 -0.27495364775E+02  0.31886082774E+02  0.00000000000E+00 0. -1.
         11    1    3    3    0    0  0.65272916181E+01  0.71237344414E+01 -0.11081274836E+02  0.14701965192E+02  0.51100000000E-03 0. -1.
        -11    1    3    3    0    0  0.38138759479E+01 -0.16507867834E+02  0.24606082864E+02  0.29874983922E+02  0.51100000000E-03 0.  1.
        -12    1    3    3    0    0  0.41100665801E+01  0.21807298776E+01  0.13970556747E+02  0.14724968112E+02  0.00000000000E+00 0.  1.
</event>
<event>
 7    1  0.4673733E-013  0.5930192E+02  0.7816164E-02  0.1266605E+00
        -11   -1    0    0    0    0  0.00000000000E+00  0.00000000000E+00  0.45593999997E+02  0.45594000000E+02  0.51100000000E-03 0. -1.
         11   -1    0    0    0    0 -0.00000000000E+00 -0.00000000000E+00 -0.45593999997E+02  0.45594000000E+02  0.51100000000E-03 0.  1.
    9900012    2    1    2    0    0  0.14415332508E+02 -0.92343331326E+01  0.26900689493E+02  0.59301924435E+02  0.49999964268E+02 0.  0.
         12    1    1    2    0    0 -0.14415332508E+02  0.92343331326E+01 -0.26900689493E+02  0.31886075565E+02  0.00000000000E+00 0. -1.
         11    1    3    3    0    0  0.15520093520E+02  0.14767707828E+02  0.12589516247E+02  0.24848630082E+02  0.51100000000E-03 0. -1.
        -11    1    3    3    0    0 -0.67200624233E+01 -0.50848288722E+01 -0.22159166881E+01  0.87134958922E+01  0.51100000000E-03 0.  1.
         12    1    3    3    0    0  0.56153014115E+01 -0.18917212088E+02  0.16527089934E+02  0.25739798461E+02  0.00000000000E+00 0. -1.
</event>
<event>
 7    1  0.4673733E-013  0.5930195E+02  0.7816164E-02  0.1266605E+00
        -11   -1    0    0    0    0  0.00000000000E+00  0.00000000000E+00  0.45593999997E+02  0.45594000000E+02  0.51100000000E-03 0.  1.
         11   -1    0    0    0    0 -0.00000000000E+00 -0.00000000000E+00 -0.45593999997E+02  0.45594000000E+02  0.51100000000E-03 0. -1.
    9900012    2    1    2    0    0 -0.25618691342E+02 -0.15515792784E+02 -0.10939066025E+02  0.59301947606E+02  0.50000006526E+02 0.  0.
         12    1    1    2    0    0  0.25618691342E+02  0.15515792784E+02  0.10939066025E+02  0.31886052394E+02  0.00000000000E+00 0. -1.
         11    1    3    3    0    0 -0.73139119298E+01  0.16685961802E+02 -0.19340295668E+01  0.18320892435E+02  0.51100000000E-03 0. -1.
        -11    1    3    3    0    0 -0.56384407942E+01 -0.53937843729E+01  0.38065065723E+01  0.86818441012E+01  0.51100000000E-03 0.  1.
         12    1    3    3    0    0 -0.12666338618E+02 -0.26807970213E+02 -0.12811543030E+02  0.32299211070E+02  0.00000000000E+00 0. -1.
</event>
<event>
 7    1  0.4673733E-013  0.5930193E+02  0.7816164E-02  0.1266605E+00
        -11   -1    0    0    0    0  0.00000000000E+00  0.00000000000E+00  0.45593999997E+02  0.45594000000E+02  0.51100000000E-03 0.  1.
         11   -1    0    0    0    0 -0.00000000000E+00 -0.00000000000E+00 -0.45593999997E+02  0.45594000000E+02  0.51100000000E-03 0. -1.
    9900012    2    1    2    0    0 -0.29268998136E+02 -0.78766843629E+00  0.12626430198E+02  0.59301930738E+02  0.49999975762E+02 0.  0.
         12    1    1    2    0    0  0.29268998136E+02  0.78766843629E+00 -0.12626430198E+02  0.31886069262E+02  0.00000000000E+00 0. -1.
         11    1    3    3    0    0  0.10056496572E+02 -0.35046894233E+01 -0.33805941718E+01  0.11173378562E+02  0.51100000000E-03 0. -1.
        -11    1    3    3    0    0 -0.11581692635E+02 -0.79253239765E+01 -0.67720922317E+00  0.14050088150E+02  0.51100000000E-03 0.  1.
         12    1    3    3    0    0 -0.27743802073E+02  0.10642344964E+02  0.16684233593E+02  0.34078464026E+02  0.00000000000E+00 0. -1.
</event>
<event>
 7    1  0.4673733E-013  0.5930194E+02  0.7816164E-02  0.1266605E+00
        -11   -1    0    0    0    0  0.00000000000E+00  0.00000000000E+00  0.45593999997E+02  0.45594000000E+02  0.51100000000E-03 0. -1.
         11   -1    0    0    0    0 -0.00000000000E+00 -0.00000000000E+00 -0.45593999997E+02  0.45594000000E+02  0.51100000000E-03 0.  1.
    9900012    2    1    2    0    0  0.16617471636E+02  0.26986879967E+02 -0.35055338349E+01  0.59301940015E+02  0.49999992681E+02 0.  0.
         12    1    1    2    0    0 -0.16617471636E+02 -0.26986879967E+02  0.35055338349E+01  0.31886059985E+02  0.00000000000E+00 0. -1.
         11    1    3    3    0    0 -0.58153816619E+01  0.64050972392E+01  0.16190795829E+02  0.18357173103E+02  0.51100000000E-03 0. -1.
        -11    1    3    3    0    0  0.95679703876E+01  0.18505489990E+02 -0.18495394916E+02  0.27858191802E+02  0.51100000000E-03 0.  1.
         12    1    3    3    0    0  0.12864882910E+02  0.20762927378E+01 -0.12009347470E+01  0.13086575109E+02  0.00000000000E+00 0. -1.
</event>
<event>
 7    1  0.4673733E-013  0.5930194E+02  0.7816164E-02  0.1266605E+00
        -11   -1    0    0    0    0  0.00000000000E+00  0.00000000000E+00  0.45593999997E+02  0.45594000000E+02  0.51100000000E-03 0.  1.
         11   -1    0    0    0    0 -0.00000000000E+00 -0.00000000000E+00 -0.45593999997E+02  0.45594000000E+02  0.51100000000E-03 0. -1.
    9900012    2    1    2    0    0 -0.85760297349E+01  0.20414345489E+02  0.22943996616E+02  0.59301940845E+02  0.49999994195E+02 0.  0.
         12    1    1    2    0    0  0.85760297349E+01 -0.20414345489E+02 -0.22943996616E+02  0.31886059155E+02  0.00000000000E+00 0. -1.
         11    1    3    3    0    0  0.40453943085E+01 -0.67191524185E+01  0.15295877860E+02  0.17189418376E+02  0.51100000000E-03 0. -1.
        -11    1    3    3    0    0 -0.18251447968E+02  0.24456488624E+02  0.13676249706E+02  0.33440618939E+02  0.51100000000E-03 0.  1.
         12    1    3    3    0    0  0.56300239245E+01  0.26770092830E+01 -0.60281309498E+01  0.86719035303E+01  0.00000000000E+00 0. -1.
</event>
<event>
 7    1  0.4673733E-013  0.5930192E+02  0.7816164E-02  0.1266605E+00
        -11   -1    0    0    0    0  0.00000000000E+00  0.00000000000E+00  0.45593999997E+02  0.45594000000E+02  0.51100000000E-03 0. -1.
         11   -1    0    0    0    0 -0.00000000000E+00 -0.00000000000E+00 -0.45593999997E+02  0.45594000000E+02  0.51100000000E-03 0.  1.
    9900012    2    1    2    0    0  0.22544569609E+02  0.18900951493E+02  0.12297087148E+02  0.59301922496E+02  0.49999960732E+02 0.  0.
         12    1    1    2    0    0 -0.22544569609E+02 -0.18900951493E+02 -0.12297087148E+02  0.31886077504E+02  0.00000000000E+00 0. -1.
         11    1    3    3    0    0  0.84580314461E+01  0.86883335974E+01  0.20602547076E+02  0.23905865032E+02  0.51100000000E-03 0. -1.
        -11    1    3    3    0    0  0.16348998526E+02  0.19087412289E+02 -0.47814401160E+01  0.25582830776E+02  0.51100000000E-03 0.  1.
         12    1    3    3    0    0 -0.22624603623E+01 -0.88747943928E+01 -0.35240198118E+01  0.98132266885E+01  0.00000000000E+00 0. -1.
</event>
<event>
 7    1  0.4673733E-013  0.5930194E+02  0.7816164E-02  0.1266605E+00
        -11   -1    0    0    0    0  0.00000000000E+00  0.00000000000E+00  0.45593999997E+02  0.45594000000E+02  0.51100000000E-03 0. -1.
         11   -1    0    0    0    0 -0.00000000000E+00 -0.00000000000E+00 -0.45593999997E+02  0.45594000000E+02  0.51100000000E-03 0.  1.
    9900012    2    1    2    0    0  0.29615326905E+02 -0.62653815020E+01  0.10019884255E+02  0.59301942333E+02  0.49999996910E+02 0.  0.
         12    1    1    2    0    0 -0.29615326905E+02  0.62653815020E+01 -0.10019884255E+02  0.31886057667E+02  0.00000000000E+00 0. -1.
         11    1    3    3    0    0  0.67039296339E+00 -0.11495534772E+02 -0.13463126120E+01  0.11593502677E+02  0.51100000000E-03 0. -1.
        -11    1    3    3    0    0  0.29989444059E+02 -0.22229850692E+01 -0.42526654168E+01  0.30370933160E+02  0.51100000000E-03 0.  1.
        -12    1    3    3    0    0 -0.10445101175E+01  0.74531383389E+01  0.15618862284E+02  0.17337506497E+02  0.00000000000E+00 0.  1.
</event>
<event>
 7    1  0.4673733E-013  0.5930194E+02  0.7816164E-02  0.1266605E+00
        -11   -1    0    0    0    0  0.00000000000E+00  0.00000000000E+00  0.45593999997E+02  0.45594000000E+02  0.51100000000E-03 0. -1.
         11   -1    0    0    0    0 -0.00000000000E+00 -0.00000000000E+00 -0.45593999997E+02  0.45594000000E+02  0.51100000000E-03 0.  1.
    9900012    2    1    2    0    0  0.24904496789E+02  0.19366067760E+02 -0.46305930628E+01  0.59301938266E+02  0.49999989492E+02 0.  0.
         12    1    1    2    0    0 -0.24904496789E+02 -0.19366067760E+02  0.46305930628E+01  0.31886061734E+02  0.00000000000E+00 0. -1.
         11    1    3    3    0    0  0.13744142322E+02 -0.39867549098E+01 -0.25805163069E+01  0.14541482990E+02  0.51100000000E-03 0. -1.
        -11    1    3    3    0    0  0.96723976328E+01  0.33209756885E+02 -0.32156568198E-01  0.34589655428E+02  0.51100000000E-03 0.  1.
        -12    1    3    3    0    0  0.14879568344E+01 -0.98569342156E+01 -0.20179201877E+01  0.10170799848E+02  0.00000000000E+00 0.  1.
</event>
<event>
 7    1  0.4673733E-013  0.5930195E+02  0.7816164E-02  0.1266605E+00
        -11   -1    0    0    0    0  0.00000000000E+00  0.00000000000E+00  0.45593999997E+02  0.45594000000E+02  0.51100000000E-03 0. -1.
         11   -1    0    0    0    0 -0.00000000000E+00 -0.00000000000E+00 -0.45593999997E+02  0.45594000000E+02  0.51100000000E-03 0.  1.
    9900012    2    1    2    0    0 -0.32357030419E+01  0.11720876495E+02 -0.29476623293E+02  0.59301952256E+02  0.50000015006E+02 0.  0.
         12    1    1    2    0    0  0.32357030419E+01 -0.11720876495E+02  0.29476623293E+02  0.31886047744E+02  0.00000000000E+00 0. -1.
         11    1    3    3    0    0 -0.15912224838E+02 -0.39663041612E+01 -0.30056638938E+02  0.34239334288E+02  0.51100000000E-03 0. -1.
        -11    1    3    3    0    0  0.61053153508E+01  0.20261112895E+01 -0.57564141570E+01  0.86322828208E+01  0.51100000000E-03 0.  1.
         12    1    3    3    0    0  0.65712064449E+01  0.13661069367E+02  0.63364298026E+01  0.16430335147E+02  0.00000000000E+00 0. -1.
</event>
<event>
 7    1  0.4673733E-013  0.5930197E+02  0.7816164E-02  0.1266605E+00
        -11   -1    0    0    0    0  0.00000000000E+00  0.00000000000E+00  0.45593999997E+02  0.45594000000E+02  0.51100000000E-03 0. -1.
         11   -1    0    0    0    0 -0.00000000000E+00 -0.00000000000E+00 -0.45593999997E+02  0.45594000000E+02  0.51100000000E-03 0.  1.
    9900012    2    1    2    0    0 -0.24520494644E+02 -0.18562680086E+02  0.84196831422E+01  0.59301971496E+02  0.50000050096E+02 0.  0.
         12    1    1    2    0    0  0.24520494644E+02  0.18562680086E+02 -0.84196831422E+01  0.31886028504E+02  0.00000000000E+00 0. -1.
         11    1    3    3    0    0  0.65529734325E+01 -0.15884112944E+02 -0.68360065923E+01  0.18492633431E+02  0.51100000000E-03 0. -1.
        -11    1    3    3    0    0 -0.94606793773E+01  0.71389299999E+01  0.11970147100E+02  0.16844975444E+02  0.51100000000E-03 0.  1.
        -12    1    3    3    0    0 -0.21612788699E+02 -0.98174971421E+01  0.32855426340E+01  0.23964362622E+02  0.00000000000E+00 0.  1.
</event>
<event>
 7    1  0.4673733E-013  0.5930194E+02  0.7816164E-02  0.1266605E+00
        -11   -1    0    0    0    0  0.00000000000E+00  0.00000000000E+00  0.45593999997E+02  0.45594000000E+02  0.51100000000E-03 0. -1.
         11   -1    0    0    0    0 -0.00000000000E+00 -0.00000000000E+00 -0.45593999997E+02  0.45594000000E+02  0.51100000000E-03 0.  1.
    9900012    2    1    2    0    0 -0.12340935250E+02 -0.71565360239E+01 -0.28516767929E+02  0.59301941231E+02  0.49999994899E+02 0.  0.
         12    1    1    2    0    0  0.12340935250E+02  0.71565360239E+01  0.28516767929E+02  0.31886058769E+02  0.00000000000E+00 0. -1.
         11    1    3    3    0    0  0.10269638814E+02 -0.97693234778E+01 -0.17458800905E+02  0.22488105564E+02  0.51100000000E-03 0.  1.
        -11    1    3    3    0    0 -0.14281556398E+02 -0.18766399209E+01  0.73092555848E+01  0.16152704046E+02  0.51100000000E-03 0. -1.
        -12    1    3    3    0    0 -0.83290176662E+01  0.44894273748E+01 -0.18367222610E+02  0.20661131620E+02  0.00000000000E+00 0.  1.
</event>
<event>
 7    1  0.4673733E-013  0.5930225E+02  0.7816164E-02  0.1266604E+00
        -11   -1    0    0    0    0  0.00000000000E+00  0.00000000000E+00  0.45593999997E+02  0.45594000000E+02  0.51100000000E-03 0.  1.
         11   -1    0    0    0    0 -0.00000000000E+00 -0.00000000000E+00 -0.45593999997E+02  0.45594000000E+02  0.51100000000E-03 0. -1.
    9900012    2    1    2    0    0  0.21975545230E+02 -0.21222730008E+02 -0.91308281593E+01  0.59302252713E+02  0.50000562965E+02 0.  0.
         12    1    1    2    0    0 -0.21975545230E+02  0.21222730008E+02  0.91308281593E+01  0.31885747287E+02  0.00000000000E+00 0. -1.
         11    1    3    3    0    0 -0.86188046553E+01  0.19104311050E+01 -0.98827387416E+01  0.13251492972E+02  0.51100000000E-03 0. -1.
        -11    1    3    3    0    0  0.28273594545E+02 -0.18016291124E+02  0.10213137766E+02  0.35046983859E+02  0.51100000000E-03 0.  1.
        -12    1    3    3    0    0  0.23207553410E+01 -0.51168699887E+01 -0.94612271837E+01  0.11003775882E+02  0.00000000000E+00 0.  1.
</event>
<event>
 7    1  0.4673733E-013  0.5930195E+02  0.7816164E-02  0.1266605E+00
        -11   -1    0    0    0    0  0.00000000000E+00  0.00000000000E+00  0.45593999997E+02  0.45594000000E+02  0.51100000000E-03 0.  1.
         11   -1    0    0    0    0 -0.00000000000E+00 -0.00000000000E+00 -0.45593999997E+02  0.45594000000E+02  0.51100000000E-03 0. -1.
    9900012    2    1    2    0    0  0.30825932172E+02 -0.75239064494E+01  0.31421549287E+01  0.59301946620E+02  0.50000004728E+02 0.  0.
         12    1    1    2    0    0 -0.30825932172E+02  0.75239064494E+01 -0.31421549287E+01  0.31886053380E+02  0.00000000000E+00 0. -1.
         11    1    3    3    0    0  0.34172703560E+02  0.80651194683E+01 -0.54999584748E+01  0.35539687170E+02  0.51100000000E-03 0. -1.
        -11    1    3    3    0    0 -0.29422569639E+01 -0.11581570276E+02  0.13115483148E+02  0.17742760342E+02  0.51100000000E-03 0.  1.
         12    1    3    3    0    0 -0.40451442349E+00 -0.40074556417E+01 -0.44733697446E+01  0.60194991080E+01  0.00000000000E+00 0. -1.
</event>
<event>
 7    1  0.4673733E-013  0.5930193E+02  0.7816164E-02  0.1266605E+00
        -11   -1    0    0    0    0  0.00000000000E+00  0.00000000000E+00  0.45593999997E+02  0.45594000000E+02  0.51100000000E-03 0.  1.
         11   -1    0    0    0    0 -0.00000000000E+00 -0.00000000000E+00 -0.45593999997E+02  0.45594000000E+02  0.51100000000E-03 0. -1.
    9900012    2    1    2    0    0  0.30544284818E+02 -0.18209081190E+01  0.89695449613E+01  0.59301925010E+02  0.49999965316E+02 0.  0.
         12    1    1    2    0    0 -0.30544284818E+02  0.18209081190E+01 -0.89695449613E+01  0.31886074990E+02  0.00000000000E+00 0. -1.
         11    1    3    3    0    0 -0.36959680602E+01 -0.15261804539E+02  0.12172813192E+02  0.19868574155E+02  0.51100000000E-03 0. -1.
        -11    1    3    3    0    0  0.18000274201E+02  0.13683295210E+02 -0.47957880945E+01  0.23113676100E+02  0.51100000000E-03 0.  1.
         12    1    3    3    0    0  0.16239978677E+02 -0.24239879050E+00  0.15925198643E+01  0.16319674756E+02  0.00000000000E+00 0. -1.
</event>
<event>
 7    1  0.4673733E-013  0.5930193E+02  0.7816164E-02  0.1266605E+00
        -11   -1    0    0    0    0  0.00000000000E+00  0.00000000000E+00  0.45593999997E+02  0.45594000000E+02  0.51100000000E-03 0.  1.
         11   -1    0    0    0    0 -0.00000000000E+00 -0.00000000000E+00 -0.45593999997E+02  0.45594000000E+02  0.51100000000E-03 0. -1.
    9900012    2    1    2    0    0 -0.41586508938E+01 -0.81118507020E+01  0.30555276541E+02  0.59301930572E+02  0.49999975460E+02 0.  0.
         12    1    1    2    0    0  0.41586508938E+01  0.81118507020E+01 -0.30555276541E+02  0.31886069428E+02  0.00000000000E+00 0. -1.
         11    1    3    3    0    0 -0.53257839422E+00 -0.95164304031E+01 -0.59400163308E+01  0.11230756058E+02  0.51100000000E-03 0. -1.
        -11    1    3    3    0    0 -0.69783340188E+01 -0.14444338552E+01  0.41093817255E+02  0.41707137899E+02  0.51100000000E-03 0.  1.
        -12    1    3    3    0    0  0.33522615192E+01  0.28490135563E+01 -0.45985243835E+01  0.63640366155E+01  0.00000000000E+00 0.  1.
</event>
<event>
 7    1  0.4673733E-013  0.5930194E+02  0.7816164E-02  0.1266605E+00
        -11   -1    0    0    0    0  0.00000000000E+00  0.00000000000E+00  0.45593999997E+02  0.45594000000E+02  0.51100000000E-03 0.  1.
         11   -1    0    0    0    0 -0.00000000000E+00 -0.00000000000E+00 -0.45593999997E+02  0.45594000000E+02  0.51100000000E-03 0. -1.
    9900012    2    1    2    0    0  0.23353234771E+02  0.19779298940E+01  0.21620240619E+02  0.59301943716E+02  0.49999999431E+02 0.  0.
         12    1    1    2    0    0 -0.23353234771E+02 -0.19779298940E+01 -0.21620240619E+02  0.31886056284E+02  0.00000000000E+00 0. -1.
         11    1    3    3    0    0 -0.30166732150E+01  0.10761048687E+02 -0.85328913168E+01  0.14060964427E+02  0.51100000000E-03 0. -1.
        -11    1    3    3    0    0  0.17012243065E+02 -0.73984940364E+01  0.30585144869E+02  0.35771569927E+02  0.51100000000E-03 0.  1.
        -12    1    3    3    0    0  0.93576649205E+01 -0.13846247567E+01 -0.43201293369E+00  0.94694093615E+01  0.00000000000E+00 0.  1.
</event>
<event>
 7    1  0.4673733E-013  0.5930194E+02  0.7816164E-02  0.1266605E+00
        -11   -1    0    0    0    0  0.00000000000E+00  0.00000000000E+00  0.45593999997E+02  0.45594000000E+02  0.51100000000E-03 0.  1.
         11   -1    0    0    0    0 -0.00000000000E+00 -0.00000000000E+00 -0.45593999997E+02  0.45594000000E+02  0.51100000000E-03 0. -1.
    9900012    2    1    2    0    0  0.14870390251E+01 -0.20225699718E+02 -0.24605500297E+02  0.59301939425E+02  0.49999991606E+02 0.  0.
         12    1    1    2    0    0 -0.14870390251E+01  0.20225699718E+02  0.24605500297E+02  0.31886060575E+02  0.00000000000E+00 0. -1.
         11    1    3    3    0    0 -0.10523604086E+00  0.40573529474E+01 -0.30434279971E+01  0.50730308296E+01  0.51100000000E-03 0. -1.
        -11    1    3    3    0    0 -0.19827183248E+02 -0.13643095777E+02 -0.36376153236E+01  0.24340984028E+02  0.51100000000E-03 0.  1.
        -12    1    3    3    0    0  0.21419458314E+02 -0.10639956888E+02 -0.17924456976E+02  0.29887924567E+02  0.00000000000E+00 0.  1.
</event>
<event>
 7    1  0.4673733E-013  0.5930199E+02  0.7816164E-02  0.1266605E+00
        -11   -1    0    0    0    0  0.00000000000E+00  0.00000000000E+00  0.45593999997E+02  0.45594000000E+02  0.51100000000E-03 0. -1.
         11   -1    0    0    0    0 -0.00000000000E+00 -0.00000000000E+00 -0.45593999997E+02  0.45594000000E+02  0.51100000000E-03 0.  1.
    9900012    2    1    2    0    0 -0.45765294899E+01  0.26780982566E+02 -0.16689885392E+02  0.59301985452E+02  0.50000075548E+02 0.  0.
         12    1    1    2    0    0  0.45765294899E+01 -0.26780982566E+02  0.16689885392E+02  0.31886014548E+02  0.00000000000E+00 0. -1.
         11    1    3    3    0    0 -0.14687600825E+02  0.88970001353E+01 -0.11480751845E+02  0.20656473382E+02  0.51100000000E-03 0.  1.
        -11    1    3    3    0    0  0.16645492902E+02 -0.25480848825E+01 -0.24822132523E+01  0.17021355804E+02  0.51100000000E-03 0. -1.
        -12    1    3    3    0    0 -0.65344215669E+01  0.20432067313E+02 -0.27269202951E+01  0.21624156265E+02  0.00000000000E+00 0.  1.
</event>
<event>
 7    1  0.4673733E-013  0.5930202E+02  0.7816164E-02  0.1266604E+00
        -11   -1    0    0    0    0  0.00000000000E+00  0.00000000000E+00  0.45593999997E+02  0.45594000000E+02  0.51100000000E-03 0.  1.
         11   -1    0    0    0    0 -0.00000000000E+00 -0.00000000000E+00 -0.45593999997E+02  0.45594000000E+02  0.51100000000E-03 0. -1.
    9900012    2    1    2    0    0  0.17269575923E+02  0.26760577904E+02 -0.15325758778E+01  0.59302022344E+02  0.50000142829E+02 0.  0.
         12    1    1    2    0    0 -0.17269575923E+02 -0.26760577904E+02  0.15325758778E+01  0.31885977656E+02  0.00000000000E+00 0. -1.
         11    1    3    3    0    0  0.32696440706E+01  0.24966955128E+02 -0.10144008463E+02  0.27146644888E+02  0.51100000000E-03 0. -1.
        -11    1    3    3    0    0  0.16971000984E+02 -0.77155895444E+01  0.11346733657E+02  0.21824150874E+02  0.51100000000E-03 0.  1.
        -12    1    3    3    0    0 -0.29710691321E+01  0.95092123203E+01 -0.27353010720E+01  0.10331226582E+02  0.00000000000E+00 0.  1.
</event>
<event>
 7    1  0.4673733E-013  0.5930194E+02  0.7816164E-02  0.1266605E+00
        -11   -1    0    0    0    0  0.00000000000E+00  0.00000000000E+00  0.45593999997E+02  0.45594000000E+02  0.51100000000E-03 0.  1.
         11   -1    0    0    0    0 -0.00000000000E+00 -0.00000000000E+00 -0.45593999997E+02  0.45594000000E+02  0.51100000000E-03 0. -1.
    9900012    2    1    2    0    0  0.72930842460E+00 -0.43328546155E+01  0.31581878754E+02  0.59301943713E+02  0.49999999427E+02 0.  0.
         12    1    1    2    0    0 -0.72930842460E+00  0.43328546155E+01 -0.31581878754E+02  0.31886056287E+02  0.00000000000E+00 0. -1.
         11    1    3    3    0    0  0.64177694283E+01  0.13717991332E+02  0.35625877030E+02  0.38711421635E+02  0.51100000000E-03 0. -1.
        -11    1    3    3    0    0 -0.56187952246E+01 -0.13932178931E+02 -0.30228941692E+00  0.15025573157E+02  0.51100000000E-03 0.  1.
         12    1    3    3    0    0 -0.69665779167E-01 -0.41186670162E+01 -0.37417088593E+01  0.55649489215E+01  0.00000000000E+00 0. -1.
</event>
<event>
 7    1  0.4673733E-013  0.5930194E+02  0.7816164E-02  0.1266605E+00
        -11   -1    0    0    0    0  0.00000000000E+00  0.00000000000E+00  0.45593999997E+02  0.45594000000E+02  0.51100000000E-03 0. -1.
         11   -1    0    0    0    0 -0.00000000000E+00 -0.00000000000E+00 -0.45593999997E+02  0.45594000000E+02  0.51100000000E-03 0.  1.
    9900012    2    1    2    0    0  0.20160046760E+02 -0.16954136671E+02 -0.17968037073E+02  0.59301943613E+02  0.49999999244E+02 0.  0.
         12    1    1    2    0    0 -0.20160046760E+02  0.16954136671E+02  0.17968037073E+02  0.31886056387E+02  0.00000000000E+00 0. -1.
         11    1    3    3    0    0  0.54226516744E+00 -0.31613180505E+01  0.81193742654E+01  0.87299611712E+01  0.51100000000E-03 0. -1.
        -11    1    3    3    0    0  0.60893969428E+01 -0.77187347721E+01 -0.32838128579E+02  0.34278306703E+02  0.51100000000E-03 0.  1.
        -12    1    3    3    0    0  0.13528384650E+02 -0.60740838487E+01  0.67507172402E+01  0.16293675739E+02  0.00000000000E+00 0.  1.
</event>
<event>
 7    1  0.4673733E-013  0.5930196E+02  0.7816164E-02  0.1266605E+00
        -11   -1    0    0    0    0  0.00000000000E+00  0.00000000000E+00  0.45593999997E+02  0.45594000000E+02  0.51100000000E-03 0.  1.
         11   -1    0    0    0    0 -0.00000000000E+00 -0.00000000000E+00 -0.45593999997E+02  0.45594000000E+02  0.51100000000E-03 0. -1.
    9900012    2    1    2    0    0 -0.17634861435E+01 -0.31092806109E+02  0.68444716605E+01  0.59301964382E+02  0.50000037122E+02 0.  0.
         12    1    1    2    0    0  0.17634861435E+01  0.31092806109E+02 -0.68444716605E+01  0.31886035618E+02  0.00000000000E+00 0. -1.
         11    1    3    3    0    0  0.14567415754E+02  0.64231600630E+01 -0.29299541100E+01  0.16187996118E+02  0.51100000000E-03 0. -1.
        -11    1    3    3    0    0 -0.38652180647E+01 -0.16110315059E+02  0.76612727014E+01  0.18253143884E+02  0.51100000000E-03 0.  1.
         12    1    3    3    0    0 -0.12465683833E+02 -0.21405651113E+02  0.21131530691E+01  0.24860824381E+02  0.00000000000E+00 0. -1.
</event>
<event>
 7    1  0.4673733E-013  0.5930197E+02  0.7816164E-02  0.1266605E+00
        -11   -1    0    0    0    0  0.00000000000E+00  0.00000000000E+00  0.45593999997E+02  0.45594000000E+02  0.51100000000E-03 0. -1.
         11   -1    0    0    0    0 -0.00000000000E+00 -0.00000000000E+00 -0.45593999997E+02  0.45594000000E+02  0.51100000000E-03 0.  1.
    9900012    2    1    2    0    0  0.94520988882E+00  0.23952822886E+02 -0.21025889410E+02  0.59301965887E+02  0.50000039866E+02 0.  0.
         12    1    1    2    0    0 -0.94520988882E+00 -0.23952822886E+02  0.21025889410E+02  0.31886034113E+02  0.00000000000E+00 0. -1.
         11    1    3    3    0    0 -0.24277759988E+01 -0.36992164406E+00  0.20318675637E+01  0.31873851949E+01  0.51100000000E-03 0. -1.
        -11    1    3    3    0    0 -0.11108494683E+02  0.47431210097E+01 -0.28681002888E+02  0.31120664806E+02  0.51100000000E-03 0.  1.
        -12    1    3    3    0    0  0.14481480571E+02  0.19579623520E+02  0.56232459141E+01  0.24993915886E+02  0.00000000000E+00 0.  1.
</event>
<event>
 7    1  0.4673733E-013  0.5930196E+02  0.7816164E-02  0.1266605E+00
        -11   -1    0    0    0    0  0.00000000000E+00  0.00000000000E+00  0.45593999997E+02  0.45594000000E+02  0.51100000000E-03 0.  1.
         11   -1    0    0    0    0 -0.00000000000E+00 -0.00000000000E+00 -0.45593999997E+02  0.45594000000E+02  0.51100000000E-03 0. -1.
    9900012    2    1    2    0    0  0.20578315526E+02  0.23331191722E+02  0.69934015761E+01  0.59301964770E+02  0.50000037829E+02 0.  0.
         12    1    1    2    0    0 -0.20578315526E+02 -0.23331191722E+02 -0.69934015761E+01  0.31886035230E+02  0.00000000000E+00 0. -1.
         11    1    3    3    0    0  0.17624300688E+02 -0.73242637305E+01 -0.45144704288E+01  0.19612273133E+02  0.51100000000E-03 0. -1.
        -11    1    3    3    0    0 -0.71196568488E+01  0.20819970743E+02  0.82949308360E+00  0.22019281423E+02  0.51100000000E-03 0.  1.
         12    1    3    3    0    0  0.10073671687E+02  0.98354847098E+01  0.10678378921E+02  0.17670410214E+02  0.00000000000E+00 0. -1.
</event>
<event>
 7    1  0.4673733E-013  0.5930196E+02  0.7816164E-02  0.1266605E+00
        -11   -1    0    0    0    0  0.00000000000E+00  0.00000000000E+00  0.45593999997E+02  0.45594000000E+02  0.51100000000E-03 0.  1.
         11   -1    0    0    0    0 -0.00000000000E+00 -0.00000000000E+00 -0.45593999997E+02  0.45594000000E+02  0.51100000000E-03 0. -1.
    9900012    2    1    2    0    0  0.26831519115E+02  0.49824659956E+01  0.16491327951E+02  0.59301964137E+02  0.50000036675E+02 0.  0.
         12    1    1    2    0    0 -0.26831519115E+02 -0.49824659956E+01 -0.16491327951E+02  0.31886035863E+02  0.00000000000E+00 0. -1.
         11    1    3    3    0    0  0.31913218094E+01  0.16733258752E+01  0.28580522352E+00  0.36147253371E+01  0.51100000000E-03 0. -1.
        -11    1    3    3    0    0 -0.14280154119E+02  0.24574045712E+01  0.12811820287E+00  0.14490619498E+02  0.51100000000E-03 0.  1.
        -12    1    3    3    0    0  0.37920351425E+02  0.85173554920E+00  0.16077404525E+02  0.41196619302E+02  0.00000000000E+00 0.  1.
</event>
<event>
 7    1  0.4673733E-013  0.5930195E+02  0.7816164E-02  0.1266605E+00
        -11   -1    0    0    0    0  0.00000000000E+00  0.00000000000E+00  0.45593999997E+02  0.45594000000E+02  0.51100000000E-03 0.  1.
         11   -1    0    0    0    0 -0.00000000000E+00 -0.00000000000E+00 -0.45593999997E+02  0.45594000000E+02  0.51100000000E-03 0. -1.
    9900012    2    1    2    0    0 -0.15332889739E+02  0.11415586315E+02  0.25520713861E+02  0.59301953606E+02  0.50000017468E+02 0.  0.
         12    1    1    2    0    0  0.15332889739E+02 -0.11415586315E+02 -0.25520713861E+02  0.31886046394E+02  0.00000000000E+00 0. -1.
         11    1    3    3    0    0 -0.16269351013E+02  0.14082556431E+02  0.88923053567E+01  0.23282681822E+02  0.51100000000E-03 0. -1.
        -11    1    3    3    0    0  0.13870016802E+02 -0.11028914066E+01  0.18186629630E+02  0.22898629502E+02  0.51100000000E-03 0.  1.
        -12    1    3    3    0    0 -0.12933555528E+02 -0.15640787095E+01 -0.15582211253E+01  0.13120642281E+02  0.00000000000E+00 0.  1.
</event>
<event>
 7    1  0.4673733E-013  0.5930174E+02  0.7816164E-02  0.1266605E+00
        -11   -1    0    0    0    0  0.00000000000E+00  0.00000000000E+00  0.45593999997E+02  0.45594000000E+02  0.51100000000E-03 0.  1.
         11   -1    0    0    0    0 -0.00000000000E+00 -0.00000000000E+00 -0.45593999997E+02  0.45594000000E+02  0.51100000000E-03 0. -1.
    9900012    2    1    2    0    0 -0.22103235737E+02 -0.22278315447E+02 -0.56442059149E+01  0.59301742308E+02  0.49999632110E+02 0.  0.
         12    1    1    2    0    0  0.22103235737E+02  0.22278315447E+02  0.56442059149E+01  0.31886257692E+02  0.00000000000E+00 0. -1.
         11    1    3    3    0    0  0.52935383212E+01  0.75399494861E+01 -0.11776141403E+02  0.14951584960E+02  0.51100000000E-03 0. -1.
        -11    1    3    3    0    0 -0.11595437921E+02 -0.24866988705E+01 -0.12599760802E+01  0.11925828769E+02  0.51100000000E-03 0.  1.
         12    1    3    3    0    0 -0.15801336137E+02 -0.27331566063E+02  0.73919115681E+01  0.32424328579E+02  0.00000000000E+00 0. -1.
</event>
<event>
 7    1  0.4673733E-013  0.5930195E+02  0.7816164E-02  0.1266605E+00
        -11   -1    0    0    0    0  0.00000000000E+00  0.00000000000E+00  0.45593999997E+02  0.45594000000E+02  0.51100000000E-03 0. -1.
         11   -1    0    0    0    0 -0.00000000000E+00 -0.00000000000E+00 -0.45593999997E+02  0.45594000000E+02  0.51100000000E-03 0.  1.
    9900012    2    1    2    0    0  0.15801191439E+02 -0.18116974478E+01 -0.27636214595E+02  0.59301948885E+02  0.50000008859E+02 0.  0.
         12    1    1    2    0    0 -0.15801191439E+02  0.18116974478E+01  0.27636214595E+02  0.31886051115E+02  0.00000000000E+00 0. -1.
         11    1    3    3    0    0  0.39893422421E+01  0.43656006931E+01 -0.38491732953E+02  0.38943379758E+02  0.51100000000E-03 0.  1.
        -11    1    3    3    0    0  0.12139479174E+02 -0.78100803641E+01  0.11615592324E+02  0.18527986809E+02  0.51100000000E-03 0. -1.
         12    1    3    3    0    0 -0.32762997686E+00  0.16327822232E+01 -0.76007396644E+00  0.18305823184E+01  0.00000000000E+00 0. -1.
</event>
<event>
 7    1  0.4673733E-013  0.5930195E+02  0.7816164E-02  0.1266605E+00
        -11   -1    0    0    0    0  0.00000000000E+00  0.00000000000E+00  0.45593999997E+02  0.45594000000E+02  0.51100000000E-03 0.  1.
         11   -1    0    0    0    0 -0.00000000000E+00 -0.00000000000E+00 -0.45593999997E+02  0.45594000000E+02  0.51100000000E-03 0. -1.
    9900012    2    1    2    0    0 -0.12242556406E+02  0.22213715329E+02  0.19323319587E+02  0.59301952645E+02  0.50000015716E+02 0.  0.
         12    1    1    2    0    0  0.12242556406E+02 -0.22213715329E+02 -0.19323319587E+02  0.31886047355E+02  0.00000000000E+00 0. -1.
         11    1    3    3    0    0 -0.68807971590E+01  0.36255233360E+02  0.10933716472E+02  0.38488095194E+02  0.51100000000E-03 0. -1.
        -11    1    3    3    0    0 -0.16587977837E+01 -0.11179020276E+02  0.10886246240E+00  0.11301944775E+02  0.51100000000E-03 0.  1.
        -12    1    3    3    0    0 -0.37029614632E+01 -0.28624977553E+01  0.82807406523E+01  0.95119126756E+01  0.00000000000E+00 0.  1.
</event>
<event>
 7    1  0.4673733E-013  0.5930194E+02  0.7816164E-02  0.1266605E+00
        -11   -1    0    0    0    0  0.00000000000E+00  0.00000000000E+00  0.45593999997E+02  0.45594000000E+02  0.51100000000E-03 0.  1.
         11   -1    0    0    0    0 -0.00000000000E+00 -0.00000000000E+00 -0.45593999997E+02  0.45594000000E+02  0.51100000000E-03 0. -1.
    9900012    2    1    2    0    0  0.12114244389E+02  0.19035715558E+02  0.22530144716E+02  0.59301940274E+02  0.49999993155E+02 0.  0.
         12    1    1    2    0    0 -0.12114244389E+02 -0.19035715558E+02 -0.22530144716E+02  0.31886059726E+02  0.00000000000E+00 0. -1.
         11    1    3    3    0    0  0.65823490954E+01 -0.14493355171E+02  0.14014120026E+02  0.21208022635E+02  0.51100000000E-03 0. -1.
        -11    1    3    3    0    0  0.49086506382E+01  0.18572915616E+02 -0.26858555914E+01  0.19397470610E+02  0.51100000000E-03 0.  1.
        -12    1    3    3    0    0  0.62324465537E+00  0.14956155113E+02  0.11201880281E+02  0.18696447029E+02  0.00000000000E+00 0.  1.
</event>
<event>
 7    1  0.4673733E-013  0.5930195E+02  0.7816164E-02  0.1266605E+00
        -11   -1    0    0    0    0  0.00000000000E+00  0.00000000000E+00  0.45593999997E+02  0.45594000000E+02  0.51100000000E-03 0.  1.
         11   -1    0    0    0    0 -0.00000000000E+00 -0.00000000000E+00 -0.45593999997E+02  0.45594000000E+02  0.51100000000E-03 0. -1.
    9900012    2    1    2    0    0  0.31458669594E+00 -0.11320133519E+01  0.31864399596E+02  0.59301946927E+02  0.50000005287E+02 0.  0.
         12    1    1    2    0    0 -0.31458669594E+00  0.11320133519E+01 -0.31864399596E+02  0.31886053073E+02  0.00000000000E+00 0. -1.
         11    1    3    3    0    0  0.14135008358E+01 -0.21424370016E+02  0.13690178253E+02  0.25464143341E+02  0.51100000000E-03 0. -1.
        -11    1    3    3    0    0  0.61490038201E+01  0.67845419179E+01  0.15889574502E+02  0.18338997659E+02  0.51100000000E-03 0.  1.
         12    1    3    3    0    0 -0.72479179600E+01  0.13507814746E+02  0.22846468401E+01  0.15498805927E+02  0.00000000000E+00 0. -1.
</event>
<event>
 7    1  0.4673733E-013  0.5930197E+02  0.7816164E-02  0.1266605E+00
        -11   -1    0    0    0    0  0.00000000000E+00  0.00000000000E+00  0.45593999997E+02  0.45594000000E+02  0.51100000000E-03 0. -1.
         11   -1    0    0    0    0 -0.00000000000E+00 -0.00000000000E+00 -0.45593999997E+02  0.45594000000E+02  0.51100000000E-03 0.  1.
    9900012    2    1    2    0    0 -0.26932237385E+02 -0.16926817657E+02 -0.22036875375E+01  0.59301971629E+02  0.50000050337E+02 0.  0.
         12    1    1    2    0    0  0.26932237385E+02  0.16926817657E+02  0.22036875375E+01  0.31886028371E+02  0.00000000000E+00 0. -1.
         11    1    3    3    0    0 -0.20587133729E+01  0.11782088979E+02  0.43808310883E+01  0.12737645102E+02  0.51100000000E-03 0. -1.
        -11    1    3    3    0    0 -0.18939166451E+02 -0.27954369844E+02 -0.14411708926E+02  0.36712888387E+02  0.51100000000E-03 0.  1.
         12    1    3    3    0    0 -0.59343575605E+01 -0.75453679131E+00  0.78271903005E+01  0.98514381400E+01  0.00000000000E+00 0. -1.
</event>
<event>
 7    1  0.4673733E-013  0.5930194E+02  0.7816164E-02  0.1266605E+00
        -11   -1    0    0    0    0  0.00000000000E+00  0.00000000000E+00  0.45593999997E+02  0.45594000000E+02  0.51100000000E-03 0.  1.
         11   -1    0    0    0    0 -0.00000000000E+00 -0.00000000000E+00 -0.45593999997E+02  0.45594000000E+02  0.51100000000E-03 0. -1.
    9900012    2    1    2    0    0 -0.17272819906E+02  0.17149075176E+02  0.20598051168E+02  0.59301940369E+02  0.49999993327E+02 0.  0.
         12    1    1    2    0    0  0.17272819906E+02 -0.17149075176E+02 -0.20598051168E+02  0.31886059631E+02  0.00000000000E+00 0. -1.
         11    1    3    3    0    0  0.18145610501E+01 -0.34129899423E+01 -0.25841386804E+01  0.46496134389E+01  0.51100000000E-03 0. -1.
        -11    1    3    3    0    0 -0.14588177242E+01  0.17707508557E+02  0.30544344621E+02  0.35336114629E+02  0.51100000000E-03 0.  1.
        -12    1    3    3    0    0 -0.17628563232E+02  0.28545565608E+01 -0.73621547723E+01  0.19316212301E+02  0.00000000000E+00 0.  1.
</event>
<event>
 7    1  0.4673733E-013  0.5930185E+02  0.7816164E-02  0.1266605E+00
        -11   -1    0    0    0    0  0.00000000000E+00  0.00000000000E+00  0.45593999997E+02  0.45594000000E+02  0.51100000000E-03 0.  1.
         11   -1    0    0    0    0 -0.00000000000E+00 -0.00000000000E+00 -0.45593999997E+02  0.45594000000E+02  0.51100000000E-03 0. -1.
    9900012    2    1    2    0    0 -0.25541813937E+02  0.11248418330E+02  0.15421263863E+02  0.59301850135E+02  0.49999828761E+02 0.  0.
         12    1    1    2    0    0  0.25541813937E+02 -0.11248418330E+02 -0.15421263863E+02  0.31886149865E+02  0.00000000000E+00 0. -1.
         11    1    3    3    0    0  0.10273057110E+02  0.71617566121E+01 -0.19898255948E+01  0.12680136684E+02  0.51100000000E-03 0. -1.
        -11    1    3    3    0    0 -0.38305698613E+02  0.48093804990E+01  0.11685630155E+02  0.40336219944E+02  0.51100000000E-03 0.  1.
        -12    1    3    3    0    0  0.24908275655E+01 -0.72271878121E+00  0.57254593030E+01  0.62854935071E+01  0.00000000000E+00 0.  1.
</event>
<event>
 7    1  0.4673733E-013  0.5930197E+02  0.7816164E-02  0.1266605E+00
        -11   -1    0    0    0    0  0.00000000000E+00  0.00000000000E+00  0.45593999997E+02  0.45594000000E+02  0.51100000000E-03 0.  1.
         11   -1    0    0    0    0 -0.00000000000E+00 -0.00000000000E+00 -0.45593999997E+02  0.45594000000E+02  0.51100000000E-03 0. -1.
    9900012    2    1    2    0    0  0.19311751776E+02 -0.10235887457E+02  0.23216406751E+02  0.59301973419E+02  0.50000053602E+02 0.  0.
         12    1    1    2    0    0 -0.19311751776E+02  0.10235887457E+02 -0.23216406751E+02  0.31886026581E+02  0.00000000000E+00 0. -1.
         11    1    3    3    0    0  0.66792030220E+01  0.11007230468E+02 -0.86904128001E+01  0.15533645756E+02  0.51100000000E-03 0. -1.
        -11    1    3    3    0    0  0.10254663198E+02 -0.18873644311E+02  0.14206768974E+02  0.25752763965E+02  0.51100000000E-03 0.  1.
        -12    1    3    3    0    0  0.23778855566E+01 -0.23694736136E+01  0.17700050577E+02  0.18015563698E+02  0.00000000000E+00 0.  1.
</event>
<event>
 7    1  0.4673733E-013  0.5930193E+02  0.7816164E-02  0.1266605E+00
        -11   -1    0    0    0    0  0.00000000000E+00  0.00000000000E+00  0.45593999997E+02  0.45594000000E+02  0.51100000000E-03 0. -1.
         11   -1    0    0    0    0 -0.00000000000E+00 -0.00000000000E+00 -0.45593999997E+02  0.45594000000E+02  0.51100000000E-03 0.  1.
    9900012    2    1    2    0    0  0.27822716724E+02 -0.22568207320E+01  0.15411830285E+02  0.59301932221E+02  0.49999978466E+02 0.  0.
         12    1    1    2    0    0 -0.27822716724E+02  0.22568207320E+01 -0.15411830285E+02  0.31886067779E+02  0.00000000000E+00 0. -1.
         11    1    3    3    0    0  0.96841691159E+01  0.13269458812E+02  0.11263340841E+02  0.19917944567E+02  0.51100000000E-03 0. -1.
        -11    1    3    3    0    0  0.99494852571E+01  0.18368148978E+01 -0.10988350482E+02  0.14936866888E+02  0.51100000000E-03 0.  1.
         12    1    3    3    0    0  0.81890623509E+01 -0.17363094442E+02  0.15136839926E+02  0.24447120765E+02  0.00000000000E+00 0. -1.
</event>
<event>
 7    1  0.4673733E-013  0.5930196E+02  0.7816164E-02  0.1266605E+00
        -11   -1    0    0    0    0  0.00000000000E+00  0.00000000000E+00  0.45593999997E+02  0.45594000000E+02  0.51100000000E-03 0.  1.
         11   -1    0    0    0    0 -0.00000000000E+00 -0.00000000000E+00 -0.45593999997E+02  0.45594000000E+02  0.51100000000E-03 0. -1.
    9900012    2    1    2    0    0  0.57200676893E+00  0.31845475400E+02  0.15027374331E+01  0.59301957364E+02  0.50000024322E+02 0.  0.
         12    1    1    2    0    0 -0.57200676893E+00 -0.31845475400E+02 -0.15027374331E+01  0.31886042636E+02  0.00000000000E+00 0. -1.
         11    1    3    3    0    0  0.61424390851E+01 -0.68073898676E+01  0.39459093540E+01  0.99819995800E+01  0.51100000000E-03 0. -1.
        -11    1    3    3    0    0 -0.16255062984E+02  0.11121475614E+02 -0.18468846478E+01  0.19781943170E+02  0.51100000000E-03 0.  1.
        -12    1    3    3    0    0  0.10684630668E+02  0.27531389654E+02 -0.59628727315E+00  0.29538014613E+02  0.00000000000E+00 0.  1.
</event>
<event>
 7    1  0.4673733E-013  0.5930198E+02  0.7816164E-02  0.1266605E+00
        -11   -1    0    0    0    0  0.00000000000E+00  0.00000000000E+00  0.45593999997E+02  0.45594000000E+02  0.51100000000E-03 0. -1.
         11   -1    0    0    0    0 -0.00000000000E+00 -0.00000000000E+00 -0.45593999997E+02  0.45594000000E+02  0.51100000000E-03 0.  1.
    9900012    2    1    2    0    0 -0.27504644438E+02  0.41353693651E+01 -0.15592036811E+02  0.59301978652E+02  0.50000063147E+02 0.  0.
         12    1    1    2    0    0  0.27504644438E+02 -0.41353693651E+01  0.15592036811E+02  0.31886021348E+02  0.00000000000E+00 0. -1.
         11    1    3    3    0    0  0.56422618469E+01  0.17291692147E+02  0.21144047594E+01  0.18311429322E+02  0.51100000000E-03 0. -1.
        -11    1    3    3    0    0 -0.22781509659E+02 -0.40848026896E+01 -0.12122773308E+02  0.26127465018E+02  0.51100000000E-03 0.  1.
         12    1    3    3    0    0 -0.10365396626E+02 -0.90715200924E+01 -0.55836682627E+01  0.14863084312E+02  0.00000000000E+00 0. -1.
</event>
<event>
 7    1  0.4673733E-013  0.5930194E+02  0.7816164E-02  0.1266605E+00
        -11   -1    0    0    0    0  0.00000000000E+00  0.00000000000E+00  0.45593999997E+02  0.45594000000E+02  0.51100000000E-03 0.  1.
         11   -1    0    0    0    0 -0.00000000000E+00 -0.00000000000E+00 -0.45593999997E+02  0.45594000000E+02  0.51100000000E-03 0. -1.
    9900012    2    1    2    0    0 -0.16424782304E+02 -0.23208833527E+02 -0.14432512779E+02  0.59301939526E+02  0.49999991791E+02 0.  0.
         12    1    1    2    0    0  0.16424782304E+02  0.23208833527E+02  0.14432512779E+02  0.31886060474E+02  0.00000000000E+00 0. -1.
         11    1    3    3    0    0  0.64638422359E+01  0.35562168112E+01 -0.86793269157E+01  0.11391165455E+02  0.51100000000E-03 0. -1.
        -11    1    3    3    0    0 -0.25527462831E+02 -0.59328096158E+01 -0.27504275308E+00  0.26209258618E+02  0.51100000000E-03 0.  1.
        -12    1    3    3    0    0  0.26388382910E+01 -0.20832240722E+02 -0.54781431100E+01  0.21701515453E+02  0.00000000000E+00 0.  1.
</event>
<event>
 7    1  0.4673733E-013  0.5930195E+02  0.7816164E-02  0.1266605E+00
        -11   -1    0    0    0    0  0.00000000000E+00  0.00000000000E+00  0.45593999997E+02  0.45594000000E+02  0.51100000000E-03 0. -1.
         11   -1    0    0    0    0 -0.00000000000E+00 -0.00000000000E+00 -0.45593999997E+02  0.45594000000E+02  0.51100000000E-03 0.  1.
    9900012    2    1    2    0    0  0.16932762869E+02 -0.24598039051E+02  0.11177582613E+02  0.59301947617E+02  0.50000006546E+02 0.  0.
         12    1    1    2    0    0 -0.16932762869E+02  0.24598039051E+02 -0.11177582613E+02  0.31886052383E+02  0.00000000000E+00 0. -1.
         11    1    3    3    0    0 -0.55110768123E+01 -0.18769413565E+01 -0.14698784418E+01  0.60046165058E+01  0.51100000000E-03 0. -1.
        -11    1    3    3    0    0  0.32409424174E+02 -0.12204918573E+02  0.89660381914E+00  0.34642960487E+02  0.51100000000E-03 0.  1.
        -12    1    3    3    0    0 -0.99655844928E+01 -0.10516179121E+02  0.11750857235E+02  0.18654370624E+02  0.00000000000E+00 0.  1.
</event>
<event>
 7    1  0.4673733E-013  0.5930192E+02  0.7816164E-02  0.1266605E+00
        -11   -1    0    0    0    0  0.00000000000E+00  0.00000000000E+00  0.45593999997E+02  0.45594000000E+02  0.51100000000E-03 0.  1.
         11   -1    0    0    0    0 -0.00000000000E+00 -0.00000000000E+00 -0.45593999997E+02  0.45594000000E+02  0.51100000000E-03 0. -1.
    9900012    2    1    2    0    0 -0.71083860462E+01  0.27946745748E+02  0.13607807560E+02  0.59301918763E+02  0.49999953923E+02 0.  0.
         12    1    1    2    0    0  0.71083860462E+01 -0.27946745748E+02 -0.13607807560E+02  0.31886081237E+02  0.00000000000E+00 0. -1.
         11    1    3    3    0    0 -0.44757184410E+01  0.95889652635E+01  0.68106555655E+01  0.12584329139E+02  0.51100000000E-03 0. -1.
        -11    1    3    3    0    0 -0.11691842683E+02  0.25721976840E+02 -0.65307013365E+01  0.28999471341E+02  0.51100000000E-03 0.  1.
        -12    1    3    3    0    0  0.90591750774E+01 -0.73641963557E+01  0.13327853331E+02  0.17718118282E+02  0.00000000000E+00 0.  1.
</event>
<event>
 7    1  0.4673733E-013  0.5930196E+02  0.7816164E-02  0.1266605E+00
        -11   -1    0    0    0    0  0.00000000000E+00  0.00000000000E+00  0.45593999997E+02  0.45594000000E+02  0.51100000000E-03 0.  1.
         11   -1    0    0    0    0 -0.00000000000E+00 -0.00000000000E+00 -0.45593999997E+02  0.45594000000E+02  0.51100000000E-03 0. -1.
    9900012    2    1    2    0    0  0.25711355967E+02  0.72179126457E+01  0.17422612916E+02  0.59301960273E+02  0.50000029628E+02 0.  0.
         12    1    1    2    0    0 -0.25711355967E+02 -0.72179126457E+01 -0.17422612916E+02  0.31886039727E+02  0.00000000000E+00 0. -1.
         11    1    3    3    0    0 -0.38023314213E+01 -0.13177460696E+02  0.28152621441E+00  0.13717960923E+02  0.51100000000E-03 0. -1.
        -11    1    3    3    0    0  0.97412725320E+01  0.18493814134E+02  0.14737363923E+02  0.25575446182E+02  0.51100000000E-03 0.  1.
         12    1    3    3    0    0  0.19772414857E+02  0.19015592080E+01  0.24037227783E+01  0.20008553168E+02  0.00000000000E+00 0. -1.
</event>
<event>
 7    1  0.4673733E-013  0.5930194E+02  0.7816164E-02  0.1266605E+00
        -11   -1    0    0    0    0  0.00000000000E+00  0.00000000000E+00  0.45593999997E+02  0.45594000000E+02  0.51100000000E-03 0.  1.
         11   -1    0    0    0    0 -0.00000000000E+00 -0.00000000000E+00 -0.45593999997E+02  0.45594000000E+02  0.51100000000E-03 0. -1.
    9900012    2    1    2    0    0  0.17777833610E+02  0.20305474119E+02  0.16981075077E+02  0.59301944147E+02  0.50000000218E+02 0.  0.
         12    1    1    2    0    0 -0.17777833610E+02 -0.20305474119E+02 -0.16981075077E+02  0.31886055853E+02  0.00000000000E+00 0. -1.
         11    1    3    3    0    0  0.41602673557E+01 -0.79598103628E+01 -0.76936493532E+01  0.11826184766E+02  0.51100000000E-03 0. -1.
        -11    1    3    3    0    0  0.20376707041E+02  0.14791433853E+02  0.12567257893E+02  0.28141298415E+02  0.51100000000E-03 0.  1.
         12    1    3    3    0    0 -0.67591407862E+01  0.13473850629E+02  0.12107466537E+02  0.19334460967E+02  0.00000000000E+00 0. -1.
</event>
<event>
 7    1  0.4673733E-013  0.5930196E+02  0.7816164E-02  0.1266605E+00
        -11   -1    0    0    0    0  0.00000000000E+00  0.00000000000E+00  0.45593999997E+02  0.45594000000E+02  0.51100000000E-03 0.  1.
         11   -1    0    0    0    0 -0.00000000000E+00 -0.00000000000E+00 -0.45593999997E+02  0.45594000000E+02  0.51100000000E-03 0. -1.
    9900012    2    1    2    0    0  0.98249162129E+01 -0.10563186520E+02  0.28436059745E+02  0.59301962587E+02  0.50000033848E+02 0.  0.
         12    1    1    2    0    0 -0.98249162129E+01  0.10563186520E+02 -0.28436059745E+02  0.31886037413E+02  0.00000000000E+00 0. -1.
         11    1    3    3    0    0 -0.57767439284E+01 -0.12694075532E+02 -0.63711885799E+01  0.15333048236E+02  0.51100000000E-03 0. -1.
        -11    1    3    3    0    0 -0.40573483359E+01  0.51925705356E+00  0.16697987519E+02  0.17191698312E+02  0.51100000000E-03 0.  1.
         12    1    3    3    0    0  0.19659008477E+02  0.16116319583E+01  0.18109260806E+02  0.26777216039E+02  0.00000000000E+00 0. -1.
</event>
<event>
 7    1  0.4673733E-013  0.5930196E+02  0.7816164E-02  0.1266605E+00
        -11   -1    0    0    0    0  0.00000000000E+00  0.00000000000E+00  0.45593999997E+02  0.45594000000E+02  0.51100000000E-03 0. -1.
         11   -1    0    0    0    0 -0.00000000000E+00 -0.00000000000E+00 -0.45593999997E+02  0.45594000000E+02  0.51100000000E-03 0.  1.
    9900012    2    1    2    0    0 -0.11161264511E+02  0.29593637192E+02  0.40450562195E+01  0.59301958108E+02  0.50000025679E+02 0.  0.
         12    1    1    2    0    0  0.11161264511E+02 -0.29593637192E+02 -0.40450562195E+01  0.31886041892E+02  0.00000000000E+00 0. -1.
         11    1    3    3    0    0  0.50238172046E+01  0.21227168909E+02  0.57941596736E+01  0.22569973987E+02  0.51100000000E-03 0. -1.
        -11    1    3    3    0    0 -0.24848908833E+02  0.38087024166E+01  0.38840854798E+01  0.25437385962E+02  0.51100000000E-03 0.  1.
        -12    1    3    3    0    0  0.86638271177E+01  0.45577658666E+01 -0.56331889339E+01  0.11294598159E+02  0.00000000000E+00 0.  1.
</event>
<event>
 7    1  0.4673733E-013  0.5930195E+02  0.7816164E-02  0.1266605E+00
        -11   -1    0    0    0    0  0.00000000000E+00  0.00000000000E+00  0.45593999997E+02  0.45594000000E+02  0.51100000000E-03 0.  1.
         11   -1    0    0    0    0 -0.00000000000E+00 -0.00000000000E+00 -0.45593999997E+02  0.45594000000E+02  0.51100000000E-03 0. -1.
    9900012    2    1    2    0    0 -0.13999042988E+02 -0.21286364949E+02  0.19173875798E+02  0.59301952104E+02  0.50000014729E+02 0.  0.
         12    1    1    2    0    0  0.13999042988E+02  0.21286364949E+02 -0.19173875798E+02  0.31886047896E+02  0.00000000000E+00 0. -1.
         11    1    3    3    0    0 -0.13276522746E+02 -0.13247622653E+02  0.23685933966E+02  0.30212398619E+02  0.51100000000E-03 0.  1.
        -11    1    3    3    0    0 -0.11078913951E+02 -0.91237038708E+01 -0.98313319124E+01  0.17396533967E+02  0.51100000000E-03 0. -1.
        -12    1    3    3    0    0  0.10356393709E+02  0.10849615746E+01  0.53192737443E+01  0.11693019518E+02  0.00000000000E+00 0.  1.
</event>
<event>
 7    1  0.4673733E-013  0.5930195E+02  0.7816164E-02  0.1266605E+00
        -11   -1    0    0    0    0  0.00000000000E+00  0.00000000000E+00  0.45593999997E+02  0.45594000000E+02  0.51100000000E-03 0. -1.
         11   -1    0    0    0    0 -0.00000000000E+00 -0.00000000000E+00 -0.45593999997E+02  0.45594000000E+02  0.51100000000E-03 0.  1.
    9900012    2    1    2    0    0 -0.31666934292E+02 -0.12267617833E+01  0.35242700318E+01  0.59301950524E+02  0.50000011847E+02 0.  0.
         12    1    1    2    0    0  0.31666934292E+02  0.12267617833E+01 -0.35242700318E+01  0.31886049476E+02  0.00000000000E+00 0. -1.
         11    1    3    3    0    0 -0.25979794918E+02 -0.12634989124E+02  0.63994840287E+01  0.29589628086E+02  0.51100000000E-03 0. -1.
        -11    1    3    3    0    0 -0.64906768327E+01  0.12347507019E+02  0.97548253459E+01  0.17021939758E+02  0.51100000000E-03 0.  1.
         12    1    3    3    0    0  0.80353745858E+00 -0.93927967771E+00 -0.12630039343E+02  0.12690382680E+02  0.00000000000E+00 0. -1.
</event>
<event>
 7    1  0.4972548E-013  0.5930194E+02  0.7816164E-02  0.1266605E+00
        -11   -1    0    0    0    0  0.00000000000E+00  0.00000000000E+00  0.45593999997E+02  0.45594000000E+02  0.51100000000E-03 0.  1.
         11   -1    0    0    0    0 -0.00000000000E+00 -0.00000000000E+00 -0.45593999997E+02  0.45594000000E+02  0.51100000000E-03 0. -1.
    9900012    2    1    2    0    0  0.25497879675E+02  0.15731480431E+02  0.10913267012E+02  0.59301941270E+02  0.49999994971E+02 0.  0.
         12    1    1    2    0    0 -0.25497879675E+02 -0.15731480431E+02 -0.10913267012E+02  0.31886058730E+02  0.00000000000E+00 0. -1.
         11    1    3    3    0    0  0.55107615309E+01  0.18741190404E+01 -0.14562027569E+02  0.15682265844E+02  0.51100000000E-03 0. -1.
        -11    1    3    3    0    0  0.29356027709E+01 -0.34922461296E+01  0.17400049234E+02  0.17988197805E+02  0.51100000000E-03 0.  1.
        -12    1    3    3    0    0  0.17051515373E+02  0.17349607520E+02  0.80752453462E+01  0.25631477621E+02  0.00000000000E+00 0.  1.
</event>
<event>
 7    1  0.4673733E-013  0.5930199E+02  0.7816164E-02  0.1266605E+00
        -11   -1    0    0    0    0  0.00000000000E+00  0.00000000000E+00  0.45593999997E+02  0.45594000000E+02  0.51100000000E-03 0.  1.
         11   -1    0    0    0    0 -0.00000000000E+00 -0.00000000000E+00 -0.45593999997E+02  0.45594000000E+02  0.51100000000E-03 0. -1.
    9900012    2    1    2    0    0 -0.10166457778E+02  0.22857736036E+02  0.19770811610E+02  0.59301985007E+02  0.50000074736E+02 0.  0.
         12    1    1    2    0    0  0.10166457778E+02 -0.22857736036E+02 -0.19770811610E+02  0.31886014993E+02  0.00000000000E+00 0. -1.
         11    1    3    3    0    0  0.12816765558E+02 -0.42562073224E+01  0.14798206242E+02  0.20034262861E+02  0.51100000000E-03 0. -1.
        -11    1    3    3    0    0 -0.35891762312E+01  0.15459959236E+02 -0.88442962391E+00  0.15895746023E+02  0.51100000000E-03 0.  1.
         12    1    3    3    0    0 -0.19394047104E+02  0.11653984122E+02  0.58570349912E+01  0.23371976123E+02  0.00000000000E+00 0. -1.
</event>
<event>
 7    1  0.4673733E-013  0.5930195E+02  0.7816164E-02  0.1266605E+00
        -11   -1    0    0    0    0  0.00000000000E+00  0.00000000000E+00  0.45593999997E+02  0.45594000000E+02  0.51100000000E-03 0. -1.
         11   -1    0    0    0    0 -0.00000000000E+00 -0.00000000000E+00 -0.45593999997E+02  0.45594000000E+02  0.51100000000E-03 0.  1.
    9900012    2    1    2    0    0 -0.20779832696E+02  0.72960680857E+01 -0.23058322606E+02  0.59301948225E+02  0.50000007655E+02 0.  0.
         12    1    1    2    0    0  0.20779832696E+02 -0.72960680857E+01  0.23058322606E+02  0.31886051775E+02  0.00000000000E+00 0. -1.
         11    1    3    3    0    0  0.20988449201E+01  0.84440908671E+01  0.20726666806E+01  0.89444825451E+01  0.51100000000E-03 0. -1.
        -11    1    3    3    0    0 -0.28397387095E+02  0.14033860383E+01 -0.44213145878E+01  0.28773757300E+02  0.51100000000E-03 0.  1.
        -12    1    3    3    0    0  0.55187094791E+01 -0.25514088197E+01 -0.20709674699E+02  0.21583708380E+02  0.00000000000E+00 0.  1.
</event>
<event>
 7    1  0.4673733E-013  0.5930187E+02  0.7816164E-02  0.1266605E+00
        -11   -1    0    0    0    0  0.00000000000E+00  0.00000000000E+00  0.45593999997E+02  0.45594000000E+02  0.51100000000E-03 0. -1.
         11   -1    0    0    0    0 -0.00000000000E+00 -0.00000000000E+00 -0.45593999997E+02  0.45594000000E+02  0.51100000000E-03 0.  1.
    9900012    2    1    2    0    0  0.26959259893E+02  0.13600302769E+02  0.10244779690E+02  0.59301867587E+02  0.49999860590E+02 0.  0.
         12    1    1    2    0    0 -0.26959259893E+02 -0.13600302769E+02 -0.10244779690E+02  0.31886132413E+02  0.00000000000E+00 0. -1.
         11    1    3    3    0    0 -0.34410376434E+01  0.10963181551E+02 -0.15090593042E+02  0.18967289959E+02  0.51100000000E-03 0. -1.
        -11    1    3    3    0    0  0.22003670817E+02  0.27151955146E+01  0.22190446669E+02  0.31367973153E+02  0.51100000000E-03 0.  1.
         12    1    3    3    0    0  0.83966267195E+01 -0.78074297103E-01  0.31449260621E+01  0.89666044743E+01  0.00000000000E+00 0. -1.
</event>
<event>
 7    1  0.4673733E-013  0.5930183E+02  0.7816164E-02  0.1266605E+00
        -11   -1    0    0    0    0  0.00000000000E+00  0.00000000000E+00  0.45593999997E+02  0.45594000000E+02  0.51100000000E-03 0. -1.
         11   -1    0    0    0    0 -0.00000000000E+00 -0.00000000000E+00 -0.45593999997E+02  0.45594000000E+02  0.51100000000E-03 0.  1.
    9900012    2    1    2    0    0 -0.16723064000E+02 -0.12869418240E+02 -0.23904915588E+02  0.59301830826E+02  0.49999793546E+02 0.  0.
         12    1    1    2    0    0  0.16723064000E+02  0.12869418240E+02  0.23904915588E+02  0.31886169174E+02  0.00000000000E+00 0. -1.
         11    1    3    3    0    0 -0.21061862500E+02  0.98730559336E+01 -0.59080347244E+00  0.23268612645E+02  0.51100000000E-03 0. -1.
        -11    1    3    3    0    0  0.70748271442E+01 -0.74512152904E+01 -0.34977790072E+01  0.10853950740E+02  0.51100000000E-03 0.  1.
        -12    1    3    3    0    0 -0.27360286436E+01 -0.15291258883E+02 -0.19816333108E+02  0.25179267440E+02  0.00000000000E+00 0.  1.
</event>
<event>
 7    1  0.4673733E-013  0.5930194E+02  0.7816164E-02  0.1266605E+00
        -11   -1    0    0    0    0  0.00000000000E+00  0.00000000000E+00  0.45593999997E+02  0.45594000000E+02  0.51100000000E-03 0.  1.
         11   -1    0    0    0    0 -0.00000000000E+00 -0.00000000000E+00 -0.45593999997E+02  0.45594000000E+02  0.51100000000E-03 0. -1.
    9900012    2    1    2    0    0 -0.20526617665E+02  0.21360803066E+02  0.11793844288E+02  0.59301941864E+02  0.49999996054E+02 0.  0.
         12    1    1    2    0    0  0.20526617665E+02 -0.21360803066E+02 -0.11793844288E+02  0.31886058136E+02  0.00000000000E+00 0. -1.
         11    1    3    3    0    0 -0.22755515138E+01 -0.94972021356E+01 -0.78976385857E+00  0.97978931567E+01  0.51100000000E-03 0. -1.
        -11    1    3    3    0    0 -0.28477643881E+01  0.15145588661E+02  0.20912236326E+02  0.25977302522E+02  0.51100000000E-03 0.  1.
        -12    1    3    3    0    0 -0.15403301763E+02  0.15712416540E+02 -0.83286281789E+01  0.23526746185E+02  0.00000000000E+00 0.  1.
</event>
<event>
 7    1  0.4673733E-013  0.5930194E+02  0.7816164E-02  0.1266605E+00
        -11   -1    0    0    0    0  0.00000000000E+00  0.00000000000E+00  0.45593999997E+02  0.45594000000E+02  0.51100000000E-03 0.  1.
         11   -1    0    0    0    0 -0.00000000000E+00 -0.00000000000E+00 -0.45593999997E+02  0.45594000000E+02  0.51100000000E-03 0. -1.
    9900012    2    1    2    0    0  0.41968138742E+01 -0.14412714176E+02  0.28131497341E+02  0.59301941617E+02  0.49999995603E+02 0.  0.
         12    1    1    2    0    0 -0.41968138742E+01  0.14412714176E+02 -0.28131497341E+02  0.31886058383E+02  0.00000000000E+00 0. -1.
         11    1    3    3    0    0 -0.12619324723E+02 -0.26548835355E+02  0.15187989315E+02  0.33087203491E+02  0.51100000000E-03 0. -1.
        -11    1    3    3    0    0  0.12305684882E+02  0.31492158962E+01  0.64616364330E+01  0.14251322284E+02  0.51100000000E-03 0.  1.
         12    1    3    3    0    0  0.45104537144E+01  0.89869052826E+01  0.64818715924E+01  0.11963415842E+02  0.00000000000E+00 0. -1.
</event>
<event>
 7    1  0.4673733E-013  0.5930185E+02  0.7816164E-02  0.1266605E+00
        -11   -1    0    0    0    0  0.00000000000E+00  0.00000000000E+00  0.45593999997E+02  0.45594000000E+02  0.51100000000E-03 0. -1.
         11   -1    0    0    0    0 -0.00000000000E+00 -0.00000000000E+00 -0.45593999997E+02  0.45594000000E+02  0.51100000000E-03 0.  1.
    9900012    2    1    2    0    0  0.30407066155E+02  0.32540750917E+01 -0.90303903567E+01  0.59301848980E+02  0.49999826656E+02 0.  0.
         12    1    1    2    0    0 -0.30407066155E+02 -0.32540750917E+01  0.90303903567E+01  0.31886151020E+02  0.00000000000E+00 0. -1.
         11    1    3    3    0    0  0.39400326614E+01 -0.39104270736E+01  0.66243915724E+01  0.86427924444E+01  0.51100000000E-03 0. -1.
        -11    1    3    3    0    0  0.78223560807E+01  0.22584345613E+02 -0.62853332269E+01  0.24713302803E+02  0.51100000000E-03 0.  1.
        -12    1    3    3    0    0  0.18644677413E+02 -0.15419843448E+02 -0.93694487022E+01  0.25945753733E+02  0.00000000000E+00 0.  1.
</event>
<event>
 7    1  0.4673733E-013  0.5930195E+02  0.7816164E-02  0.1266605E+00
        -11   -1    0    0    0    0  0.00000000000E+00  0.00000000000E+00  0.45593999997E+02  0.45594000000E+02  0.51100000000E-03 0.  1.
         11   -1    0    0    0    0 -0.00000000000E+00 -0.00000000000E+00 -0.45593999997E+02  0.45594000000E+02  0.51100000000E-03 0. -1.
    9900012    2    1    2    0    0  0.69359749480E+01 -0.11308145789E+02  0.28995490017E+02  0.59301947391E+02  0.50000006133E+02 0.  0.
         12    1    1    2    0    0 -0.69359749480E+01  0.11308145789E+02 -0.28995490017E+02  0.31886052609E+02  0.00000000000E+00 0. -1.
         11    1    3    3    0    0 -0.74086086587E+01 -0.55497493115E+01 -0.60398612403E+00  0.92764216796E+01  0.51100000000E-03 0. -1.
        -11    1    3    3    0    0 -0.18336672220E+01  0.64699949128E+00  0.32350820074E+02  0.32409203994E+02  0.51100000000E-03 0.  1.
        -12    1    3    3    0    0  0.16178250829E+02 -0.64053959688E+01 -0.27513439327E+01  0.17616321717E+02  0.00000000000E+00 0.  1.
</event>
<event>
 7    1  0.4673733E-013  0.5930196E+02  0.7816164E-02  0.1266605E+00
        -11   -1    0    0    0    0  0.00000000000E+00  0.00000000000E+00  0.45593999997E+02  0.45594000000E+02  0.51100000000E-03 0. -1.
         11   -1    0    0    0    0 -0.00000000000E+00 -0.00000000000E+00 -0.45593999997E+02  0.45594000000E+02  0.51100000000E-03 0.  1.
    9900012    2    1    2    0    0 -0.18181738136E+02  0.12864180967E+02 -0.22817904421E+02  0.59301960488E+02  0.50000030020E+02 0.  0.
         12    1    1    2    0    0  0.18181738136E+02 -0.12864180967E+02  0.22817904421E+02  0.31886039512E+02  0.00000000000E+00 0. -1.
         11    1    3    3    0    0 -0.27908354613E+01  0.23902699544E+02 -0.12886692758E+02  0.27298253764E+02  0.51100000000E-03 0. -1.
        -11    1    3    3    0    0 -0.20034187430E+02 -0.48037970270E+01 -0.16848897502E+01  0.20670848690E+02  0.51100000000E-03 0.  1.
         12    1    3    3    0    0  0.46432847554E+01 -0.62347215499E+01 -0.82463219124E+01  0.11332858034E+02  0.00000000000E+00 0. -1.
</event>
<event>
 7    1  0.4673733E-013  0.5930194E+02  0.7816164E-02  0.1266605E+00
        -11   -1    0    0    0    0  0.00000000000E+00  0.00000000000E+00  0.45593999997E+02  0.45594000000E+02  0.51100000000E-03 0.  1.
         11   -1    0    0    0    0 -0.00000000000E+00 -0.00000000000E+00 -0.45593999997E+02  0.45594000000E+02  0.51100000000E-03 0. -1.
    9900012    2    1    2    0    0 -0.12077116728E+02 -0.23283496377E+02  0.18131269710E+02  0.59301938887E+02  0.49999990624E+02 0.  0.
         12    1    1    2    0    0  0.12077116728E+02  0.23283496377E+02 -0.18131269710E+02  0.31886061113E+02  0.00000000000E+00 0. -1.
         11    1    3    3    0    0 -0.50547200849E+01  0.42057455322E+00 -0.65608801049E+01  0.82929021520E+01  0.51100000000E-03 0. -1.
        -11    1    3    3    0    0 -0.11945897601E+02 -0.28873664854E+02  0.71287186167E+01  0.32050142292E+02  0.51100000000E-03 0.  1.
        -12    1    3    3    0    0  0.49235009575E+01  0.51695939232E+01  0.17563431198E+02  0.18958894442E+02  0.00000000000E+00 0.  1.
</event>
<event>
 7    1  0.4673733E-013  0.5930194E+02  0.7816164E-02  0.1266605E+00
        -11   -1    0    0    0    0  0.00000000000E+00  0.00000000000E+00  0.45593999997E+02  0.45594000000E+02  0.51100000000E-03 0. -1.
         11   -1    0    0    0    0 -0.00000000000E+00 -0.00000000000E+00 -0.45593999997E+02  0.45594000000E+02  0.51100000000E-03 0.  1.
    9900012    2    1    2    0    0 -0.26998110947E+02 -0.10863995619E+02  0.13030593268E+02  0.59301941034E+02  0.49999994540E+02 0.  0.
         12    1    1    2    0    0  0.26998110947E+02  0.10863995619E+02 -0.13030593268E+02  0.31886058966E+02  0.00000000000E+00 0. -1.
         11    1    3    3    0    0  0.81407479113E+01 -0.27891297393E+01  0.12110145997E+01  0.86900850330E+01  0.51100000000E-03 0. -1.
        -11    1    3    3    0    0 -0.31479331658E+02 -0.24555225201E+01  0.21955759170E+02  0.38458201642E+02  0.51100000000E-03 0.  1.
        -12    1    3    3    0    0 -0.36595271995E+01 -0.56193433594E+01 -0.10136180502E+02  0.12153654359E+02  0.00000000000E+00 0.  1.
</event>
<event>
 7    1  0.4673733E-013  0.5930195E+02  0.7816164E-02  0.1266605E+00
        -11   -1    0    0    0    0  0.00000000000E+00  0.00000000000E+00  0.45593999997E+02  0.45594000000E+02  0.51100000000E-03 0.  1.
         11   -1    0    0    0    0 -0.00000000000E+00 -0.00000000000E+00 -0.45593999997E+02  0.45594000000E+02  0.51100000000E-03 0. -1.
    9900012    2    1    2    0    0 -0.73822253276E+01 -0.99771261296E+01  0.29371410576E+02  0.59301952020E+02  0.50000014576E+02 0.  0.
         12    1    1    2    0    0  0.73822253276E+01  0.99771261296E+01 -0.29371410576E+02  0.31886047980E+02  0.00000000000E+00 0. -1.
         11    1    3    3    0    0 -0.63396761355E+01  0.12030290271E+01 -0.38457538567E+01  0.75118969196E+01  0.51100000000E-03 0. -1.
        -11    1    3    3    0    0 -0.71737340833E+01 -0.19993451992E+02  0.34966002369E+02  0.40912368609E+02  0.51100000000E-03 0.  1.
        -12    1    3    3    0    0  0.61311848912E+01  0.88132968353E+01 -0.17488379368E+01  0.10877686492E+02  0.00000000000E+00 0.  1.
</event>
<event>
 7    1  0.4673733E-013  0.5930195E+02  0.7816164E-02  0.1266605E+00
        -11   -1    0    0    0    0  0.00000000000E+00  0.00000000000E+00  0.45593999997E+02  0.45594000000E+02  0.51100000000E-03 0. -1.
         11   -1    0    0    0    0 -0.00000000000E+00 -0.00000000000E+00 -0.45593999997E+02  0.45594000000E+02  0.51100000000E-03 0.  1.
    9900012    2    1    2    0    0  0.73812892138E+01  0.47188990666E+01 -0.30658906104E+02  0.59301953485E+02  0.50000017248E+02 0.  0.
         12    1    1    2    0    0 -0.73812892138E+01 -0.47188990666E+01  0.30658906104E+02  0.31886046515E+02  0.00000000000E+00 0. -1.
         11    1    3    3    0    0 -0.24669675238E+01 -0.51984608078E+01 -0.12101673936E+02  0.13400016263E+02  0.51100000000E-03 0. -1.
        -11    1    3    3    0    0  0.45165951801E+01  0.15866157722E+02  0.78815999995E+01  0.18282620482E+02  0.51100000000E-03 0.  1.
        -12    1    3    3    0    0  0.53316615576E+01 -0.59487978479E+01 -0.26438832168E+02  0.27619316740E+02  0.00000000000E+00 0.  1.
</event>
<event>
 7    1  0.4673733E-013  0.5930178E+02  0.7816164E-02  0.1266605E+00
        -11   -1    0    0    0    0  0.00000000000E+00  0.00000000000E+00  0.45593999997E+02  0.45594000000E+02  0.51100000000E-03 0.  1.
         11   -1    0    0    0    0 -0.00000000000E+00 -0.00000000000E+00 -0.45593999997E+02  0.45594000000E+02  0.51100000000E-03 0. -1.
    9900012    2    1    2    0    0 -0.50545396729E-01 -0.10850507881E+02  0.29983239336E+02  0.59301784840E+02  0.49999709680E+02 0.  0.
         12    1    1    2    0    0  0.50545396729E-01  0.10850507881E+02 -0.29983239336E+02  0.31886215160E+02  0.00000000000E+00 0. -1.
         11    1    3    3    0    0 -0.98632435427E+01 -0.27256669078E+02  0.17818587594E+02  0.34025161962E+02  0.51100000000E-03 0. -1.
        -11    1    3    3    0    0  0.38363831364E+01  0.14763100104E+02  0.56015901554E+01  0.16249454538E+02  0.51100000000E-03 0.  1.
         12    1    3    3    0    0  0.59763150096E+01  0.16430610935E+01  0.65630615872E+01  0.90271683405E+01  0.00000000000E+00 0. -1.
</event>
<event>
 7    1  0.4673733E-013  0.5930181E+02  0.7816164E-02  0.1266605E+00
        -11   -1    0    0    0    0  0.00000000000E+00  0.00000000000E+00  0.45593999997E+02  0.45594000000E+02  0.51100000000E-03 0.  1.
         11   -1    0    0    0    0 -0.00000000000E+00 -0.00000000000E+00 -0.45593999997E+02  0.45594000000E+02  0.51100000000E-03 0. -1.
    9900012    2    1    2    0    0  0.98371332100E+01 -0.36583913314E+01  0.30109399162E+02  0.59301812790E+02  0.49999760653E+02 0.  0.
         12    1    1    2    0    0 -0.98371332100E+01  0.36583913314E+01 -0.30109399162E+02  0.31886187210E+02  0.00000000000E+00 0. -1.
         11    1    3    3    0    0  0.12790988024E+02 -0.16098867147E+02  0.42773117840E+01  0.21001864069E+02  0.51100000000E-03 0. -1.
        -11    1    3    3    0    0 -0.22426598837E+01 -0.46791982561E+01  0.19262658551E+02  0.19949296589E+02  0.51100000000E-03 0.  1.
         12    1    3    3    0    0 -0.71119493021E+00  0.17119674071E+02  0.65694288262E+01  0.18350652131E+02  0.00000000000E+00 0. -1.
</event>
<event>
 7    1  0.4673733E-013  0.5930194E+02  0.7816164E-02  0.1266605E+00
        -11   -1    0    0    0    0  0.00000000000E+00  0.00000000000E+00  0.45593999997E+02  0.45594000000E+02  0.51100000000E-03 0.  1.
         11   -1    0    0    0    0 -0.00000000000E+00 -0.00000000000E+00 -0.45593999997E+02  0.45594000000E+02  0.51100000000E-03 0. -1.
    9900012    2    1    2    0    0  0.15945164517E+02 -0.48776099327E+01  0.27178694710E+02  0.59301940409E+02  0.49999993400E+02 0.  0.
         12    1    1    2    0    0 -0.15945164517E+02  0.48776099327E+01 -0.27178694710E+02  0.31886059591E+02  0.00000000000E+00 0. -1.
         11    1    3    3    0    0  0.38624835365E+01 -0.44164456454E+01 -0.71200281423E+01  0.92259726976E+01  0.51100000000E-03 0. -1.
        -11    1    3    3    0    0 -0.11836555702E+02 -0.18512694817E+01  0.15677536115E+02  0.19731102059E+02  0.51100000000E-03 0.  1.
        -12    1    3    3    0    0  0.23919236683E+02  0.13901051945E+01  0.18621186737E+02  0.30344865652E+02  0.00000000000E+00 0.  1.
</event>
<event>
 7    1  0.4673733E-013  0.5930192E+02  0.7816164E-02  0.1266605E+00
        -11   -1    0    0    0    0  0.00000000000E+00  0.00000000000E+00  0.45593999997E+02  0.45594000000E+02  0.51100000000E-03 0.  1.
         11   -1    0    0    0    0 -0.00000000000E+00 -0.00000000000E+00 -0.45593999997E+02  0.45594000000E+02  0.51100000000E-03 0. -1.
    9900012    2    1    2    0    0  0.29192686158E+02  0.11914705293E+02  0.47485795048E+01  0.59301919421E+02  0.49999955124E+02 0.  0.
         12    1    1    2    0    0 -0.29192686158E+02 -0.11914705293E+02 -0.47485795048E+01  0.31886080579E+02  0.00000000000E+00 0. -1.
         11    1    3    3    0    0 -0.48320404569E+01 -0.60346483061E+01 -0.11933016590E+01  0.78223758709E+01  0.51100000000E-03 0. -1.
        -11    1    3    3    0    0  0.38567912861E+02  0.15154315183E+02 -0.24778435069E+01  0.41512370203E+02  0.51100000000E-03 0.  1.
        -12    1    3    3    0    0 -0.45431862461E+01  0.27950384161E+01  0.84197246707E+01  0.99671733478E+01  0.00000000000E+00 0.  1.
</event>
<event>
 7    1  0.4673733E-013  0.5930193E+02  0.7816164E-02  0.1266605E+00
        -11   -1    0    0    0    0  0.00000000000E+00  0.00000000000E+00  0.45593999997E+02  0.45594000000E+02  0.51100000000E-03 0.  1.
         11   -1    0    0    0    0 -0.00000000000E+00 -0.00000000000E+00 -0.45593999997E+02  0.45594000000E+02  0.51100000000E-03 0. -1.
    9900012    2    1    2    0    0 -0.19921160798E+01 -0.25394359733E+02  0.19180181590E+02  0.59301930964E+02  0.49999976174E+02 0.  0.
         12    1    1    2    0    0  0.19921160798E+01  0.25394359733E+02 -0.19180181590E+02  0.31886069036E+02  0.00000000000E+00 0. -1.
         11    1    3    3    0    0  0.16099690281E+02 -0.18853628463E+02  0.58507097717E+01  0.25473322094E+02  0.51100000000E-03 0. -1.
        -11    1    3    3    0    0 -0.12211243840E+02 -0.15696325995E+02  0.10904118944E+02  0.22680144093E+02  0.51100000000E-03 0.  1.
        -12    1    3    3    0    0 -0.58805625208E+01  0.91555947247E+01  0.24253528751E+01  0.11148464777E+02  0.00000000000E+00 0.  1.
</event>
<event>
 7    1  0.4673733E-013  0.5930176E+02  0.7816164E-02  0.1266605E+00
        -11   -1    0    0    0    0  0.00000000000E+00  0.00000000000E+00  0.45593999997E+02  0.45594000000E+02  0.51100000000E-03 0.  1.
         11   -1    0    0    0    0 -0.00000000000E+00 -0.00000000000E+00 -0.45593999997E+02  0.45594000000E+02  0.51100000000E-03 0. -1.
    9900012    2    1    2    0    0 -0.31303606425E+02  0.57734960405E+01  0.18663131093E+01  0.59301762274E+02  0.49999668523E+02 0.  0.
         12    1    1    2    0    0  0.31303606425E+02 -0.57734960405E+01 -0.18663131093E+01  0.31886237726E+02  0.00000000000E+00 0. -1.
         11    1    3    3    0    0 -0.24135942697E+02  0.14440724242E+01 -0.22211725036E+02  0.32832755053E+02  0.51100000000E-03 0. -1.
        -11    1    3    3    0    0  0.27631650661E+00  0.34318612286E+01  0.64176914544E+01  0.72829105562E+01  0.51100000000E-03 0.  1.
         12    1    3    3    0    0 -0.74439802342E+01  0.89756238761E+00  0.17660346691E+02  0.19186096664E+02  0.00000000000E+00 0. -1.
</event>
<event>
 7    1  0.4673733E-013  0.5930195E+02  0.7816164E-02  0.1266605E+00
        -11   -1    0    0    0    0  0.00000000000E+00  0.00000000000E+00  0.45593999997E+02  0.45594000000E+02  0.51100000000E-03 0. -1.
         11   -1    0    0    0    0 -0.00000000000E+00 -0.00000000000E+00 -0.45593999997E+02  0.45594000000E+02  0.51100000000E-03 0.  1.
    9900012    2    1    2    0    0 -0.60212216442E+01 -0.11902606789E+02 -0.28961919121E+02  0.59301954186E+02  0.50000018527E+02 0.  0.
         12    1    1    2    0    0  0.60212216442E+01  0.11902606789E+02  0.28961919121E+02  0.31886045814E+02  0.00000000000E+00 0. -1.
         11    1    3    3    0    0 -0.82175014015E+01 -0.19881641390E+02  0.62844979840E+01  0.22412092915E+02  0.51100000000E-03 0. -1.
        -11    1    3    3    0    0 -0.13819771800E+01  0.68971848788E+01 -0.25456906700E+02  0.26410890163E+02  0.51100000000E-03 0.  1.
         12    1    3    3    0    0  0.35782569374E+01  0.10818497225E+01 -0.97895104050E+01  0.10478971109E+02  0.00000000000E+00 0. -1.
</event>
<event>
 7    1  0.4673733E-013  0.5930194E+02  0.7816164E-02  0.1266605E+00
        -11   -1    0    0    0    0  0.00000000000E+00  0.00000000000E+00  0.45593999997E+02  0.45594000000E+02  0.51100000000E-03 0.  1.
         11   -1    0    0    0    0 -0.00000000000E+00 -0.00000000000E+00 -0.45593999997E+02  0.45594000000E+02  0.51100000000E-03 0. -1.
    9900012    2    1    2    0    0  0.29981658371E+02  0.89294848681E+01  0.61713287201E+01  0.59301939772E+02  0.49999992238E+02 0.  0.
         12    1    1    2    0    0 -0.29981658371E+02 -0.89294848681E+01 -0.61713287201E+01  0.31886060228E+02  0.00000000000E+00 0. -1.
         11    1    3    3    0    0  0.16119580956E+02  0.90432906370E+01 -0.14948255457E+01  0.18543368071E+02  0.51100000000E-03 0. -1.
        -11    1    3    3    0    0  0.39208635881E+01 -0.13786365924E+02  0.16359023500E+02  0.21749820845E+02  0.51100000000E-03 0.  1.
        -12    1    3    3    0    0  0.99412138271E+01  0.13672560155E+02 -0.86928692341E+01  0.19008750855E+02  0.00000000000E+00 0.  1.
</event>
<event>
 7    1  0.4673733E-013  0.5930196E+02  0.7816164E-02  0.1266605E+00
        -11   -1    0    0    0    0  0.00000000000E+00  0.00000000000E+00  0.45593999997E+02  0.45594000000E+02  0.51100000000E-03 0. -1.
         11   -1    0    0    0    0 -0.00000000000E+00 -0.00000000000E+00 -0.45593999997E+02  0.45594000000E+02  0.51100000000E-03 0.  1.
    9900012    2    1    2    0    0 -0.20249201482E+02 -0.22183680741E+01 -0.24530969061E+02  0.59301956648E+02  0.50000023017E+02 0.  0.
         12    1    1    2    0    0  0.20249201482E+02  0.22183680741E+01  0.24530969061E+02  0.31886043352E+02  0.00000000000E+00 0. -1.
         11    1    3    3    0    0  0.77093125441E+01 -0.41660427761E+01  0.41154996024E+01  0.96812576432E+01  0.51100000000E-03 0. -1.
        -11    1    3    3    0    0 -0.13073451511E+02  0.12756110248E+02 -0.37186538039E+01  0.18640329113E+02  0.51100000000E-03 0.  1.
        -12    1    3    3    0    0 -0.14885062515E+02 -0.10808435546E+02 -0.24927814859E+02  0.30980369892E+02  0.00000000000E+00 0.  1.
</event>
<event>
 7    1  0.4673733E-013  0.5930195E+02  0.7816164E-02  0.1266605E+00
        -11   -1    0    0    0    0  0.00000000000E+00  0.00000000000E+00  0.45593999997E+02  0.45594000000E+02  0.51100000000E-03 0.  1.
         11   -1    0    0    0    0 -0.00000000000E+00 -0.00000000000E+00 -0.45593999997E+02  0.45594000000E+02  0.51100000000E-03 0. -1.
    9900012    2    1    2    0    0  0.18770053509E+02 -0.16133130733E+02  0.20102919809E+02  0.59301949746E+02  0.50000010429E+02 0.  0.
         12    1    1    2    0    0 -0.18770053509E+02  0.16133130733E+02 -0.20102919809E+02  0.31886050254E+02  0.00000000000E+00 0. -1.
         11    1    3    3    0    0 -0.99366002673E+01 -0.78333236855E+01 -0.80577734733E+01  0.15000823259E+02  0.51100000000E-03 0.  1.
        -11    1    3    3    0    0  0.20291019374E+02 -0.11301482168E+02  0.12770650746E+02  0.26505442595E+02  0.51100000000E-03 0. -1.
        -12    1    3    3    0    0  0.84156344021E+01  0.30016751207E+01  0.15390042536E+02  0.17795683892E+02  0.00000000000E+00 0.  1.
</event>
<event>
 7    1  0.4673733E-013  0.5930200E+02  0.7816164E-02  0.1266605E+00
        -11   -1    0    0    0    0  0.00000000000E+00  0.00000000000E+00  0.45593999997E+02  0.45594000000E+02  0.51100000000E-03 0.  1.
         11   -1    0    0    0    0 -0.00000000000E+00 -0.00000000000E+00 -0.45593999997E+02  0.45594000000E+02  0.51100000000E-03 0. -1.
    9900012    2    1    2    0    0  0.80918263194E+01  0.27199132063E+02  0.14541202284E+02  0.59301999905E+02  0.50000101907E+02 0.  0.
         12    1    1    2    0    0 -0.80918263194E+01 -0.27199132063E+02 -0.14541202284E+02  0.31886000095E+02  0.00000000000E+00 0. -1.
         11    1    3    3    0    0 -0.99208172213E+01  0.16818284800E+02 -0.75701983243E+01  0.20942426337E+02  0.51100000000E-03 0. -1.
        -11    1    3    3    0    0  0.65101552300E+01  0.89227988288E+01  0.24178779612E+02  0.26582171541E+02  0.51100000000E-03 0.  1.
         12    1    3    3    0    0  0.11502488311E+02  0.14580484345E+01 -0.20673790030E+01  0.11777402028E+02  0.00000000000E+00 0. -1.
</event>
<event>
 7    1  0.4673733E-013  0.5930193E+02  0.7816164E-02  0.1266605E+00
        -11   -1    0    0    0    0  0.00000000000E+00  0.00000000000E+00  0.45593999997E+02  0.45594000000E+02  0.51100000000E-03 0. -1.
         11   -1    0    0    0    0 -0.00000000000E+00 -0.00000000000E+00 -0.45593999997E+02  0.45594000000E+02  0.51100000000E-03 0.  1.
    9900012    2    1    2    0    0  0.24198207859E+02  0.22812073993E+01 -0.20638904361E+02  0.59301928683E+02  0.49999972015E+02 0.  0.
         12    1    1    2    0    0 -0.24198207859E+02 -0.22812073993E+01  0.20638904361E+02  0.31886071317E+02  0.00000000000E+00 0. -1.
         11    1    3    3    0    0 -0.50662368293E+01  0.10113071289E+02 -0.19172098317E+02  0.22260061111E+02  0.51100000000E-03 0. -1.
        -11    1    3    3    0    0  0.16550969128E+02 -0.14291896936E+00 -0.10549642579E+02  0.19627785503E+02  0.51100000000E-03 0.  1.
         12    1    3    3    0    0  0.12713475560E+02 -0.76889449205E+01  0.90828365355E+01  0.17414082070E+02  0.00000000000E+00 0. -1.
</event>
<event>
 7    1  0.4673733E-013  0.5930195E+02  0.7816164E-02  0.1266605E+00
        -11   -1    0    0    0    0  0.00000000000E+00  0.00000000000E+00  0.45593999997E+02  0.45594000000E+02  0.51100000000E-03 0. -1.
         11   -1    0    0    0    0 -0.00000000000E+00 -0.00000000000E+00 -0.45593999997E+02  0.45594000000E+02  0.51100000000E-03 0.  1.
    9900012    2    1    2    0    0 -0.31510869915E+02  0.48187791585E+01 -0.75139908735E+00  0.59301950449E+02  0.50000011711E+02 0.  0.
         12    1    1    2    0    0  0.31510869915E+02 -0.48187791585E+01  0.75139908735E+00  0.31886049551E+02  0.00000000000E+00 0. -1.
         11    1    3    3    0    0  0.72752430957E+00  0.86586888026E+01  0.13699484331E+02  0.16222763470E+02  0.51100000000E-03 0. -1.
        -11    1    3    3    0    0 -0.11644327025E+02 -0.12613876944E+02 -0.11104309631E+02  0.20445193471E+02  0.51100000000E-03 0.  1.
         12    1    3    3    0    0 -0.20594067199E+02  0.87739673003E+01 -0.33465737876E+01  0.22633993508E+02  0.00000000000E+00 0. -1.
</event>
<event>
 7    1  0.4673733E-013  0.5930191E+02  0.7816164E-02  0.1266605E+00
        -11   -1    0    0    0    0  0.00000000000E+00  0.00000000000E+00  0.45593999997E+02  0.45594000000E+02  0.51100000000E-03 0.  1.
         11   -1    0    0    0    0 -0.00000000000E+00 -0.00000000000E+00 -0.45593999997E+02  0.45594000000E+02  0.51100000000E-03 0. -1.
    9900012    2    1    2    0    0  0.92072558506E+00  0.95591702549E+01  0.30405543399E+02  0.59301913050E+02  0.49999943504E+02 0.  0.
         12    1    1    2    0    0 -0.92072558506E+00 -0.95591702549E+01 -0.30405543399E+02  0.31886086950E+02  0.00000000000E+00 0. -1.
         11    1    3    3    0    0  0.74795162364E+01 -0.17188804602E+02  0.68284192857E+01  0.19950575856E+02  0.51100000000E-03 0. -1.
        -11    1    3    3    0    0 -0.43526755804E+01  0.28087858956E+02  0.19302321850E+02  0.34357724525E+02  0.51100000000E-03 0.  1.
         12    1    3    3    0    0 -0.22061150710E+01 -0.13398840993E+01  0.42748022632E+01  0.49936126698E+01  0.00000000000E+00 0. -1.
</event>
<event>
 7    1  0.4673733E-013  0.5930196E+02  0.7816164E-02  0.1266605E+00
        -11   -1    0    0    0    0  0.00000000000E+00  0.00000000000E+00  0.45593999997E+02  0.45594000000E+02  0.51100000000E-03 0.  1.
         11   -1    0    0    0    0 -0.00000000000E+00 -0.00000000000E+00 -0.45593999997E+02  0.45594000000E+02  0.51100000000E-03 0. -1.
    9900012    2    1    2    0    0  0.34860659207E+00  0.30747930821E+02  0.84357865264E+01  0.59301964332E+02  0.50000037030E+02 0.  0.
         12    1    1    2    0    0 -0.34860659207E+00 -0.30747930821E+02 -0.84357865264E+01  0.31886035668E+02  0.00000000000E+00 0. -1.
         11    1    3    3    0    0  0.13044735504E+02 -0.49174086488E+01  0.18508545861E+01  0.14063132480E+02  0.51100000000E-03 0. -1.
        -11    1    3    3    0    0 -0.19009633532E+02  0.18748458733E+02  0.40579785877E+01  0.27006259688E+02  0.51100000000E-03 0.  1.
         12    1    3    3    0    0  0.63135046194E+01  0.16916880737E+02  0.25269533527E+01  0.18232572163E+02  0.00000000000E+00 0. -1.
</event>
<event>
 7    1  0.4673733E-013  0.5930193E+02  0.7816164E-02  0.1266605E+00
        -11   -1    0    0    0    0  0.00000000000E+00  0.00000000000E+00  0.45593999997E+02  0.45594000000E+02  0.51100000000E-03 0.  1.
         11   -1    0    0    0    0 -0.00000000000E+00 -0.00000000000E+00 -0.45593999997E+02  0.45594000000E+02  0.51100000000E-03 0. -1.
    9900012    2    1    2    0    0 -0.31040820495E+02 -0.72028173350E+01 -0.11436913996E+01  0.59301934947E+02  0.49999983439E+02 0.  0.
         12    1    1    2    0    0  0.31040820495E+02  0.72028173350E+01  0.11436913996E+01  0.31886065053E+02  0.00000000000E+00 0. -1.
         11    1    3    3    0    0 -0.51877321043E+01  0.45111285542E+01 -0.40909647409E+01  0.79999273741E+01  0.51100000000E-03 0. -1.
        -11    1    3    3    0    0  0.17740118859E+01 -0.37625954939E+01  0.18261236473E+02  0.18729041641E+02  0.51100000000E-03 0.  1.
        -12    1    3    3    0    0 -0.27627100276E+02 -0.79513503952E+01 -0.15313963132E+02  0.32572965932E+02  0.00000000000E+00 0.  1.
</event>
<event>
 7    1  0.4673733E-013  0.5930196E+02  0.7816164E-02  0.1266605E+00
        -11   -1    0    0    0    0  0.00000000000E+00  0.00000000000E+00  0.45593999997E+02  0.45594000000E+02  0.51100000000E-03 0. -1.
         11   -1    0    0    0    0 -0.00000000000E+00 -0.00000000000E+00 -0.45593999997E+02  0.45594000000E+02  0.51100000000E-03 0.  1.
    9900012    2    1    2    0    0 -0.92872940241E+01  0.12147745150E+01 -0.30479335549E+02  0.59301962258E+02  0.50000033247E+02 0.  0.
         12    1    1    2    0    0  0.92872940241E+01 -0.12147745150E+01  0.30479335549E+02  0.31886037742E+02  0.00000000000E+00 0. -1.
         11    1    3    3    0    0  0.68214457836E+01 -0.16146473327E+02 -0.18488764225E+02  0.25476952846E+02  0.51100000000E-03 0. -1.
        -11    1    3    3    0    0 -0.15491523073E+02  0.55554164584E+01  0.71130487954E+00  0.16472883598E+02  0.51100000000E-03 0.  1.
         12    1    3    3    0    0 -0.61721673447E+00  0.11805831384E+02 -0.12701876203E+02  0.17352125813E+02  0.00000000000E+00 0. -1.
</event>
<event>
 7    1  0.4673733E-013  0.5930176E+02  0.7816164E-02  0.1266605E+00
        -11   -1    0    0    0    0  0.00000000000E+00  0.00000000000E+00  0.45593999997E+02  0.45594000000E+02  0.51100000000E-03 0. -1.
         11   -1    0    0    0    0 -0.00000000000E+00 -0.00000000000E+00 -0.45593999997E+02  0.45594000000E+02  0.51100000000E-03 0.  1.
    9900012    2    1    2    0    0 -0.13142804716E+02 -0.78821778530E+00 -0.29040969053E+02  0.59301757095E+02  0.49999659078E+02 0.  0.
         12    1    1    2    0    0  0.13142804716E+02  0.78821778530E+00  0.29040969053E+02  0.31886242905E+02  0.00000000000E+00 0. -1.
         11    1    3    3    0    0 -0.13499766011E+02 -0.17793048012E+02 -0.14390845924E+02  0.26569393794E+02  0.51100000000E-03 0. -1.
        -11    1    3    3    0    0 -0.78178945890E+01  0.19255541863E+02 -0.10020490189E+02  0.23071748788E+02  0.51100000000E-03 0.  1.
        -12    1    3    3    0    0  0.81748558843E+01 -0.22507116362E+01 -0.46296329403E+01  0.96606145126E+01  0.00000000000E+00 0.  1.
</event>
<event>
 7    1  0.4673733E-013  0.5930194E+02  0.7816164E-02  0.1266605E+00
        -11   -1    0    0    0    0  0.00000000000E+00  0.00000000000E+00  0.45593999997E+02  0.45594000000E+02  0.51100000000E-03 0.  1.
         11   -1    0    0    0    0 -0.00000000000E+00 -0.00000000000E+00 -0.45593999997E+02  0.45594000000E+02  0.51100000000E-03 0. -1.
    9900012    2    1    2    0    0 -0.16780181573E+02 -0.23593405796E+02  0.13360301667E+02  0.59301937977E+02  0.49999988965E+02 0.  0.
         12    1    1    2    0    0  0.16780181573E+02  0.23593405796E+02 -0.13360301667E+02  0.31886062023E+02  0.00000000000E+00 0. -1.
         11    1    3    3    0    0  0.53760555682E+01  0.48858914236E+01  0.13700267719E+02  0.15507135271E+02  0.51100000000E-03 0. -1.
        -11    1    3    3    0    0 -0.62258235968E+01 -0.15702572066E+02 -0.11584535215E+02  0.20482507302E+02  0.51100000000E-03 0.  1.
         12    1    3    3    0    0 -0.15930413545E+02 -0.12776725154E+02  0.11244569162E+02  0.23312295404E+02  0.00000000000E+00 0. -1.
</event>
<event>
 7    1  0.4673733E-013  0.5930194E+02  0.7816164E-02  0.1266605E+00
        -11   -1    0    0    0    0  0.00000000000E+00  0.00000000000E+00  0.45593999997E+02  0.45594000000E+02  0.51100000000E-03 0.  1.
         11   -1    0    0    0    0 -0.00000000000E+00 -0.00000000000E+00 -0.45593999997E+02  0.45594000000E+02  0.51100000000E-03 0. -1.
    9900012    2    1    2    0    0  0.14501764124E+02 -0.10233424249E+02  0.26489555381E+02  0.59301942250E+02  0.49999996757E+02 0.  0.
         12    1    1    2    0    0 -0.14501764124E+02  0.10233424249E+02 -0.26489555381E+02  0.31886057750E+02  0.00000000000E+00 0. -1.
         11    1    3    3    0    0  0.80866539499E+01 -0.71222222755E+01 -0.48612522680E+01  0.11821666385E+02  0.51100000000E-03 0. -1.
        -11    1    3    3    0    0 -0.68060147713E+01 -0.46344263043E+01  0.33053085546E+02  0.34063267732E+02  0.51100000000E-03 0.  1.
        -12    1    3    3    0    0  0.13221124945E+02  0.15232243306E+01 -0.17022778969E+01  0.13417008132E+02  0.00000000000E+00 0.  1.
</event>
<event>
 7    1  0.4673733E-013  0.5930193E+02  0.7816164E-02  0.1266605E+00
        -11   -1    0    0    0    0  0.00000000000E+00  0.00000000000E+00  0.45593999997E+02  0.45594000000E+02  0.51100000000E-03 0.  1.
         11   -1    0    0    0    0 -0.00000000000E+00 -0.00000000000E+00 -0.45593999997E+02  0.45594000000E+02  0.51100000000E-03 0. -1.
    9900012    2    1    2    0    0 -0.19052166700E+01  0.31276226608E+02  0.59067373494E+01  0.59301925492E+02  0.49999966196E+02 0.  0.
         12    1    1    2    0    0  0.19052166700E+01 -0.31276226608E+02 -0.59067373494E+01  0.31886074508E+02  0.00000000000E+00 0. -1.
         11    1    3    3    0    0  0.63380410888E+01 -0.62640887838E+01  0.94925799081E+01  0.13019932669E+02  0.51100000000E-03 0. -1.
        -11    1    3    3    0    0  0.38600694668E+01  0.28308121436E+02 -0.92647207381E+01  0.30034728668E+02  0.51100000000E-03 0.  1.
        -12    1    3    3    0    0 -0.12103327226E+02  0.92321939559E+01  0.56788781794E+01  0.16247264156E+02  0.00000000000E+00 0.  1.
</event>
<event>
 7    1  0.4673733E-013  0.5930194E+02  0.7816164E-02  0.1266605E+00
        -11   -1    0    0    0    0  0.00000000000E+00  0.00000000000E+00  0.45593999997E+02  0.45594000000E+02  0.51100000000E-03 0.  1.
         11   -1    0    0    0    0 -0.00000000000E+00 -0.00000000000E+00 -0.45593999997E+02  0.45594000000E+02  0.51100000000E-03 0. -1.
    9900012    2    1    2    0    0  0.68518905948E+00 -0.22536168131E+02  0.22547111946E+02  0.59301943248E+02  0.49999998578E+02 0.  0.
         12    1    1    2    0    0 -0.68518905948E+00  0.22536168131E+02 -0.22547111946E+02  0.31886056752E+02  0.00000000000E+00 0. -1.
         11    1    3    3    0    0  0.10043344011E+02 -0.25749264350E+02 -0.14353792468E+01  0.27675868321E+02  0.51100000000E-03 0. -1.
        -11    1    3    3    0    0 -0.13369162128E+02 -0.74108352211E+00  0.21804008204E+02  0.25587076324E+02  0.51100000000E-03 0.  1.
         12    1    3    3    0    0  0.40110071762E+01  0.39541797405E+01  0.21784829888E+01  0.60389986025E+01  0.00000000000E+00 0. -1.
</event>
<event>
 7    1  0.4673733E-013  0.5930199E+02  0.7816164E-02  0.1266605E+00
        -11   -1    0    0    0    0  0.00000000000E+00  0.00000000000E+00  0.45593999997E+02  0.45594000000E+02  0.51100000000E-03 0.  1.
         11   -1    0    0    0    0 -0.00000000000E+00 -0.00000000000E+00 -0.45593999997E+02  0.45594000000E+02  0.51100000000E-03 0. -1.
    9900012    2    1    2    0    0 -0.31187562952E+02 -0.13757789841E+01 -0.64931351435E+01  0.59301989671E+02  0.50000083242E+02 0.  0.
         12    1    1    2    0    0  0.31187562952E+02  0.13757789841E+01  0.64931351435E+01  0.31886010329E+02  0.00000000000E+00 0. -1.
         11    1    3    3    0    0 -0.35025082416E+01  0.55000520192E+01 -0.11626662301E+02  0.13330319303E+02  0.51100000000E-03 0. -1.
        -11    1    3    3    0    0 -0.31945209322E+02  0.18600341432E+01  0.11887587079E+02  0.34136063810E+02  0.51100000000E-03 0.  1.
        -12    1    3    3    0    0  0.42601546111E+01 -0.87358651465E+01 -0.67540599216E+01  0.11835606558E+02  0.00000000000E+00 0.  1.
</event>
<event>
 7    1  0.4673733E-013  0.5930196E+02  0.7816164E-02  0.1266605E+00
        -11   -1    0    0    0    0  0.00000000000E+00  0.00000000000E+00  0.45593999997E+02  0.45594000000E+02  0.51100000000E-03 0. -1.
         11   -1    0    0    0    0 -0.00000000000E+00 -0.00000000000E+00 -0.45593999997E+02  0.45594000000E+02  0.51100000000E-03 0.  1.
    9900012    2    1    2    0    0  0.69101509149E+01  0.92018656927E+01 -0.29737093626E+02  0.59301964573E+02  0.50000037470E+02 0.  0.
         12    1    1    2    0    0 -0.69101509149E+01 -0.92018656927E+01  0.29737093626E+02  0.31886035427E+02  0.00000000000E+00 0. -1.
         11    1    3    3    0    0 -0.58070397538E+01 -0.68108837579E+01 -0.21280896890E+02  0.23086498673E+02  0.51100000000E-03 0.  1.
        -11    1    3    3    0    0  0.20598568540E+02  0.14816047106E+02 -0.11267178854E+02  0.27762665530E+02  0.51100000000E-03 0. -1.
         12    1    3    3    0    0 -0.78813778708E+01  0.11967023448E+01  0.28109821179E+01  0.84528003710E+01  0.00000000000E+00 0. -1.
</event>
<event>
 7    1  0.4673733E-013  0.5930194E+02  0.7816164E-02  0.1266605E+00
        -11   -1    0    0    0    0  0.00000000000E+00  0.00000000000E+00  0.45593999997E+02  0.45594000000E+02  0.51100000000E-03 0. -1.
         11   -1    0    0    0    0 -0.00000000000E+00 -0.00000000000E+00 -0.45593999997E+02  0.45594000000E+02  0.51100000000E-03 0.  1.
    9900012    2    1    2    0    0  0.24855824417E+02 -0.82404737563E+01 -0.18193501053E+02  0.59301938849E+02  0.49999990555E+02 0.  0.
         12    1    1    2    0    0 -0.24855824417E+02  0.82404737563E+01  0.18193501053E+02  0.31886061151E+02  0.00000000000E+00 0. -1.
         11    1    3    3    0    0 -0.45579912899E+00 -0.13315928414E+02  0.68486625521E+00  0.13341317193E+02  0.51100000000E-03 0. -1.
        -11    1    3    3    0    0  0.23580881781E+02 -0.38161651966E+01 -0.25347106643E+02  0.34829540879E+02  0.51100000000E-03 0.  1.
         12    1    3    3    0    0  0.17307417650E+01  0.88916198547E+01  0.64687393354E+01  0.11131080778E+02  0.00000000000E+00 0. -1.
</event>
<event>
 7    1  0.4673733E-013  0.5930193E+02  0.7816164E-02  0.1266605E+00
        -11   -1    0    0    0    0  0.00000000000E+00  0.00000000000E+00  0.45593999997E+02  0.45594000000E+02  0.51100000000E-03 0.  1.
         11   -1    0    0    0    0 -0.00000000000E+00 -0.00000000000E+00 -0.45593999997E+02  0.45594000000E+02  0.51100000000E-03 0. -1.
    9900012    2    1    2    0    0 -0.19360167596E+02  0.24038027974E+02 -0.80049118865E+01  0.59301929490E+02  0.49999973488E+02 0.  0.
         12    1    1    2    0    0  0.19360167596E+02 -0.24038027974E+02  0.80049118865E+01  0.31886070510E+02  0.00000000000E+00 0. -1.
         11    1    3    3    0    0 -0.34782682871E+00 -0.68813093061E+00 -0.75030766262E+01  0.75425901917E+01  0.51100000000E-03 0. -1.
        -11    1    3    3    0    0 -0.16685272689E+02  0.21901155969E+02  0.18002812669E+02  0.32896203758E+02  0.51100000000E-03 0.  1.
        -12    1    3    3    0    0 -0.23270680792E+01  0.28250029353E+01 -0.18504647929E+02  0.18863135540E+02  0.00000000000E+00 0.  1.
</event>
<event>
 7    1  0.4673733E-013  0.5930196E+02  0.7816164E-02  0.1266605E+00
        -11   -1    0    0    0    0  0.00000000000E+00  0.00000000000E+00  0.45593999997E+02  0.45594000000E+02  0.51100000000E-03 0.  1.
         11   -1    0    0    0    0 -0.00000000000E+00 -0.00000000000E+00 -0.45593999997E+02  0.45594000000E+02  0.51100000000E-03 0. -1.
    9900012    2    1    2    0    0 -0.13247546143E+02 -0.10547353557E+02  0.27018054575E+02  0.59301962007E+02  0.50000032791E+02 0.  0.
         12    1    1    2    0    0  0.13247546143E+02  0.10547353557E+02 -0.27018054575E+02  0.31886037993E+02  0.00000000000E+00 0. -1.
         11    1    3    3    0    0 -0.47516772963E+01  0.30399333484E+00 -0.12209142276E+02  0.13104732139E+02  0.51100000000E-03 0. -1.
        -11    1    3    3    0    0 -0.11047406711E+02 -0.11442606966E+02  0.15110347245E+02  0.21938574323E+02  0.51100000000E-03 0.  1.
         12    1    3    3    0    0  0.25515378648E+01  0.59126007379E+00  0.24116849605E+02  0.24258655545E+02  0.00000000000E+00 0. -1.
</event>
<event>
 7    1  0.4673733E-013  0.5930194E+02  0.7816164E-02  0.1266605E+00
        -11   -1    0    0    0    0  0.00000000000E+00  0.00000000000E+00  0.45593999997E+02  0.45594000000E+02  0.51100000000E-03 0. -1.
         11   -1    0    0    0    0 -0.00000000000E+00 -0.00000000000E+00 -0.45593999997E+02  0.45594000000E+02  0.51100000000E-03 0.  1.
    9900012    2    1    2    0    0  0.17649406706E+02  0.18186520970E+02 -0.19351219872E+02  0.59301940153E+02  0.49999992933E+02 0.  0.
         12    1    1    2    0    0 -0.17649406706E+02 -0.18186520970E+02  0.19351219872E+02  0.31886059847E+02  0.00000000000E+00 0. -1.
         11    1    3    3    0    0 -0.13633357212E+02  0.14686447061E+02  0.22190520967E+01  0.20161457006E+02  0.51100000000E-03 0. -1.
        -11    1    3    3    0    0  0.15421595823E+02  0.19314512019E+01 -0.54468948703E+01  0.16468903590E+02  0.51100000000E-03 0.  1.
         12    1    3    3    0    0  0.15861168095E+02  0.15686227070E+01 -0.16123377098E+02  0.22671579556E+02  0.00000000000E+00 0. -1.
</event>
<event>
 7    1  0.4673733E-013  0.5930197E+02  0.7816164E-02  0.1266605E+00
        -11   -1    0    0    0    0  0.00000000000E+00  0.00000000000E+00  0.45593999997E+02  0.45594000000E+02  0.51100000000E-03 0.  1.
         11   -1    0    0    0    0 -0.00000000000E+00 -0.00000000000E+00 -0.45593999997E+02  0.45594000000E+02  0.51100000000E-03 0. -1.
    9900012    2    1    2    0    0 -0.39587275680E+01  0.24638579356E+02  0.19849128275E+02  0.59301968420E+02  0.50000044486E+02 0.  0.
         12    1    1    2    0    0  0.39587275680E+01 -0.24638579356E+02 -0.19849128275E+02  0.31886031580E+02  0.00000000000E+00 0. -1.
         11    1    3    3    0    0 -0.17208624308E+02  0.23998112191E+02  0.14208375315E+02  0.32770780715E+02  0.51100000000E-03 0.  1.
        -11    1    3    3    0    0  0.14719851474E+02 -0.73707995787E+01  0.76336039760E+01  0.18145925817E+02  0.51100000000E-03 0. -1.
         12    1    3    3    0    0 -0.14699547335E+01  0.80112667434E+01 -0.19928510166E+01  0.83852618878E+01  0.00000000000E+00 0. -1.
</event>
<event>
 7    1  0.4673733E-013  0.5930194E+02  0.7816164E-02  0.1266605E+00
        -11   -1    0    0    0    0  0.00000000000E+00  0.00000000000E+00  0.45593999997E+02  0.45594000000E+02  0.51100000000E-03 0.  1.
         11   -1    0    0    0    0 -0.00000000000E+00 -0.00000000000E+00 -0.45593999997E+02  0.45594000000E+02  0.51100000000E-03 0. -1.
    9900012    2    1    2    0    0 -0.26032405910E+02  0.13274137100E+02  0.12760559793E+02  0.59301940985E+02  0.49999994452E+02 0.  0.
         12    1    1    2    0    0  0.26032405910E+02 -0.13274137100E+02 -0.12760559793E+02  0.31886059015E+02  0.00000000000E+00 0. -1.
         11    1    3    3    0    0 -0.49426466195E+01 -0.64545114925E+01 -0.13160417958E+02  0.15468906726E+02  0.51100000000E-03 0. -1.
        -11    1    3    3    0    0 -0.22886664862E+02  0.10985749313E+02  0.14160372801E+02  0.29068922832E+02  0.51100000000E-03 0.  1.
        -12    1    3    3    0    0  0.17969055716E+01  0.87428992801E+01  0.11760604950E+02  0.14764111428E+02  0.00000000000E+00 0.  1.
</event>
<event>
 7    1  0.4673733E-013  0.5930193E+02  0.7816164E-02  0.1266605E+00
        -11   -1    0    0    0    0  0.00000000000E+00  0.00000000000E+00  0.45593999997E+02  0.45594000000E+02  0.51100000000E-03 0. -1.
         11   -1    0    0    0    0 -0.00000000000E+00 -0.00000000000E+00 -0.45593999997E+02  0.45594000000E+02  0.51100000000E-03 0.  1.
    9900012    2    1    2    0    0  0.23861066381E+01  0.25966624282E+02 -0.18351090757E+02  0.59301927594E+02  0.49999970029E+02 0.  0.
         12    1    1    2    0    0 -0.23861066381E+01 -0.25966624282E+02  0.18351090757E+02  0.31886072406E+02  0.00000000000E+00 0. -1.
         11    1    3    3    0    0  0.25208907469E+02  0.65642232314E+01 -0.93404750741E+01  0.27673498465E+02  0.51100000000E-03 0.  1.
        -11    1    3    3    0    0 -0.11843304527E+02  0.13004493222E+02 -0.46500204475E+01  0.18193498742E+02  0.51100000000E-03 0. -1.
        -12    1    3    3    0    0 -0.10979496305E+02  0.63979078291E+01 -0.43605952351E+01  0.13434930387E+02  0.00000000000E+00 0.  1.
</event>
<event>
 7    1  0.4673733E-013  0.5930195E+02  0.7816164E-02  0.1266605E+00
        -11   -1    0    0    0    0  0.00000000000E+00  0.00000000000E+00  0.45593999997E+02  0.45594000000E+02  0.51100000000E-03 0.  1.
         11   -1    0    0    0    0 -0.00000000000E+00 -0.00000000000E+00 -0.45593999997E+02  0.45594000000E+02  0.51100000000E-03 0. -1.
    9900012    2    1    2    0    0  0.38958583377E+01 -0.31442409918E+02  0.35940762142E+01  0.59301949171E+02  0.50000009380E+02 0.  0.
         12    1    1    2    0    0 -0.38958583377E+01  0.31442409918E+02 -0.35940762142E+01  0.31886050829E+02  0.00000000000E+00 0. -1.
         11    1    3    3    0    0 -0.33683933765E+01 -0.84647851433E+01  0.22569373582E+02  0.24338760971E+02  0.51100000000E-03 0. -1.
        -11    1    3    3    0    0 -0.51613478874E+01 -0.72296114475E+01 -0.86634639041E+01  0.12408158638E+02  0.51100000000E-03 0.  1.
         12    1    3    3    0    0  0.12425599602E+02 -0.15748013327E+02 -0.10311833463E+02  0.22555029563E+02  0.00000000000E+00 0. -1.
</event>
<event>
 7    1  0.4673733E-013  0.5930194E+02  0.7816164E-02  0.1266605E+00
        -11   -1    0    0    0    0  0.00000000000E+00  0.00000000000E+00  0.45593999997E+02  0.45594000000E+02  0.51100000000E-03 0. -1.
         11   -1    0    0    0    0 -0.00000000000E+00 -0.00000000000E+00 -0.45593999997E+02  0.45594000000E+02  0.51100000000E-03 0.  1.
    9900012    2    1    2    0    0 -0.21727154684E+02 -0.20756319770E+02  0.10668963162E+02  0.59301939785E+02  0.49999992263E+02 0.  0.
         12    1    1    2    0    0  0.21727154684E+02  0.20756319770E+02 -0.10668963162E+02  0.31886060215E+02  0.00000000000E+00 0. -1.
         11    1    3    3    0    0  0.73766649784E+01 -0.39732123864E+01 -0.10639492944E+00  0.83793151876E+01  0.51100000000E-03 0. -1.
        -11    1    3    3    0    0 -0.15296720677E+02  0.10616458936E+02  0.71501411317E+00  0.18633574784E+02  0.51100000000E-03 0.  1.
         12    1    3    3    0    0 -0.13807098986E+02 -0.27399566319E+02  0.10060343978E+02  0.32289049814E+02  0.00000000000E+00 0. -1.
</event>
<event>
 7    1  0.4673733E-013  0.5930194E+02  0.7816164E-02  0.1266605E+00
        -11   -1    0    0    0    0  0.00000000000E+00  0.00000000000E+00  0.45593999997E+02  0.45594000000E+02  0.51100000000E-03 0.  1.
         11   -1    0    0    0    0 -0.00000000000E+00 -0.00000000000E+00 -0.45593999997E+02  0.45594000000E+02  0.51100000000E-03 0. -1.
    9900012    2    1    2    0    0  0.25539488324E+01 -0.27396707941E+02  0.16112677003E+02  0.59301943159E+02  0.49999998416E+02 0.  0.
         12    1    1    2    0    0 -0.25539488324E+01  0.27396707941E+02 -0.16112677003E+02  0.31886056841E+02  0.00000000000E+00 0. -1.
         11    1    3    3    0    0 -0.12619628301E+02  0.64718960829E+01 -0.24742882225E+01  0.14396616263E+02  0.51100000000E-03 0. -1.
        -11    1    3    3    0    0  0.86712922597E+01 -0.32837205014E+02  0.13348169931E+02  0.36491738564E+02  0.51100000000E-03 0.  1.
         12    1    3    3    0    0  0.65022848735E+01 -0.10313990093E+01  0.52387952947E+01  0.84135883327E+01  0.00000000000E+00 0. -1.
</event>
<event>
 7    1  0.4673733E-013  0.5930194E+02  0.7816164E-02  0.1266605E+00
        -11   -1    0    0    0    0  0.00000000000E+00  0.00000000000E+00  0.45593999997E+02  0.45594000000E+02  0.51100000000E-03 0. -1.
         11   -1    0    0    0    0 -0.00000000000E+00 -0.00000000000E+00 -0.45593999997E+02  0.45594000000E+02  0.51100000000E-03 0.  1.
    9900012    2    1    2    0    0 -0.30585419379E+02 -0.81808673176E+01 -0.37849756143E+01  0.59301944913E+02  0.50000001614E+02 0.  0.
         12    1    1    2    0    0  0.30585419379E+02  0.81808673176E+01  0.37849756143E+01  0.31886055087E+02  0.00000000000E+00 0. -1.
         11    1    3    3    0    0 -0.29591820207E+02 -0.34977486728E+01  0.68504708291E+01  0.30575137282E+02  0.51100000000E-03 0. -1.
        -11    1    3    3    0    0  0.12249358608E+02  0.56291814771E+00 -0.65819014507E+01  0.13917079080E+02  0.51100000000E-03 0.  1.
        -12    1    3    3    0    0 -0.13242957779E+02 -0.52460367925E+01 -0.40535449926E+01  0.14809728551E+02  0.00000000000E+00 0.  1.
</event>
<event>
 7    1  0.4673733E-013  0.5930195E+02  0.7816164E-02  0.1266605E+00
        -11   -1    0    0    0    0  0.00000000000E+00  0.00000000000E+00  0.45593999997E+02  0.45594000000E+02  0.51100000000E-03 0.  1.
         11   -1    0    0    0    0 -0.00000000000E+00 -0.00000000000E+00 -0.45593999997E+02  0.45594000000E+02  0.51100000000E-03 0. -1.
    9900012    2    1    2    0    0 -0.23666584224E+02  0.14937440555E+02  0.15280253074E+02  0.59301945475E+02  0.50000002640E+02 0.  0.
         12    1    1    2    0    0  0.23666584224E+02 -0.14937440555E+02 -0.15280253074E+02  0.31886054525E+02  0.00000000000E+00 0. -1.
         11    1    3    3    0    0 -0.24742933476E+01  0.61643995699E+00  0.64712973372E+01  0.69555600262E+01  0.51100000000E-03 0. -1.
        -11    1    3    3    0    0 -0.25853843665E+02  0.50189406789E+01 -0.12106514174E+02  0.28985835911E+02  0.51100000000E-03 0.  1.
        -12    1    3    3    0    0  0.46615527882E+01  0.93020599187E+01  0.20915469910E+02  0.23360549538E+02  0.00000000000E+00 0.  1.
</event>
<event>
 7    1  0.4673733E-013  0.5930191E+02  0.7816164E-02  0.1266605E+00
        -11   -1    0    0    0    0  0.00000000000E+00  0.00000000000E+00  0.45593999997E+02  0.45594000000E+02  0.51100000000E-03 0. -1.
         11   -1    0    0    0    0 -0.00000000000E+00 -0.00000000000E+00 -0.45593999997E+02  0.45594000000E+02  0.51100000000E-03 0.  1.
    9900012    2    1    2    0    0 -0.55133868882E+01 -0.29765478808E+02  0.10017056317E+02  0.59301912424E+02  0.49999942362E+02 0.  0.
         12    1    1    2    0    0  0.55133868882E+01  0.29765478808E+02 -0.10017056317E+02  0.31886087576E+02  0.00000000000E+00 0. -1.
         11    1    3    3    0    0 -0.38733349230E+01 -0.35970244597E+02 -0.67477929609E+01  0.36802091379E+02  0.51100000000E-03 0.  1.
        -11    1    3    3    0    0 -0.67324930256E+01  0.71230853475E+01  0.11640469295E+02  0.15217270875E+02  0.51100000000E-03 0. -1.
        -12    1    3    3    0    0  0.50924410603E+01 -0.91831955903E+00  0.51243799830E+01  0.72825501698E+01  0.00000000000E+00 0.  1.
</event>
<event>
 7    1  0.4673733E-013  0.5930195E+02  0.7816164E-02  0.1266605E+00
        -11   -1    0    0    0    0  0.00000000000E+00  0.00000000000E+00  0.45593999997E+02  0.45594000000E+02  0.51100000000E-03 0.  1.
         11   -1    0    0    0    0 -0.00000000000E+00 -0.00000000000E+00 -0.45593999997E+02  0.45594000000E+02  0.51100000000E-03 0. -1.
    9900012    2    1    2    0    0  0.13069107746E+02  0.27122432396E+02  0.10502015140E+02  0.59301949158E+02  0.50000009356E+02 0.  0.
         12    1    1    2    0    0 -0.13069107746E+02 -0.27122432396E+02 -0.10502015140E+02  0.31886050842E+02  0.00000000000E+00 0. -1.
         11    1    3    3    0    0 -0.76774510019E+01  0.13278417067E+02  0.37553738341E+01  0.15791214222E+02  0.51100000000E-03 0. -1.
        -11    1    3    3    0    0  0.23919884177E+02 -0.13926791854E+01 -0.44080834246E+01  0.24362504266E+02  0.51100000000E-03 0.  1.
        -12    1    3    3    0    0 -0.31733254296E+01  0.15236694514E+02  0.11154724730E+02  0.19148230670E+02  0.00000000000E+00 0.  1.
</event>
<event>
 7    1  0.4673733E-013  0.5930193E+02  0.7816164E-02  0.1266605E+00
        -11   -1    0    0    0    0  0.00000000000E+00  0.00000000000E+00  0.45593999997E+02  0.45594000000E+02  0.51100000000E-03 0.  1.
         11   -1    0    0    0    0 -0.00000000000E+00 -0.00000000000E+00 -0.45593999997E+02  0.45594000000E+02  0.51100000000E-03 0. -1.
    9900012    2    1    2    0    0  0.19550438996E+02 -0.48355992617E+01  0.24720817508E+02  0.59301929320E+02  0.49999973176E+02 0.  0.
         12    1    1    2    0    0 -0.19550438996E+02  0.48355992617E+01 -0.24720817508E+02  0.31886070680E+02  0.00000000000E+00 0. -1.
         11    1    3    3    0    0 -0.21122215748E+01 -0.19467389616E+02  0.10625404881E+02  0.22278688642E+02  0.51100000000E-03 0.  1.
        -11    1    3    3    0    0  0.20457195730E+02  0.59277352141E+01  0.17533659745E+02  0.27587390710E+02  0.51100000000E-03 0. -1.
         12    1    3    3    0    0  0.12054648409E+01  0.87040551405E+01 -0.34382471176E+01  0.94358499677E+01  0.00000000000E+00 0. -1.
</event>
<event>
 7    1  0.4673733E-013  0.5930197E+02  0.7816164E-02  0.1266605E+00
        -11   -1    0    0    0    0  0.00000000000E+00  0.00000000000E+00  0.45593999997E+02  0.45594000000E+02  0.51100000000E-03 0.  1.
         11   -1    0    0    0    0 -0.00000000000E+00 -0.00000000000E+00 -0.45593999997E+02  0.45594000000E+02  0.51100000000E-03 0. -1.
    9900012    2    1    2    0    0 -0.98488564474E+01  0.13270354396E+02  0.27269336711E+02  0.59301968516E+02  0.50000044661E+02 0.  0.
         12    1    1    2    0    0  0.98488564474E+01 -0.13270354396E+02 -0.27269336711E+02  0.31886031484E+02  0.00000000000E+00 0. -1.
         11    1    3    3    0    0  0.52627205215E+01 -0.85192662994E+01  0.27984585766E+02  0.29722233535E+02  0.51100000000E-03 0. -1.
        -11    1    3    3    0    0 -0.51179806321E+01  0.55101344880E+01  0.56920754109E+01  0.94315974559E+01  0.51100000000E-03 0.  1.
         12    1    3    3    0    0 -0.99935963368E+01  0.16279486207E+02 -0.64073244656E+01  0.20148137525E+02  0.00000000000E+00 0. -1.
</event>
<event>
 7    1  0.4673733E-013  0.5930194E+02  0.7816164E-02  0.1266605E+00
        -11   -1    0    0    0    0  0.00000000000E+00  0.00000000000E+00  0.45593999997E+02  0.45594000000E+02  0.51100000000E-03 0.  1.
         11   -1    0    0    0    0 -0.00000000000E+00 -0.00000000000E+00 -0.45593999997E+02  0.45594000000E+02  0.51100000000E-03 0. -1.
    9900012    2    1    2    0    0 -0.70410981530E+01  0.27781642229E+02  0.13975850997E+02  0.59301935344E+02  0.49999984164E+02 0.  0.
         12    1    1    2    0    0  0.70410981530E+01 -0.27781642229E+02 -0.13975850997E+02  0.31886064656E+02  0.00000000000E+00 0. -1.
         11    1    3    3    0    0 -0.78099395447E+01  0.79531184643E+01 -0.76153598646E+01  0.13499665001E+02  0.51100000000E-03 0. -1.
        -11    1    3    3    0    0  0.11179377789E+02  0.13457478157E+02  0.27223185713E+02  0.32360223218E+02  0.51100000000E-03 0.  1.
        -12    1    3    3    0    0 -0.10410536397E+02  0.63710456076E+01 -0.56319748511E+01  0.13442047126E+02  0.00000000000E+00 0.  1.
</event>
<event>
 7    1  0.4673733E-013  0.5930195E+02  0.7816164E-02  0.1266605E+00
        -11   -1    0    0    0    0  0.00000000000E+00  0.00000000000E+00  0.45593999997E+02  0.45594000000E+02  0.51100000000E-03 0.  1.
         11   -1    0    0    0    0 -0.00000000000E+00 -0.00000000000E+00 -0.45593999997E+02  0.45594000000E+02  0.51100000000E-03 0. -1.
    9900012    2    1    2    0    0 -0.20813469573E+01 -0.11473898214E+02  0.29677223683E+02  0.59301953664E+02  0.50000017575E+02 0.  0.
         12    1    1    2    0    0  0.20813469573E+01  0.11473898214E+02 -0.29677223683E+02  0.31886046336E+02  0.00000000000E+00 0. -1.
         11    1    3    3    0    0  0.95707045005E+00 -0.25482560754E+02  0.10121090223E+02  0.27435621990E+02  0.51100000000E-03 0. -1.
        -11    1    3    3    0    0  0.28740306228E+01  0.13601519186E+02  0.29187798246E+01  0.14204951676E+02  0.51100000000E-03 0.  1.
        -12    1    3    3    0    0 -0.59124480301E+01  0.40714335402E+00  0.16637353636E+02  0.17661379998E+02  0.00000000000E+00 0.  1.
</event>
<event>
 7    1  0.4766086E-013  0.5930194E+02  0.7816164E-02  0.1266605E+00
        -11   -1    0    0    0    0  0.00000000000E+00  0.00000000000E+00  0.45593999997E+02  0.45594000000E+02  0.51100000000E-03 0.  1.
         11   -1    0    0    0    0 -0.00000000000E+00 -0.00000000000E+00 -0.45593999997E+02  0.45594000000E+02  0.51100000000E-03 0. -1.
    9900012    2    1    2    0    0  0.20656561968E+02 -0.47556303151E+01  0.23820390666E+02  0.59301943745E+02  0.49999999484E+02 0.  0.
         12    1    1    2    0    0 -0.20656561968E+02  0.47556303151E+01 -0.23820390666E+02  0.31886056255E+02  0.00000000000E+00 0. -1.
         11    1    3    3    0    0 -0.55053247495E+01 -0.55435838166E+01 -0.78152279315E+01  0.11050688214E+02  0.51100000000E-03 0. -1.
        -11    1    3    3    0    0  0.12632605706E+02  0.11528227495E+02  0.23738815688E+02  0.29257719094E+02  0.51100000000E-03 0.  1.
        -12    1    3    3    0    0  0.13529281012E+02 -0.10740273993E+02  0.78968029100E+01  0.18993536436E+02  0.00000000000E+00 0.  1.
</event>
<event>
 7    1  0.4673733E-013  0.5930194E+02  0.7816164E-02  0.1266605E+00
        -11   -1    0    0    0    0  0.00000000000E+00  0.00000000000E+00  0.45593999997E+02  0.45594000000E+02  0.51100000000E-03 0.  1.
         11   -1    0    0    0    0 -0.00000000000E+00 -0.00000000000E+00 -0.45593999997E+02  0.45594000000E+02  0.51100000000E-03 0. -1.
    9900012    2    1    2    0    0 -0.14761212974E+02 -0.47948359767E+01  0.27853845234E+02  0.59301944195E+02  0.50000000305E+02 0.  0.
         12    1    1    2    0    0  0.14761212974E+02  0.47948359767E+01 -0.27853845234E+02  0.31886055805E+02  0.00000000000E+00 0. -1.
         11    1    3    3    0    0  0.68958254773E+01 -0.14653629075E+02 -0.40703534254E+01  0.16698773348E+02  0.51100000000E-03 0. -1.
        -11    1    3    3    0    0 -0.15979386845E+02  0.90915423265E+01  0.12201587278E+02  0.22065259531E+02  0.51100000000E-03 0.  1.
         12    1    3    3    0    0 -0.56776516060E+01  0.76725077147E+00  0.19722611381E+02  0.20537911315E+02  0.00000000000E+00 0. -1.
</event>
<event>
 7    1  0.4673733E-013  0.5930196E+02  0.7816164E-02  0.1266605E+00
        -11   -1    0    0    0    0  0.00000000000E+00  0.00000000000E+00  0.45593999997E+02  0.45594000000E+02  0.51100000000E-03 0.  1.
         11   -1    0    0    0    0 -0.00000000000E+00 -0.00000000000E+00 -0.45593999997E+02  0.45594000000E+02  0.51100000000E-03 0. -1.
    9900012    2    1    2    0    0  0.62825009892E+01 -0.28555642719E+02  0.12721040051E+02  0.59301962150E+02  0.50000033050E+02 0.  0.
         12    1    1    2    0    0 -0.62825009892E+01  0.28555642719E+02 -0.12721040051E+02  0.31886037850E+02  0.00000000000E+00 0. -1.
         11    1    3    3    0    0  0.30096417383E+01  0.87608793131E+01  0.18777311479E+01  0.94518159238E+01  0.51100000000E-03 0. -1.
        -11    1    3    3    0    0 -0.18180496597E+01 -0.13677057978E+02 -0.10703084576E+02  0.17462051403E+02  0.51100000000E-03 0.  1.
        -12    1    3    3    0    0  0.50909089106E+01 -0.23639464054E+02  0.21546393479E+02  0.32388094823E+02  0.00000000000E+00 0.  1.
</event>
<event>
 7    1  0.4673733E-013  0.5930195E+02  0.7816164E-02  0.1266605E+00
        -11   -1    0    0    0    0  0.00000000000E+00  0.00000000000E+00  0.45593999997E+02  0.45594000000E+02  0.51100000000E-03 0.  1.
         11   -1    0    0    0    0 -0.00000000000E+00 -0.00000000000E+00 -0.45593999997E+02  0.45594000000E+02  0.51100000000E-03 0. -1.
    9900012    2    1    2    0    0  0.17173609662E+02 -0.22132259302E+02  0.15229927429E+02  0.59301945680E+02  0.50000003013E+02 0.  0.
         12    1    1    2    0    0 -0.17173609662E+02  0.22132259302E+02 -0.15229927429E+02  0.31886054320E+02  0.00000000000E+00 0. -1.
         11    1    3    3    0    0  0.26043288142E+01  0.72447553386E+01 -0.89074169933E+01  0.11773320952E+02  0.51100000000E-03 0. -1.
        -11    1    3    3    0    0  0.13313661642E+02 -0.19074582470E+02  0.28046998756E+02  0.36437994213E+02  0.51100000000E-03 0.  1.
        -12    1    3    3    0    0  0.12556192056E+01 -0.10302432170E+02 -0.39096543341E+01  0.11090630515E+02  0.00000000000E+00 0.  1.
</event>
<event>
 7    1  0.4673733E-013  0.5930194E+02  0.7816164E-02  0.1266605E+00
        -11   -1    0    0    0    0  0.00000000000E+00  0.00000000000E+00  0.45593999997E+02  0.45594000000E+02  0.51100000000E-03 0.  1.
         11   -1    0    0    0    0 -0.00000000000E+00 -0.00000000000E+00 -0.45593999997E+02  0.45594000000E+02  0.51100000000E-03 0. -1.
    9900012    2    1    2    0    0 -0.96567007401E+01 -0.30893344148E+01  0.30231186822E+02  0.59301944851E+02  0.50000001501E+02 0.  0.
         12    1    1    2    0    0  0.96567007401E+01  0.30893344148E+01 -0.30231186822E+02  0.31886055149E+02  0.00000000000E+00 0. -1.
         11    1    3    3    0    0 -0.37967331928E+01  0.12717473334E+02 -0.73949771926E+01  0.15193255046E+02  0.51100000000E-03 0. -1.
        -11    1    3    3    0    0 -0.87571477602E+01 -0.85169501370E+01  0.11307653017E+02  0.16645993318E+02  0.51100000000E-03 0.  1.
         12    1    3    3    0    0  0.28971802128E+01 -0.72898576123E+01  0.26318510998E+02  0.27462696487E+02  0.00000000000E+00 0. -1.
</event>
<event>
 7    1  0.4673733E-013  0.5930190E+02  0.7816164E-02  0.1266605E+00
        -11   -1    0    0    0    0  0.00000000000E+00  0.00000000000E+00  0.45593999997E+02  0.45594000000E+02  0.51100000000E-03 0. -1.
         11   -1    0    0    0    0 -0.00000000000E+00 -0.00000000000E+00 -0.45593999997E+02  0.45594000000E+02  0.51100000000E-03 0.  1.
    9900012    2    1    2    0    0  0.19363352333E+02 -0.16308601688E+02 -0.19385901984E+02  0.59301904311E+02  0.49999927565E+02 0.  0.
         12    1    1    2    0    0 -0.19363352333E+02  0.16308601688E+02  0.19385901984E+02  0.31886095689E+02  0.00000000000E+00 0. -1.
         11    1    3    3    0    0  0.90077774758E+00 -0.20944657682E+02 -0.16782547944E+01  0.21031087119E+02  0.51100000000E-03 0. -1.
        -11    1    3    3    0    0  0.12795294602E+02  0.35014878489E-01 -0.24917475005E+02  0.28010736350E+02  0.51100000000E-03 0.  1.
        -12    1    3    3    0    0  0.56672799833E+01  0.46010411155E+01  0.72098278154E+01  0.10260080842E+02  0.00000000000E+00 0.  1.
</event>
<event>
 7    1  0.4673733E-013  0.5930194E+02  0.7816164E-02  0.1266605E+00
        -11   -1    0    0    0    0  0.00000000000E+00  0.00000000000E+00  0.45593999997E+02  0.45594000000E+02  0.51100000000E-03 0. -1.
         11   -1    0    0    0    0 -0.00000000000E+00 -0.00000000000E+00 -0.45593999997E+02  0.45594000000E+02  0.51100000000E-03 0.  1.
    9900012    2    1    2    0    0  0.20951227960E+01  0.19137884315E+02 -0.25417958770E+02  0.59301940607E+02  0.49999993762E+02 0.  0.
         12    1    1    2    0    0 -0.20951227960E+01 -0.19137884315E+02  0.25417958770E+02  0.31886059393E+02  0.00000000000E+00 0. -1.
         11    1    3    3    0    0  0.20214852532E+02  0.16178552556E+02 -0.25779992899E+02  0.36537567787E+02  0.51100000000E-03 0. -1.
        -11    1    3    3    0    0 -0.20386701438E+01 -0.44512328247E+01  0.11906650016E+01  0.50385844264E+01  0.51100000000E-03 0.  1.
         12    1    3    3    0    0 -0.16081059592E+02  0.74105645842E+01 -0.82863087234E+00  0.17725788394E+02  0.00000000000E+00 0. -1.
</event>
<event>
 7    1  0.4673733E-013  0.5930189E+02  0.7816164E-02  0.1266605E+00
        -11   -1    0    0    0    0  0.00000000000E+00  0.00000000000E+00  0.45593999997E+02  0.45594000000E+02  0.51100000000E-03 0.  1.
         11   -1    0    0    0    0 -0.00000000000E+00 -0.00000000000E+00 -0.45593999997E+02  0.45594000000E+02  0.51100000000E-03 0. -1.
    9900012    2    1    2    0    0 -0.10499099006E+02 -0.21240889215E+02  0.21338178238E+02  0.59301885387E+02  0.49999893053E+02 0.  0.
         12    1    1    2    0    0  0.10499099006E+02  0.21240889215E+02 -0.21338178238E+02  0.31886114613E+02  0.00000000000E+00 0. -1.
         11    1    3    3    0    0 -0.20281028402E+02 -0.25209956834E+02  0.19592112992E+02  0.37824766071E+02  0.51100000000E-03 0.  1.
        -11    1    3    3    0    0  0.11448704148E+02  0.91047342866E+01 -0.21963121128E+01  0.14791646300E+02  0.51100000000E-03 0. -1.
         12    1    3    3    0    0 -0.16667747523E+01 -0.51356666683E+01  0.39423773593E+01  0.66854730158E+01  0.00000000000E+00 0. -1.
</event>
<event>
 7    1  0.4673733E-013  0.5930196E+02  0.7816164E-02  0.1266605E+00
        -11   -1    0    0    0    0  0.00000000000E+00  0.00000000000E+00  0.45593999997E+02  0.45594000000E+02  0.51100000000E-03 0. -1.
         11   -1    0    0    0    0 -0.00000000000E+00 -0.00000000000E+00 -0.45593999997E+02  0.45594000000E+02  0.51100000000E-03 0.  1.
    9900012    2    1    2    0    0 -0.29155809744E+02  0.30138540030E+01 -0.12552896408E+02  0.59301956564E+02  0.50000022863E+02 0.  0.
         12    1    1    2    0    0  0.29155809744E+02 -0.30138540030E+01  0.12552896408E+02  0.31886043436E+02  0.00000000000E+00 0. -1.
         11    1    3    3    0    0 -0.64738161062E+01  0.11855236734E+02 -0.19304000528E+01  0.13644902990E+02  0.51100000000E-03 0. -1.
        -11    1    3    3    0    0 -0.16156826913E+02 -0.12505183650E+02  0.10697337968E+02  0.23061997179E+02  0.51100000000E-03 0.  1.
        -12    1    3    3    0    0 -0.65251667246E+01  0.36638009190E+01 -0.21319834322E+02  0.22595056395E+02  0.00000000000E+00 0.  1.
</event>
<event>
 7    1  0.4673733E-013  0.5930191E+02  0.7816164E-02  0.1266605E+00
        -11   -1    0    0    0    0  0.00000000000E+00  0.00000000000E+00  0.45593999997E+02  0.45594000000E+02  0.51100000000E-03 0.  1.
         11   -1    0    0    0    0 -0.00000000000E+00 -0.00000000000E+00 -0.45593999997E+02  0.45594000000E+02  0.51100000000E-03 0. -1.
    9900012    2    1    2    0    0  0.94928834181E+00 -0.59034583580E+01  0.31320451679E+02  0.59301911147E+02  0.49999940034E+02 0.  0.
         12    1    1    2    0    0 -0.94928834181E+00  0.59034583580E+01 -0.31320451679E+02  0.31886088853E+02  0.00000000000E+00 0. -1.
         11    1    3    3    0    0  0.41907905110E+01 -0.72226211349E+00  0.31954747093E+02  0.32236473903E+02  0.51100000000E-03 0. -1.
        -11    1    3    3    0    0 -0.72399501266E+01 -0.14250523129E+02 -0.42087095096E+01  0.16528990389E+02  0.51100000000E-03 0.  1.
         12    1    3    3    0    0  0.39984479575E+01  0.90693268842E+01  0.35744140957E+01  0.10536446855E+02  0.00000000000E+00 0. -1.
</event>
<event>
 7    1  0.4673733E-013  0.5930196E+02  0.7816164E-02  0.1266605E+00
        -11   -1    0    0    0    0  0.00000000000E+00  0.00000000000E+00  0.45593999997E+02  0.45594000000E+02  0.51100000000E-03 0. -1.
         11   -1    0    0    0    0 -0.00000000000E+00 -0.00000000000E+00 -0.45593999997E+02  0.45594000000E+02  0.51100000000E-03 0.  1.
    9900012    2    1    2    0    0  0.29031371117E+02  0.10813380942E+02 -0.75478386483E+01  0.59301959408E+02  0.50000028051E+02 0.  0.
         12    1    1    2    0    0 -0.29031371117E+02 -0.10813380942E+02  0.75478386483E+01  0.31886040592E+02  0.00000000000E+00 0. -1.
         11    1    3    3    0    0 -0.45218177715E+01  0.15271545018E+02  0.37208820365E+01  0.16355790614E+02  0.51100000000E-03 0. -1.
        -11    1    3    3    0    0  0.11299945741E+02 -0.12696925549E+02 -0.86534542599E+01  0.19073095266E+02  0.51100000000E-03 0.  1.
        -12    1    3    3    0    0  0.22253243148E+02  0.82387614734E+01 -0.26152664249E+01  0.23873073529E+02  0.00000000000E+00 0.  1.
</event>
<event>
 7    1  0.4673733E-013  0.5930195E+02  0.7816164E-02  0.1266605E+00
        -11   -1    0    0    0    0  0.00000000000E+00  0.00000000000E+00  0.45593999997E+02  0.45594000000E+02  0.51100000000E-03 0. -1.
         11   -1    0    0    0    0 -0.00000000000E+00 -0.00000000000E+00 -0.45593999997E+02  0.45594000000E+02  0.51100000000E-03 0.  1.
    9900012    2    1    2    0    0  0.13632177109E+02 -0.24220398141E+02 -0.15628703845E+02  0.59301947834E+02  0.50000006941E+02 0.  0.
         12    1    1    2    0    0 -0.13632177109E+02  0.24220398141E+02  0.15628703845E+02  0.31886052166E+02  0.00000000000E+00 0. -1.
         11    1    3    3    0    0  0.83619066056E+01 -0.20135128772E+02 -0.84734369491E+00  0.21818865332E+02  0.51100000000E-03 0. -1.
        -11    1    3    3    0    0 -0.10431175099E+01  0.11488332104E+02 -0.16987762559E+02  0.20534214026E+02  0.51100000000E-03 0.  1.
        -12    1    3    3    0    0  0.63133880136E+01 -0.15573601472E+02  0.22064024084E+01  0.16948868476E+02  0.00000000000E+00 0.  1.
</event>
<event>
 7    1  0.4673733E-013  0.5930197E+02  0.7816164E-02  0.1266605E+00
        -11   -1    0    0    0    0  0.00000000000E+00  0.00000000000E+00  0.45593999997E+02  0.45594000000E+02  0.51100000000E-03 0.  1.
         11   -1    0    0    0    0 -0.00000000000E+00 -0.00000000000E+00 -0.45593999997E+02  0.45594000000E+02  0.51100000000E-03 0. -1.
    9900012    2    1    2    0    0 -0.24478639768E+02 -0.19120421757E+02 -0.72058803565E+01  0.59301967874E+02  0.50000043489E+02 0.  0.
         12    1    1    2    0    0  0.24478639768E+02  0.19120421757E+02  0.72058803565E+01  0.31886032126E+02  0.00000000000E+00 0. -1.
         11    1    3    3    0    0 -0.83701782766E+01 -0.72869135526E+01 -0.59590740007E+01  0.12596410469E+02  0.51100000000E-03 0. -1.
        -11    1    3    3    0    0 -0.58057521075E+01 -0.59307060631E-01  0.19713099419E+02  0.20550342182E+02  0.51100000000E-03 0.  1.
        -12    1    3    3    0    0 -0.10302709384E+02 -0.11774201143E+02 -0.20959905775E+02  0.26155215222E+02  0.00000000000E+00 0.  1.
</event>
<event>
 7    1  0.4673733E-013  0.5930195E+02  0.7816164E-02  0.1266605E+00
        -11   -1    0    0    0    0  0.00000000000E+00  0.00000000000E+00  0.45593999997E+02  0.45594000000E+02  0.51100000000E-03 0. -1.
         11   -1    0    0    0    0 -0.00000000000E+00 -0.00000000000E+00 -0.45593999997E+02  0.45594000000E+02  0.51100000000E-03 0.  1.
    9900012    2    1    2    0    0  0.77031845458E+01 -0.23573488149E+02  0.20041744187E+02  0.59301954374E+02  0.50000018869E+02 0.  0.
         12    1    1    2    0    0 -0.77031845458E+01  0.23573488149E+02 -0.20041744187E+02  0.31886045626E+02  0.00000000000E+00 0. -1.
         11    1    3    3    0    0 -0.18586132256E+01 -0.45701308487E+01  0.19508279285E+02  0.20122462573E+02  0.51100000000E-03 0. -1.
        -11    1    3    3    0    0  0.26505830905E+01 -0.22634086840E+02 -0.10958439155E+02  0.25286653926E+02  0.51100000000E-03 0.  1.
        -12    1    3    3    0    0  0.69112146809E+01  0.36307295402E+01  0.11491904057E+02  0.13892837875E+02  0.00000000000E+00 0.  1.
</event>
<event>
 7    1  0.4673733E-013  0.5930195E+02  0.7816164E-02  0.1266605E+00
        -11   -1    0    0    0    0  0.00000000000E+00  0.00000000000E+00  0.45593999997E+02  0.45594000000E+02  0.51100000000E-03 0. -1.
         11   -1    0    0    0    0 -0.00000000000E+00 -0.00000000000E+00 -0.45593999997E+02  0.45594000000E+02  0.51100000000E-03 0.  1.
    9900012    2    1    2    0    0 -0.18123097172E+02 -0.21410646919E+02  0.15161049634E+02  0.59301954799E+02  0.50000019644E+02 0.  0.
         12    1    1    2    0    0  0.18123097172E+02  0.21410646919E+02 -0.15161049634E+02  0.31886045201E+02  0.00000000000E+00 0. -1.
         11    1    3    3    0    0 -0.93462441686E+01 -0.14149175838E+02 -0.83510726295E-01  0.16957547914E+02  0.51100000000E-03 0. -1.
        -11    1    3    3    0    0  0.90020706687E+01  0.83275213670E+00  0.20251857503E+02  0.22178108238E+02  0.51100000000E-03 0.  1.
        -12    1    3    3    0    0 -0.17778923672E+02 -0.80942232178E+01 -0.50072971427E+01  0.20166298646E+02  0.00000000000E+00 0.  1.
</event>
<event>
 7    1  0.4673733E-013  0.5930201E+02  0.7816164E-02  0.1266605E+00
        -11   -1    0    0    0    0  0.00000000000E+00  0.00000000000E+00  0.45593999997E+02  0.45594000000E+02  0.51100000000E-03 0.  1.
         11   -1    0    0    0    0 -0.00000000000E+00 -0.00000000000E+00 -0.45593999997E+02  0.45594000000E+02  0.51100000000E-03 0. -1.
    9900012    2    1    2    0    0 -0.17542474370E+02 -0.59147611127E+01  0.25961388113E+02  0.59302008111E+02  0.50000116871E+02 0.  0.
         12    1    1    2    0    0  0.17542474370E+02  0.59147611127E+01 -0.25961388113E+02  0.31885991889E+02  0.00000000000E+00 0. -1.
         11    1    3    3    0    0 -0.28205986666E+01  0.12567478538E+02 -0.66972415594E+01  0.14517242796E+02  0.51100000000E-03 0. -1.
        -11    1    3    3    0    0 -0.81683206263E+01 -0.18103630329E+02  0.12223549824E+02  0.23321193441E+02  0.51100000000E-03 0.  1.
         12    1    3    3    0    0 -0.65535550769E+01 -0.37860932101E+00  0.20435079849E+02  0.21463571874E+02  0.00000000000E+00 0. -1.
</event>
<event>
 7    1  0.4673733E-013  0.5930200E+02  0.7816164E-02  0.1266605E+00
        -11   -1    0    0    0    0  0.00000000000E+00  0.00000000000E+00  0.45593999997E+02  0.45594000000E+02  0.51100000000E-03 0.  1.
         11   -1    0    0    0    0 -0.00000000000E+00 -0.00000000000E+00 -0.45593999997E+02  0.45594000000E+02  0.51100000000E-03 0. -1.
    9900012    2    1    2    0    0 -0.18775565813E+01 -0.42567845340E+01  0.31544759518E+02  0.59301995447E+02  0.50000093776E+02 0.  0.
         12    1    1    2    0    0  0.18775565813E+01  0.42567845340E+01 -0.31544759518E+02  0.31886004553E+02  0.00000000000E+00 0. -1.
         11    1    3    3    0    0 -0.23629918911E+00 -0.12254798826E+02 -0.91998910873E+01  0.15325597145E+02  0.51100000000E-03 0. -1.
        -11    1    3    3    0    0 -0.23358922134E+01  0.11583460102E+02  0.22979156427E+02  0.25839399581E+02  0.51100000000E-03 0.  1.
         12    1    3    3    0    0  0.69463482127E+00 -0.35854458100E+01  0.17765494178E+02  0.18136998721E+02  0.00000000000E+00 0. -1.
</event>
<event>
 7    1  0.4673733E-013  0.5930195E+02  0.7816164E-02  0.1266605E+00
        -11   -1    0    0    0    0  0.00000000000E+00  0.00000000000E+00  0.45593999997E+02  0.45594000000E+02  0.51100000000E-03 0. -1.
         11   -1    0    0    0    0 -0.00000000000E+00 -0.00000000000E+00 -0.45593999997E+02  0.45594000000E+02  0.51100000000E-03 0.  1.
    9900012    2    1    2    0    0  0.10749765425E+01 -0.19693357856E+02  0.25054671764E+02  0.59301945127E+02  0.50000002005E+02 0.  0.
         12    1    1    2    0    0 -0.10749765425E+01  0.19693357856E+02 -0.25054671764E+02  0.31886054873E+02  0.00000000000E+00 0. -1.
         11    1    3    3    0    0  0.23000434532E+01  0.10396696033E+02  0.23157768243E+02  0.25488501693E+02  0.51100000000E-03 0. -1.
        -11    1    3    3    0    0 -0.24464940521E+01 -0.30606006821E+02  0.43643885509E+01  0.31012269739E+02  0.51100000000E-03 0.  1.
        -12    1    3    3    0    0  0.12214271414E+01  0.51595293245E+00 -0.24674850305E+01  0.28011736944E+01  0.00000000000E+00 0.  1.
</event>
<event>
 7    1  0.4673733E-013  0.5930197E+02  0.7816164E-02  0.1266605E+00
        -11   -1    0    0    0    0  0.00000000000E+00  0.00000000000E+00  0.45593999997E+02  0.45594000000E+02  0.51100000000E-03 0. -1.
         11   -1    0    0    0    0 -0.00000000000E+00 -0.00000000000E+00 -0.45593999997E+02  0.45594000000E+02  0.51100000000E-03 0.  1.
    9900012    2    1    2    0    0  0.10873645082E+02  0.58541008931E+01 -0.29397483201E+02  0.59301973700E+02  0.50000054115E+02 0.  0.
         12    1    1    2    0    0 -0.10873645082E+02 -0.58541008931E+01  0.29397483201E+02  0.31886026300E+02  0.00000000000E+00 0. -1.
         11    1    3    3    0    0  0.82902718909E+01  0.16928281296E+02  0.26298079433E+01  0.19031847144E+02  0.51100000000E-03 0. -1.
        -11    1    3    3    0    0  0.24689914372E+01 -0.77981532705E+01 -0.34940193248E+02  0.35884874497E+02  0.51100000000E-03 0.  1.
         12    1    3    3    0    0  0.11438175358E+00 -0.32760271320E+01  0.29129021039E+01  0.43852520591E+01  0.00000000000E+00 0. -1.
</event>
<event>
 7    1  0.4673733E-013  0.5930193E+02  0.7816164E-02  0.1266605E+00
        -11   -1    0    0    0    0  0.00000000000E+00  0.00000000000E+00  0.45593999997E+02  0.45594000000E+02  0.51100000000E-03 0.  1.
         11   -1    0    0    0    0 -0.00000000000E+00 -0.00000000000E+00 -0.45593999997E+02  0.45594000000E+02  0.51100000000E-03 0. -1.
    9900012    2    1    2    0    0  0.11609321941E+02 -0.11138677117E+00  0.29697352093E+02  0.59301929620E+02  0.49999973723E+02 0.  0.
         12    1    1    2    0    0 -0.11609321941E+02  0.11138677117E+00 -0.29697352093E+02  0.31886070380E+02  0.00000000000E+00 0. -1.
         11    1    3    3    0    0 -0.74037702945E-01 -0.10341073368E+02 -0.59233843866E+01  0.11917624043E+02  0.51100000000E-03 0. -1.
        -11    1    3    3    0    0 -0.30355281115E+01  0.15078652375E+02  0.14111126989E+02  0.20873526140E+02  0.51100000000E-03 0.  1.
        -12    1    3    3    0    0  0.14718887756E+02 -0.48489657782E+01  0.21509609491E+02  0.26510779436E+02  0.00000000000E+00 0.  1.
</event>
<event>
 7    1  0.4673733E-013  0.5930188E+02  0.7816164E-02  0.1266605E+00
        -11   -1    0    0    0    0  0.00000000000E+00  0.00000000000E+00  0.45593999997E+02  0.45594000000E+02  0.51100000000E-03 0.  1.
         11   -1    0    0    0    0 -0.00000000000E+00 -0.00000000000E+00 -0.45593999997E+02  0.45594000000E+02  0.51100000000E-03 0. -1.
    9900012    2    1    2    0    0 -0.19344066470E+02  0.27576461368E+01  0.25197762860E+02  0.59301878051E+02  0.49999879673E+02 0.  0.
         12    1    1    2    0    0  0.19344066470E+02 -0.27576461368E+01 -0.25197762860E+02  0.31886121949E+02  0.00000000000E+00 0. -1.
         11    1    3    3    0    0 -0.20293342223E+01  0.95846843938E+01  0.15127186141E+02  0.18022656106E+02  0.51100000000E-03 0. -1.
        -11    1    3    3    0    0 -0.11623732295E+02 -0.16710309328E+02  0.18174567425E+02  0.27288468108E+02  0.51100000000E-03 0.  1.
        -12    1    3    3    0    0 -0.56909999530E+01  0.98832710715E+01 -0.81039907065E+01  0.13990753836E+02  0.00000000000E+00 0.  1.
</event>
<event>
 7    1  0.4673733E-013  0.5930199E+02  0.7816164E-02  0.1266605E+00
        -11   -1    0    0    0    0  0.00000000000E+00  0.00000000000E+00  0.45593999997E+02  0.45594000000E+02  0.51100000000E-03 0. -1.
         11   -1    0    0    0    0 -0.00000000000E+00 -0.00000000000E+00 -0.45593999997E+02  0.45594000000E+02  0.51100000000E-03 0.  1.
    9900012    2    1    2    0    0 -0.15839527384E+02  0.99323889508E+01 -0.25829724815E+02  0.59301989556E+02  0.50000083033E+02 0.  0.
         12    1    1    2    0    0  0.15839527384E+02 -0.99323889508E+01  0.25829724815E+02  0.31886010444E+02  0.00000000000E+00 0. -1.
         11    1    3    3    0    0 -0.34475477210E+01  0.49760180832E+01  0.12562826387E+02  0.13945284089E+02  0.51100000000E-03 0. -1.
        -11    1    3    3    0    0 -0.15621527974E+02  0.92833893522E+01 -0.24914772353E+02  0.30837628569E+02  0.51100000000E-03 0.  1.
         12    1    3    3    0    0  0.32295483112E+01 -0.43270184847E+01 -0.13477778849E+02  0.14519076897E+02  0.00000000000E+00 0. -1.
</event>
<event>
 7    1  0.4673733E-013  0.5930195E+02  0.7816164E-02  0.1266605E+00
        -11   -1    0    0    0    0  0.00000000000E+00  0.00000000000E+00  0.45593999997E+02  0.45594000000E+02  0.51100000000E-03 0. -1.
         11   -1    0    0    0    0 -0.00000000000E+00 -0.00000000000E+00 -0.45593999997E+02  0.45594000000E+02  0.51100000000E-03 0.  1.
    9900012    2    1    2    0    0 -0.22254187041E+02 -0.53958996823E+00 -0.22829365542E+02  0.59301954005E+02  0.50000018195E+02 0.  0.
         12    1    1    2    0    0  0.22254187041E+02  0.53958996823E+00  0.22829365542E+02  0.31886045995E+02  0.00000000000E+00 0. -1.
         11    1    3    3    0    0  0.10495936347E+02 -0.94365388574E+00 -0.64370104762E+00  0.10557912377E+02  0.51100000000E-03 0. -1.
        -11    1    3    3    0    0 -0.17048758316E+02 -0.45498332344E+01 -0.26395213699E+02  0.31750093685E+02  0.51100000000E-03 0.  1.
         12    1    3    3    0    0 -0.15701365073E+02  0.49538971519E+01  0.42095492048E+01  0.16993947942E+02  0.00000000000E+00 0. -1.
</event>
<event>
 7    1  0.4673733E-013  0.5930194E+02  0.7816164E-02  0.1266605E+00
        -11   -1    0    0    0    0  0.00000000000E+00  0.00000000000E+00  0.45593999997E+02  0.45594000000E+02  0.51100000000E-03 0. -1.
         11   -1    0    0    0    0 -0.00000000000E+00 -0.00000000000E+00 -0.45593999997E+02  0.45594000000E+02  0.51100000000E-03 0.  1.
    9900012    2    1    2    0    0 -0.21459023285E+02 -0.12515355507E+02 -0.19989926676E+02  0.59301937648E+02  0.49999988365E+02 0.  0.
         12    1    1    2    0    0  0.21459023285E+02  0.12515355507E+02  0.19989926676E+02  0.31886062352E+02  0.00000000000E+00 0. -1.
         11    1    3    3    0    0 -0.24184996764E+02 -0.36264461921E+01 -0.95289046993E+01  0.26246241740E+02  0.51100000000E-03 0.  1.
        -11    1    3    3    0    0  0.13851732387E+02 -0.12723259385E+02 -0.28045451650E+01  0.19016237623E+02  0.51100000000E-03 0. -1.
         12    1    3    3    0    0 -0.11125758909E+02  0.38343500699E+01 -0.76564768116E+01  0.14039458284E+02  0.00000000000E+00 0. -1.
</event>
<event>
 7    1  0.4673733E-013  0.5930193E+02  0.7816164E-02  0.1266605E+00
        -11   -1    0    0    0    0  0.00000000000E+00  0.00000000000E+00  0.45593999997E+02  0.45594000000E+02  0.51100000000E-03 0.  1.
         11   -1    0    0    0    0 -0.00000000000E+00 -0.00000000000E+00 -0.45593999997E+02  0.45594000000E+02  0.51100000000E-03 0. -1.
    9900012    2    1    2    0    0 -0.30494520098E+02  0.91854221280E+00 -0.92715695236E+01  0.59301929730E+02  0.49999973925E+02 0.  0.
         12    1    1    2    0    0  0.30494520098E+02 -0.91854221280E+00  0.92715695236E+01  0.31886070270E+02  0.00000000000E+00 0. -1.
         11    1    3    3    0    0  0.62128150137E+01 -0.71978763577E+00 -0.39479242530E+01  0.73961659529E+01  0.51100000000E-03 0. -1.
        -11    1    3    3    0    0 -0.19492381459E+02  0.18972954348E+02 -0.27624414559E+01  0.27341488890E+02  0.51100000000E-03 0.  1.
        -12    1    3    3    0    0 -0.17214953652E+02 -0.17334624499E+02 -0.25612038147E+01  0.24564274888E+02  0.00000000000E+00 0.  1.
</event>
<event>
 7    1  0.4673733E-013  0.5930201E+02  0.7816164E-02  0.1266605E+00
        -11   -1    0    0    0    0  0.00000000000E+00  0.00000000000E+00  0.45593999997E+02  0.45594000000E+02  0.51100000000E-03 0. -1.
         11   -1    0    0    0    0 -0.00000000000E+00 -0.00000000000E+00 -0.45593999997E+02  0.45594000000E+02  0.51100000000E-03 0.  1.
    9900012    2    1    2    0    0  0.84095897318E+01  0.46548004046E+00 -0.30753511335E+02  0.59302010435E+02  0.50000121111E+02 0.  0.
         12    1    1    2    0    0 -0.84095897318E+01 -0.46548004046E+00  0.30753511335E+02  0.31885989565E+02  0.00000000000E+00 0. -1.
         11    1    3    3    0    0 -0.10547783874E+02 -0.15517911356E+01 -0.61702965675E+01  0.12318131367E+02  0.51100000000E-03 0. -1.
        -11    1    3    3    0    0  0.13693730473E+02  0.18165024522E+02 -0.11174131352E+02  0.25344576972E+02  0.51100000000E-03 0.  1.
        -12    1    3    3    0    0  0.52636431337E+01 -0.16147753346E+02 -0.13409083415E+02  0.21639302096E+02  0.00000000000E+00 0.  1.
</event>
<event>
 7    1  0.4673733E-013  0.5930194E+02  0.7816164E-02  0.1266605E+00
        -11   -1    0    0    0    0  0.00000000000E+00  0.00000000000E+00  0.45593999997E+02  0.45594000000E+02  0.51100000000E-03 0.  1.
         11   -1    0    0    0    0 -0.00000000000E+00 -0.00000000000E+00 -0.45593999997E+02  0.45594000000E+02  0.51100000000E-03 0. -1.
    9900012    2    1    2    0    0  0.37473048031E+00 -0.31208940994E+02  0.65254965236E+01  0.59301944650E+02  0.50000001135E+02 0.  0.
         12    1    1    2    0    0 -0.37473048031E+00  0.31208940994E+02 -0.65254965236E+01  0.31886055350E+02  0.00000000000E+00 0. -1.
         11    1    3    3    0    0  0.91950208893E+01 -0.14641839395E+02 -0.17063898174E+02  0.24292148756E+02  0.51100000000E-03 0. -1.
        -11    1    3    3    0    0 -0.17493060118E+01 -0.12760355955E+02  0.34580911226E+01  0.13335859556E+02  0.51100000000E-03 0.  1.
         12    1    3    3    0    0 -0.70709843973E+01 -0.38067456440E+01  0.20131303575E+02  0.21673936338E+02  0.00000000000E+00 0. -1.
</event>
<event>
 7    1  0.4673733E-013  0.5930193E+02  0.7816164E-02  0.1266605E+00
        -11   -1    0    0    0    0  0.00000000000E+00  0.00000000000E+00  0.45593999997E+02  0.45594000000E+02  0.51100000000E-03 0. -1.
         11   -1    0    0    0    0 -0.00000000000E+00 -0.00000000000E+00 -0.45593999997E+02  0.45594000000E+02  0.51100000000E-03 0.  1.
    9900012    2    1    2    0    0 -0.13351669327E+02 -0.13802680786E+00 -0.28955745850E+02  0.59301931836E+02  0.49999977765E+02 0.  0.
         12    1    1    2    0    0  0.13351669327E+02  0.13802680786E+00  0.28955745850E+02  0.31886068164E+02  0.00000000000E+00 0. -1.
         11    1    3    3    0    0 -0.45574366957E+01 -0.15353772928E+01  0.86072816093E+01  0.98596607259E+01  0.51100000000E-03 0. -1.
        -11    1    3    3    0    0 -0.11066327851E+02 -0.85003589675E+01 -0.36684901601E+02  0.39249225730E+02  0.51100000000E-03 0.  1.
        -12    1    3    3    0    0  0.22720952195E+01  0.98977094525E+01 -0.87812585864E+00  0.10193045380E+02  0.00000000000E+00 0.  1.
</event>
<event>
 7    1  0.4673733E-013  0.5930200E+02  0.7816164E-02  0.1266605E+00
        -11   -1    0    0    0    0  0.00000000000E+00  0.00000000000E+00  0.45593999997E+02  0.45594000000E+02  0.51100000000E-03 0. -1.
         11   -1    0    0    0    0 -0.00000000000E+00 -0.00000000000E+00 -0.45593999997E+02  0.45594000000E+02  0.51100000000E-03 0.  1.
    9900012    2    1    2    0    0  0.16652926967E+02 -0.27129753792E+02  0.18366513743E+01  0.59302002984E+02  0.50000107523E+02 0.  0.
         12    1    1    2    0    0 -0.16652926967E+02  0.27129753792E+02 -0.18366513743E+01  0.31885997016E+02  0.00000000000E+00 0. -1.
         11    1    3    3    0    0  0.17026383210E+02 -0.17318153072E+02 -0.12690143941E+02  0.27401750027E+02  0.51100000000E-03 0. -1.
        -11    1    3    3    0    0  0.23474203317E+01 -0.18637232678E+02  0.12123974744E+02  0.22357271479E+02  0.51100000000E-03 0.  1.
         12    1    3    3    0    0 -0.27208765750E+01  0.88256319582E+01  0.24028205718E+01  0.95429814785E+01  0.00000000000E+00 0. -1.
</event>
<event>
 7    1  0.4673733E-013  0.5930193E+02  0.7816164E-02  0.1266605E+00
        -11   -1    0    0    0    0  0.00000000000E+00  0.00000000000E+00  0.45593999997E+02  0.45594000000E+02  0.51100000000E-03 0.  1.
         11   -1    0    0    0    0 -0.00000000000E+00 -0.00000000000E+00 -0.45593999997E+02  0.45594000000E+02  0.51100000000E-03 0. -1.
    9900012    2    1    2    0    0  0.29285313728E+02 -0.78129287681E+01  0.99020148875E+01  0.59301931649E+02  0.49999977424E+02 0.  0.
         12    1    1    2    0    0 -0.29285313728E+02  0.78129287681E+01 -0.99020148875E+01  0.31886068351E+02  0.00000000000E+00 0. -1.
         11    1    3    3    0    0 -0.69855965037E+01 -0.18010709987E+02  0.26984874234E+01  0.19505539402E+02  0.51100000000E-03 0. -1.
        -11    1    3    3    0    0  0.39326370327E+01  0.38598238132E+01 -0.15039273623E+01  0.57118886257E+01  0.51100000000E-03 0.  1.
         12    1    3    3    0    0  0.32338273199E+02  0.63379574054E+01  0.87074548264E+01  0.34084503621E+02  0.00000000000E+00 0. -1.
</event>
<event>
 7    1  0.4673733E-013  0.5930195E+02  0.7816164E-02  0.1266605E+00
        -11   -1    0    0    0    0  0.00000000000E+00  0.00000000000E+00  0.45593999997E+02  0.45594000000E+02  0.51100000000E-03 0.  1.
         11   -1    0    0    0    0 -0.00000000000E+00 -0.00000000000E+00 -0.45593999997E+02  0.45594000000E+02  0.51100000000E-03 0. -1.
    9900012    2    1    2    0    0 -0.31630816736E+02  0.39255123802E+01 -0.89555501219E+00  0.59301949232E+02  0.50000009491E+02 0.  0.
         12    1    1    2    0    0  0.31630816736E+02 -0.39255123802E+01  0.89555501219E+00  0.31886050768E+02  0.00000000000E+00 0. -1.
         11    1    3    3    0    0 -0.31379019137E+02  0.17237134124E+02 -0.61678838155E+01  0.36329112648E+02  0.51100000000E-03 0. -1.
        -11    1    3    3    0    0  0.50354365097E+01 -0.10228909450E+02 -0.38099207488E+01  0.12020886230E+02  0.51100000000E-03 0.  1.
         12    1    3    3    0    0 -0.52872341090E+01 -0.30827122936E+01  0.90822495521E+01  0.10951950353E+02  0.00000000000E+00 0. -1.
</event>
<event>
 7    1  0.4673733E-013  0.5930195E+02  0.7816164E-02  0.1266605E+00
        -11   -1    0    0    0    0  0.00000000000E+00  0.00000000000E+00  0.45593999997E+02  0.45594000000E+02  0.51100000000E-03 0. -1.
         11   -1    0    0    0    0 -0.00000000000E+00 -0.00000000000E+00 -0.45593999997E+02  0.45594000000E+02  0.51100000000E-03 0.  1.
    9900012    2    1    2    0    0  0.14247667177E+02  0.28244568949E+02 -0.39960225446E+01  0.59301954600E+02  0.50000019281E+02 0.  0.
         12    1    1    2    0    0 -0.14247667177E+02 -0.28244568949E+02  0.39960225446E+01  0.31886045400E+02  0.00000000000E+00 0. -1.
         11    1    3    3    0    0  0.42859983293E+01  0.27421008285E+02  0.18718694037E+01  0.27816997904E+02  0.51100000000E-03 0.  1.
        -11    1    3    3    0    0 -0.43143037952E+00 -0.62061888133E+01  0.96793490943E+01  0.11506203149E+02  0.51100000000E-03 0. -1.
         12    1    3    3    0    0  0.10393099227E+02  0.70297494765E+01 -0.15547241043E+02  0.19978753547E+02  0.00000000000E+00 0. -1.
</event>
<event>
 7    1  0.4673733E-013  0.5930201E+02  0.7816164E-02  0.1266605E+00
        -11   -1    0    0    0    0  0.00000000000E+00  0.00000000000E+00  0.45593999997E+02  0.45594000000E+02  0.51100000000E-03 0. -1.
         11   -1    0    0    0    0 -0.00000000000E+00 -0.00000000000E+00 -0.45593999997E+02  0.45594000000E+02  0.51100000000E-03 0.  1.
    9900012    2    1    2    0    0 -0.22012717766E+02  0.12481020554E+02 -0.19400526466E+02  0.59302014918E+02  0.50000129287E+02 0.  0.
         12    1    1    2    0    0  0.22012717766E+02 -0.12481020554E+02  0.19400526466E+02  0.31885985082E+02  0.00000000000E+00 0. -1.
         11    1    3    3    0    0 -0.23586985567E+01  0.97247164002E+01 -0.40879600992E+01  0.10809485926E+02  0.51100000000E-03 0. -1.
        -11    1    3    3    0    0 -0.13418229141E+02 -0.16287960926E+02 -0.18667007664E+02  0.28174522530E+02  0.51100000000E-03 0.  1.
        -12    1    3    3    0    0 -0.62357900682E+01  0.19044265079E+02  0.33544412980E+01  0.20318006462E+02  0.00000000000E+00 0.  1.
</event>
<event>
 7    1  0.4673733E-013  0.5930194E+02  0.7816164E-02  0.1266605E+00
        -11   -1    0    0    0    0  0.00000000000E+00  0.00000000000E+00  0.45593999997E+02  0.45594000000E+02  0.51100000000E-03 0.  1.
         11   -1    0    0    0    0 -0.00000000000E+00 -0.00000000000E+00 -0.45593999997E+02  0.45594000000E+02  0.51100000000E-03 0. -1.
    9900012    2    1    2    0    0 -0.11054347350E+02 -0.29558147811E+02  0.45648976171E+01  0.59301937408E+02  0.49999987927E+02 0.  0.
         12    1    1    2    0    0  0.11054347350E+02  0.29558147811E+02 -0.45648976171E+01  0.31886062592E+02  0.00000000000E+00 0. -1.
         11    1    3    3    0    0  0.26381104197E+01  0.29850279447E+01 -0.68893735576E+00  0.40428521317E+01  0.51100000000E-03 0. -1.
        -11    1    3    3    0    0 -0.15621011615E+02 -0.27408231841E+02 -0.14527404040E+02  0.34731435976E+02  0.51100000000E-03 0.  1.
        -12    1    3    3    0    0  0.19285538446E+01 -0.51349439147E+01  0.19781239013E+02  0.20527649301E+02  0.00000000000E+00 0.  1.
</event>
<event>
 7    1  0.4673733E-013  0.5930195E+02  0.7816164E-02  0.1266605E+00
        -11   -1    0    0    0    0  0.00000000000E+00  0.00000000000E+00  0.45593999997E+02  0.45594000000E+02  0.51100000000E-03 0. -1.
         11   -1    0    0    0    0 -0.00000000000E+00 -0.00000000000E+00 -0.45593999997E+02  0.45594000000E+02  0.51100000000E-03 0.  1.
    9900012    2    1    2    0    0 -0.56935914902E+01 -0.24329852900E+02 -0.19808121918E+02  0.59301946307E+02  0.50000004156E+02 0.  0.
         12    1    1    2    0    0  0.56935914902E+01  0.24329852900E+02  0.19808121918E+02  0.31886053693E+02  0.00000000000E+00 0. -1.
         11    1    3    3    0    0 -0.15081160189E+02 -0.11409094106E+01 -0.41963453093E+01  0.15695616623E+02  0.51100000000E-03 0. -1.
        -11    1    3    3    0    0  0.18187948235E+02 -0.57954442025E+01 -0.76706579765E+00  0.19104371874E+02  0.51100000000E-03 0.  1.
        -12    1    3    3    0    0 -0.88003795361E+01 -0.17393499287E+02 -0.14844710811E+02  0.24501957810E+02  0.00000000000E+00 0.  1.
</event>
<event>
 7    1  0.4673733E-013  0.5930200E+02  0.7816164E-02  0.1266605E+00
        -11   -1    0    0    0    0  0.00000000000E+00  0.00000000000E+00  0.45593999997E+02  0.45594000000E+02  0.51100000000E-03 0. -1.
         11   -1    0    0    0    0 -0.00000000000E+00 -0.00000000000E+00 -0.45593999997E+02  0.45594000000E+02  0.51100000000E-03 0.  1.
    9900012    2    1    2    0    0 -0.10293517011E+02  0.11996306377E+02 -0.27692044272E+02  0.59301997191E+02  0.50000096957E+02 0.  0.
         12    1    1    2    0    0  0.10293517011E+02 -0.11996306377E+02  0.27692044272E+02  0.31886002809E+02  0.00000000000E+00 0. -1.
         11    1    3    3    0    0 -0.10736495812E+02 -0.10780527394E+02 -0.70194620433E+00  0.15231048616E+02  0.51100000000E-03 0.  1.
        -11    1    3    3    0    0  0.11575525056E+02  0.20347570011E+02 -0.17215872578E+02  0.29058607237E+02  0.51100000000E-03 0. -1.
        -12    1    3    3    0    0 -0.11132546254E+02  0.24292637595E+01 -0.97742254903E+01  0.15012341338E+02  0.00000000000E+00 0.  1.
</event>
<event>
 7    1  0.4673733E-013  0.5930195E+02  0.7816164E-02  0.1266605E+00
        -11   -1    0    0    0    0  0.00000000000E+00  0.00000000000E+00  0.45593999997E+02  0.45594000000E+02  0.51100000000E-03 0. -1.
         11   -1    0    0    0    0 -0.00000000000E+00 -0.00000000000E+00 -0.45593999997E+02  0.45594000000E+02  0.51100000000E-03 0.  1.
    9900012    2    1    2    0    0  0.11791512010E+02 -0.23660925289E+02 -0.17828091408E+02  0.59301953142E+02  0.50000016621E+02 0.  0.
         12    1    1    2    0    0 -0.11791512010E+02  0.23660925289E+02  0.17828091408E+02  0.31886046858E+02  0.00000000000E+00 0. -1.
         11    1    3    3    0    0  0.23104726417E+02 -0.26905032832E+02 -0.62334847219E+01  0.36007853401E+02  0.51100000000E-03 0. -1.
        -11    1    3    3    0    0 -0.80874906621E+01 -0.44321294002E+00 -0.15191824119E+02  0.17216139615E+02  0.51100000000E-03 0.  1.
         12    1    3    3    0    0 -0.32257237455E+01  0.36873204827E+01  0.35972174332E+01  0.60779601255E+01  0.00000000000E+00 0. -1.
</event>
<event>
 7    1  0.4673733E-013  0.5930179E+02  0.7816164E-02  0.1266605E+00
        -11   -1    0    0    0    0  0.00000000000E+00  0.00000000000E+00  0.45593999997E+02  0.45594000000E+02  0.51100000000E-03 0.  1.
         11   -1    0    0    0    0 -0.00000000000E+00 -0.00000000000E+00 -0.45593999997E+02  0.45594000000E+02  0.51100000000E-03 0. -1.
    9900012    2    1    2    0    0  0.31854198585E+02  0.14252692567E+01 -0.95387859209E-01  0.59301788893E+02  0.49999717070E+02 0.  0.
         12    1    1    2    0    0 -0.31854198585E+02 -0.14252692567E+01  0.95387859209E-01  0.31886211107E+02  0.00000000000E+00 0. -1.
         11    1    3    3    0    0  0.90916571093E+01  0.13422032762E+02 -0.32054066863E+01  0.16525248099E+02  0.51100000000E-03 0. -1.
        -11    1    3    3    0    0  0.29781816419E+02 -0.16755130043E+02  0.20907445867E+01  0.34235393750E+02  0.51100000000E-03 0.  1.
        -12    1    3    3    0    0 -0.70192749436E+01  0.47583665387E+01  0.10192742404E+01  0.85411470440E+01  0.00000000000E+00 0.  1.
</event>
<event>
 7    1  0.4673733E-013  0.5930195E+02  0.7816164E-02  0.1266605E+00
        -11   -1    0    0    0    0  0.00000000000E+00  0.00000000000E+00  0.45593999997E+02  0.45594000000E+02  0.51100000000E-03 0.  1.
         11   -1    0    0    0    0 -0.00000000000E+00 -0.00000000000E+00 -0.45593999997E+02  0.45594000000E+02  0.51100000000E-03 0. -1.
    9900012    2    1    2    0    0 -0.13219193438E+02 -0.48224509363E+01  0.28613233649E+02  0.59301949005E+02  0.50000009077E+02 0.  0.
         12    1    1    2    0    0  0.13219193438E+02  0.48224509363E+01 -0.28613233649E+02  0.31886050995E+02  0.00000000000E+00 0. -1.
         11    1    3    3    0    0  0.37248031710E+01  0.16909518694E+01 -0.11178328247E+02  0.11903297843E+02  0.51100000000E-03 0. -1.
        -11    1    3    3    0    0 -0.12989865951E+02 -0.12499798633E+02  0.23673230321E+02  0.29755729152E+02  0.51100000000E-03 0.  1.
        -12    1    3    3    0    0 -0.39541306586E+01  0.59863958274E+01  0.16118331576E+02  0.17642922010E+02  0.00000000000E+00 0.  1.
</event>
<event>
 7    1  0.4673733E-013  0.5930193E+02  0.7816164E-02  0.1266605E+00
        -11   -1    0    0    0    0  0.00000000000E+00  0.00000000000E+00  0.45593999997E+02  0.45594000000E+02  0.51100000000E-03 0. -1.
         11   -1    0    0    0    0 -0.00000000000E+00 -0.00000000000E+00 -0.45593999997E+02  0.45594000000E+02  0.51100000000E-03 0.  1.
    9900012    2    1    2    0    0  0.83418343429E+01 -0.29427552278E+02 -0.90085624977E+01  0.59301933583E+02  0.49999980951E+02 0.  0.
         12    1    1    2    0    0 -0.83418343429E+01  0.29427552278E+02  0.90085624977E+01  0.31886066417E+02  0.00000000000E+00 0. -1.
         11    1    3    3    0    0 -0.23750768417E+01 -0.19624429022E+02  0.18182267637E+02  0.26858035318E+02  0.51100000000E-03 0. -1.
        -11    1    3    3    0    0  0.10373274744E+02 -0.88392910190E+01 -0.27999175422E+02  0.31139873462E+02  0.51100000000E-03 0.  1.
        -12    1    3    3    0    0  0.34363644085E+00 -0.96383223655E+00  0.80834528711E+00  0.13040248030E+01  0.00000000000E+00 0.  1.
</event>
<event>
 7    1  0.4673733E-013  0.5930187E+02  0.7816164E-02  0.1266605E+00
        -11   -1    0    0    0    0  0.00000000000E+00  0.00000000000E+00  0.45593999997E+02  0.45594000000E+02  0.51100000000E-03 0.  1.
         11   -1    0    0    0    0 -0.00000000000E+00 -0.00000000000E+00 -0.45593999997E+02  0.45594000000E+02  0.51100000000E-03 0. -1.
    9900012    2    1    2    0    0 -0.18381551141E+02 -0.61761989484E+00  0.26047315187E+02  0.59301866570E+02  0.49999858736E+02 0.  0.
         12    1    1    2    0    0  0.18381551141E+02  0.61761989484E+00 -0.26047315187E+02  0.31886133430E+02  0.00000000000E+00 0. -1.
         11    1    3    3    0    0  0.22533164910E+01 -0.84228379164E+01  0.29150882469E+02  0.30426889141E+02  0.51100000000E-03 0. -1.
        -11    1    3    3    0    0 -0.16837346196E+02  0.87218452828E+01  0.52307805747E+01  0.19670482397E+02  0.51100000000E-03 0.  1.
         12    1    3    3    0    0 -0.37975214355E+01 -0.91662726124E+00 -0.83343478575E+01  0.92044950323E+01  0.00000000000E+00 0. -1.
</event>
<event>
 7    1  0.4673733E-013  0.5930193E+02  0.7816164E-02  0.1266605E+00
        -11   -1    0    0    0    0  0.00000000000E+00  0.00000000000E+00  0.45593999997E+02  0.45594000000E+02  0.51100000000E-03 0.  1.
         11   -1    0    0    0    0 -0.00000000000E+00 -0.00000000000E+00 -0.45593999997E+02  0.45594000000E+02  0.51100000000E-03 0. -1.
    9900012    2    1    2    0    0 -0.27566314891E+02 -0.26966369876E+01  0.15797083390E+02  0.59301930764E+02  0.49999975810E+02 0.  0.
         12    1    1    2    0    0  0.27566314891E+02  0.26966369876E+01 -0.15797083390E+02  0.31886069236E+02  0.00000000000E+00 0. -1.
         11    1    3    3    0    0 -0.16801008314E+02 -0.22824384095E+02  0.99338515927E+01  0.30031779791E+02  0.51100000000E-03 0. -1.
        -11    1    3    3    0    0 -0.12192301542E+02  0.10194226604E+02  0.95936491797E+01  0.18563743636E+02  0.51100000000E-03 0.  1.
         12    1    3    3    0    0  0.14269949647E+01  0.99335205031E+01 -0.37304173822E+01  0.10706407337E+02  0.00000000000E+00 0. -1.
</event>
<event>
 7    1  0.4673733E-013  0.5930198E+02  0.7816164E-02  0.1266605E+00
        -11   -1    0    0    0    0  0.00000000000E+00  0.00000000000E+00  0.45593999997E+02  0.45594000000E+02  0.51100000000E-03 0.  1.
         11   -1    0    0    0    0 -0.00000000000E+00 -0.00000000000E+00 -0.45593999997E+02  0.45594000000E+02  0.51100000000E-03 0. -1.
    9900012    2    1    2    0    0  0.98724957523E+01 -0.11299794738E+02  0.28134793837E+02  0.59301981783E+02  0.50000068856E+02 0.  0.
         12    1    1    2    0    0 -0.98724957523E+01  0.11299794738E+02 -0.28134793837E+02  0.31886018217E+02  0.00000000000E+00 0. -1.
         11    1    3    3    0    0  0.71428386260E+01 -0.19157417634E+02 -0.51582182426E+01  0.21086346524E+02  0.51100000000E-03 0. -1.
        -11    1    3    3    0    0  0.63305355150E+01  0.11592623522E+02  0.20231886202E+02  0.24161825668E+02  0.51100000000E-03 0.  1.
         12    1    3    3    0    0 -0.36008783886E+01 -0.37350006266E+01  0.13061125877E+02  0.14053809591E+02  0.00000000000E+00 0. -1.
</event>
<event>
 7    1  0.4673733E-013  0.5930194E+02  0.7816164E-02  0.1266605E+00
        -11   -1    0    0    0    0  0.00000000000E+00  0.00000000000E+00  0.45593999997E+02  0.45594000000E+02  0.51100000000E-03 0.  1.
         11   -1    0    0    0    0 -0.00000000000E+00 -0.00000000000E+00 -0.45593999997E+02  0.45594000000E+02  0.51100000000E-03 0. -1.
    9900012    2    1    2    0    0  0.22268679404E+01  0.18871262670E+02  0.25605421089E+02  0.59301935885E+02  0.49999985149E+02 0.  0.
         12    1    1    2    0    0 -0.22268679404E+01 -0.18871262670E+02 -0.25605421089E+02  0.31886064115E+02  0.00000000000E+00 0. -1.
         11    1    3    3    0    0  0.94591390027E+01  0.15273011474E+02  0.20064825367E+02  0.26932088806E+02  0.51100000000E-03 0.  1.
        -11    1    3    3    0    0 -0.40677339440E+01  0.13241500618E+02 -0.75733054742E+01  0.15787297240E+02  0.51100000000E-03 0. -1.
         12    1    3    3    0    0 -0.31645371182E+01 -0.96432494224E+01  0.13113901196E+02  0.16582549839E+02  0.00000000000E+00 0. -1.
</event>
<event>
 7    1  0.4673733E-013  0.5930195E+02  0.7816164E-02  0.1266605E+00
        -11   -1    0    0    0    0  0.00000000000E+00  0.00000000000E+00  0.45593999997E+02  0.45594000000E+02  0.51100000000E-03 0.  1.
         11   -1    0    0    0    0 -0.00000000000E+00 -0.00000000000E+00 -0.45593999997E+02  0.45594000000E+02  0.51100000000E-03 0. -1.
    9900012    2    1    2    0    0  0.11404124719E+02  0.30952578347E+01  0.29615625084E+02  0.59301953980E+02  0.50000018150E+02 0.  0.
         12    1    1    2    0    0 -0.11404124719E+02 -0.30952578347E+01 -0.29615625084E+02  0.31886046020E+02  0.00000000000E+00 0. -1.
         11    1    3    3    0    0  0.23387900888E+01 -0.22543736064E+02  0.19862558333E+02  0.30136542579E+02  0.51100000000E-03 0. -1.
        -11    1    3    3    0    0  0.27304359913E+01  0.96221934619E+01  0.55387011174E+01  0.11433245298E+02  0.51100000000E-03 0.  1.
         12    1    3    3    0    0  0.63348986385E+01  0.16016800437E+02  0.42143656343E+01  0.17732166103E+02  0.00000000000E+00 0. -1.
</event>
<event>
 7    1  0.4673733E-013  0.5930195E+02  0.7816164E-02  0.1266605E+00
        -11   -1    0    0    0    0  0.00000000000E+00  0.00000000000E+00  0.45593999997E+02  0.45594000000E+02  0.51100000000E-03 0.  1.
         11   -1    0    0    0    0 -0.00000000000E+00 -0.00000000000E+00 -0.45593999997E+02  0.45594000000E+02  0.51100000000E-03 0. -1.
    9900012    2    1    2    0    0  0.72600724608E+01 -0.51924852741E+01  0.30611262376E+02  0.59301953840E+02  0.50000017896E+02 0.  0.
         12    1    1    2    0    0 -0.72600724608E+01  0.51924852741E+01 -0.30611262376E+02  0.31886046160E+02  0.00000000000E+00 0. -1.
         11    1    3    3    0    0  0.26119987999E+01 -0.69719963880E+01  0.17729383923E+01  0.76534033064E+01  0.51100000000E-03 0. -1.
        -11    1    3    3    0    0  0.20499188325E+02  0.85654529186E+01  0.25957639705E+02  0.34166983551E+02  0.51100000000E-03 0.  1.
        -12    1    3    3    0    0 -0.15851114664E+02 -0.67859418047E+01  0.28806842787E+01  0.17481566983E+02  0.00000000000E+00 0.  1.
</event>
<event>
 7    1  0.4673733E-013  0.5930189E+02  0.7816164E-02  0.1266605E+00
        -11   -1    0    0    0    0  0.00000000000E+00  0.00000000000E+00  0.45593999997E+02  0.45594000000E+02  0.51100000000E-03 0.  1.
         11   -1    0    0    0    0 -0.00000000000E+00 -0.00000000000E+00 -0.45593999997E+02  0.45594000000E+02  0.51100000000E-03 0. -1.
    9900012    2    1    2    0    0 -0.28174230428E+02  0.13374820635E+02  0.66370911502E+01  0.59301889134E+02  0.49999899887E+02 0.  0.
         12    1    1    2    0    0  0.28174230428E+02 -0.13374820635E+02 -0.66370911502E+01  0.31886110866E+02  0.00000000000E+00 0. -1.
         11    1    3    3    0    0 -0.11785583597E+02 -0.59291589027E+01 -0.12782233425E+02  0.18369550828E+02  0.51100000000E-03 0. -1.
        -11    1    3    3    0    0 -0.36678901242E+01  0.22458797582E+02  0.14211579551E+02  0.26829461426E+02  0.51100000000E-03 0.  1.
        -12    1    3    3    0    0 -0.12720756706E+02 -0.31548180443E+01  0.52077450242E+01  0.14102876881E+02  0.00000000000E+00 0.  1.
</event>
<event>
 7    1  0.4673733E-013  0.5930192E+02  0.7816164E-02  0.1266605E+00
        -11   -1    0    0    0    0  0.00000000000E+00  0.00000000000E+00  0.45593999997E+02  0.45594000000E+02  0.51100000000E-03 0. -1.
         11   -1    0    0    0    0 -0.00000000000E+00 -0.00000000000E+00 -0.45593999997E+02  0.45594000000E+02  0.51100000000E-03 0.  1.
    9900012    2    1    2    0    0 -0.12790368111E+02 -0.15273073534E+02 -0.24897020372E+02  0.59301922866E+02  0.49999961406E+02 0.  0.
         12    1    1    2    0    0  0.12790368111E+02  0.15273073534E+02  0.24897020372E+02  0.31886077134E+02  0.00000000000E+00 0. -1.
         11    1    3    3    0    0  0.35136862566E+01 -0.55545696693E+01  0.12142080569E+02  0.13806859024E+02  0.51100000000E-03 0. -1.
        -11    1    3    3    0    0  0.16054171448E+01 -0.73835037997E+00 -0.17231230553E+02  0.17321600161E+02  0.51100000000E-03 0.  1.
        -12    1    3    3    0    0 -0.17909471513E+02 -0.89801534844E+01 -0.19807870388E+02  0.28173463681E+02  0.00000000000E+00 0.  1.
</event>
<event>
 7    1  0.4673733E-013  0.5930191E+02  0.7816164E-02  0.1266605E+00
        -11   -1    0    0    0    0  0.00000000000E+00  0.00000000000E+00  0.45593999997E+02  0.45594000000E+02  0.51100000000E-03 0.  1.
         11   -1    0    0    0    0 -0.00000000000E+00 -0.00000000000E+00 -0.45593999997E+02  0.45594000000E+02  0.51100000000E-03 0. -1.
    9900012    2    1    2    0    0 -0.31388839299E+01 -0.26717907837E+02  0.17117938688E+02  0.59301905595E+02  0.49999929907E+02 0.  0.
         12    1    1    2    0    0  0.31388839299E+01  0.26717907837E+02 -0.17117938688E+02  0.31886094405E+02  0.00000000000E+00 0. -1.
         11    1    3    3    0    0 -0.93301006838E+01 -0.24917607040E+02  0.14169616552E+02  0.30144915871E+02  0.51100000000E-03 0. -1.
        -11    1    3    3    0    0  0.49118327595E+01  0.11301744956E+02  0.83945384862E+01  0.14910527045E+02  0.51100000000E-03 0.  1.
        -12    1    3    3    0    0  0.12793839944E+01 -0.13102045753E+02 -0.54462163500E+01  0.14246462679E+02  0.00000000000E+00 0.  1.
</event>
<event>
 7    1  0.4673733E-013  0.5930194E+02  0.7816164E-02  0.1266605E+00
        -11   -1    0    0    0    0  0.00000000000E+00  0.00000000000E+00  0.45593999997E+02  0.45594000000E+02  0.51100000000E-03 0.  1.
         11   -1    0    0    0    0 -0.00000000000E+00 -0.00000000000E+00 -0.45593999997E+02  0.45594000000E+02  0.51100000000E-03 0. -1.
    9900012    2    1    2    0    0  0.28407528162E+01  0.12567472725E+02  0.29166929826E+02  0.59301936544E+02  0.49999986352E+02 0.  0.
         12    1    1    2    0    0 -0.28407528162E+01 -0.12567472725E+02 -0.29166929826E+02  0.31886063456E+02  0.00000000000E+00 0. -1.
         11    1    3    3    0    0  0.22100359613E+01  0.45235751155E+01 -0.10838539825E+02  0.11950771380E+02  0.51100000000E-03 0. -1.
        -11    1    3    3    0    0  0.12175707021E+02  0.60987376015E+01  0.22035812661E+02  0.25904043732E+02  0.51100000000E-03 0.  1.
        -12    1    3    3    0    0 -0.11544990166E+02  0.19451600083E+01  0.17969656990E+02  0.21447121432E+02  0.00000000000E+00 0.  1.
</event>
<event>
 7    1  0.4673733E-013  0.5930200E+02  0.7816164E-02  0.1266605E+00
        -11   -1    0    0    0    0  0.00000000000E+00  0.00000000000E+00  0.45593999997E+02  0.45594000000E+02  0.51100000000E-03 0.  1.
         11   -1    0    0    0    0 -0.00000000000E+00 -0.00000000000E+00 -0.45593999997E+02  0.45594000000E+02  0.51100000000E-03 0. -1.
    9900012    2    1    2    0    0 -0.10770429709E+02 -0.12878688106E+02  0.27108190409E+02  0.59302003847E+02  0.50000109096E+02 0.  0.
         12    1    1    2    0    0  0.10770429709E+02  0.12878688106E+02 -0.27108190409E+02  0.31885996153E+02  0.00000000000E+00 0. -1.
         11    1    3    3    0    0 -0.69740907428E+01 -0.28218493202E+01 -0.13999170527E+01  0.76524860856E+01  0.51100000000E-03 0. -1.
        -11    1    3    3    0    0 -0.50992272856E+01  0.15545765135E+02  0.16854534236E+02  0.23489322194E+02  0.51100000000E-03 0.  1.
        -12    1    3    3    0    0  0.13028883196E+01 -0.25602603920E+02  0.11653573225E+02  0.28160195568E+02  0.00000000000E+00 0.  1.
</event>
<event>
 7    1  0.4673733E-013  0.5930192E+02  0.7816164E-02  0.1266605E+00
        -11   -1    0    0    0    0  0.00000000000E+00  0.00000000000E+00  0.45593999997E+02  0.45594000000E+02  0.51100000000E-03 0.  1.
         11   -1    0    0    0    0 -0.00000000000E+00 -0.00000000000E+00 -0.45593999997E+02  0.45594000000E+02  0.51100000000E-03 0. -1.
    9900012    2    1    2    0    0 -0.30046679108E+02  0.76142014309E+01  0.74794981056E+01  0.59301923402E+02  0.49999962384E+02 0.  0.
         12    1    1    2    0    0  0.30046679108E+02 -0.76142014309E+01 -0.74794981056E+01  0.31886076598E+02  0.00000000000E+00 0. -1.
         11    1    3    3    0    0  0.10221691902E+02 -0.58159191417E+01  0.21091138107E+01  0.11948065204E+02  0.51100000000E-03 0. -1.
        -11    1    3    3    0    0 -0.33363730345E+02  0.22330476585E+01  0.67961586781E+01  0.34122027745E+02  0.51100000000E-03 0.  1.
        -12    1    3    3    0    0 -0.69046406646E+01  0.11197072914E+02 -0.14257743832E+01  0.13231830453E+02  0.00000000000E+00 0.  1.
</event>
<event>
 7    1  0.4673733E-013  0.5930195E+02  0.7816164E-02  0.1266605E+00
        -11   -1    0    0    0    0  0.00000000000E+00  0.00000000000E+00  0.45593999997E+02  0.45594000000E+02  0.51100000000E-03 0.  1.
         11   -1    0    0    0    0 -0.00000000000E+00 -0.00000000000E+00 -0.45593999997E+02  0.45594000000E+02  0.51100000000E-03 0. -1.
    9900012    2    1    2    0    0 -0.16129658965E+02 -0.83335333873E+01  0.26212722035E+02  0.59301945469E+02  0.50000002628E+02 0.  0.
         12    1    1    2    0    0  0.16129658965E+02  0.83335333873E+01 -0.26212722035E+02  0.31886054531E+02  0.00000000000E+00 0. -1.
         11    1    3    3    0    0 -0.92817130747E+01 -0.17263316144E+02 -0.89984326944E+01  0.21567199009E+02  0.51100000000E-03 0. -1.
        -11    1    3    3    0    0 -0.16416824561E+01  0.81102448499E+01  0.22561677932E+02  0.24031240172E+02  0.51100000000E-03 0.  1.
         12    1    3    3    0    0 -0.52062634347E+01  0.81953790667E+00  0.12649476797E+02  0.13703506288E+02  0.00000000000E+00 0. -1.
</event>
<event>
 7    1  0.4673733E-013  0.5930196E+02  0.7816164E-02  0.1266605E+00
        -11   -1    0    0    0    0  0.00000000000E+00  0.00000000000E+00  0.45593999997E+02  0.45594000000E+02  0.51100000000E-03 0. -1.
         11   -1    0    0    0    0 -0.00000000000E+00 -0.00000000000E+00 -0.45593999997E+02  0.45594000000E+02  0.51100000000E-03 0.  1.
    9900012    2    1    2    0    0  0.16771995217E+02 -0.11519899357E+02 -0.24550192676E+02  0.59301955009E+02  0.50000020027E+02 0.  0.
         12    1    1    2    0    0 -0.16771995217E+02  0.11519899357E+02  0.24550192676E+02  0.31886044991E+02  0.00000000000E+00 0. -1.
         11    1    3    3    0    0 -0.15094983388E+02 -0.94216144312E+01 -0.56458335365E+01  0.18668175555E+02  0.51100000000E-03 0. -1.
        -11    1    3    3    0    0  0.20525209890E+02 -0.70084559172E+01 -0.54469492470E+01  0.22362288607E+02  0.51100000000E-03 0.  1.
        -12    1    3    3    0    0  0.11341768715E+02  0.49101709917E+01 -0.13457409892E+02  0.18271490847E+02  0.00000000000E+00 0.  1.
</event>
<event>
 7    1  0.4673733E-013  0.5930194E+02  0.7816164E-02  0.1266605E+00
        -11   -1    0    0    0    0  0.00000000000E+00  0.00000000000E+00  0.45593999997E+02  0.45594000000E+02  0.51100000000E-03 0.  1.
         11   -1    0    0    0    0 -0.00000000000E+00 -0.00000000000E+00 -0.45593999997E+02  0.45594000000E+02  0.51100000000E-03 0. -1.
    9900012    2    1    2    0    0  0.13336984192E+02 -0.14837612068E+00  0.28962454221E+02  0.59301938510E+02  0.49999989937E+02 0.  0.
         12    1    1    2    0    0 -0.13336984192E+02  0.14837612068E+00 -0.28962454221E+02  0.31886061490E+02  0.00000000000E+00 0. -1.
         11    1    3    3    0    0 -0.16718472633E+02 -0.42947903236E+01  0.46664537508E+01  0.17880949136E+02  0.51100000000E-03 0. -1.
        -11    1    3    3    0    0  0.15302928698E+02 -0.27648773615E+01  0.18410689037E+02  0.24099328718E+02  0.51100000000E-03 0.  1.
         12    1    3    3    0    0  0.14752528127E+02  0.69112915644E+01  0.58853114333E+01  0.17321660657E+02  0.00000000000E+00 0. -1.
</event>
<event>
 7    1  0.4673733E-013  0.5930193E+02  0.7816164E-02  0.1266605E+00
        -11   -1    0    0    0    0  0.00000000000E+00  0.00000000000E+00  0.45593999997E+02  0.45594000000E+02  0.51100000000E-03 0.  1.
         11   -1    0    0    0    0 -0.00000000000E+00 -0.00000000000E+00 -0.45593999997E+02  0.45594000000E+02  0.51100000000E-03 0. -1.
    9900012    2    1    2    0    0  0.20586577317E+02  0.21895675735E+02  0.10653347216E+02  0.59301927987E+02  0.49999970745E+02 0.  0.
         12    1    1    2    0    0 -0.20586577317E+02 -0.21895675735E+02 -0.10653347216E+02  0.31886072013E+02  0.00000000000E+00 0. -1.
         11    1    3    3    0    0  0.28665524397E+01  0.52626137726E+01 -0.50171785504E+01  0.78156450455E+01  0.51100000000E-03 0. -1.
        -11    1    3    3    0    0  0.87972493287E+01 -0.14317119725E+02  0.62149426130E+01  0.17916389841E+02  0.51100000000E-03 0.  1.
        -12    1    3    3    0    0  0.89227755490E+01  0.30950181688E+02  0.94555831533E+01  0.33569893100E+02  0.00000000000E+00 0.  1.
</event>
<event>
 7    1  0.4673733E-013  0.5930194E+02  0.7816164E-02  0.1266605E+00
        -11   -1    0    0    0    0  0.00000000000E+00  0.00000000000E+00  0.45593999997E+02  0.45594000000E+02  0.51100000000E-03 0.  1.
         11   -1    0    0    0    0 -0.00000000000E+00 -0.00000000000E+00 -0.45593999997E+02  0.45594000000E+02  0.51100000000E-03 0. -1.
    9900012    2    1    2    0    0 -0.30590675331E+02  0.57066341144E+01  0.69545646611E+01  0.59301936277E+02  0.49999985864E+02 0.  0.
         12    1    1    2    0    0  0.30590675331E+02 -0.57066341144E+01 -0.69545646611E+01  0.31886063723E+02  0.00000000000E+00 0. -1.
         11    1    3    3    0    0 -0.26652376696E+02  0.95747767090E+01  0.18144835449E+02  0.33634217492E+02  0.51100000000E-03 0.  1.
        -11    1    3    3    0    0  0.55589458503E+01 -0.50777596656E+01  0.33643932302E+01  0.82464940585E+01  0.51100000000E-03 0. -1.
         12    1    3    3    0    0 -0.94972444850E+01  0.12096170710E+01 -0.14554664018E+02  0.17421224726E+02  0.00000000000E+00 0. -1.
</event>
<event>
 7    1  0.4673733E-013  0.5930195E+02  0.7816164E-02  0.1266605E+00
        -11   -1    0    0    0    0  0.00000000000E+00  0.00000000000E+00  0.45593999997E+02  0.45594000000E+02  0.51100000000E-03 0.  1.
         11   -1    0    0    0    0 -0.00000000000E+00 -0.00000000000E+00 -0.45593999997E+02  0.45594000000E+02  0.51100000000E-03 0. -1.
    9900012    2    1    2    0    0  0.87410881618E+01 -0.12429695820E+02  0.28032408244E+02  0.59301954896E+02  0.50000019821E+02 0.  0.
         12    1    1    2    0    0 -0.87410881618E+01  0.12429695820E+02 -0.28032408244E+02  0.31886045104E+02  0.00000000000E+00 0. -1.
         11    1    3    3    0    0  0.99241413490E+01 -0.20135482680E+02 -0.23041139033E+01  0.22566239948E+02  0.51100000000E-03 0. -1.
        -11    1    3    3    0    0  0.79369300963E+01  0.79860456057E+01  0.13440015452E+02  0.17532991741E+02  0.51100000000E-03 0.  1.
         12    1    3    3    0    0 -0.91199832834E+01 -0.28025874574E+00  0.16896506695E+02  0.19202723207E+02  0.00000000000E+00 0. -1.
</event>
<event>
 7    1  0.4673733E-013  0.5930194E+02  0.7816164E-02  0.1266605E+00
        -11   -1    0    0    0    0  0.00000000000E+00  0.00000000000E+00  0.45593999997E+02  0.45594000000E+02  0.51100000000E-03 0.  1.
         11   -1    0    0    0    0 -0.00000000000E+00 -0.00000000000E+00 -0.45593999997E+02  0.45594000000E+02  0.51100000000E-03 0. -1.
    9900012    2    1    2    0    0 -0.13094560412E+02 -0.29056396719E+02  0.98937645216E+00  0.59301943981E+02  0.49999999916E+02 0.  0.
         12    1    1    2    0    0  0.13094560412E+02  0.29056396719E+02 -0.98937645216E+00  0.31886056019E+02  0.00000000000E+00 0. -1.
         11    1    3    3    0    0 -0.19723404058E+02 -0.34341620777E+01  0.96031566071E+01  0.22204205771E+02  0.51100000000E-03 0.  1.
        -11    1    3    3    0    0  0.86894786238E+01 -0.23678345346E+02  0.27632366789E+01  0.25373343380E+02  0.51100000000E-03 0. -1.
         12    1    3    3    0    0 -0.20606349772E+01 -0.19438892947E+01 -0.11377016834E+02  0.11724394830E+02  0.00000000000E+00 0. -1.
</event>
<event>
 7    1  0.4673733E-013  0.5930195E+02  0.7816164E-02  0.1266605E+00
        -11   -1    0    0    0    0  0.00000000000E+00  0.00000000000E+00  0.45593999997E+02  0.45594000000E+02  0.51100000000E-03 0.  1.
         11   -1    0    0    0    0 -0.00000000000E+00 -0.00000000000E+00 -0.45593999997E+02  0.45594000000E+02  0.51100000000E-03 0. -1.
    9900012    2    1    2    0    0 -0.94586693605E+01 -0.25649224295E+02  0.16412532572E+02  0.59301947274E+02  0.50000005920E+02 0.  0.
         12    1    1    2    0    0  0.94586693605E+01  0.25649224295E+02 -0.16412532572E+02  0.31886052726E+02  0.00000000000E+00 0. -1.
         11    1    3    3    0    0 -0.13137214017E+02 -0.16481989254E+00  0.26873232734E+02  0.29912943613E+02  0.51100000000E-03 0. -1.
        -11    1    3    3    0    0  0.61109419582E+01 -0.10704886830E+02 -0.63028449940E+01  0.13844279286E+02  0.51100000000E-03 0.  1.
         12    1    3    3    0    0 -0.24323973014E+01 -0.14779517572E+02 -0.41578551682E+01  0.15544724375E+02  0.00000000000E+00 0. -1.
</event>
<event>
 7    1  0.4673733E-013  0.5930191E+02  0.7816164E-02  0.1266605E+00
        -11   -1    0    0    0    0  0.00000000000E+00  0.00000000000E+00  0.45593999997E+02  0.45594000000E+02  0.51100000000E-03 0.  1.
         11   -1    0    0    0    0 -0.00000000000E+00 -0.00000000000E+00 -0.45593999997E+02  0.45594000000E+02  0.51100000000E-03 0. -1.
    9900012    2    1    2    0    0  0.11007483606E+02 -0.56924057894E+01  0.29379489241E+02  0.59301912641E+02  0.49999942758E+02 0.  0.
         12    1    1    2    0    0 -0.11007483606E+02  0.56924057894E+01 -0.29379489241E+02  0.31886087359E+02  0.00000000000E+00 0. -1.
         11    1    3    3    0    0  0.20488891035E+02  0.23498146291E+01  0.17932953319E+02  0.27329601161E+02  0.51100000000E-03 0. -1.
        -11    1    3    3    0    0 -0.14308399066E+02 -0.13362827373E+02  0.14086096559E+01  0.19628540971E+02  0.51100000000E-03 0.  1.
        -12    1    3    3    0    0  0.48269916365E+01  0.53206069546E+01  0.10037926267E+02  0.12343770508E+02  0.00000000000E+00 0.  1.
</event>
<event>
 7    1  0.4673733E-013  0.5930195E+02  0.7816164E-02  0.1266605E+00
        -11   -1    0    0    0    0  0.00000000000E+00  0.00000000000E+00  0.45593999997E+02  0.45594000000E+02  0.51100000000E-03 0. -1.
         11   -1    0    0    0    0 -0.00000000000E+00 -0.00000000000E+00 -0.45593999997E+02  0.45594000000E+02  0.51100000000E-03 0.  1.
    9900012    2    1    2    0    0  0.71878521016E+00  0.29298332259E+02 -0.12562299326E+02  0.59301948352E+02  0.50000007887E+02 0.  0.
         12    1    1    2    0    0 -0.71878521016E+00 -0.29298332259E+02  0.12562299326E+02  0.31886051648E+02  0.00000000000E+00 0. -1.
         11    1    3    3    0    0  0.59044577451E+01 -0.55699236502E+01  0.88398758463E+01  0.12001253100E+02  0.51100000000E-03 0.  1.
        -11    1    3    3    0    0  0.13182003723E+01  0.35097486462E+02 -0.15064262413E+02  0.38216530592E+02  0.51100000000E-03 0. -1.
         12    1    3    3    0    0 -0.65038729072E+01 -0.22923055249E+00 -0.63379127590E+01  0.90841646606E+01  0.00000000000E+00 0. -1.
</event>
<event>
 7    1  0.4673733E-013  0.5930196E+02  0.7816164E-02  0.1266605E+00
        -11   -1    0    0    0    0  0.00000000000E+00  0.00000000000E+00  0.45593999997E+02  0.45594000000E+02  0.51100000000E-03 0.  1.
         11   -1    0    0    0    0 -0.00000000000E+00 -0.00000000000E+00 -0.45593999997E+02  0.45594000000E+02  0.51100000000E-03 0. -1.
    9900012    2    1    2    0    0  0.34922502431E+01  0.31598570870E+02 -0.24605311686E+01  0.59301957498E+02  0.50000024567E+02 0.  0.
         12    1    1    2    0    0 -0.34922502431E+01 -0.31598570870E+02  0.24605311686E+01  0.31886042502E+02  0.00000000000E+00 0. -1.
         11    1    3    3    0    0 -0.13611768743E+02  0.16589052356E+00 -0.11860171511E+02  0.18054679075E+02  0.51100000000E-03 0. -1.
        -11    1    3    3    0    0  0.48463000875E+01  0.79992919800E+01  0.11376809017E+02  0.14727765628E+02  0.51100000000E-03 0.  1.
         12    1    3    3    0    0  0.12257718899E+02  0.23433388366E+02 -0.19771686748E+01  0.26519512795E+02  0.00000000000E+00 0. -1.
</event>
<event>
 7    1  0.4673733E-013  0.5930185E+02  0.7816164E-02  0.1266605E+00
        -11   -1    0    0    0    0  0.00000000000E+00  0.00000000000E+00  0.45593999997E+02  0.45594000000E+02  0.51100000000E-03 0.  1.
         11   -1    0    0    0    0 -0.00000000000E+00 -0.00000000000E+00 -0.45593999997E+02  0.45594000000E+02  0.51100000000E-03 0. -1.
    9900012    2    1    2    0    0 -0.12912982650E+02 -0.25548392515E+02 -0.14044975701E+02  0.59301845897E+02  0.49999821033E+02 0.  0.
         12    1    1    2    0    0  0.12912982650E+02  0.25548392515E+02  0.14044975701E+02  0.31886154103E+02  0.00000000000E+00 0. -1.
         11    1    3    3    0    0 -0.24043638438E+02 -0.11572878201E+02 -0.23150169439E+02  0.35326454740E+02  0.51100000000E-03 0. -1.
        -11    1    3    3    0    0  0.86614965989E+01 -0.19546864704E+01  0.32360068937E+00  0.88852146962E+01  0.51100000000E-03 0.  1.
         12    1    3    3    0    0  0.24691591893E+01 -0.12020827844E+02  0.87815930485E+01  0.15090176461E+02  0.00000000000E+00 0. -1.
</event>
<event>
 7    1  0.4673733E-013  0.5930193E+02  0.7816164E-02  0.1266605E+00
        -11   -1    0    0    0    0  0.00000000000E+00  0.00000000000E+00  0.45593999997E+02  0.45594000000E+02  0.51100000000E-03 0. -1.
         11   -1    0    0    0    0 -0.00000000000E+00 -0.00000000000E+00 -0.45593999997E+02  0.45594000000E+02  0.51100000000E-03 0.  1.
    9900012    2    1    2    0    0 -0.82129714749E+01 -0.26098529053E+02  0.16374829767E+02  0.59301934563E+02  0.49999982739E+02 0.  0.
         12    1    1    2    0    0  0.82129714749E+01  0.26098529053E+02 -0.16374829767E+02  0.31886065437E+02  0.00000000000E+00 0. -1.
         11    1    3    3    0    0  0.63218039908E+00  0.10969132668E+02  0.64528936280E+00  0.11006267404E+02  0.51100000000E-03 0. -1.
        -11    1    3    3    0    0 -0.13274548992E+02 -0.15713654880E+02 -0.13215394491E+01  0.20612594873E+02  0.51100000000E-03 0.  1.
         12    1    3    3    0    0  0.44293971179E+01 -0.21354006841E+02  0.17051079853E+02  0.27683072286E+02  0.00000000000E+00 0. -1.
</event>
<event>
 7    1  0.5192844E-013  0.5930192E+02  0.7816164E-02  0.1266605E+00
        -11   -1    0    0    0    0  0.00000000000E+00  0.00000000000E+00  0.45593999997E+02  0.45594000000E+02  0.51100000000E-03 0. -1.
         11   -1    0    0    0    0 -0.00000000000E+00 -0.00000000000E+00 -0.45593999997E+02  0.45594000000E+02  0.51100000000E-03 0.  1.
    9900012    2    1    2    0    0 -0.19963749935E+01  0.22655335714E+02 -0.22348871057E+02  0.59301924874E+02  0.49999965068E+02 0.  0.
         12    1    1    2    0    0  0.19963749935E+01 -0.22655335714E+02  0.22348871057E+02  0.31886075126E+02  0.00000000000E+00 0. -1.
         11    1    3    3    0    0  0.11757177500E+02  0.52391507330E+00  0.48853143385E+00  0.11778980134E+02  0.51100000000E-03 0. -1.
        -11    1    3    3    0    0 -0.18648628572E+02  0.97818491372E+00 -0.16461367755E+02  0.24893871173E+02  0.51100000000E-03 0.  1.
        -12    1    3    3    0    0  0.48950760781E+01  0.21153235727E+02 -0.63760347353E+01  0.22629073567E+02  0.00000000000E+00 0.  1.
</event>
<event>
 7    1  0.4673733E-013  0.5930184E+02  0.7816164E-02  0.1266605E+00
        -11   -1    0    0    0    0  0.00000000000E+00  0.00000000000E+00  0.45593999997E+02  0.45594000000E+02  0.51100000000E-03 0. -1.
         11   -1    0    0    0    0 -0.00000000000E+00 -0.00000000000E+00 -0.45593999997E+02  0.45594000000E+02  0.51100000000E-03 0.  1.
    9900012    2    1    2    0    0  0.54485713371E+01  0.12730800869E+02 -0.28722233783E+02  0.59301844166E+02  0.49999817877E+02 0.  0.
         12    1    1    2    0    0 -0.54485713371E+01 -0.12730800869E+02  0.28722233783E+02  0.31886155834E+02  0.00000000000E+00 0. -1.
         11    1    3    3    0    0  0.48451712681E+01  0.46457250413E+01  0.25959956698E+01  0.71970577013E+01  0.51100000000E-03 0. -1.
        -11    1    3    3    0    0  0.13439840363E+01 -0.16376953529E+02 -0.79008673349E+01  0.18232789279E+02  0.51100000000E-03 0.  1.
        -12    1    3    3    0    0 -0.74058396734E+00  0.24462029356E+02 -0.23417362118E+02  0.33871997186E+02  0.00000000000E+00 0.  1.
</event>
<event>
 7    1  0.4673733E-013  0.5930195E+02  0.7816164E-02  0.1266605E+00
        -11   -1    0    0    0    0  0.00000000000E+00  0.00000000000E+00  0.45593999997E+02  0.45594000000E+02  0.51100000000E-03 0.  1.
         11   -1    0    0    0    0 -0.00000000000E+00 -0.00000000000E+00 -0.45593999997E+02  0.45594000000E+02  0.51100000000E-03 0. -1.
    9900012    2    1    2    0    0 -0.25566800176E+02  0.16817733400E+02  0.89567229939E+01  0.59301947959E+02  0.50000007170E+02 0.  0.
         12    1    1    2    0    0  0.25566800176E+02 -0.16817733400E+02 -0.89567229939E+01  0.31886052041E+02  0.00000000000E+00 0. -1.
         11    1    3    3    0    0 -0.28856971797E+02  0.12848127668E+02 -0.92418792844E+01  0.32912179186E+02  0.51100000000E-03 0. -1.
        -11    1    3    3    0    0  0.89505689157E+01 -0.31244817913E+01  0.12442999105E+02  0.15642995153E+02  0.51100000000E-03 0.  1.
        -12    1    3    3    0    0 -0.56603972953E+01  0.70940875238E+01  0.57556031736E+01  0.10746773619E+02  0.00000000000E+00 0.  1.
</event>
<event>
 7    1  0.4673733E-013  0.5930195E+02  0.7816164E-02  0.1266605E+00
        -11   -1    0    0    0    0  0.00000000000E+00  0.00000000000E+00  0.45593999997E+02  0.45594000000E+02  0.51100000000E-03 0. -1.
         11   -1    0    0    0    0 -0.00000000000E+00 -0.00000000000E+00 -0.45593999997E+02  0.45594000000E+02  0.51100000000E-03 0.  1.
    9900012    2    1    2    0    0  0.13609773479E+02  0.23091105055E+02 -0.17271226818E+02  0.59301947523E+02  0.50000006374E+02 0.  0.
         12    1    1    2    0    0 -0.13609773479E+02 -0.23091105055E+02  0.17271226818E+02  0.31886052477E+02  0.00000000000E+00 0. -1.
         11    1    3    3    0    0  0.60241012872E+01  0.20402176194E+02  0.14581960221E+02  0.25790931621E+02  0.51100000000E-03 0. -1.
        -11    1    3    3    0    0  0.24721114427E+01  0.42669618546E+01 -0.17897432739E+02  0.18564385187E+02  0.51100000000E-03 0.  1.
         12    1    3    3    0    0  0.51135607490E+01 -0.15780329931E+01 -0.13955754299E+02  0.14946630714E+02  0.00000000000E+00 0. -1.
</event>
<event>
 7    1  0.4673733E-013  0.5930196E+02  0.7816164E-02  0.1266605E+00
        -11   -1    0    0    0    0  0.00000000000E+00  0.00000000000E+00  0.45593999997E+02  0.45594000000E+02  0.51100000000E-03 0.  1.
         11   -1    0    0    0    0 -0.00000000000E+00 -0.00000000000E+00 -0.45593999997E+02  0.45594000000E+02  0.51100000000E-03 0. -1.
    9900012    2    1    2    0    0 -0.24580473188E+01 -0.18430794240E+02  0.25903340910E+02  0.59301964761E+02  0.50000037813E+02 0.  0.
         12    1    1    2    0    0  0.24580473188E+01  0.18430794240E+02 -0.25903340910E+02  0.31886035239E+02  0.00000000000E+00 0. -1.
         11    1    3    3    0    0 -0.73266172666E+01 -0.58351160626E+01 -0.13001787627E+02  0.16024181159E+02  0.51100000000E-03 0. -1.
        -11    1    3    3    0    0  0.45075034386E+00 -0.12046634603E+02  0.16499902999E+02  0.20434563376E+02  0.51100000000E-03 0.  1.
         12    1    3    3    0    0  0.44178196039E+01 -0.54904357449E+00  0.22405225539E+02  0.22843220227E+02  0.00000000000E+00 0. -1.
</event>
<event>
 7    1  0.4673733E-013  0.5930173E+02  0.7816164E-02  0.1266606E+00
        -11   -1    0    0    0    0  0.00000000000E+00  0.00000000000E+00  0.45593999997E+02  0.45594000000E+02  0.51100000000E-03 0.  1.
         11   -1    0    0    0    0 -0.00000000000E+00 -0.00000000000E+00 -0.45593999997E+02  0.45594000000E+02  0.51100000000E-03 0. -1.
    9900012    2    1    2    0    0  0.29206484916E+02 -0.10603164853E+02  0.71616064764E+01  0.59301725941E+02  0.49999602260E+02 0.  0.
         12    1    1    2    0    0 -0.29206484916E+02  0.10603164853E+02 -0.71616064764E+01  0.31886274059E+02  0.00000000000E+00 0. -1.
         11    1    3    3    0    0 -0.37146414479E+01 -0.49453869484E+01  0.81269592077E+01  0.10212878114E+02  0.51100000000E-03 0. -1.
        -11    1    3    3    0    0  0.24205246274E+02  0.93120725007E+01 -0.11972885330E+02  0.28564989495E+02  0.51100000000E-03 0.  1.
        -12    1    3    3    0    0  0.87158800901E+01 -0.14969850405E+02  0.11007532599E+02  0.20523858332E+02  0.00000000000E+00 0.  1.
</event>
<event>
 7    1  0.4673733E-013  0.5930182E+02  0.7816164E-02  0.1266605E+00
        -11   -1    0    0    0    0  0.00000000000E+00  0.00000000000E+00  0.45593999997E+02  0.45594000000E+02  0.51100000000E-03 0. -1.
         11   -1    0    0    0    0 -0.00000000000E+00 -0.00000000000E+00 -0.45593999997E+02  0.45594000000E+02  0.51100000000E-03 0.  1.
    9900012    2    1    2    0    0 -0.54092086044E+01  0.63802617394E+01 -0.30769485306E+02  0.59301819552E+02  0.49999772986E+02 0.  0.
         12    1    1    2    0    0  0.54092086044E+01 -0.63802617394E+01  0.30769485306E+02  0.31886180448E+02  0.00000000000E+00 0. -1.
         11    1    3    3    0    0  0.13769302358E+01 -0.83251293695E+01  0.37985965831E+01  0.92538128442E+01  0.51100000000E-03 0. -1.
        -11    1    3    3    0    0 -0.32067150383E+01  0.23460414371E+02 -0.14248826650E+02  0.27635179119E+02  0.51100000000E-03 0.  1.
        -12    1    3    3    0    0 -0.35794238018E+01 -0.87550232618E+01 -0.20319255238E+02  0.22412827588E+02  0.00000000000E+00 0.  1.
</event>
<event>
 7    1  0.4673733E-013  0.5930197E+02  0.7816164E-02  0.1266605E+00
        -11   -1    0    0    0    0  0.00000000000E+00  0.00000000000E+00  0.45593999997E+02  0.45594000000E+02  0.51100000000E-03 0.  1.
         11   -1    0    0    0    0 -0.00000000000E+00 -0.00000000000E+00 -0.45593999997E+02  0.45594000000E+02  0.51100000000E-03 0. -1.
    9900012    2    1    2    0    0 -0.59181530534E+01 -0.86020882563E+01  0.30128029451E+02  0.59301974589E+02  0.50000055736E+02 0.  0.
         12    1    1    2    0    0  0.59181530534E+01  0.86020882563E+01 -0.30128029451E+02  0.31886025411E+02  0.00000000000E+00 0. -1.
         11    1    3    3    0    0  0.13378703397E+02  0.10850406629E+02  0.15724121262E+02  0.23323143405E+02  0.51100000000E-03 0. -1.
        -11    1    3    3    0    0 -0.17996466483E+01 -0.72592714326E+01 -0.33827754359E+01  0.82084663428E+01  0.51100000000E-03 0.  1.
         12    1    3    3    0    0 -0.17497209802E+02 -0.12193223453E+02  0.17786683625E+02  0.27770364841E+02  0.00000000000E+00 0. -1.
</event>
<event>
 7    1  0.4673733E-013  0.5930195E+02  0.7816164E-02  0.1266605E+00
        -11   -1    0    0    0    0  0.00000000000E+00  0.00000000000E+00  0.45593999997E+02  0.45594000000E+02  0.51100000000E-03 0. -1.
         11   -1    0    0    0    0 -0.00000000000E+00 -0.00000000000E+00 -0.45593999997E+02  0.45594000000E+02  0.51100000000E-03 0.  1.
    9900012    2    1    2    0    0  0.20716277662E+02  0.21623452381E+02 -0.10953639710E+02  0.59301951704E+02  0.50000014000E+02 0.  0.
         12    1    1    2    0    0 -0.20716277662E+02 -0.21623452381E+02  0.10953639710E+02  0.31886048296E+02  0.00000000000E+00 0. -1.
         11    1    3    3    0    0 -0.57553974651E+01  0.14957984988E+02  0.30867283422E+01  0.16321574893E+02  0.51100000000E-03 0. -1.
        -11    1    3    3    0    0  0.14750214845E+02 -0.76417830016E+01  0.40604347468E+01  0.17101251884E+02  0.51100000000E-03 0.  1.
        -12    1    3    3    0    0  0.11721460282E+02  0.14307250395E+02 -0.18100802799E+02  0.25879124927E+02  0.00000000000E+00 0.  1.
</event>
<event>
 7    1  0.4673733E-013  0.5930201E+02  0.7816164E-02  0.1266605E+00
        -11   -1    0    0    0    0  0.00000000000E+00  0.00000000000E+00  0.45593999997E+02  0.45594000000E+02  0.51100000000E-03 0.  1.
         11   -1    0    0    0    0 -0.00000000000E+00 -0.00000000000E+00 -0.45593999997E+02  0.45594000000E+02  0.51100000000E-03 0. -1.
    9900012    2    1    2    0    0  0.25536493034E+02  0.16159022204E+02  0.10173012081E+02  0.59302005428E+02  0.50000111979E+02 0.  0.
         12    1    1    2    0    0 -0.25536493034E+02 -0.16159022204E+02 -0.10173012081E+02  0.31885994572E+02  0.00000000000E+00 0. -1.
         11    1    3    3    0    0  0.17983748847E+01 -0.89334116655E+01 -0.97400511119E+01  0.13338237970E+02  0.51100000000E-03 0. -1.
        -11    1    3    3    0    0  0.13158516518E+02  0.88507257187E+01  0.21272051813E+02  0.26532660841E+02  0.51100000000E-03 0.  1.
         12    1    3    3    0    0  0.10579601631E+02  0.16241708150E+02 -0.13589886197E+01  0.19431106618E+02  0.00000000000E+00 0. -1.
</event>
<event>
 7    1  0.4673733E-013  0.5930197E+02  0.7816164E-02  0.1266605E+00
        -11   -1    0    0    0    0  0.00000000000E+00  0.00000000000E+00  0.45593999997E+02  0.45594000000E+02  0.51100000000E-03 0. -1.
         11   -1    0    0    0    0 -0.00000000000E+00 -0.00000000000E+00 -0.45593999997E+02  0.45594000000E+02  0.51100000000E-03 0.  1.
    9900012    2    1    2    0    0  0.62577758231E+01 -0.89189982025E+00 -0.31253215314E+02  0.59301973107E+02  0.50000053034E+02 0.  0.
         12    1    1    2    0    0 -0.62577758231E+01  0.89189982025E+00  0.31253215314E+02  0.31886026893E+02  0.00000000000E+00 0. -1.
         11    1    3    3    0    0  0.14563375302E+01  0.36459998193E+01  0.13848225515E+01  0.41631679578E+01  0.51100000000E-03 0. -1.
        -11    1    3    3    0    0 -0.35679271617E+01  0.14351016931E+02 -0.31081663223E+02  0.34420220512E+02  0.51100000000E-03 0.  1.
        -12    1    3    3    0    0  0.83693654545E+01 -0.18888916571E+02 -0.15563746432E+01  0.20718584637E+02  0.00000000000E+00 0.  1.
</event>
<event>
 7    1  0.4673733E-013  0.5930197E+02  0.7816164E-02  0.1266605E+00
        -11   -1    0    0    0    0  0.00000000000E+00  0.00000000000E+00  0.45593999997E+02  0.45594000000E+02  0.51100000000E-03 0.  1.
         11   -1    0    0    0    0 -0.00000000000E+00 -0.00000000000E+00 -0.45593999997E+02  0.45594000000E+02  0.51100000000E-03 0. -1.
    9900012    2    1    2    0    0 -0.14057643175E+02 -0.98079623580E+01  0.26886901869E+02  0.59301969370E+02  0.50000046218E+02 0.  0.
         12    1    1    2    0    0  0.14057643175E+02  0.98079623580E+01 -0.26886901869E+02  0.31886030630E+02  0.00000000000E+00 0. -1.
         11    1    3    3    0    0  0.32343715994E+01  0.90638973146E+01 -0.85001174424E+01  0.12840069742E+02  0.51100000000E-03 0. -1.
        -11    1    3    3    0    0 -0.85612369490E+01 -0.97858582920E+01  0.30116158466E+02  0.32803060857E+02  0.51100000000E-03 0.  1.
        -12    1    3    3    0    0 -0.87307778253E+01 -0.90860013805E+01  0.52708608457E+01  0.13658838771E+02  0.00000000000E+00 0.  1.
</event>
<event>
 7    1  0.4673733E-013  0.5930195E+02  0.7816164E-02  0.1266605E+00
        -11   -1    0    0    0    0  0.00000000000E+00  0.00000000000E+00  0.45593999997E+02  0.45594000000E+02  0.51100000000E-03 0.  1.
         11   -1    0    0    0    0 -0.00000000000E+00 -0.00000000000E+00 -0.45593999997E+02  0.45594000000E+02  0.51100000000E-03 0. -1.
    9900012    2    1    2    0    0  0.19080370653E+01  0.28990193345E+02  0.13139573752E+02  0.59301947971E+02  0.50000007192E+02 0.  0.
         12    1    1    2    0    0 -0.19080370653E+01 -0.28990193345E+02 -0.13139573752E+02  0.31886052029E+02  0.00000000000E+00 0. -1.
         11    1    3    3    0    0  0.18637621075E+01 -0.11678991698E+02  0.55762140329E+01  0.13075420432E+02  0.51100000000E-03 0. -1.
        -11    1    3    3    0    0 -0.98792351054E+01  0.16571697755E+02  0.83448508482E+00  0.19311054305E+02  0.51100000000E-03 0.  1.
         12    1    3    3    0    0  0.99235100632E+01  0.24097487288E+02  0.67288746342E+01  0.26915473234E+02  0.00000000000E+00 0. -1.
</event>
<event>
 7    1  0.4673733E-013  0.5930195E+02  0.7816164E-02  0.1266605E+00
        -11   -1    0    0    0    0  0.00000000000E+00  0.00000000000E+00  0.45593999997E+02  0.45594000000E+02  0.51100000000E-03 0.  1.
         11   -1    0    0    0    0 -0.00000000000E+00 -0.00000000000E+00 -0.45593999997E+02  0.45594000000E+02  0.51100000000E-03 0. -1.
    9900012    2    1    2    0    0 -0.11973408305E+02  0.18843428764E+02  0.22765827282E+02  0.59301949667E+02  0.50000010285E+02 0.  0.
         12    1    1    2    0    0  0.11973408305E+02 -0.18843428764E+02 -0.22765827282E+02  0.31886050333E+02  0.00000000000E+00 0. -1.
         11    1    3    3    0    0  0.38514275582E+01 -0.13020302321E+02  0.29939142120E+01  0.13904146480E+02  0.51100000000E-03 0. -1.
        -11    1    3    3    0    0 -0.66710245667E+01  0.29094216599E+02  0.19826818050E+02  0.35834044183E+02  0.51100000000E-03 0.  1.
        -12    1    3    3    0    0 -0.91538112962E+01  0.27695144859E+01 -0.54904980654E-01  0.95637590042E+01  0.00000000000E+00 0.  1.
</event>
<event>
 7    1  0.4673733E-013  0.5930195E+02  0.7816164E-02  0.1266605E+00
        -11   -1    0    0    0    0  0.00000000000E+00  0.00000000000E+00  0.45593999997E+02  0.45594000000E+02  0.51100000000E-03 0.  1.
         11   -1    0    0    0    0 -0.00000000000E+00 -0.00000000000E+00 -0.45593999997E+02  0.45594000000E+02  0.51100000000E-03 0. -1.
    9900012    2    1    2    0    0 -0.13820236494E+02 -0.27703161110E+02  0.76325754015E+01  0.59301948512E+02  0.50000008179E+02 0.  0.
         12    1    1    2    0    0  0.13820236494E+02  0.27703161110E+02 -0.76325754015E+01  0.31886051488E+02  0.00000000000E+00 0. -1.
         11    1    3    3    0    0 -0.10223773898E+02 -0.34626511331E+01 -0.11743841859E+02  0.15950966349E+02  0.51100000000E-03 0. -1.
        -11    1    3    3    0    0 -0.89225071805E+01 -0.29706575736E+02  0.14095085914E+02  0.34069975397E+02  0.51100000000E-03 0.  1.
        -12    1    3    3    0    0  0.53260445846E+01  0.54660657598E+01  0.52813313463E+01  0.92810067663E+01  0.00000000000E+00 0.  1.
</event>
<event>
 7    1  0.4673733E-013  0.5930192E+02  0.7816164E-02  0.1266605E+00
        -11   -1    0    0    0    0  0.00000000000E+00  0.00000000000E+00  0.45593999997E+02  0.45594000000E+02  0.51100000000E-03 0. -1.
         11   -1    0    0    0    0 -0.00000000000E+00 -0.00000000000E+00 -0.45593999997E+02  0.45594000000E+02  0.51100000000E-03 0.  1.
    9900012    2    1    2    0    0 -0.21756654212E+02  0.19628501491E+02 -0.12573460210E+02  0.59301921926E+02  0.49999959691E+02 0.  0.
         12    1    1    2    0    0  0.21756654212E+02 -0.19628501491E+02  0.12573460210E+02  0.31886078074E+02  0.00000000000E+00 0. -1.
         11    1    3    3    0    0  0.63747276924E+01  0.20153366848E+02 -0.12617420466E+02  0.24616958544E+02  0.51100000000E-03 0. -1.
        -11    1    3    3    0    0  0.74797972641E+00 -0.53278792948E+01 -0.50501477437E+00  0.54037775338E+01  0.51100000000E-03 0.  1.
         12    1    3    3    0    0 -0.28879361631E+02  0.48030139374E+01  0.54897502957E+00  0.29281185848E+02  0.00000000000E+00 0. -1.
</event>
<event>
 7    1  0.5772803E-013  0.5930195E+02  0.7816164E-02  0.1266605E+00
        -11   -1    0    0    0    0  0.00000000000E+00  0.00000000000E+00  0.45593999997E+02  0.45594000000E+02  0.51100000000E-03 0. -1.
         11   -1    0    0    0    0 -0.00000000000E+00 -0.00000000000E+00 -0.45593999997E+02  0.45594000000E+02  0.51100000000E-03 0.  1.
    9900012    2    1    2    0    0  0.22584439776E+02  0.21086143962E+02 -0.78764168346E+01  0.59301947731E+02  0.50000006753E+02 0.  0.
         12    1    1    2    0    0 -0.22584439776E+02 -0.21086143962E+02  0.78764168346E+01  0.31886052269E+02  0.00000000000E+00 0. -1.
         11    1    3    3    0    0 -0.11698584111E+02  0.66190383477E+00  0.57256739694E+01  0.13041408266E+02  0.51100000000E-03 0. -1.
        -11    1    3    3    0    0  0.21244436192E+02  0.29225077503E+01 -0.11503797575E+02  0.24335251788E+02  0.51100000000E-03 0.  1.
        -12    1    3    3    0    0  0.13038587695E+02  0.17501732376E+02 -0.20982932291E+01  0.21925287677E+02  0.00000000000E+00 0.  1.
</event>
<event>
 7    1  0.4673733E-013  0.5930197E+02  0.7816164E-02  0.1266605E+00
        -11   -1    0    0    0    0  0.00000000000E+00  0.00000000000E+00  0.45593999997E+02  0.45594000000E+02  0.51100000000E-03 0.  1.
         11   -1    0    0    0    0 -0.00000000000E+00 -0.00000000000E+00 -0.45593999997E+02  0.45594000000E+02  0.51100000000E-03 0. -1.
    9900012    2    1    2    0    0 -0.13409032543E+02 -0.20409704674E+02  0.20502704586E+02  0.59301967102E+02  0.50000042082E+02 0.  0.
         12    1    1    2    0    0  0.13409032543E+02  0.20409704674E+02 -0.20502704586E+02  0.31886032898E+02  0.00000000000E+00 0. -1.
         11    1    3    3    0    0 -0.24238689922E+01  0.83010194414E+01  0.28581580251E+01  0.91077512162E+01  0.51100000000E-03 0. -1.
        -11    1    3    3    0    0 -0.20135113153E+02 -0.29972336977E+02  0.82879901339E+01  0.37046653644E+02  0.51100000000E-03 0.  1.
        -12    1    3    3    0    0  0.91499496019E+01  0.12616128614E+01  0.93565564268E+01  0.13147562242E+02  0.00000000000E+00 0.  1.
</event>
<event>
 7    1  0.4673733E-013  0.5930196E+02  0.7816164E-02  0.1266605E+00
        -11   -1    0    0    0    0  0.00000000000E+00  0.00000000000E+00  0.45593999997E+02  0.45594000000E+02  0.51100000000E-03 0.  1.
         11   -1    0    0    0    0 -0.00000000000E+00 -0.00000000000E+00 -0.45593999997E+02  0.45594000000E+02  0.51100000000E-03 0. -1.
    9900012    2    1    2    0    0  0.79887347088E+01 -0.62087041043E+01  0.30238252104E+02  0.59301956357E+02  0.50000022485E+02 0.  0.
         12    1    1    2    0    0 -0.79887347088E+01  0.62087041043E+01 -0.30238252104E+02  0.31886043643E+02  0.00000000000E+00 0. -1.
         11    1    3    3    0    0  0.14606154247E+02 -0.18111817579E+02  0.32369811577E+02  0.39864550413E+02  0.51100000000E-03 0. -1.
        -11    1    3    3    0    0 -0.67235725968E+01  0.36914776166E+01 -0.65726604842E+01  0.10101153477E+02  0.51100000000E-03 0.  1.
        -12    1    3    3    0    0  0.10615305875E+00  0.82116358576E+01  0.44411010118E+01  0.93362524670E+01  0.00000000000E+00 0.  1.
</event>
<event>
 7    1  0.4673733E-013  0.5930199E+02  0.7816164E-02  0.1266605E+00
        -11   -1    0    0    0    0  0.00000000000E+00  0.00000000000E+00  0.45593999997E+02  0.45594000000E+02  0.51100000000E-03 0. -1.
         11   -1    0    0    0    0 -0.00000000000E+00 -0.00000000000E+00 -0.45593999997E+02  0.45594000000E+02  0.51100000000E-03 0.  1.
    9900012    2    1    2    0    0 -0.24637569151E+02  0.13792484984E+02 -0.14814688600E+02  0.59301992818E+02  0.50000088981E+02 0.  0.
         12    1    1    2    0    0  0.24637569151E+02 -0.13792484984E+02  0.14814688600E+02  0.31886007182E+02  0.00000000000E+00 0. -1.
         11    1    3    3    0    0 -0.27547095800E+02  0.28433513520E+02 -0.17926626230E+02  0.43458843822E+02  0.51100000000E-03 0. -1.
        -11    1    3    3    0    0  0.31678901048E+01 -0.63860776963E+01  0.25277031339E+01  0.75635176640E+01  0.51100000000E-03 0.  1.
         12    1    3    3    0    0 -0.25836345595E+00 -0.82549508396E+01  0.58423449605E+00  0.82796313315E+01  0.00000000000E+00 0. -1.
</event>
<event>
 7    1  0.4673733E-013  0.5930194E+02  0.7816164E-02  0.1266605E+00
        -11   -1    0    0    0    0  0.00000000000E+00  0.00000000000E+00  0.45593999997E+02  0.45594000000E+02  0.51100000000E-03 0.  1.
         11   -1    0    0    0    0 -0.00000000000E+00 -0.00000000000E+00 -0.45593999997E+02  0.45594000000E+02  0.51100000000E-03 0. -1.
    9900012    2    1    2    0    0  0.22583834996E+02  0.17512231317E+02  0.14142599480E+02  0.59301937702E+02  0.49999988463E+02 0.  0.
         12    1    1    2    0    0 -0.22583834996E+02 -0.17512231317E+02 -0.14142599480E+02  0.31886062298E+02  0.00000000000E+00 0. -1.
         11    1    3    3    0    0  0.10902458020E+02  0.21669704562E+02 -0.11358988785E+02  0.26785561655E+02  0.51100000000E-03 0. -1.
        -11    1    3    3    0    0  0.15362394940E+02 -0.15302595219E+01  0.21558984463E+02  0.26516686894E+02  0.51100000000E-03 0.  1.
         12    1    3    3    0    0 -0.36810179635E+01 -0.26272137230E+01  0.39426038011E+01  0.59996891525E+01  0.00000000000E+00 0. -1.
</event>
<event>
 7    1  0.4673733E-013  0.5930195E+02  0.7816164E-02  0.1266605E+00
        -11   -1    0    0    0    0  0.00000000000E+00  0.00000000000E+00  0.45593999997E+02  0.45594000000E+02  0.51100000000E-03 0.  1.
         11   -1    0    0    0    0 -0.00000000000E+00 -0.00000000000E+00 -0.45593999997E+02  0.45594000000E+02  0.51100000000E-03 0. -1.
    9900012    2    1    2    0    0  0.20490291966E+02 -0.24364165334E+02 -0.18042506973E+01  0.59301953869E+02  0.50000017949E+02 0.  0.
         12    1    1    2    0    0 -0.20490291966E+02  0.24364165334E+02  0.18042506973E+01  0.31886046131E+02  0.00000000000E+00 0. -1.
         11    1    3    3    0    0 -0.11242827055E+00 -0.16317990223E+02 -0.11245419765E+02  0.19817893707E+02  0.51100000000E-03 0. -1.
        -11    1    3    3    0    0  0.24189933117E+02 -0.88724712839E+01  0.17143060640E+02  0.30947667751E+02  0.51100000000E-03 0.  1.
        -12    1    3    3    0    0 -0.35872128798E+01  0.82629617301E+00 -0.77018915723E+01  0.85363924115E+01  0.00000000000E+00 0.  1.
</event>
<event>
 7    1  0.4673733E-013  0.5930197E+02  0.7816164E-02  0.1266605E+00
        -11   -1    0    0    0    0  0.00000000000E+00  0.00000000000E+00  0.45593999997E+02  0.45594000000E+02  0.51100000000E-03 0.  1.
         11   -1    0    0    0    0 -0.00000000000E+00 -0.00000000000E+00 -0.45593999997E+02  0.45594000000E+02  0.51100000000E-03 0. -1.
    9900012    2    1    2    0    0  0.12259509038E+02  0.14844133462E+02  0.25418009172E+02  0.59301967785E+02  0.50000043328E+02 0.  0.
         12    1    1    2    0    0 -0.12259509038E+02 -0.14844133462E+02 -0.25418009172E+02  0.31886032215E+02  0.00000000000E+00 0. -1.
         11    1    3    3    0    0 -0.10874973230E+02  0.75754206397E+01  0.14219497838E+02  0.19438265345E+02  0.51100000000E-03 0. -1.
        -11    1    3    3    0    0  0.27084248036E+02  0.56622545279E+01 -0.22461261972E+00  0.27670707781E+02  0.51100000000E-03 0.  1.
        -12    1    3    3    0    0 -0.39497657682E+01  0.16064582945E+01  0.11423123954E+02  0.12192994659E+02  0.00000000000E+00 0.  1.
</event>
<event>
 7    1  0.4673733E-013  0.5930196E+02  0.7816164E-02  0.1266605E+00
        -11   -1    0    0    0    0  0.00000000000E+00  0.00000000000E+00  0.45593999997E+02  0.45594000000E+02  0.51100000000E-03 0.  1.
         11   -1    0    0    0    0 -0.00000000000E+00 -0.00000000000E+00 -0.45593999997E+02  0.45594000000E+02  0.51100000000E-03 0. -1.
    9900012    2    1    2    0    0 -0.25287589612E+01 -0.21579386575E+01  0.31712276079E+02  0.59301956419E+02  0.50000022599E+02 0.  0.
         12    1    1    2    0    0  0.25287589612E+01  0.21579386575E+01 -0.31712276079E+02  0.31886043581E+02  0.00000000000E+00 0. -1.
         11    1    3    3    0    0  0.47853981081E+01  0.10927201128E+02 -0.27246293664E+01  0.12236313374E+02  0.51100000000E-03 0. -1.
        -11    1    3    3    0    0  0.10839913359E+01 -0.18773386475E+02  0.31181305323E+02  0.36412757089E+02  0.51100000000E-03 0.  1.
         12    1    3    3    0    0 -0.83981484052E+01  0.56882466898E+01  0.32556001223E+01  0.10652885956E+02  0.00000000000E+00 0. -1.
</event>
<event>
 7    1  0.4673733E-013  0.5930193E+02  0.7816164E-02  0.1266605E+00
        -11   -1    0    0    0    0  0.00000000000E+00  0.00000000000E+00  0.45593999997E+02  0.45594000000E+02  0.51100000000E-03 0. -1.
         11   -1    0    0    0    0 -0.00000000000E+00 -0.00000000000E+00 -0.45593999997E+02  0.45594000000E+02  0.51100000000E-03 0.  1.
    9900012    2    1    2    0    0 -0.11890344174E+02  0.25418556407E+02 -0.15140618960E+02  0.59301927227E+02  0.49999969359E+02 0.  0.
         12    1    1    2    0    0  0.11890344174E+02 -0.25418556407E+02  0.15140618960E+02  0.31886072773E+02  0.00000000000E+00 0. -1.
         11    1    3    3    0    0  0.39382239099E+01 -0.13519564624E+02 -0.71552511638E+01  0.15795121230E+02  0.51100000000E-03 0. -1.
        -11    1    3    3    0    0 -0.16910510948E+01  0.11163295019E+02  0.16871432814E+00  0.11291911896E+02  0.51100000000E-03 0.  1.
         12    1    3    3    0    0 -0.14137516990E+02  0.27774826012E+02 -0.81540821247E+01  0.32214894100E+02  0.00000000000E+00 0. -1.
</event>
<event>
 7    1  0.4673733E-013  0.5930195E+02  0.7816164E-02  0.1266605E+00
        -11   -1    0    0    0    0  0.00000000000E+00  0.00000000000E+00  0.45593999997E+02  0.45594000000E+02  0.51100000000E-03 0. -1.
         11   -1    0    0    0    0 -0.00000000000E+00 -0.00000000000E+00 -0.45593999997E+02  0.45594000000E+02  0.51100000000E-03 0.  1.
    9900012    2    1    2    0    0 -0.28375661447E+02 -0.51281547277E+01 -0.13610436459E+02  0.59301951106E+02  0.50000012908E+02 0.  0.
         12    1    1    2    0    0  0.28375661447E+02  0.51281547277E+01  0.13610436459E+02  0.31886048894E+02  0.00000000000E+00 0. -1.
         11    1    3    3    0    0 -0.16128095777E+02  0.16155405201E+01  0.11019734323E+02  0.19599999729E+02  0.51100000000E-03 0. -1.
        -11    1    3    3    0    0 -0.94686584459E+01 -0.16931331582E+02 -0.20867653363E+02  0.28491831093E+02  0.51100000000E-03 0.  1.
         12    1    3    3    0    0 -0.27789072241E+01  0.10187636334E+02 -0.37625174197E+01  0.11210120283E+02  0.00000000000E+00 0. -1.
</event>
<event>
 7    1  0.4673733E-013  0.5930193E+02  0.7816164E-02  0.1266605E+00
        -11   -1    0    0    0    0  0.00000000000E+00  0.00000000000E+00  0.45593999997E+02  0.45594000000E+02  0.51100000000E-03 0.  1.
         11   -1    0    0    0    0 -0.00000000000E+00 -0.00000000000E+00 -0.45593999997E+02  0.45594000000E+02  0.51100000000E-03 0. -1.
    9900012    2    1    2    0    0  0.68546200720E+01 -0.16840494378E+01  0.31095011325E+02  0.59301928305E+02  0.49999971325E+02 0.  0.
         12    1    1    2    0    0 -0.68546200720E+01  0.16840494378E+01 -0.31095011325E+02  0.31886071695E+02  0.00000000000E+00 0. -1.
         11    1    3    3    0    0 -0.16483738300E+02  0.42743477883E+00 -0.31095484420E+01  0.16779917181E+02  0.51100000000E-03 0. -1.
        -11    1    3    3    0    0  0.87864858989E+01 -0.51077981726E+01  0.11072582845E+02  0.15029771381E+02  0.51100000000E-03 0.  1.
         12    1    3    3    0    0  0.14551872473E+02  0.29963139560E+01  0.23131976922E+02  0.27492239743E+02  0.00000000000E+00 0. -1.
</event>
<event>
 7    1  0.4673733E-013  0.5930195E+02  0.7816164E-02  0.1266605E+00
        -11   -1    0    0    0    0  0.00000000000E+00  0.00000000000E+00  0.45593999997E+02  0.45594000000E+02  0.51100000000E-03 0. -1.
         11   -1    0    0    0    0 -0.00000000000E+00 -0.00000000000E+00 -0.45593999997E+02  0.45594000000E+02  0.51100000000E-03 0.  1.
    9900012    2    1    2    0    0 -0.50773330332E+01  0.27934871424E+02 -0.14511515070E+02  0.59301946280E+02  0.50000004108E+02 0.  0.
         12    1    1    2    0    0  0.50773330332E+01 -0.27934871424E+02  0.14511515070E+02  0.31886053720E+02  0.00000000000E+00 0. -1.
         11    1    3    3    0    0  0.39141966201E+01  0.11551527196E+02  0.14465774454E+02  0.18921346320E+02  0.51100000000E-03 0. -1.
        -11    1    3    3    0    0 -0.55914094312E+01  0.16111903023E+02 -0.31713118194E+02  0.36008042772E+02  0.51100000000E-03 0.  1.
         12    1    3    3    0    0 -0.34001202221E+01  0.27144120424E+00  0.27358286700E+01  0.43725571882E+01  0.00000000000E+00 0. -1.
</event>
<event>
 7    1  0.4673733E-013  0.5930192E+02  0.7816164E-02  0.1266605E+00
        -11   -1    0    0    0    0  0.00000000000E+00  0.00000000000E+00  0.45593999997E+02  0.45594000000E+02  0.51100000000E-03 0. -1.
         11   -1    0    0    0    0 -0.00000000000E+00 -0.00000000000E+00 -0.45593999997E+02  0.45594000000E+02  0.51100000000E-03 0.  1.
    9900012    2    1    2    0    0 -0.28791173502E+02  0.13585810790E+02  0.17933083070E+01  0.59301923397E+02  0.49999962375E+02 0.  0.
         12    1    1    2    0    0  0.28791173502E+02 -0.13585810790E+02 -0.17933083070E+01  0.31886076603E+02  0.00000000000E+00 0. -1.
         11    1    3    3    0    0  0.79609127694E+01 -0.61234509898E+01 -0.17344764386E+01  0.10192212366E+02  0.51100000000E-03 0. -1.
        -11    1    3    3    0    0 -0.15185243239E+02  0.44897093104E+01  0.13583525630E+02  0.20862916160E+02  0.51100000000E-03 0.  1.
         12    1    3    3    0    0 -0.21566843032E+02  0.15219552469E+02 -0.10055740884E+02  0.28246794871E+02  0.00000000000E+00 0. -1.
</event>
<event>
 7    1  0.4673733E-013  0.5930194E+02  0.7816164E-02  0.1266605E+00
        -11   -1    0    0    0    0  0.00000000000E+00  0.00000000000E+00  0.45593999997E+02  0.45594000000E+02  0.51100000000E-03 0.  1.
         11   -1    0    0    0    0 -0.00000000000E+00 -0.00000000000E+00 -0.45593999997E+02  0.45594000000E+02  0.51100000000E-03 0. -1.
    9900012    2    1    2    0    0  0.15943982604E+02 -0.77766965147E+01  0.26495912754E+02  0.59301937487E+02  0.49999988070E+02 0.  0.
         12    1    1    2    0    0 -0.15943982604E+02  0.77766965147E+01 -0.26495912754E+02  0.31886062513E+02  0.00000000000E+00 0. -1.
         11    1    3    3    0    0  0.73419169091E+01  0.19875900073E+02  0.85613536293E+01  0.22852831856E+02  0.51100000000E-03 0. -1.
        -11    1    3    3    0    0 -0.26996700782E+01 -0.67286643280E+01  0.11484213237E+01  0.73404369058E+01  0.51100000000E-03 0.  1.
         12    1    3    3    0    0  0.11301735773E+02 -0.20923932259E+02  0.16786137801E+02  0.29108668725E+02  0.00000000000E+00 0. -1.
</event>
<event>
 7    1  0.4673733E-013  0.5930196E+02  0.7816164E-02  0.1266605E+00
        -11   -1    0    0    0    0  0.00000000000E+00  0.00000000000E+00  0.45593999997E+02  0.45594000000E+02  0.51100000000E-03 0.  1.
         11   -1    0    0    0    0 -0.00000000000E+00 -0.00000000000E+00 -0.45593999997E+02  0.45594000000E+02  0.51100000000E-03 0. -1.
    9900012    2    1    2    0    0  0.25995441404E+02 -0.17748779305E+02  0.50928526828E+01  0.59301964043E+02  0.50000036503E+02 0.  0.
         12    1    1    2    0    0 -0.25995441404E+02  0.17748779305E+02 -0.50928526828E+01  0.31886035957E+02  0.00000000000E+00 0. -1.
         11    1    3    3    0    0  0.27547247635E+02 -0.10631760460E+02  0.46415586792E+00  0.29531349845E+02  0.51100000000E-03 0. -1.
        -11    1    3    3    0    0 -0.31854952608E+01  0.10736915149E+02 -0.20695154179E+00  0.11201408669E+02  0.51100000000E-03 0.  1.
         12    1    3    3    0    0  0.16336890290E+01 -0.17853933995E+02  0.48356483567E+01  0.18569205528E+02  0.00000000000E+00 0. -1.
</event>
<event>
 7    1  0.4673733E-013  0.5930195E+02  0.7816164E-02  0.1266605E+00
        -11   -1    0    0    0    0  0.00000000000E+00  0.00000000000E+00  0.45593999997E+02  0.45594000000E+02  0.51100000000E-03 0. -1.
         11   -1    0    0    0    0 -0.00000000000E+00 -0.00000000000E+00 -0.45593999997E+02  0.45594000000E+02  0.51100000000E-03 0.  1.
    9900012    2    1    2    0    0 -0.17375270525E+02 -0.17210704966E+02 -0.20460006627E+02  0.59301948780E+02  0.50000008666E+02 0.  0.
         12    1    1    2    0    0  0.17375270525E+02  0.17210704966E+02  0.20460006627E+02  0.31886051220E+02  0.00000000000E+00 0. -1.
         11    1    3    3    0    0 -0.53585367428E+01 -0.27296221914E+02 -0.58121529291E+01  0.28417930410E+02  0.51100000000E-03 0.  1.
        -11    1    3    3    0    0 -0.15389552550E+02  0.11743599445E+02 -0.42386197091E+01  0.19817072258E+02  0.51100000000E-03 0. -1.
        -12    1    3    3    0    0  0.33728187676E+01 -0.16580824961E+01 -0.10409233989E+02  0.11066946112E+02  0.00000000000E+00 0.  1.
</event>
<event>
 7    1  0.4673733E-013  0.5930194E+02  0.7816164E-02  0.1266605E+00
        -11   -1    0    0    0    0  0.00000000000E+00  0.00000000000E+00  0.45593999997E+02  0.45594000000E+02  0.51100000000E-03 0.  1.
         11   -1    0    0    0    0 -0.00000000000E+00 -0.00000000000E+00 -0.45593999997E+02  0.45594000000E+02  0.51100000000E-03 0. -1.
    9900012    2    1    2    0    0  0.65774923804E+01  0.29715996711E+02  0.95087798687E+01  0.59301940959E+02  0.49999994404E+02 0.  0.
         12    1    1    2    0    0 -0.65774923804E+01 -0.29715996711E+02 -0.95087798687E+01  0.31886059041E+02  0.00000000000E+00 0. -1.
         11    1    3    3    0    0  0.18381350884E+02  0.13291362697E+01  0.46656918422E+01  0.19010769163E+02  0.51100000000E-03 0. -1.
        -11    1    3    3    0    0 -0.39412918109E+01  0.24632312648E+02  0.13196136196E+02  0.28220960620E+02  0.51100000000E-03 0.  1.
         12    1    3    3    0    0 -0.78625666926E+01  0.37545477931E+01 -0.83530481696E+01  0.12070211177E+02  0.00000000000E+00 0. -1.
</event>
<event>
 7    1  0.4673733E-013  0.5930181E+02  0.7816164E-02  0.1266605E+00
        -11   -1    0    0    0    0  0.00000000000E+00  0.00000000000E+00  0.45593999997E+02  0.45594000000E+02  0.51100000000E-03 0.  1.
         11   -1    0    0    0    0 -0.00000000000E+00 -0.00000000000E+00 -0.45593999997E+02  0.45594000000E+02  0.51100000000E-03 0. -1.
    9900012    2    1    2    0    0  0.13286880798E+02 -0.29195080245E+01  0.28838588088E+02  0.59301813471E+02  0.49999761896E+02 0.  0.
         12    1    1    2    0    0 -0.13286880798E+02  0.29195080245E+01 -0.28838588088E+02  0.31886186529E+02  0.00000000000E+00 0. -1.
         11    1    3    3    0    0 -0.16061040429E+01  0.18054015095E+02  0.25765010182E+02  0.31501790126E+02  0.51100000000E-03 0. -1.
        -11    1    3    3    0    0  0.25171082612E+01 -0.34943936855E+01  0.46342504906E+01  0.63263653940E+01  0.51100000000E-03 0.  1.
         12    1    3    3    0    0  0.12375876580E+02 -0.17479129434E+02 -0.15606725846E+01  0.21473657951E+02  0.00000000000E+00 0. -1.
</event>
<event>
 7    1  0.4673733E-013  0.5930180E+02  0.7816164E-02  0.1266605E+00
        -11   -1    0    0    0    0  0.00000000000E+00  0.00000000000E+00  0.45593999997E+02  0.45594000000E+02  0.51100000000E-03 0.  1.
         11   -1    0    0    0    0 -0.00000000000E+00 -0.00000000000E+00 -0.45593999997E+02  0.45594000000E+02  0.51100000000E-03 0. -1.
    9900012    2    1    2    0    0  0.60404257565E+01  0.30857457155E+02  0.52971796400E+01  0.59301803652E+02  0.49999743988E+02 0.  0.
         12    1    1    2    0    0 -0.60404257565E+01 -0.30857457155E+02 -0.52971796400E+01  0.31886196348E+02  0.00000000000E+00 0. -1.
         11    1    3    3    0    0  0.13814923811E+02 -0.96061644501E+01 -0.33866837291E+01  0.17163919782E+02  0.51100000000E-03 0. -1.
        -11    1    3    3    0    0 -0.22880710466E+01  0.15946315455E+02  0.33543249722E+01  0.16455143330E+02  0.51100000000E-03 0.  1.
         12    1    3    3    0    0 -0.54864270074E+01  0.24517306150E+02  0.53295383968E+01  0.25682740541E+02  0.00000000000E+00 0. -1.
</event>
<event>
 7    1  0.4673733E-013  0.5930195E+02  0.7816164E-02  0.1266605E+00
        -11   -1    0    0    0    0  0.00000000000E+00  0.00000000000E+00  0.45593999997E+02  0.45594000000E+02  0.51100000000E-03 0. -1.
         11   -1    0    0    0    0 -0.00000000000E+00 -0.00000000000E+00 -0.45593999997E+02  0.45594000000E+02  0.51100000000E-03 0.  1.
    9900012    2    1    2    0    0  0.29257419007E+02 -0.11362080572E+02 -0.56237907790E+01  0.59301945609E+02  0.50000002885E+02 0.  0.
         12    1    1    2    0    0 -0.29257419007E+02  0.11362080572E+02  0.56237907790E+01  0.31886054391E+02  0.00000000000E+00 0. -1.
         11    1    3    3    0    0  0.78234892709E+01  0.70787927993E+01  0.17413711410E+02  0.20360590296E+02  0.51100000000E-03 0. -1.
        -11    1    3    3    0    0  0.22668300988E+01 -0.15936419156E+01 -0.98185213916E+01  0.10202037827E+02  0.51100000000E-03 0.  1.
         12    1    3    3    0    0  0.19167099637E+02 -0.16847231455E+02 -0.13218980798E+02  0.28739317486E+02  0.00000000000E+00 0. -1.
</event>
<event>
 7    1  0.4673733E-013  0.5930189E+02  0.7816164E-02  0.1266605E+00
        -11   -1    0    0    0    0  0.00000000000E+00  0.00000000000E+00  0.45593999997E+02  0.45594000000E+02  0.51100000000E-03 0. -1.
         11   -1    0    0    0    0 -0.00000000000E+00 -0.00000000000E+00 -0.45593999997E+02  0.45594000000E+02  0.51100000000E-03 0.  1.
    9900012    2    1    2    0    0 -0.27907450309E+02  0.70559040692E+01 -0.13715400723E+02  0.59301893590E+02  0.49999908014E+02 0.  0.
         12    1    1    2    0    0  0.27907450309E+02 -0.70559040692E+01  0.13715400723E+02  0.31886106410E+02  0.00000000000E+00 0. -1.
         11    1    3    3    0    0 -0.42183345524E+02  0.30214849876E+01 -0.95659944218E+01  0.43359800053E+02  0.51100000000E-03 0. -1.
        -11    1    3    3    0    0  0.11239866093E+02  0.13313776395E+01 -0.32950436300E+01  0.11788319176E+02  0.51100000000E-03 0.  1.
         12    1    3    3    0    0  0.30360291217E+01  0.27030414421E+01 -0.85436267152E+00  0.41537743607E+01  0.00000000000E+00 0. -1.
</event>
<event>
 7    1  0.4673733E-013  0.5930195E+02  0.7816164E-02  0.1266605E+00
        -11   -1    0    0    0    0  0.00000000000E+00  0.00000000000E+00  0.45593999997E+02  0.45594000000E+02  0.51100000000E-03 0.  1.
         11   -1    0    0    0    0 -0.00000000000E+00 -0.00000000000E+00 -0.45593999997E+02  0.45594000000E+02  0.51100000000E-03 0. -1.
    9900012    2    1    2    0    0 -0.89950745132E+01 -0.27294508044E+02  0.13813710567E+02  0.59301950786E+02  0.50000012325E+02 0.  0.
         12    1    1    2    0    0  0.89950745132E+01  0.27294508044E+02 -0.13813710567E+02  0.31886049214E+02  0.00000000000E+00 0. -1.
         11    1    3    3    0    0  0.11945264176E+02 -0.20128712904E+02 -0.67493243938E+01  0.24359963042E+02  0.51100000000E-03 0. -1.
        -11    1    3    3    0    0 -0.22642016297E+02 -0.39021410609E+01  0.12681181839E+02  0.26243093947E+02  0.51100000000E-03 0.  1.
        -12    1    3    3    0    0  0.17016776078E+01 -0.32636540795E+01  0.78818531223E+01  0.86988937959E+01  0.00000000000E+00 0.  1.
</event>
<event>
 7    1  0.4673733E-013  0.5930199E+02  0.7816164E-02  0.1266605E+00
        -11   -1    0    0    0    0  0.00000000000E+00  0.00000000000E+00  0.45593999997E+02  0.45594000000E+02  0.51100000000E-03 0.  1.
         11   -1    0    0    0    0 -0.00000000000E+00 -0.00000000000E+00 -0.45593999997E+02  0.45594000000E+02  0.51100000000E-03 0. -1.
    9900012    2    1    2    0    0 -0.23644512264E+02 -0.18555757326E+02  0.10646045713E+02  0.59301993987E+02  0.50000091113E+02 0.  0.
         12    1    1    2    0    0  0.23644512264E+02  0.18555757326E+02 -0.10646045713E+02  0.31886006013E+02  0.00000000000E+00 0. -1.
         11    1    3    3    0    0  0.55312922687E+01  0.96929262800E+01  0.63605059607E+01  0.12845390238E+02  0.51100000000E-03 0. -1.
        -11    1    3    3    0    0 -0.24114581407E+02 -0.94416990361E+01  0.69134633837E+01  0.26804005173E+02  0.51100000000E-03 0.  1.
         12    1    3    3    0    0 -0.50612231260E+01 -0.18806984570E+02 -0.26279236316E+01  0.19652598576E+02  0.00000000000E+00 0. -1.
</event>
<event>
 7    1  0.4673733E-013  0.5930201E+02  0.7816164E-02  0.1266605E+00
        -11   -1    0    0    0    0  0.00000000000E+00  0.00000000000E+00  0.45593999997E+02  0.45594000000E+02  0.51100000000E-03 0. -1.
         11   -1    0    0    0    0 -0.00000000000E+00 -0.00000000000E+00 -0.45593999997E+02  0.45594000000E+02  0.51100000000E-03 0.  1.
    9900012    2    1    2    0    0 -0.13571951477E+01  0.43863974181E+00 -0.31854072893E+02  0.59302010234E+02  0.50000120744E+02 0.  0.
         12    1    1    2    0    0  0.13571951477E+01 -0.43863974181E+00  0.31854072893E+02  0.31885989766E+02  0.00000000000E+00 0. -1.
         11    1    3    3    0    0 -0.10816979050E+02  0.13965075848E+02 -0.27563497410E+01  0.17878138699E+02  0.51100000000E-03 0. -1.
        -11    1    3    3    0    0  0.80538189727E+01 -0.16875449365E+02 -0.31804500334E+02  0.36894051460E+02  0.51100000000E-03 0.  1.
        -12    1    3    3    0    0  0.14059649296E+01  0.33490132596E+01  0.27067771823E+01  0.45298200749E+01  0.00000000000E+00 0.  1.
</event>
<event>
 7    1  0.5229136E-013  0.5930195E+02  0.7816164E-02  0.1266605E+00
        -11   -1    0    0    0    0  0.00000000000E+00  0.00000000000E+00  0.45593999997E+02  0.45594000000E+02  0.51100000000E-03 0. -1.
         11   -1    0    0    0    0 -0.00000000000E+00 -0.00000000000E+00 -0.45593999997E+02  0.45594000000E+02  0.51100000000E-03 0.  1.
    9900012    2    1    2    0    0 -0.19241750561E+02 -0.24574667557E+02 -0.65238924319E+01  0.59301946267E+02  0.50000004084E+02 0.  0.
         12    1    1    2    0    0  0.19241750561E+02  0.24574667557E+02  0.65238924319E+01  0.31886053733E+02  0.00000000000E+00 0. -1.
         11    1    3    3    0    0 -0.11099703837E+01  0.77540126913E+01 -0.10869328527E+02  0.13397725552E+02  0.51100000000E-03 0. -1.
        -11    1    3    3    0    0 -0.35130922744E+01 -0.13746833725E+02  0.14396672386E+02  0.20213397311E+02  0.51100000000E-03 0.  1.
        -12    1    3    3    0    0 -0.14618687903E+02 -0.18581846523E+02 -0.10051236292E+02  0.25690823404E+02  0.00000000000E+00 0.  1.
</event>
<event>
 7    1  0.4673733E-013  0.5930197E+02  0.7816164E-02  0.1266605E+00
        -11   -1    0    0    0    0  0.00000000000E+00  0.00000000000E+00  0.45593999997E+02  0.45594000000E+02  0.51100000000E-03 0.  1.
         11   -1    0    0    0    0 -0.00000000000E+00 -0.00000000000E+00 -0.45593999997E+02  0.45594000000E+02  0.51100000000E-03 0. -1.
    9900012    2    1    2    0    0 -0.13950920962E+02 -0.27565563108E+02  0.78886124160E+01  0.59301973735E+02  0.50000054178E+02 0.  0.
         12    1    1    2    0    0  0.13950920962E+02  0.27565563108E+02 -0.78886124160E+01  0.31886026265E+02  0.00000000000E+00 0. -1.
         11    1    3    3    0    0 -0.11259795334E+02 -0.60301640557E+01  0.35232289427E+00  0.12777715022E+02  0.51100000000E-03 0.  1.
        -11    1    3    3    0    0  0.18649590330E+02 -0.63041394675E+01  0.28958885224E+01  0.19898129674E+02  0.51100000000E-03 0. -1.
         12    1    3    3    0    0 -0.21340715958E+02 -0.15231259585E+02  0.46404009993E+01  0.26626129039E+02  0.00000000000E+00 0. -1.
</event>
<event>
 7    1  0.4673733E-013  0.5930194E+02  0.7816164E-02  0.1266605E+00
        -11   -1    0    0    0    0  0.00000000000E+00  0.00000000000E+00  0.45593999997E+02  0.45594000000E+02  0.51100000000E-03 0. -1.
         11   -1    0    0    0    0 -0.00000000000E+00 -0.00000000000E+00 -0.45593999997E+02  0.45594000000E+02  0.51100000000E-03 0.  1.
    9900012    2    1    2    0    0 -0.18482855510E+02  0.25104826858E+02 -0.66971893397E+01  0.59301943103E+02  0.49999998314E+02 0.  0.
         12    1    1    2    0    0  0.18482855510E+02 -0.25104826858E+02  0.66971893397E+01  0.31886056897E+02  0.00000000000E+00 0. -1.
         11    1    3    3    0    0  0.11383190336E+02  0.19467735666E+02  0.48733661303E+00  0.22556756225E+02  0.51100000000E-03 0. -1.
        -11    1    3    3    0    0 -0.88732553824E+01 -0.66200777467E+01  0.94934644494E+00  0.11111316276E+02  0.51100000000E-03 0.  1.
         12    1    3    3    0    0 -0.20992790464E+02  0.12257168939E+02 -0.81338723977E+01  0.25633870602E+02  0.00000000000E+00 0. -1.
</event>
<event>
 7    1  0.4673733E-013  0.5930199E+02  0.7816164E-02  0.1266605E+00
        -11   -1    0    0    0    0  0.00000000000E+00  0.00000000000E+00  0.45593999997E+02  0.45594000000E+02  0.51100000000E-03 0.  1.
         11   -1    0    0    0    0 -0.00000000000E+00 -0.00000000000E+00 -0.45593999997E+02  0.45594000000E+02  0.51100000000E-03 0. -1.
    9900012    2    1    2    0    0 -0.11918179209E+02  0.63351169756E+01  0.28888425854E+02  0.59301986592E+02  0.50000077627E+02 0.  0.
         12    1    1    2    0    0  0.11918179209E+02 -0.63351169756E+01 -0.28888425854E+02  0.31886013408E+02  0.00000000000E+00 0. -1.
         11    1    3    3    0    0  0.11484951936E+02  0.10588305781E+02 -0.18605166061E+01  0.15731429134E+02  0.51100000000E-03 0. -1.
        -11    1    3    3    0    0 -0.11756327423E+02  0.74695337644E+01  0.17648954231E+02  0.22483121555E+02  0.51100000000E-03 0.  1.
         12    1    3    3    0    0 -0.11646803721E+02 -0.11722722570E+02  0.13099988229E+02  0.21087435903E+02  0.00000000000E+00 0. -1.
</event>
<event>
 7    1  0.4673733E-013  0.5930193E+02  0.7816164E-02  0.1266605E+00
        -11   -1    0    0    0    0  0.00000000000E+00  0.00000000000E+00  0.45593999997E+02  0.45594000000E+02  0.51100000000E-03 0. -1.
         11   -1    0    0    0    0 -0.00000000000E+00 -0.00000000000E+00 -0.45593999997E+02  0.45594000000E+02  0.51100000000E-03 0.  1.
    9900012    2    1    2    0    0  0.71608178039E+01 -0.16368920724E+02 -0.26410269596E+02  0.59301933804E+02  0.49999981355E+02 0.  0.
         12    1    1    2    0    0 -0.71608178039E+01  0.16368920724E+02  0.26410269596E+02  0.31886066196E+02  0.00000000000E+00 0. -1.
         11    1    3    3    0    0  0.19672783914E+02 -0.24468312780E+02 -0.11500979697E+02  0.33436346862E+02  0.51100000000E-03 0.  1.
        -11    1    3    3    0    0 -0.15733760139E+02  0.76757651800E+01 -0.10588900615E+02  0.20459555120E+02  0.51100000000E-03 0. -1.
        -12    1    3    3    0    0  0.32217940287E+01  0.42362687601E+00 -0.43203892842E+01  0.54060318220E+01  0.00000000000E+00 0.  1.
</event>
<event>
 7    1  0.4673733E-013  0.5930197E+02  0.7816164E-02  0.1266605E+00
        -11   -1    0    0    0    0  0.00000000000E+00  0.00000000000E+00  0.45593999997E+02  0.45594000000E+02  0.51100000000E-03 0.  1.
         11   -1    0    0    0    0 -0.00000000000E+00 -0.00000000000E+00 -0.45593999997E+02  0.45594000000E+02  0.51100000000E-03 0. -1.
    9900012    2    1    2    0    0  0.16184091806E+02 -0.27251680302E+02  0.34842610134E+01  0.59301968863E+02  0.50000045294E+02 0.  0.
         12    1    1    2    0    0 -0.16184091806E+02  0.27251680302E+02 -0.34842610134E+01  0.31886031137E+02  0.00000000000E+00 0. -1.
         11    1    3    3    0    0  0.15059990690E+02 -0.62465017255E+01 -0.17973276969E+02  0.24266453978E+02  0.51100000000E-03 0. -1.
        -11    1    3    3    0    0 -0.33003910446E+00 -0.19298710332E+01  0.14572791235E+02  0.14703726489E+02  0.51100000000E-03 0.  1.
         12    1    3    3    0    0  0.14541402205E+01 -0.19075307543E+02  0.68847467471E+01  0.20331788397E+02  0.00000000000E+00 0. -1.
</event>
<event>
 7    1  0.4673733E-013  0.5930198E+02  0.7816164E-02  0.1266605E+00
        -11   -1    0    0    0    0  0.00000000000E+00  0.00000000000E+00  0.45593999997E+02  0.45594000000E+02  0.51100000000E-03 0.  1.
         11   -1    0    0    0    0 -0.00000000000E+00 -0.00000000000E+00 -0.45593999997E+02  0.45594000000E+02  0.51100000000E-03 0. -1.
    9900012    2    1    2    0    0  0.55009092235E+01  0.11289259682E+02  0.29308891201E+02  0.59301976575E+02  0.50000059358E+02 0.  0.
         12    1    1    2    0    0 -0.55009092235E+01 -0.11289259682E+02 -0.29308891201E+02  0.31886023425E+02  0.00000000000E+00 0. -1.
         11    1    3    3    0    0  0.95798698416E+01  0.18353485035E+02  0.34620459694E+01  0.20990714177E+02  0.51100000000E-03 0. -1.
        -11    1    3    3    0    0 -0.10330604168E+02  0.50995337196E+01  0.20716436491E+02  0.23704374444E+02  0.51100000000E-03 0.  1.
         12    1    3    3    0    0  0.62516435497E+01 -0.12163759073E+02  0.51304087408E+01  0.14606887954E+02  0.00000000000E+00 0. -1.
</event>
<event>
 7    1  0.4673733E-013  0.5930192E+02  0.7816164E-02  0.1266605E+00
        -11   -1    0    0    0    0  0.00000000000E+00  0.00000000000E+00  0.45593999997E+02  0.45594000000E+02  0.51100000000E-03 0. -1.
         11   -1    0    0    0    0 -0.00000000000E+00 -0.00000000000E+00 -0.45593999997E+02  0.45594000000E+02  0.51100000000E-03 0.  1.
    9900012    2    1    2    0    0 -0.29791268160E+02 -0.89639714835E+01 -0.69892540103E+01  0.59301919731E+02  0.49999955688E+02 0.  0.
         12    1    1    2    0    0  0.29791268160E+02  0.89639714835E+01  0.69892540103E+01  0.31886080269E+02  0.00000000000E+00 0. -1.
         11    1    3    3    0    0 -0.97123331165E+00 -0.25463623968E+01  0.99457486674E+01  0.10312379571E+02  0.51100000000E-03 0. -1.
        -11    1    3    3    0    0 -0.33607485054E+02 -0.13374342951E+02 -0.87179986058E+01  0.37206714461E+02  0.51100000000E-03 0.  1.
        -12    1    3    3    0    0  0.47874502056E+01  0.69567338643E+01 -0.82170040719E+01  0.11782825699E+02  0.00000000000E+00 0.  1.
</event>
<event>
 7    1  0.4673733E-013  0.5930195E+02  0.7816164E-02  0.1266605E+00
        -11   -1    0    0    0    0  0.00000000000E+00  0.00000000000E+00  0.45593999997E+02  0.45594000000E+02  0.51100000000E-03 0. -1.
         11   -1    0    0    0    0 -0.00000000000E+00 -0.00000000000E+00 -0.45593999997E+02  0.45594000000E+02  0.51100000000E-03 0.  1.
    9900012    2    1    2    0    0  0.18323413139E+02  0.71851369210E+01 -0.25086785438E+02  0.59301945599E+02  0.50000002865E+02 0.  0.
         12    1    1    2    0    0 -0.18323413139E+02 -0.71851369210E+01  0.25086785438E+02  0.31886054401E+02  0.00000000000E+00 0. -1.
         11    1    3    3    0    0  0.11079922111E+02 -0.72696538632E+01  0.43003413508E+01  0.13932174176E+02  0.51100000000E-03 0. -1.
        -11    1    3    3    0    0  0.99706898249E+01  0.70175307087E+01 -0.34057329482E+02  0.36174052642E+02  0.51100000000E-03 0.  1.
        -12    1    3    3    0    0 -0.27271987968E+01  0.74372600755E+01  0.46702026926E+01  0.91957187809E+01  0.00000000000E+00 0.  1.
</event>
<event>
 7    1  0.4673733E-013  0.5930210E+02  0.7816164E-02  0.1266604E+00
        -11   -1    0    0    0    0  0.00000000000E+00  0.00000000000E+00  0.45593999997E+02  0.45594000000E+02  0.51100000000E-03 0. -1.
         11   -1    0    0    0    0 -0.00000000000E+00 -0.00000000000E+00 -0.45593999997E+02  0.45594000000E+02  0.51100000000E-03 0.  1.
    9900012    2    1    2    0    0 -0.26329561466E+01  0.31594978328E+02 -0.33963591294E+01  0.59302103917E+02  0.50000291600E+02 0.  0.
         12    1    1    2    0    0  0.26329561466E+01 -0.31594978328E+02  0.33963591294E+01  0.31885896083E+02  0.00000000000E+00 0. -1.
         11    1    3    3    0    0 -0.12265602748E+02 -0.58147814264E+01 -0.11302835415E+02  0.17663826949E+02  0.51100000000E-03 0. -1.
        -11    1    3    3    0    0  0.99449281049E+01  0.12561055912E+02  0.26785630087E+01  0.16243657861E+02  0.51100000000E-03 0.  1.
        -12    1    3    3    0    0 -0.31228150327E+00  0.24848703843E+02  0.52279132764E+01  0.25394619108E+02  0.00000000000E+00 0.  1.
</event>
<event>
 7    1  0.4673733E-013  0.5930196E+02  0.7816164E-02  0.1266605E+00
        -11   -1    0    0    0    0  0.00000000000E+00  0.00000000000E+00  0.45593999997E+02  0.45594000000E+02  0.51100000000E-03 0. -1.
         11   -1    0    0    0    0 -0.00000000000E+00 -0.00000000000E+00 -0.45593999997E+02  0.45594000000E+02  0.51100000000E-03 0.  1.
    9900012    2    1    2    0    0 -0.57977930887E+01 -0.55414120034E+00 -0.31349607161E+02  0.59301963145E+02  0.50000034866E+02 0.  0.
         12    1    1    2    0    0  0.57977930887E+01  0.55414120034E+00  0.31349607161E+02  0.31886036855E+02  0.00000000000E+00 0. -1.
         11    1    3    3    0    0 -0.90518917489E+01  0.13290032962E+02 -0.17811262630E+02  0.23995891255E+02  0.51100000000E-03 0. -1.
        -11    1    3    3    0    0  0.99828467727E+01 -0.17399737709E+02 -0.17593959027E+02  0.26682494197E+02  0.51100000000E-03 0.  1.
        -12    1    3    3    0    0 -0.67287481125E+01  0.35555635466E+01  0.40556144970E+01  0.86235776940E+01  0.00000000000E+00 0.  1.
</event>
<event>
 7    1  0.4673733E-013  0.5930194E+02  0.7816164E-02  0.1266605E+00
        -11   -1    0    0    0    0  0.00000000000E+00  0.00000000000E+00  0.45593999997E+02  0.45594000000E+02  0.51100000000E-03 0. -1.
         11   -1    0    0    0    0 -0.00000000000E+00 -0.00000000000E+00 -0.45593999997E+02  0.45594000000E+02  0.51100000000E-03 0.  1.
    9900012    2    1    2    0    0 -0.26746208534E+02  0.11306906791E+01 -0.17322894178E+02  0.59301940428E+02  0.49999993435E+02 0.  0.
         12    1    1    2    0    0  0.26746208534E+02 -0.11306906791E+01  0.17322894178E+02  0.31886059572E+02  0.00000000000E+00 0. -1.
         11    1    3    3    0    0 -0.10805210253E+02 -0.12781759185E+00  0.10732083460E+02  0.15229790596E+02  0.51100000000E-03 0. -1.
        -11    1    3    3    0    0 -0.23925882905E+01  0.14523963801E+02 -0.93548868952E+01  0.17440869024E+02  0.51100000000E-03 0.  1.
        -12    1    3    3    0    0 -0.13548409990E+02 -0.13265455530E+02 -0.18700090743E+02  0.26631280808E+02  0.00000000000E+00 0.  1.
</event>
<event>
 7    1  0.4673733E-013  0.5930194E+02  0.7816164E-02  0.1266605E+00
        -11   -1    0    0    0    0  0.00000000000E+00  0.00000000000E+00  0.45593999997E+02  0.45594000000E+02  0.51100000000E-03 0.  1.
         11   -1    0    0    0    0 -0.00000000000E+00 -0.00000000000E+00 -0.45593999997E+02  0.45594000000E+02  0.51100000000E-03 0. -1.
    9900012    2    1    2    0    0  0.23727704403E+02 -0.20380578165E+02  0.61926542366E+01  0.59301938954E+02  0.49999990746E+02 0.  0.
         12    1    1    2    0    0 -0.23727704403E+02  0.20380578165E+02 -0.61926542366E+01  0.31886061046E+02  0.00000000000E+00 0. -1.
         11    1    3    3    0    0 -0.21030613357E+01  0.18015988903E+01 -0.27284955490E+01  0.38875845669E+01  0.51100000000E-03 0. -1.
        -11    1    3    3    0    0  0.24310308578E+02 -0.19589061463E+02  0.24413806225E+02  0.39632768851E+02  0.51100000000E-03 0.  1.
        -12    1    3    3    0    0  0.15204571607E+01 -0.25931155921E+01 -0.15492656440E+02  0.15781585535E+02  0.00000000000E+00 0.  1.
</event>
<event>
 7    1  0.4673733E-013  0.5930189E+02  0.7816164E-02  0.1266605E+00
        -11   -1    0    0    0    0  0.00000000000E+00  0.00000000000E+00  0.45593999997E+02  0.45594000000E+02  0.51100000000E-03 0.  1.
         11   -1    0    0    0    0 -0.00000000000E+00 -0.00000000000E+00 -0.45593999997E+02  0.45594000000E+02  0.51100000000E-03 0. -1.
    9900012    2    1    2    0    0 -0.12761438930E+02 -0.29149715902E+02 -0.20405817946E+01  0.59301886490E+02  0.49999895065E+02 0.  0.
         12    1    1    2    0    0  0.12761438930E+02  0.29149715902E+02  0.20405817946E+01  0.31886113510E+02  0.00000000000E+00 0. -1.
         11    1    3    3    0    0 -0.93639419342E+01  0.92641005743E+01 -0.63080150887E+01  0.14604726037E+02  0.51100000000E-03 0. -1.
        -11    1    3    3    0    0 -0.74464838152E+01 -0.25728455277E+02 -0.65124790716E+01  0.27564758589E+02  0.51100000000E-03 0.  1.
        -12    1    3    3    0    0  0.40489868197E+01 -0.12685361199E+02  0.10779912366E+02  0.17132401864E+02  0.00000000000E+00 0.  1.
</event>
<event>
 7    1  0.4673733E-013  0.5930195E+02  0.7816164E-02  0.1266605E+00
        -11   -1    0    0    0    0  0.00000000000E+00  0.00000000000E+00  0.45593999997E+02  0.45594000000E+02  0.51100000000E-03 0. -1.
         11   -1    0    0    0    0 -0.00000000000E+00 -0.00000000000E+00 -0.45593999997E+02  0.45594000000E+02  0.51100000000E-03 0.  1.
    9900012    2    1    2    0    0 -0.21245757458E+02 -0.23713919116E+02  0.17286711091E+01  0.59301945468E+02  0.50000002627E+02 0.  0.
         12    1    1    2    0    0  0.21245757458E+02  0.23713919116E+02 -0.17286711091E+01  0.31886054532E+02  0.00000000000E+00 0. -1.
         11    1    3    3    0    0  0.84308180431E+01 -0.19573304381E+02  0.89474551255E+01  0.23113846299E+02  0.51100000000E-03 0. -1.
        -11    1    3    3    0    0 -0.32035308024E+02 -0.42485659049E+01 -0.86157278246E+01  0.33444611504E+02  0.51100000000E-03 0.  1.
        -12    1    3    3    0    0  0.23587325223E+01  0.10795117018E+00  0.13969438081E+01  0.27434876653E+01  0.00000000000E+00 0.  1.
</event>
<event>
 7    1  0.4673733E-013  0.5930194E+02  0.7816164E-02  0.1266605E+00
        -11   -1    0    0    0    0  0.00000000000E+00  0.00000000000E+00  0.45593999997E+02  0.45594000000E+02  0.51100000000E-03 0.  1.
         11   -1    0    0    0    0 -0.00000000000E+00 -0.00000000000E+00 -0.45593999997E+02  0.45594000000E+02  0.51100000000E-03 0. -1.
    9900012    2    1    2    0    0  0.23297438449E+02  0.14784780153E+02  0.15979994720E+02  0.59301943585E+02  0.49999999192E+02 0.  0.
         12    1    1    2    0    0 -0.23297438449E+02 -0.14784780153E+02 -0.15979994720E+02  0.31886056415E+02  0.00000000000E+00 0. -1.
         11    1    3    3    0    0  0.35808631683E+02  0.99090044310E+01  0.89794150898E+01  0.38224028665E+02  0.51100000000E-03 0. -1.
        -11    1    3    3    0    0 -0.31890879364E+01 -0.49634035074E+01  0.41884829658E+01  0.72352640629E+01  0.51100000000E-03 0.  1.
         12    1    3    3    0    0 -0.93221052976E+01  0.98391792294E+01  0.28120966649E+01  0.13842650857E+02  0.00000000000E+00 0. -1.
</event>
<event>
 7    1  0.4673733E-013  0.5930192E+02  0.7816164E-02  0.1266605E+00
        -11   -1    0    0    0    0  0.00000000000E+00  0.00000000000E+00  0.45593999997E+02  0.45594000000E+02  0.51100000000E-03 0.  1.
         11   -1    0    0    0    0 -0.00000000000E+00 -0.00000000000E+00 -0.45593999997E+02  0.45594000000E+02  0.51100000000E-03 0. -1.
    9900012    2    1    2    0    0  0.99452549593E+01  0.12391256429E+02  0.27645451658E+02  0.59301916366E+02  0.49999949552E+02 0.  0.
         12    1    1    2    0    0 -0.99452549593E+01 -0.12391256429E+02 -0.27645451658E+02  0.31886083634E+02  0.00000000000E+00 0. -1.
         11    1    3    3    0    0 -0.19483368456E+01 -0.10243940084E+02  0.71287426335E+01  0.12631440801E+02  0.51100000000E-03 0. -1.
        -11    1    3    3    0    0 -0.59754299785E+01  0.22713244994E+02  0.78350115128E+01  0.24758527162E+02  0.51100000000E-03 0.  1.
        -12    1    3    3    0    0  0.17869021783E+02 -0.78048479891E-01  0.12681697512E+02  0.21911948404E+02  0.00000000000E+00 0.  1.
</event>
<event>
 7    1  0.4673733E-013  0.5930194E+02  0.7816164E-02  0.1266605E+00
        -11   -1    0    0    0    0  0.00000000000E+00  0.00000000000E+00  0.45593999997E+02  0.45594000000E+02  0.51100000000E-03 0.  1.
         11   -1    0    0    0    0 -0.00000000000E+00 -0.00000000000E+00 -0.45593999997E+02  0.45594000000E+02  0.51100000000E-03 0. -1.
    9900012    2    1    2    0    0  0.23439737131E+02  0.14826234230E+02  0.15731563335E+02  0.59301943750E+02  0.49999999493E+02 0.  0.
         12    1    1    2    0    0 -0.23439737131E+02 -0.14826234230E+02 -0.15731563335E+02  0.31886056250E+02  0.00000000000E+00 0. -1.
         11    1    3    3    0    0  0.17601417646E+02  0.26466964705E+02 -0.15460880935E+01  0.31822955747E+02  0.51100000000E-03 0. -1.
        -11    1    3    3    0    0  0.87366338301E+00  0.12534429068E+01  0.12892738614E+02  0.12982954828E+02  0.51100000000E-03 0.  1.
         12    1    3    3    0    0  0.49646561023E+01 -0.12894173382E+02  0.43849128141E+01  0.14496033174E+02  0.00000000000E+00 0. -1.
</event>
<event>
 7    1  0.4673733E-013  0.5930193E+02  0.7816164E-02  0.1266605E+00
        -11   -1    0    0    0    0  0.00000000000E+00  0.00000000000E+00  0.45593999997E+02  0.45594000000E+02  0.51100000000E-03 0. -1.
         11   -1    0    0    0    0 -0.00000000000E+00 -0.00000000000E+00 -0.45593999997E+02  0.45594000000E+02  0.51100000000E-03 0.  1.
    9900012    2    1    2    0    0  0.36119260002E+01  0.54625539358E+01 -0.31206346917E+02  0.59301927918E+02  0.49999970620E+02 0.  0.
         12    1    1    2    0    0 -0.36119260002E+01 -0.54625539358E+01  0.31206346917E+02  0.31886072082E+02  0.00000000000E+00 0. -1.
         11    1    3    3    0    0  0.22434263296E+01  0.24853445116E+01  0.47114240097E+01  0.57799148348E+01  0.51100000000E-03 0. -1.
        -11    1    3    3    0    0 -0.15130644156E+02  0.49832591820E+01 -0.33004647203E+02  0.36648001336E+02  0.51100000000E-03 0.  1.
        -12    1    3    3    0    0  0.16499143826E+02 -0.20060497578E+01 -0.29131237234E+01  0.16874011748E+02  0.00000000000E+00 0.  1.
</event>
<event>
 7    1  0.4673733E-013  0.5930194E+02  0.7816164E-02  0.1266605E+00
        -11   -1    0    0    0    0  0.00000000000E+00  0.00000000000E+00  0.45593999997E+02  0.45594000000E+02  0.51100000000E-03 0.  1.
         11   -1    0    0    0    0 -0.00000000000E+00 -0.00000000000E+00 -0.45593999997E+02  0.45594000000E+02  0.51100000000E-03 0. -1.
    9900012    2    1    2    0    0 -0.87872592553E+01 -0.29518851006E+02 -0.82548347887E+01  0.59301940548E+02  0.49999993655E+02 0.  0.
         12    1    1    2    0    0  0.87872592553E+01  0.29518851006E+02  0.82548347887E+01  0.31886059452E+02  0.00000000000E+00 0. -1.
         11    1    3    3    0    0 -0.11229186743E+02 -0.13498308758E+02 -0.26186817660E+02  0.31528533008E+02  0.51100000000E-03 0. -1.
        -11    1    3    3    0    0  0.80124439971E+01 -0.10313975567E+02  0.12818997999E+02  0.18300384170E+02  0.51100000000E-03 0.  1.
        -12    1    3    3    0    0 -0.55705165098E+01 -0.57065666814E+01  0.51129848723E+01  0.94730233706E+01  0.00000000000E+00 0.  1.
</event>
<event>
 7    1  0.4673733E-013  0.5930195E+02  0.7816164E-02  0.1266605E+00
        -11   -1    0    0    0    0  0.00000000000E+00  0.00000000000E+00  0.45593999997E+02  0.45594000000E+02  0.51100000000E-03 0.  1.
         11   -1    0    0    0    0 -0.00000000000E+00 -0.00000000000E+00 -0.45593999997E+02  0.45594000000E+02  0.51100000000E-03 0. -1.
    9900012    2    1    2    0    0  0.25928026304E+02 -0.18239655975E+02 -0.34311351566E+01  0.59301948401E+02  0.50000007976E+02 0.  0.
         12    1    1    2    0    0 -0.25928026304E+02  0.18239655975E+02  0.34311351566E+01  0.31886051599E+02  0.00000000000E+00 0. -1.
         11    1    3    3    0    0  0.24097417754E+02 -0.11813960654E+02 -0.78142428224E+01  0.27952058956E+02  0.51100000000E-03 0. -1.
        -11    1    3    3    0    0 -0.13754035258E+02 -0.59681025117E+01  0.48308365620E+01  0.15752101943E+02  0.51100000000E-03 0.  1.
        -12    1    3    3    0    0  0.15584643808E+02 -0.45759280898E+00 -0.44772889619E+00  0.15597787502E+02  0.00000000000E+00 0.  1.
</event>
<event>
 7    1  0.4673733E-013  0.5930195E+02  0.7816164E-02  0.1266605E+00
        -11   -1    0    0    0    0  0.00000000000E+00  0.00000000000E+00  0.45593999997E+02  0.45594000000E+02  0.51100000000E-03 0. -1.
         11   -1    0    0    0    0 -0.00000000000E+00 -0.00000000000E+00 -0.45593999997E+02  0.45594000000E+02  0.51100000000E-03 0.  1.
    9900012    2    1    2    0    0 -0.26981563189E+02  0.98038388334E+01 -0.13878037566E+02  0.59301953919E+02  0.50000018040E+02 0.  0.
         12    1    1    2    0    0  0.26981563189E+02 -0.98038388334E+01  0.13878037566E+02  0.31886046081E+02  0.00000000000E+00 0. -1.
         11    1    3    3    0    0 -0.15182578378E+02  0.21595224926E+02 -0.80556796768E+00  0.26410478334E+02  0.51100000000E-03 0. -1.
        -11    1    3    3    0    0 -0.17922153032E+02 -0.48588477410E+01 -0.14464356806E+02  0.23537833136E+02  0.51100000000E-03 0.  1.
         12    1    3    3    0    0  0.61231682211E+01 -0.69325383519E+01  0.13918872081E+01  0.93536424491E+01  0.00000000000E+00 0. -1.
</event>
<event>
 7    1  0.4673733E-013  0.5930190E+02  0.7816164E-02  0.1266605E+00
        -11   -1    0    0    0    0  0.00000000000E+00  0.00000000000E+00  0.45593999997E+02  0.45594000000E+02  0.51100000000E-03 0. -1.
         11   -1    0    0    0    0 -0.00000000000E+00 -0.00000000000E+00 -0.45593999997E+02  0.45594000000E+02  0.51100000000E-03 0.  1.
    9900012    2    1    2    0    0  0.17486191416E+02 -0.10863806171E+00 -0.26663550153E+02  0.59301896456E+02  0.49999913241E+02 0.  0.
         12    1    1    2    0    0 -0.17486191416E+02  0.10863806171E+00  0.26663550153E+02  0.31886103544E+02  0.00000000000E+00 0. -1.
         11    1    3    3    0    0  0.24285793515E+01  0.95572448403E+01  0.11901579385E+02  0.15455954151E+02  0.51100000000E-03 0. -1.
        -11    1    3    3    0    0 -0.41355276691E+00 -0.40517182201E+01 -0.48888253832E+01  0.63630228913E+01  0.51100000000E-03 0.  1.
         12    1    3    3    0    0  0.15471164831E+02 -0.56141646819E+01 -0.33676304154E+02  0.37482919414E+02  0.00000000000E+00 0. -1.
</event>
<event>
 7    1  0.4673733E-013  0.5930194E+02  0.7816164E-02  0.1266605E+00
        -11   -1    0    0    0    0  0.00000000000E+00  0.00000000000E+00  0.45593999997E+02  0.45594000000E+02  0.51100000000E-03 0. -1.
         11   -1    0    0    0    0 -0.00000000000E+00 -0.00000000000E+00 -0.45593999997E+02  0.45594000000E+02  0.51100000000E-03 0.  1.
    9900012    2    1    2    0    0 -0.11496201782E+02  0.19518360995E+02  0.22440846763E+02  0.59301942314E+02  0.49999996874E+02 0.  0.
         12    1    1    2    0    0  0.11496201782E+02 -0.19518360995E+02 -0.22440846763E+02  0.31886057686E+02  0.00000000000E+00 0. -1.
         11    1    3    3    0    0 -0.67565186927E+00 -0.38277504948E+00 -0.37896395753E+01  0.38683834555E+01  0.51100000000E-03 0. -1.
        -11    1    3    3    0    0 -0.40434183376E+01  0.31456115171E+02  0.27500720016E+02  0.41977684728E+02  0.51100000000E-03 0.  1.
        -12    1    3    3    0    0 -0.67771315751E+01 -0.11554979127E+02 -0.12702336777E+01  0.13455874130E+02  0.00000000000E+00 0.  1.
</event>
<event>
 7    1  0.4673733E-013  0.5930194E+02  0.7816164E-02  0.1266605E+00
        -11   -1    0    0    0    0  0.00000000000E+00  0.00000000000E+00  0.45593999997E+02  0.45594000000E+02  0.51100000000E-03 0.  1.
         11   -1    0    0    0    0 -0.00000000000E+00 -0.00000000000E+00 -0.45593999997E+02  0.45594000000E+02  0.51100000000E-03 0. -1.
    9900012    2    1    2    0    0  0.29417558585E+02 -0.11082934775E+02  0.53382026390E+01  0.59301943427E+02  0.49999998905E+02 0.  0.
         12    1    1    2    0    0 -0.29417558585E+02  0.11082934775E+02 -0.53382026390E+01  0.31886056573E+02  0.00000000000E+00 0. -1.
         11    1    3    3    0    0  0.21228161817E+02 -0.10978758881E+02 -0.39557828132E+01  0.24224289848E+02  0.51100000000E-03 0. -1.
        -11    1    3    3    0    0 -0.21422298529E+01  0.28995923863E+01  0.19748931980E+02  0.20075285786E+02  0.51100000000E-03 0.  1.
        -12    1    3    3    0    0  0.10331626621E+02 -0.30037682809E+01 -0.10454946528E+02  0.15002367794E+02  0.00000000000E+00 0.  1.
</event>
<event>
 7    1  0.4673733E-013  0.5930185E+02  0.7816164E-02  0.1266605E+00
        -11   -1    0    0    0    0  0.00000000000E+00  0.00000000000E+00  0.45593999997E+02  0.45594000000E+02  0.51100000000E-03 0.  1.
         11   -1    0    0    0    0 -0.00000000000E+00 -0.00000000000E+00 -0.45593999997E+02  0.45594000000E+02  0.51100000000E-03 0. -1.
    9900012    2    1    2    0    0  0.53229786768E+00 -0.24628515783E+02  0.20245478902E+02  0.59301850238E+02  0.49999828949E+02 0.  0.
         12    1    1    2    0    0 -0.53229786768E+00  0.24628515783E+02 -0.20245478902E+02  0.31886149762E+02  0.00000000000E+00 0. -1.
         11    1    3    3    0    0  0.41897785976E+01 -0.15353925739E+02  0.20267831206E+01  0.16043850235E+02  0.51100000000E-03 0. -1.
        -11    1    3    3    0    0 -0.17604826980E+02 -0.68000772140E+01  0.21611745441E+02  0.28692133493E+02  0.51100000000E-03 0.  1.
        -12    1    3    3    0    0  0.13947346250E+02 -0.24745128300E+01 -0.33930496596E+01  0.14565866509E+02  0.00000000000E+00 0.  1.
</event>
<event>
 7    1  0.4673733E-013  0.5930197E+02  0.7816164E-02  0.1266605E+00
        -11   -1    0    0    0    0  0.00000000000E+00  0.00000000000E+00  0.45593999997E+02  0.45594000000E+02  0.51100000000E-03 0.  1.
         11   -1    0    0    0    0 -0.00000000000E+00 -0.00000000000E+00 -0.45593999997E+02  0.45594000000E+02  0.51100000000E-03 0. -1.
    9900012    2    1    2    0    0  0.58300946405E+01 -0.85722940407E+01  0.30153685188E+02  0.59301969217E+02  0.50000045940E+02 0.  0.
         12    1    1    2    0    0 -0.58300946405E+01  0.85722940407E+01 -0.30153685188E+02  0.31886030783E+02  0.00000000000E+00 0. -1.
         11    1    3    3    0    0  0.12157743304E+02 -0.22139797289E+02  0.26423652910E+02  0.36553943421E+02  0.51100000000E-03 0. -1.
        -11    1    3    3    0    0 -0.10759150519E+02  0.39934752304E+01  0.41131164118E+01  0.12191180877E+02  0.51100000000E-03 0.  1.
        -12    1    3    3    0    0  0.44315018554E+01  0.95740280181E+01 -0.38308413387E+00  0.10556844919E+02  0.00000000000E+00 0.  1.
</event>
<event>
 7    1  0.4673733E-013  0.5930195E+02  0.7816164E-02  0.1266605E+00
        -11   -1    0    0    0    0  0.00000000000E+00  0.00000000000E+00  0.45593999997E+02  0.45594000000E+02  0.51100000000E-03 0. -1.
         11   -1    0    0    0    0 -0.00000000000E+00 -0.00000000000E+00 -0.45593999997E+02  0.45594000000E+02  0.51100000000E-03 0.  1.
    9900012    2    1    2    0    0  0.58781895949E+01  0.23066760933E+02 -0.21215357989E+02  0.59301953091E+02  0.50000016530E+02 0.  0.
         12    1    1    2    0    0 -0.58781895949E+01 -0.23066760933E+02  0.21215357989E+02  0.31886046909E+02  0.00000000000E+00 0. -1.
         11    1    3    3    0    0  0.33168930139E-01  0.39303514908E+01  0.81982189720E+01  0.90917301761E+01  0.51100000000E-03 0. -1.
        -11    1    3    3    0    0  0.60002569671E+00 -0.87964010903E+01 -0.17094359445E+02  0.19234183842E+02  0.51100000000E-03 0.  1.
        -12    1    3    3    0    0  0.52449949680E+01  0.27932810532E+02 -0.12319217517E+02  0.30976039073E+02  0.00000000000E+00 0.  1.
</event>
<event>
 7    1  0.4673733E-013  0.5930194E+02  0.7816164E-02  0.1266605E+00
        -11   -1    0    0    0    0  0.00000000000E+00  0.00000000000E+00  0.45593999997E+02  0.45594000000E+02  0.51100000000E-03 0. -1.
         11   -1    0    0    0    0 -0.00000000000E+00 -0.00000000000E+00 -0.45593999997E+02  0.45594000000E+02  0.51100000000E-03 0.  1.
    9900012    2    1    2    0    0  0.18948702991E+02  0.15866806270E+02 -0.20147261809E+02  0.59301936514E+02  0.49999986297E+02 0.  0.
         12    1    1    2    0    0 -0.18948702991E+02 -0.15866806270E+02  0.20147261809E+02  0.31886063486E+02  0.00000000000E+00 0. -1.
         11    1    3    3    0    0  0.33009944209E+01  0.88509889826E-01  0.37470911316E+01  0.49945060193E+01  0.51100000000E-03 0. -1.
        -11    1    3    3    0    0 -0.13493822650E+02  0.76723493519E+01 -0.17497738334E+02  0.23390575909E+02  0.51100000000E-03 0.  1.
        -12    1    3    3    0    0  0.29141531220E+02  0.81059470283E+01 -0.63966146067E+01  0.30916854586E+02  0.00000000000E+00 0.  1.
</event>
<event>
 7    1  0.4673733E-013  0.5930193E+02  0.7816164E-02  0.1266605E+00
        -11   -1    0    0    0    0  0.00000000000E+00  0.00000000000E+00  0.45593999997E+02  0.45594000000E+02  0.51100000000E-03 0.  1.
         11   -1    0    0    0    0 -0.00000000000E+00 -0.00000000000E+00 -0.45593999997E+02  0.45594000000E+02  0.51100000000E-03 0. -1.
    9900012    2    1    2    0    0  0.20751800481E+02  0.99610711288E+01  0.22064931802E+02  0.59301931308E+02  0.49999976802E+02 0.  0.
         12    1    1    2    0    0 -0.20751800481E+02 -0.99610711288E+01 -0.22064931802E+02  0.31886068692E+02  0.00000000000E+00 0. -1.
         11    1    3    3    0    0  0.29306242835E+02  0.52111316155E+01  0.21461592497E+02  0.36696208450E+02  0.51100000000E-03 0. -1.
        -11    1    3    3    0    0 -0.15257179625E+02  0.44292040341E+01  0.38281931763E+00  0.15891693722E+02  0.51100000000E-03 0.  1.
        -12    1    3    3    0    0  0.67027372705E+01  0.32073547918E+00  0.22051998697E+00  0.67140291353E+01  0.00000000000E+00 0.  1.
</event>
<event>
 7    1  0.4673733E-013  0.5930195E+02  0.7816164E-02  0.1266605E+00
        -11   -1    0    0    0    0  0.00000000000E+00  0.00000000000E+00  0.45593999997E+02  0.45594000000E+02  0.51100000000E-03 0.  1.
         11   -1    0    0    0    0 -0.00000000000E+00 -0.00000000000E+00 -0.45593999997E+02  0.45594000000E+02  0.51100000000E-03 0. -1.
    9900012    2    1    2    0    0  0.89720451297E+01 -0.21590679750E+02  0.21680987439E+02  0.59301948783E+02  0.50000008673E+02 0.  0.
         12    1    1    2    0    0 -0.89720451297E+01  0.21590679750E+02 -0.21680987439E+02  0.31886051217E+02  0.00000000000E+00 0. -1.
         11    1    3    3    0    0 -0.40447780914E+01 -0.12629588035E+02 -0.51149739537E+01  0.14213714594E+02  0.51100000000E-03 0. -1.
        -11    1    3    3    0    0  0.95310086602E+01 -0.17763377694E+02  0.29047086616E+02  0.35356908156E+02  0.51100000000E-03 0.  1.
        -12    1    3    3    0    0  0.34858145609E+01  0.88022859789E+01 -0.22511252238E+01  0.97313260341E+01  0.00000000000E+00 0.  1.
</event>
<event>
 7    1  0.4673733E-013  0.5930192E+02  0.7816164E-02  0.1266605E+00
        -11   -1    0    0    0    0  0.00000000000E+00  0.00000000000E+00  0.45593999997E+02  0.45594000000E+02  0.51100000000E-03 0.  1.
         11   -1    0    0    0    0 -0.00000000000E+00 -0.00000000000E+00 -0.45593999997E+02  0.45594000000E+02  0.51100000000E-03 0. -1.
    9900012    2    1    2    0    0  0.16923690093E+02  0.17213959537E+02  0.20832433135E+02  0.59301922166E+02  0.49999960130E+02 0.  0.
         12    1    1    2    0    0 -0.16923690093E+02 -0.17213959537E+02 -0.20832433135E+02  0.31886077834E+02  0.00000000000E+00 0. -1.
         11    1    3    3    0    0 -0.16771610904E+02  0.53337153851E+01  0.73760619014E+01  0.19082498305E+02  0.51100000000E-03 0. -1.
        -11    1    3    3    0    0  0.13625347656E+02  0.80467954378E+01  0.11761769296E+02  0.19716496463E+02  0.51100000000E-03 0.  1.
         12    1    3    3    0    0  0.20069953341E+02  0.38334487138E+01  0.16946019381E+01  0.20502927398E+02  0.00000000000E+00 0. -1.
</event>
<event>
 7    1  0.4673733E-013  0.5930194E+02  0.7816164E-02  0.1266605E+00
        -11   -1    0    0    0    0  0.00000000000E+00  0.00000000000E+00  0.45593999997E+02  0.45594000000E+02  0.51100000000E-03 0.  1.
         11   -1    0    0    0    0 -0.00000000000E+00 -0.00000000000E+00 -0.45593999997E+02  0.45594000000E+02  0.51100000000E-03 0. -1.
    9900012    2    1    2    0    0 -0.81828476068E+01 -0.72395220832E+01  0.29955818751E+02  0.59301941103E+02  0.49999994666E+02 0.  0.
         12    1    1    2    0    0  0.81828476068E+01  0.72395220832E+01 -0.29955818751E+02  0.31886058897E+02  0.00000000000E+00 0. -1.
         11    1    3    3    0    0 -0.22080282536E+02  0.11184850505E+02  0.25625372082E+02  0.35627229085E+02  0.51100000000E-03 0. -1.
        -11    1    3    3    0    0  0.11116804132E+02 -0.16391299787E+02  0.40771283194E+01  0.20220806572E+02  0.51100000000E-03 0.  1.
         12    1    3    3    0    0  0.27806307968E+01 -0.20330728007E+01  0.25331834953E+00  0.34539054457E+01  0.00000000000E+00 0. -1.
</event>
<event>
 7    1  0.4673733E-013  0.5930195E+02  0.7816164E-02  0.1266605E+00
        -11   -1    0    0    0    0  0.00000000000E+00  0.00000000000E+00  0.45593999997E+02  0.45594000000E+02  0.51100000000E-03 0.  1.
         11   -1    0    0    0    0 -0.00000000000E+00 -0.00000000000E+00 -0.45593999997E+02  0.45594000000E+02  0.51100000000E-03 0. -1.
    9900012    2    1    2    0    0 -0.12108597571E+02  0.29362670833E+02 -0.28170132612E+01  0.59301950742E+02  0.50000012246E+02 0.  0.
         12    1    1    2    0    0  0.12108597571E+02 -0.29362670833E+02  0.28170132612E+01  0.31886049258E+02  0.00000000000E+00 0. -1.
         11    1    3    3    0    0 -0.18442970897E+02  0.12210550763E+02  0.77746445699E+01  0.23445379586E+02  0.51100000000E-03 0.  1.
        -11    1    3    3    0    0  0.97308459966E+01 -0.29418164633E+01  0.38595192367E+01  0.10873800482E+02  0.51100000000E-03 0. -1.
        -12    1    3    3    0    0 -0.33964726698E+01  0.20093936532E+02 -0.14451177068E+02  0.24982770675E+02  0.00000000000E+00 0.  1.
</event>
<event>
 7    1  0.4673733E-013  0.5930195E+02  0.7816164E-02  0.1266605E+00
        -11   -1    0    0    0    0  0.00000000000E+00  0.00000000000E+00  0.45593999997E+02  0.45594000000E+02  0.51100000000E-03 0.  1.
         11   -1    0    0    0    0 -0.00000000000E+00 -0.00000000000E+00 -0.45593999997E+02  0.45594000000E+02  0.51100000000E-03 0. -1.
    9900012    2    1    2    0    0 -0.39744263932E+00 -0.31221876418E+02  0.64619378158E+01  0.59301950259E+02  0.50000011365E+02 0.  0.
         12    1    1    2    0    0  0.39744263932E+00  0.31221876418E+02 -0.64619378158E+01  0.31886049741E+02  0.00000000000E+00 0. -1.
         11    1    3    3    0    0  0.62674135583E+01  0.36343550272E+00 -0.16154230987E+02  0.17331235880E+02  0.51100000000E-03 0. -1.
        -11    1    3    3    0    0  0.22496010761E+01 -0.20809311345E+02  0.16738416328E+02  0.26800423972E+02  0.51100000000E-03 0.  1.
         12    1    3    3    0    0 -0.89144572737E+01 -0.10776000575E+02  0.58777524749E+01  0.15170290407E+02  0.00000000000E+00 0. -1.
</event>
<event>
 7    1  0.4673733E-013  0.5930195E+02  0.7816164E-02  0.1266605E+00
        -11   -1    0    0    0    0  0.00000000000E+00  0.00000000000E+00  0.45593999997E+02  0.45594000000E+02  0.51100000000E-03 0. -1.
         11   -1    0    0    0    0 -0.00000000000E+00 -0.00000000000E+00 -0.45593999997E+02  0.45594000000E+02  0.51100000000E-03 0.  1.
    9900012    2    1    2    0    0 -0.69619514007E+01 -0.30569914477E+02 -0.58079169702E+01  0.59301947595E+02  0.50000006505E+02 0.  0.
         12    1    1    2    0    0  0.69619514007E+01  0.30569914477E+02  0.58079169702E+01  0.31886052405E+02  0.00000000000E+00 0. -1.
         11    1    3    3    0    0  0.16505967292E+02 -0.10361972822E+02 -0.13219144180E+02  0.23549165805E+02  0.51100000000E-03 0. -1.
        -11    1    3    3    0    0 -0.15998049484E+02 -0.21506909602E+02  0.29770618968E+01  0.26969383487E+02  0.51100000000E-03 0.  1.
         12    1    3    3    0    0 -0.74698692086E+01  0.12989679465E+01  0.44341653126E+01  0.87833983025E+01  0.00000000000E+00 0. -1.
</event>
<event>
 7    1  0.4673733E-013  0.5930193E+02  0.7816164E-02  0.1266605E+00
        -11   -1    0    0    0    0  0.00000000000E+00  0.00000000000E+00  0.45593999997E+02  0.45594000000E+02  0.51100000000E-03 0. -1.
         11   -1    0    0    0    0 -0.00000000000E+00 -0.00000000000E+00 -0.45593999997E+02  0.45594000000E+02  0.51100000000E-03 0.  1.
    9900012    2    1    2    0    0 -0.31817955569E+02  0.15085831669E+01 -0.14364063246E+01  0.59301931209E+02  0.49999976623E+02 0.  0.
         12    1    1    2    0    0  0.31817955569E+02 -0.15085831669E+01  0.14364063246E+01  0.31886068791E+02  0.00000000000E+00 0. -1.
         11    1    3    3    0    0 -0.16464418428E+02  0.39905181499E+01  0.85544586582E+01  0.18978410694E+02  0.51100000000E-03 0. -1.
        -11    1    3    3    0    0 -0.74067876451E+01 -0.13927024360E+01 -0.23463365289E+02  0.24644058802E+02  0.51100000000E-03 0.  1.
        -12    1    3    3    0    0 -0.79467494961E+01 -0.10892325469E+01  0.13472500306E+02  0.15679461713E+02  0.00000000000E+00 0.  1.
</event>
<event>
 7    1  0.4673733E-013  0.5930194E+02  0.7816164E-02  0.1266605E+00
        -11   -1    0    0    0    0  0.00000000000E+00  0.00000000000E+00  0.45593999997E+02  0.45594000000E+02  0.51100000000E-03 0.  1.
         11   -1    0    0    0    0 -0.00000000000E+00 -0.00000000000E+00 -0.45593999997E+02  0.45594000000E+02  0.51100000000E-03 0. -1.
    9900012    2    1    2    0    0  0.24927968728E+02 -0.37101051920E+01  0.19533362095E+02  0.59301941288E+02  0.49999995004E+02 0.  0.
         12    1    1    2    0    0 -0.24927968728E+02  0.37101051920E+01 -0.19533362095E+02  0.31886058712E+02  0.00000000000E+00 0. -1.
         11    1    3    3    0    0 -0.55328232326E+01  0.12859304820E+02  0.12972158119E+02  0.19085354068E+02  0.51100000000E-03 0. -1.
        -11    1    3    3    0    0  0.96049986864E+01 -0.48045850401E+01  0.11534602847E+02  0.15760301401E+02  0.51100000000E-03 0.  1.
         12    1    3    3    0    0  0.20855793274E+02 -0.11764824972E+02 -0.49733988706E+01  0.24456285819E+02  0.00000000000E+00 0. -1.
</event>
<event>
 7    1  0.4673733E-013  0.5930194E+02  0.7816164E-02  0.1266605E+00
        -11   -1    0    0    0    0  0.00000000000E+00  0.00000000000E+00  0.45593999997E+02  0.45594000000E+02  0.51100000000E-03 0.  1.
         11   -1    0    0    0    0 -0.00000000000E+00 -0.00000000000E+00 -0.45593999997E+02  0.45594000000E+02  0.51100000000E-03 0. -1.
    9900012    2    1    2    0    0 -0.18130460060E+02 -0.72212237850E+01  0.25216293150E+02  0.59301935722E+02  0.49999984852E+02 0.  0.
         12    1    1    2    0    0  0.18130460060E+02  0.72212237850E+01 -0.25216293150E+02  0.31886064278E+02  0.00000000000E+00 0. -1.
         11    1    3    3    0    0 -0.19919294955E+02 -0.10770813976E+02 -0.51730355203E+01  0.23228194979E+02  0.51100000000E-03 0. -1.
        -11    1    3    3    0    0 -0.28753098244E+01  0.87611002033E+01  0.26527777100E+02  0.28084644230E+02  0.51100000000E-03 0.  1.
        -12    1    3    3    0    0  0.46641447198E+01 -0.52115100125E+01  0.38615515696E+01  0.79890965135E+01  0.00000000000E+00 0.  1.
</event>
<event>
 7    1  0.4673733E-013  0.5930203E+02  0.7816164E-02  0.1266604E+00
        -11   -1    0    0    0    0  0.00000000000E+00  0.00000000000E+00  0.45593999997E+02  0.45594000000E+02  0.51100000000E-03 0.  1.
         11   -1    0    0    0    0 -0.00000000000E+00 -0.00000000000E+00 -0.45593999997E+02  0.45594000000E+02  0.51100000000E-03 0. -1.
    9900012    2    1    2    0    0 -0.93765301995E+01 -0.12205242707E+02  0.27925394048E+02  0.59302032854E+02  0.50000161997E+02 0.  0.
         12    1    1    2    0    0  0.93765301995E+01  0.12205242707E+02 -0.27925394048E+02  0.31885967146E+02  0.00000000000E+00 0. -1.
         11    1    3    3    0    0 -0.18877170980E+02 -0.12543170172E+02 -0.52270169444E+01  0.23259415482E+02  0.51100000000E-03 0. -1.
        -11    1    3    3    0    0  0.33715156858E+01 -0.38256985196E+01  0.58875303112E+01  0.77888446260E+01  0.51100000000E-03 0.  1.
         12    1    3    3    0    0  0.61291250949E+01  0.41636259850E+01  0.27264880681E+02  0.28253772745E+02  0.00000000000E+00 0. -1.
</event>
<event>
 7    1  0.4673733E-013  0.5930194E+02  0.7816164E-02  0.1266605E+00
        -11   -1    0    0    0    0  0.00000000000E+00  0.00000000000E+00  0.45593999997E+02  0.45594000000E+02  0.51100000000E-03 0.  1.
         11   -1    0    0    0    0 -0.00000000000E+00 -0.00000000000E+00 -0.45593999997E+02  0.45594000000E+02  0.51100000000E-03 0. -1.
    9900012    2    1    2    0    0  0.85738049008E+01  0.10738382292E+02  0.28773211564E+02  0.59301942100E+02  0.49999996484E+02 0.  0.
         12    1    1    2    0    0 -0.85738049008E+01 -0.10738382292E+02 -0.28773211564E+02  0.31886057900E+02  0.00000000000E+00 0. -1.
         11    1    3    3    0    0 -0.26129780485E+00  0.20038514123E+02 -0.42380985714E+01  0.20483451969E+02  0.51100000000E-03 0. -1.
        -11    1    3    3    0    0  0.13345731026E+02 -0.53382817711E+01  0.22061618475E+02  0.26330985528E+02  0.51100000000E-03 0.  1.
         12    1    3    3    0    0 -0.45106283204E+01 -0.39618500604E+01  0.10949691660E+02  0.12487504602E+02  0.00000000000E+00 0. -1.
</event>
<event>
 7    1  0.4673733E-013  0.5930195E+02  0.7816164E-02  0.1266605E+00
        -11   -1    0    0    0    0  0.00000000000E+00  0.00000000000E+00  0.45593999997E+02  0.45594000000E+02  0.51100000000E-03 0.  1.
         11   -1    0    0    0    0 -0.00000000000E+00 -0.00000000000E+00 -0.45593999997E+02  0.45594000000E+02  0.51100000000E-03 0. -1.
    9900012    2    1    2    0    0  0.97265113742E+01 -0.30304420637E+02 -0.19383529722E+01  0.59301950607E+02  0.50000011999E+02 0.  0.
         12    1    1    2    0    0 -0.97265113742E+01  0.30304420637E+02  0.19383529722E+01  0.31886049393E+02  0.00000000000E+00 0. -1.
         11    1    3    3    0    0  0.12788956106E+02  0.64485265993E+01 -0.74347684469E+01  0.16137430889E+02  0.51100000000E-03 0. -1.
        -11    1    3    3    0    0 -0.10220028157E+01 -0.23235484858E+02 -0.73635948185E+01  0.24395794212E+02  0.51100000000E-03 0.  1.
         12    1    3    3    0    0 -0.20404419158E+01 -0.13517462379E+02  0.12860010293E+02  0.18768725506E+02  0.00000000000E+00 0. -1.
</event>
<event>
 7    1  0.4673733E-013  0.5930196E+02  0.7816164E-02  0.1266605E+00
        -11   -1    0    0    0    0  0.00000000000E+00  0.00000000000E+00  0.45593999997E+02  0.45594000000E+02  0.51100000000E-03 0.  1.
         11   -1    0    0    0    0 -0.00000000000E+00 -0.00000000000E+00 -0.45593999997E+02  0.45594000000E+02  0.51100000000E-03 0. -1.
    9900012    2    1    2    0    0  0.23983539040E+02  0.53749472888E+01  0.20313036416E+02  0.59301958356E+02  0.50000026131E+02 0.  0.
         12    1    1    2    0    0 -0.23983539040E+02 -0.53749472888E+01 -0.20313036416E+02  0.31886041644E+02  0.00000000000E+00 0. -1.
         11    1    3    3    0    0  0.16108601236E+02 -0.91581096446E+01  0.17835055652E+02  0.25718616145E+02  0.51100000000E-03 0.  1.
        -11    1    3    3    0    0  0.89255496491E+01  0.13971216446E+02 -0.11100960727E+02  0.19952234332E+02  0.51100000000E-03 0. -1.
         12    1    3    3    0    0 -0.10506118450E+01  0.56184048771E+00  0.13578941491E+02  0.13631107879E+02  0.00000000000E+00 0. -1.
</event>
<event>
 7    1  0.4673733E-013  0.5930194E+02  0.7816164E-02  0.1266605E+00
        -11   -1    0    0    0    0  0.00000000000E+00  0.00000000000E+00  0.45593999997E+02  0.45594000000E+02  0.51100000000E-03 0.  1.
         11   -1    0    0    0    0 -0.00000000000E+00 -0.00000000000E+00 -0.45593999997E+02  0.45594000000E+02  0.51100000000E-03 0. -1.
    9900012    2    1    2    0    0  0.72795016787E+00 -0.26669157895E+02  0.17462730791E+02  0.59301939395E+02  0.49999991550E+02 0.  0.
         12    1    1    2    0    0 -0.72795016787E+00  0.26669157895E+02 -0.17462730791E+02  0.31886060605E+02  0.00000000000E+00 0. -1.
         11    1    3    3    0    0  0.17460004239E+02 -0.55138536774E+01  0.11128448081E+02  0.21426541657E+02  0.51100000000E-03 0. -1.
        -11    1    3    3    0    0 -0.15378084213E+02 -0.13029041616E+00 -0.13765632156E+01  0.15440122286E+02  0.51100000000E-03 0.  1.
        -12    1    3    3    0    0 -0.13539698582E+01 -0.21025013801E+02  0.77108459254E+01  0.22435275452E+02  0.00000000000E+00 0.  1.
</event>
<event>
 7    1  0.4673733E-013  0.5930192E+02  0.7816164E-02  0.1266605E+00
        -11   -1    0    0    0    0  0.00000000000E+00  0.00000000000E+00  0.45593999997E+02  0.45594000000E+02  0.51100000000E-03 0.  1.
         11   -1    0    0    0    0 -0.00000000000E+00 -0.00000000000E+00 -0.45593999997E+02  0.45594000000E+02  0.51100000000E-03 0. -1.
    9900012    2    1    2    0    0  0.17808419508E+02  0.11417707962E+02  0.23858299546E+02  0.59301916551E+02  0.49999949890E+02 0.  0.
         12    1    1    2    0    0 -0.17808419508E+02 -0.11417707962E+02 -0.23858299546E+02  0.31886083449E+02  0.00000000000E+00 0. -1.
         11    1    3    3    0    0 -0.42762575804E+01  0.65568845945E+01 -0.86425146330E+01  0.11660710695E+02  0.51100000000E-03 0. -1.
        -11    1    3    3    0    0  0.14899388405E+02 -0.10068934968E+02  0.19927909426E+02  0.26842071467E+02  0.51100000000E-03 0.  1.
         12    1    3    3    0    0  0.71852886828E+01  0.14929758336E+02  0.12572904753E+02  0.20799134389E+02  0.00000000000E+00 0. -1.
</event>
<event>
 7    1  0.4673733E-013  0.5930195E+02  0.7816164E-02  0.1266605E+00
        -11   -1    0    0    0    0  0.00000000000E+00  0.00000000000E+00  0.45593999997E+02  0.45594000000E+02  0.51100000000E-03 0. -1.
         11   -1    0    0    0    0 -0.00000000000E+00 -0.00000000000E+00 -0.45593999997E+02  0.45594000000E+02  0.51100000000E-03 0.  1.
    9900012    2    1    2    0    0 -0.70726954609E+01 -0.28764123082E+02 -0.11803484969E+02  0.59301952030E+02  0.50000014594E+02 0.  0.
         12    1    1    2    0    0  0.70726954609E+01  0.28764123082E+02  0.11803484969E+02  0.31886047970E+02  0.00000000000E+00 0. -1.
         11    1    3    3    0    0 -0.25461952390E+02 -0.24163705750E+02 -0.11151876119E+02  0.36831508743E+02  0.51100000000E-03 0. -1.
        -11    1    3    3    0    0  0.12245053342E+02 -0.87422288537E+01 -0.20021732408E+00  0.15046859603E+02  0.51100000000E-03 0.  1.
         12    1    3    3    0    0  0.61442035874E+01  0.41418115215E+01 -0.45139152545E+00  0.74235836839E+01  0.00000000000E+00 0. -1.
</event>
<event>
 7    1  0.4673733E-013  0.5930181E+02  0.7816164E-02  0.1266605E+00
        -11   -1    0    0    0    0  0.00000000000E+00  0.00000000000E+00  0.45593999997E+02  0.45594000000E+02  0.51100000000E-03 0. -1.
         11   -1    0    0    0    0 -0.00000000000E+00 -0.00000000000E+00 -0.45593999997E+02  0.45594000000E+02  0.51100000000E-03 0.  1.
    9900012    2    1    2    0    0  0.12408146990E+02  0.19314885784E+02 -0.22129219399E+02  0.59301807442E+02  0.49999750901E+02 0.  0.
         12    1    1    2    0    0 -0.12408146990E+02 -0.19314885784E+02  0.22129219399E+02  0.31886192558E+02  0.00000000000E+00 0. -1.
         11    1    3    3    0    0  0.16978251955E+02  0.20000086903E+02 -0.72697198560E+01  0.27223396971E+02  0.51100000000E-03 0. -1.
        -11    1    3    3    0    0  0.34978091942E+01 -0.98502622022E+01  0.26014691159E+01  0.10771721145E+02  0.51100000000E-03 0.  1.
        -12    1    3    3    0    0 -0.80679141588E+01  0.91650610836E+01 -0.17460968659E+02  0.21306689326E+02  0.00000000000E+00 0.  1.
</event>
<event>
 7    1  0.4673733E-013  0.5930195E+02  0.7816164E-02  0.1266605E+00
        -11   -1    0    0    0    0  0.00000000000E+00  0.00000000000E+00  0.45593999997E+02  0.45594000000E+02  0.51100000000E-03 0.  1.
         11   -1    0    0    0    0 -0.00000000000E+00 -0.00000000000E+00 -0.45593999997E+02  0.45594000000E+02  0.51100000000E-03 0. -1.
    9900012    2    1    2    0    0 -0.17218173912E+02 -0.22640507682E+02  0.14410481898E+02  0.59301951491E+02  0.50000013611E+02 0.  0.
         12    1    1    2    0    0  0.17218173912E+02  0.22640507682E+02 -0.14410481898E+02  0.31886048509E+02  0.00000000000E+00 0. -1.
         11    1    3    3    0    0 -0.91142574893E+01 -0.10227078392E+02 -0.13481192680E+02  0.19219921393E+02  0.51100000000E-03 0. -1.
        -11    1    3    3    0    0 -0.11972519468E+02 -0.11225448363E+02  0.30934711706E+02  0.35018685041E+02  0.51100000000E-03 0.  1.
         12    1    3    3    0    0  0.38686030452E+01 -0.11879809268E+01 -0.30430371277E+01  0.50633450568E+01  0.00000000000E+00 0. -1.
</event>
<event>
 7    1  0.4673733E-013  0.5930196E+02  0.7816164E-02  0.1266605E+00
        -11   -1    0    0    0    0  0.00000000000E+00  0.00000000000E+00  0.45593999997E+02  0.45594000000E+02  0.51100000000E-03 0.  1.
         11   -1    0    0    0    0 -0.00000000000E+00 -0.00000000000E+00 -0.45593999997E+02  0.45594000000E+02  0.51100000000E-03 0. -1.
    9900012    2    1    2    0    0 -0.27527627419E+02  0.83880792027E+01 -0.13732781367E+02  0.59301961863E+02  0.50000032527E+02 0.  0.
         12    1    1    2    0    0  0.27527627419E+02 -0.83880792027E+01  0.13732781367E+02  0.31886038137E+02  0.00000000000E+00 0. -1.
         11    1    3    3    0    0 -0.14843169205E+02  0.17909208504E+02 -0.18828331848E+02  0.29926000430E+02  0.51100000000E-03 0. -1.
        -11    1    3    3    0    0 -0.65461108461E+01  0.21872184033E+01  0.12459542433E+02  0.14243443736E+02  0.51100000000E-03 0.  1.
         12    1    3    3    0    0 -0.61383473679E+01 -0.11708347705E+02 -0.73639919523E+01  0.15132517697E+02  0.00000000000E+00 0. -1.
</event>
<event>
 7    1  0.4673733E-013  0.5930196E+02  0.7816164E-02  0.1266605E+00
        -11   -1    0    0    0    0  0.00000000000E+00  0.00000000000E+00  0.45593999997E+02  0.45594000000E+02  0.51100000000E-03 0.  1.
         11   -1    0    0    0    0 -0.00000000000E+00 -0.00000000000E+00 -0.45593999997E+02  0.45594000000E+02  0.51100000000E-03 0. -1.
    9900012    2    1    2    0    0  0.33637998907E+01  0.22000465451E+02  0.22833836324E+02  0.59301957426E+02  0.50000024435E+02 0.  0.
         12    1    1    2    0    0 -0.33637998907E+01 -0.22000465451E+02 -0.22833836324E+02  0.31886042574E+02  0.00000000000E+00 0. -1.
         11    1    3    3    0    0  0.12519478236E+02 -0.23195049431E+01  0.32490763907E+01  0.13140545503E+02  0.51100000000E-03 0. -1.
        -11    1    3    3    0    0 -0.20301093406E+02  0.16546746626E+02  0.58395889916E+01  0.26833375063E+02  0.51100000000E-03 0.  1.
        -12    1    3    3    0    0  0.11145415061E+02  0.77732237677E+01  0.13745170942E+02  0.19328036860E+02  0.00000000000E+00 0.  1.
</event>
<event>
 7    1  0.4673733E-013  0.5930194E+02  0.7816164E-02  0.1266605E+00
        -11   -1    0    0    0    0  0.00000000000E+00  0.00000000000E+00  0.45593999997E+02  0.45594000000E+02  0.51100000000E-03 0.  1.
         11   -1    0    0    0    0 -0.00000000000E+00 -0.00000000000E+00 -0.45593999997E+02  0.45594000000E+02  0.51100000000E-03 0. -1.
    9900012    2    1    2    0    0  0.74362834940E+01 -0.30780205127E+02 -0.37418613890E+01  0.59301939307E+02  0.49999991390E+02 0.  0.
         12    1    1    2    0    0 -0.74362834940E+01  0.30780205127E+02  0.37418613890E+01  0.31886060693E+02  0.00000000000E+00 0. -1.
         11    1    3    3    0    0 -0.12119939056E+02 -0.26162534883E+02 -0.28941552143E+01  0.28978393484E+02  0.51100000000E-03 0. -1.
        -11    1    3    3    0    0  0.19238417833E+02 -0.12041467842E+02  0.80888892244E+00  0.22710525534E+02  0.51100000000E-03 0.  1.
         12    1    3    3    0    0  0.31780471751E+00  0.74237975974E+01 -0.16565950971E+01  0.76130202891E+01  0.00000000000E+00 0. -1.
</event>
<event>
 7    1  0.4673733E-013  0.5930195E+02  0.7816164E-02  0.1266605E+00
        -11   -1    0    0    0    0  0.00000000000E+00  0.00000000000E+00  0.45593999997E+02  0.45594000000E+02  0.51100000000E-03 0.  1.
         11   -1    0    0    0    0 -0.00000000000E+00 -0.00000000000E+00 -0.45593999997E+02  0.45594000000E+02  0.51100000000E-03 0. -1.
    9900012    2    1    2    0    0 -0.88198902829E+01  0.23123481918E+02  0.20105582038E+02  0.59301948039E+02  0.50000007315E+02 0.  0.
         12    1    1    2    0    0  0.88198902829E+01 -0.23123481918E+02 -0.20105582038E+02  0.31886051961E+02  0.00000000000E+00 0. -1.
         11    1    3    3    0    0  0.85278651517E+01 -0.53308664222E+01  0.15606085237E+02  0.18565896626E+02  0.51100000000E-03 0. -1.
        -11    1    3    3    0    0 -0.16839873971E+02  0.23522907083E+02  0.12346794943E+02  0.31453964117E+02  0.51100000000E-03 0.  1.
        -12    1    3    3    0    0 -0.50788146310E+00  0.49314412566E+01 -0.78472981417E+01  0.92820872961E+01  0.00000000000E+00 0.  1.
</event>
<event>
 7    1  0.4673733E-013  0.5930196E+02  0.7816164E-02  0.1266605E+00
        -11   -1    0    0    0    0  0.00000000000E+00  0.00000000000E+00  0.45593999997E+02  0.45594000000E+02  0.51100000000E-03 0.  1.
         11   -1    0    0    0    0 -0.00000000000E+00 -0.00000000000E+00 -0.45593999997E+02  0.45594000000E+02  0.51100000000E-03 0. -1.
    9900012    2    1    2    0    0 -0.31622993540E+02 -0.79462560943E+00  0.40093054749E+01  0.59301957902E+02  0.50000025303E+02 0.  0.
         12    1    1    2    0    0  0.31622993540E+02  0.79462560943E+00 -0.40093054749E+01  0.31886042098E+02  0.00000000000E+00 0. -1.
         11    1    3    3    0    0 -0.15463443762E+02 -0.60964884277E+01  0.21476529754E+02  0.27157440871E+02  0.51100000000E-03 0. -1.
        -11    1    3    3    0    0 -0.12082601229E+02  0.13230881748E+02 -0.10029927685E+02  0.20533994593E+02  0.51100000000E-03 0.  1.
        -12    1    3    3    0    0 -0.40769485490E+01 -0.79290189299E+01 -0.74372965934E+01  0.11610522438E+02  0.00000000000E+00 0.  1.
</event>
<event>
 7    1  0.4673733E-013  0.5930190E+02  0.7816164E-02  0.1266605E+00
        -11   -1    0    0    0    0  0.00000000000E+00  0.00000000000E+00  0.45593999997E+02  0.45594000000E+02  0.51100000000E-03 0.  1.
         11   -1    0    0    0    0 -0.00000000000E+00 -0.00000000000E+00 -0.45593999997E+02  0.45594000000E+02  0.51100000000E-03 0. -1.
    9900012    2    1    2    0    0 -0.25693890663E+02 -0.88063466647E+01  0.16703157560E+02  0.59301902223E+02  0.49999923757E+02 0.  0.
         12    1    1    2    0    0  0.25693890663E+02  0.88063466647E+01 -0.16703157560E+02  0.31886097777E+02  0.00000000000E+00 0. -1.
         11    1    3    3    0    0 -0.12773174587E+02  0.41000302988E+01  0.12906549446E+02  0.18615672331E+02  0.51100000000E-03 0. -1.
        -11    1    3    3    0    0 -0.21297106884E+02 -0.18431664876E+02 -0.33541273867E+01  0.28364470778E+02  0.51100000000E-03 0.  1.
        -12    1    3    3    0    0  0.83763908069E+01  0.55252879123E+01  0.71507355007E+01  0.12321759114E+02  0.00000000000E+00 0.  1.
</event>
<event>
 7    1  0.4673733E-013  0.5930195E+02  0.7816164E-02  0.1266605E+00
        -11   -1    0    0    0    0  0.00000000000E+00  0.00000000000E+00  0.45593999997E+02  0.45594000000E+02  0.51100000000E-03 0.  1.
         11   -1    0    0    0    0 -0.00000000000E+00 -0.00000000000E+00 -0.45593999997E+02  0.45594000000E+02  0.51100000000E-03 0. -1.
    9900012    2    1    2    0    0 -0.22309361002E+02  0.10913684984E+02  0.19997603698E+02  0.59301948788E+02  0.50000008681E+02 0.  0.
         12    1    1    2    0    0  0.22309361002E+02 -0.10913684984E+02 -0.19997603698E+02  0.31886051212E+02  0.00000000000E+00 0. -1.
         11    1    3    3    0    0 -0.18235785215E+02 -0.28060928693E+01 -0.60153004468E+01  0.19406232487E+02  0.51100000000E-03 0. -1.
        -11    1    3    3    0    0 -0.72658664889E+01 -0.57501827056E+00  0.24035047393E+02  0.25115870785E+02  0.51100000000E-03 0.  1.
        -12    1    3    3    0    0  0.31922907021E+01  0.14294796124E+02  0.19778567517E+01  0.14779845516E+02  0.00000000000E+00 0.  1.
</event>
<event>
 7    1  0.4673733E-013  0.5930194E+02  0.7816164E-02  0.1266605E+00
        -11   -1    0    0    0    0  0.00000000000E+00  0.00000000000E+00  0.45593999997E+02  0.45594000000E+02  0.51100000000E-03 0. -1.
         11   -1    0    0    0    0 -0.00000000000E+00 -0.00000000000E+00 -0.45593999997E+02  0.45594000000E+02  0.51100000000E-03 0.  1.
    9900012    2    1    2    0    0  0.26975449045E+02 -0.50150532931E+01 -0.16244860016E+02  0.59301935839E+02  0.49999985066E+02 0.  0.
         12    1    1    2    0    0 -0.26975449045E+02  0.50150532931E+01  0.16244860016E+02  0.31886064161E+02  0.00000000000E+00 0. -1.
         11    1    3    3    0    0 -0.72841201169E+01 -0.16888753178E+02 -0.41251262985E+01  0.18849537316E+02  0.51100000000E-03 0. -1.
        -11    1    3    3    0    0  0.12485294884E+02  0.31121809570E+01 -0.11043845584E+02  0.16956850656E+02  0.51100000000E-03 0.  1.
         12    1    3    3    0    0  0.21774274279E+02  0.87615189280E+01 -0.10758881333E+01  0.23495547867E+02  0.00000000000E+00 0. -1.
</event>
<event>
 7    1  0.4673733E-013  0.5930195E+02  0.7816164E-02  0.1266605E+00
        -11   -1    0    0    0    0  0.00000000000E+00  0.00000000000E+00  0.45593999997E+02  0.45594000000E+02  0.51100000000E-03 0.  1.
         11   -1    0    0    0    0 -0.00000000000E+00 -0.00000000000E+00 -0.45593999997E+02  0.45594000000E+02  0.51100000000E-03 0. -1.
    9900012    2    1    2    0    0 -0.15237258077E+02 -0.17577216270E+02  0.21807978638E+02  0.59301945090E+02  0.50000001936E+02 0.  0.
         12    1    1    2    0    0  0.15237258077E+02  0.17577216270E+02 -0.21807978638E+02  0.31886054910E+02  0.00000000000E+00 0. -1.
         11    1    3    3    0    0 -0.10064306138E+02 -0.37209684594E+01  0.18562609523E+01  0.10889516486E+02  0.51100000000E-03 0. -1.
        -11    1    3    3    0    0  0.13597989897E+02 -0.20132169972E+02  0.10208161748E+02  0.26351777237E+02  0.51100000000E-03 0.  1.
        -12    1    3    3    0    0 -0.18770941836E+02  0.62759221617E+01  0.97435559380E+01  0.22060651366E+02  0.00000000000E+00 0.  1.
</event>
<event>
 7    1  0.4673733E-013  0.5930197E+02  0.7816164E-02  0.1266605E+00
        -11   -1    0    0    0    0  0.00000000000E+00  0.00000000000E+00  0.45593999997E+02  0.45594000000E+02  0.51100000000E-03 0.  1.
         11   -1    0    0    0    0 -0.00000000000E+00 -0.00000000000E+00 -0.45593999997E+02  0.45594000000E+02  0.51100000000E-03 0. -1.
    9900012    2    1    2    0    0  0.96709809288E+01 -0.18388661507E+02  0.24187771081E+02  0.59301968356E+02  0.50000044368E+02 0.  0.
         12    1    1    2    0    0 -0.96709809288E+01  0.18388661507E+02 -0.24187771081E+02  0.31886031644E+02  0.00000000000E+00 0. -1.
         11    1    3    3    0    0  0.22038658508E+01 -0.13072617420E+02 -0.12233641243E+02  0.18039188708E+02  0.51100000000E-03 0. -1.
        -11    1    3    3    0    0 -0.40461876944E+01 -0.36399902775E+01  0.22356147187E+02  0.23009095623E+02  0.51100000000E-03 0.  1.
         12    1    3    3    0    0  0.11513302772E+02 -0.16760538098E+01  0.14065265137E+02  0.18253684025E+02  0.00000000000E+00 0. -1.
</event>
<event>
 7    1  0.4673733E-013  0.5930194E+02  0.7816164E-02  0.1266605E+00
        -11   -1    0    0    0    0  0.00000000000E+00  0.00000000000E+00  0.45593999997E+02  0.45594000000E+02  0.51100000000E-03 0. -1.
         11   -1    0    0    0    0 -0.00000000000E+00 -0.00000000000E+00 -0.45593999997E+02  0.45594000000E+02  0.51100000000E-03 0.  1.
    9900012    2    1    2    0    0 -0.15177349892E+02 -0.18688984807E+02 -0.20906708393E+02  0.59301944135E+02  0.50000000195E+02 0.  0.
         12    1    1    2    0    0  0.15177349892E+02  0.18688984807E+02  0.20906708393E+02  0.31886055865E+02  0.00000000000E+00 0. -1.
         11    1    3    3    0    0 -0.37238005120E+00  0.59004167091E+01  0.75517523126E-01  0.59126379393E+01  0.51100000000E-03 0. -1.
        -11    1    3    3    0    0 -0.21056033744E+02 -0.30216710910E+02 -0.24540702386E+02  0.44256663329E+02  0.51100000000E-03 0.  1.
        -12    1    3    3    0    0  0.62510639031E+01  0.56273093939E+01  0.35584764699E+01  0.91326428662E+01  0.00000000000E+00 0.  1.
</event>
<event>
 7    1  0.4673733E-013  0.5930194E+02  0.7816164E-02  0.1266605E+00
        -11   -1    0    0    0    0  0.00000000000E+00  0.00000000000E+00  0.45593999997E+02  0.45594000000E+02  0.51100000000E-03 0.  1.
         11   -1    0    0    0    0 -0.00000000000E+00 -0.00000000000E+00 -0.45593999997E+02  0.45594000000E+02  0.51100000000E-03 0. -1.
    9900012    2    1    2    0    0  0.28071562397E+02 -0.15119060544E+02  0.34992278348E+00  0.59301936381E+02  0.49999986054E+02 0.  0.
         12    1    1    2    0    0 -0.28071562397E+02  0.15119060544E+02 -0.34992278348E+00  0.31886063619E+02  0.00000000000E+00 0. -1.
         11    1    3    3    0    0  0.53357375034E+01 -0.83338654519E+01 -0.12691549661E+02  0.16093440935E+02  0.51100000000E-03 0. -1.
        -11    1    3    3    0    0  0.27841073296E+02 -0.99404628705E+01  0.18683253138E+02  0.34971447103E+02  0.51100000000E-03 0.  1.
        -12    1    3    3    0    0 -0.51052484026E+01  0.31552677779E+01 -0.56417806940E+01  0.82370483428E+01  0.00000000000E+00 0.  1.
</event>
<event>
 7    1  0.4673733E-013  0.5930194E+02  0.7816164E-02  0.1266605E+00
        -11   -1    0    0    0    0  0.00000000000E+00  0.00000000000E+00  0.45593999997E+02  0.45594000000E+02  0.51100000000E-03 0.  1.
         11   -1    0    0    0    0 -0.00000000000E+00 -0.00000000000E+00 -0.45593999997E+02  0.45594000000E+02  0.51100000000E-03 0. -1.
    9900012    2    1    2    0    0  0.89663543604E+01 -0.48704971688E+01  0.30209324345E+02  0.59301944575E+02  0.50000000997E+02 0.  0.
         12    1    1    2    0    0 -0.89663543604E+01  0.48704971688E+01 -0.30209324345E+02  0.31886055425E+02  0.00000000000E+00 0. -1.
         11    1    3    3    0    0 -0.75041941412E+01 -0.66910156476E+01 -0.29130219049E+01  0.10467488571E+02  0.51100000000E-03 0. -1.
        -11    1    3    3    0    0  0.18703819445E+02 -0.11390425284E+02  0.24693966719E+02  0.33005554723E+02  0.51100000000E-03 0.  1.
        -12    1    3    3    0    0 -0.22332709437E+01  0.13210943763E+02  0.84283795318E+01  0.15828901281E+02  0.00000000000E+00 0.  1.
</event>
<event>
 7    1  0.4673733E-013  0.5930194E+02  0.7816164E-02  0.1266605E+00
        -11   -1    0    0    0    0  0.00000000000E+00  0.00000000000E+00  0.45593999997E+02  0.45594000000E+02  0.51100000000E-03 0.  1.
         11   -1    0    0    0    0 -0.00000000000E+00 -0.00000000000E+00 -0.45593999997E+02  0.45594000000E+02  0.51100000000E-03 0. -1.
    9900012    2    1    2    0    0 -0.28591428457E+02  0.83466759895E+01  0.11383491282E+02  0.59301942623E+02  0.49999997438E+02 0.  0.
         12    1    1    2    0    0  0.28591428457E+02 -0.83466759895E+01 -0.11383491282E+02  0.31886057377E+02  0.00000000000E+00 0. -1.
         11    1    3    3    0    0 -0.12414638960E+01 -0.10218377954E+01 -0.12375378803E+02  0.12479398458E+02  0.51100000000E-03 0. -1.
        -11    1    3    3    0    0 -0.29251022291E+02  0.14481468084E+02  0.25135924763E+02  0.41196479666E+02  0.51100000000E-03 0.  1.
         12    1    3    3    0    0  0.19010577302E+01 -0.51129542990E+01 -0.13770546781E+01  0.56260644987E+01  0.00000000000E+00 0. -1.
</event>
<event>
 7    1  0.4673733E-013  0.5930215E+02  0.7816164E-02  0.1266604E+00
        -11   -1    0    0    0    0  0.00000000000E+00  0.00000000000E+00  0.45593999997E+02  0.45594000000E+02  0.51100000000E-03 0.  1.
         11   -1    0    0    0    0 -0.00000000000E+00 -0.00000000000E+00 -0.45593999997E+02  0.45594000000E+02  0.51100000000E-03 0. -1.
    9900012    2    1    2    0    0 -0.27785333628E+01  0.31023183673E+02  0.68227151147E+01  0.59302147112E+02  0.50000370376E+02 0.  0.
         12    1    1    2    0    0  0.27785333628E+01 -0.31023183673E+02 -0.68227151147E+01  0.31885852888E+02  0.00000000000E+00 0. -1.
         11    1    3    3    0    0  0.61087083352E+01  0.20296017961E+02 -0.12638321830E+02  0.24677354832E+02  0.51100000000E-03 0. -1.
        -11    1    3    3    0    0  0.22211880218E+01  0.14025051777E+02  0.18028219954E+02  0.22948909964E+02  0.51100000000E-03 0.  1.
         12    1    3    3    0    0 -0.11108429720E+02 -0.32978860646E+01  0.14328169904E+01  0.11675882316E+02  0.00000000000E+00 0. -1.
</event>
<event>
 7    1  0.4673733E-013  0.5930196E+02  0.7816164E-02  0.1266605E+00
        -11   -1    0    0    0    0  0.00000000000E+00  0.00000000000E+00  0.45593999997E+02  0.45594000000E+02  0.51100000000E-03 0.  1.
         11   -1    0    0    0    0 -0.00000000000E+00 -0.00000000000E+00 -0.45593999997E+02  0.45594000000E+02  0.51100000000E-03 0. -1.
    9900012    2    1    2    0    0 -0.67536080836E+01  0.80430586906E+01  0.30106765803E+02  0.59301962893E+02  0.50000034407E+02 0.  0.
         12    1    1    2    0    0  0.67536080836E+01 -0.80430586906E+01 -0.30106765803E+02  0.31886037107E+02  0.00000000000E+00 0. -1.
         11    1    3    3    0    0 -0.22106034504E+02 -0.88391061611E+01  0.89825430981E+01  0.25445876679E+02  0.51100000000E-03 0. -1.
        -11    1    3    3    0    0  0.11272664546E+02  0.66803625846E+01  0.43554831921E+01  0.13808346908E+02  0.51100000000E-03 0.  1.
        -12    1    3    3    0    0  0.40797618743E+01  0.10201802267E+02  0.16768739513E+02  0.20047739306E+02  0.00000000000E+00 0.  1.
</event>
<event>
 7    1  0.4673733E-013  0.5930195E+02  0.7816164E-02  0.1266605E+00
        -11   -1    0    0    0    0  0.00000000000E+00  0.00000000000E+00  0.45593999997E+02  0.45594000000E+02  0.51100000000E-03 0. -1.
         11   -1    0    0    0    0 -0.00000000000E+00 -0.00000000000E+00 -0.45593999997E+02  0.45594000000E+02  0.51100000000E-03 0.  1.
    9900012    2    1    2    0    0  0.37614921147E+01 -0.26198040880E+02 -0.17782975048E+02  0.59301947086E+02  0.50000005578E+02 0.  0.
         12    1    1    2    0    0 -0.37614921147E+01  0.26198040880E+02  0.17782975048E+02  0.31886052914E+02  0.00000000000E+00 0. -1.
         11    1    3    3    0    0  0.80295626354E+01  0.38740838501E+01 -0.69331920989E+01  0.11293872442E+02  0.51100000000E-03 0. -1.
        -11    1    3    3    0    0 -0.60803533387E+01 -0.20449959334E+02  0.11044588648E+02  0.24024039464E+02  0.51100000000E-03 0.  1.
        -12    1    3    3    0    0  0.18122828180E+01 -0.96221653952E+01 -0.21894371597E+02  0.23984035180E+02  0.00000000000E+00 0.  1.
</event>
<event>
 7    1  0.4673733E-013  0.5930201E+02  0.7816164E-02  0.1266605E+00
        -11   -1    0    0    0    0  0.00000000000E+00  0.00000000000E+00  0.45593999997E+02  0.45594000000E+02  0.51100000000E-03 0.  1.
         11   -1    0    0    0    0 -0.00000000000E+00 -0.00000000000E+00 -0.45593999997E+02  0.45594000000E+02  0.51100000000E-03 0. -1.
    9900012    2    1    2    0    0  0.19438316183E+02  0.29242210532E+01  0.25106120459E+02  0.59302007946E+02  0.50000116571E+02 0.  0.
         12    1    1    2    0    0 -0.19438316183E+02 -0.29242210532E+01 -0.25106120459E+02  0.31885992054E+02  0.00000000000E+00 0. -1.
         11    1    3    3    0    0  0.16495843882E+02 -0.19969816714E+02  0.70650865888E+01  0.26848126448E+02  0.51100000000E-03 0. -1.
        -11    1    3    3    0    0  0.49750120548E+01  0.10334076187E+02  0.15816866426E+02  0.19537582741E+02  0.51100000000E-03 0.  1.
         12    1    3    3    0    0 -0.20325397547E+01  0.12559961580E+02  0.22241674444E+01  0.12916298757E+02  0.00000000000E+00 0. -1.
</event>
<event>
 7    1  0.4673733E-013  0.5930194E+02  0.7816164E-02  0.1266605E+00
        -11   -1    0    0    0    0  0.00000000000E+00  0.00000000000E+00  0.45593999997E+02  0.45594000000E+02  0.51100000000E-03 0.  1.
         11   -1    0    0    0    0 -0.00000000000E+00 -0.00000000000E+00 -0.45593999997E+02  0.45594000000E+02  0.51100000000E-03 0. -1.
    9900012    2    1    2    0    0 -0.11644305575E+02 -0.29577037402E+02 -0.25159395079E+01  0.59301938070E+02  0.49999989135E+02 0.  0.
         12    1    1    2    0    0  0.11644305575E+02  0.29577037402E+02  0.25159395079E+01  0.31886061930E+02  0.00000000000E+00 0. -1.
         11    1    3    3    0    0  0.19188574697E+01 -0.49210238377E+01  0.18672806222E+02  0.19405467839E+02  0.51100000000E-03 0.  1.
        -11    1    3    3    0    0  0.43033054249E+00 -0.21054424872E+01 -0.11413333392E+02  0.11613881859E+02  0.51100000000E-03 0. -1.
         12    1    3    3    0    0 -0.13993493587E+02 -0.22550571077E+02 -0.97754123376E+01  0.28282588372E+02  0.00000000000E+00 0. -1.
</event>
<event>
 7    1  0.4673733E-013  0.5930195E+02  0.7816164E-02  0.1266605E+00
        -11   -1    0    0    0    0  0.00000000000E+00  0.00000000000E+00  0.45593999997E+02  0.45594000000E+02  0.51100000000E-03 0.  1.
         11   -1    0    0    0    0 -0.00000000000E+00 -0.00000000000E+00 -0.45593999997E+02  0.45594000000E+02  0.51100000000E-03 0. -1.
    9900012    2    1    2    0    0 -0.23565380883E+02  0.13687739922E+02  0.16554123436E+02  0.59301946575E+02  0.50000004645E+02 0.  0.
         12    1    1    2    0    0  0.23565380883E+02 -0.13687739922E+02 -0.16554123436E+02  0.31886053425E+02  0.00000000000E+00 0. -1.
         11    1    3    3    0    0 -0.12957363376E+02  0.68870643435E+01 -0.90067501228E+01  0.17217620886E+02  0.51100000000E-03 0. -1.
        -11    1    3    3    0    0 -0.10467449958E+02 -0.56103377048E+01  0.27089782817E+02  0.29578704014E+02  0.51100000000E-03 0.  1.
        -12    1    3    3    0    0 -0.14056754869E+00  0.12411013283E+02 -0.15289092586E+01  0.12505621675E+02  0.00000000000E+00 0.  1.
</event>
<event>
 7    1  0.4673733E-013  0.5930195E+02  0.7816164E-02  0.1266605E+00
        -11   -1    0    0    0    0  0.00000000000E+00  0.00000000000E+00  0.45593999997E+02  0.45594000000E+02  0.51100000000E-03 0. -1.
         11   -1    0    0    0    0 -0.00000000000E+00 -0.00000000000E+00 -0.45593999997E+02  0.45594000000E+02  0.51100000000E-03 0.  1.
    9900012    2    1    2    0    0  0.99542744988E+01  0.18405665921E+02 -0.24059591246E+02  0.59301952115E+02  0.50000014750E+02 0.  0.
         12    1    1    2    0    0 -0.99542744988E+01 -0.18405665921E+02  0.24059591246E+02  0.31886047885E+02  0.00000000000E+00 0. -1.
         11    1    3    3    0    0 -0.19007573886E+02  0.10725241272E+02 -0.94046932682E+01  0.23764825291E+02  0.51100000000E-03 0. -1.
        -11    1    3    3    0    0  0.17683950637E+02  0.10162484587E+02 -0.12082710322E+02  0.23706330212E+02  0.51100000000E-03 0.  1.
         12    1    3    3    0    0  0.11277897748E+02 -0.24820599389E+01 -0.25721876560E+01  0.11830796613E+02  0.00000000000E+00 0. -1.
</event>
<event>
 7    1  0.4673733E-013  0.5930191E+02  0.7816164E-02  0.1266605E+00
        -11   -1    0    0    0    0  0.00000000000E+00  0.00000000000E+00  0.45593999997E+02  0.45594000000E+02  0.51100000000E-03 0.  1.
         11   -1    0    0    0    0 -0.00000000000E+00 -0.00000000000E+00 -0.45593999997E+02  0.45594000000E+02  0.51100000000E-03 0. -1.
    9900012    2    1    2    0    0  0.23438866691E+02 -0.68125208605E+01  0.20516621943E+02  0.59301910742E+02  0.49999939295E+02 0.  0.
         12    1    1    2    0    0 -0.23438866691E+02  0.68125208605E+01 -0.20516621943E+02  0.31886089258E+02  0.00000000000E+00 0. -1.
         11    1    3    3    0    0 -0.94129974943E+01 -0.14938580079E+02  0.14191746017E+02  0.22653285675E+02  0.51100000000E-03 0. -1.
        -11    1    3    3    0    0  0.21285753599E+02  0.71602675913E+01  0.98439076253E+01  0.24520506843E+02  0.51100000000E-03 0.  1.
         12    1    3    3    0    0  0.11566110586E+02  0.96579162739E+00 -0.35190316992E+01  0.12128118224E+02  0.00000000000E+00 0. -1.
</event>
<event>
 7    1  0.4673733E-013  0.5930196E+02  0.7816164E-02  0.1266605E+00
        -11   -1    0    0    0    0  0.00000000000E+00  0.00000000000E+00  0.45593999997E+02  0.45594000000E+02  0.51100000000E-03 0.  1.
         11   -1    0    0    0    0 -0.00000000000E+00 -0.00000000000E+00 -0.45593999997E+02  0.45594000000E+02  0.51100000000E-03 0. -1.
    9900012    2    1    2    0    0 -0.32646408571E+00 -0.30828015584E+02  0.81391943211E+01  0.59301959044E+02  0.50000027386E+02 0.  0.
         12    1    1    2    0    0  0.32646408571E+00  0.30828015584E+02 -0.81391943211E+01  0.31886040956E+02  0.00000000000E+00 0. -1.
         11    1    3    3    0    0 -0.19156892531E+02 -0.41207529574E+01 -0.64137374760E+01  0.20618030096E+02  0.51100000000E-03 0. -1.
        -11    1    3    3    0    0  0.21751390659E+01 -0.63753554002E+01  0.99276248189E+01  0.11997254738E+02  0.51100000000E-03 0.  1.
         12    1    3    3    0    0  0.16655289379E+02 -0.20331907226E+02  0.46253069782E+01  0.26686674210E+02  0.00000000000E+00 0. -1.
</event>
<event>
 7    1  0.4673733E-013  0.5930195E+02  0.7816164E-02  0.1266605E+00
        -11   -1    0    0    0    0  0.00000000000E+00  0.00000000000E+00  0.45593999997E+02  0.45594000000E+02  0.51100000000E-03 0. -1.
         11   -1    0    0    0    0 -0.00000000000E+00 -0.00000000000E+00 -0.45593999997E+02  0.45594000000E+02  0.51100000000E-03 0.  1.
    9900012    2    1    2    0    0 -0.15433070677E+01 -0.65834591677E+00 -0.31841878356E+02  0.59301946101E+02  0.50000003781E+02 0.  0.
         12    1    1    2    0    0  0.15433070677E+01  0.65834591677E+00  0.31841878356E+02  0.31886053899E+02  0.00000000000E+00 0. -1.
         11    1    3    3    0    0 -0.48148109671E+01 -0.70222553366E+01 -0.19290082415E+02  0.21085581673E+02  0.51100000000E-03 0. -1.
        -11    1    3    3    0    0  0.91624061181E+00  0.35727090612E+01  0.12431720708E+02  0.12967321501E+02  0.51100000000E-03 0.  1.
        -12    1    3    3    0    0  0.23552632876E+01  0.27912003587E+01 -0.24983516649E+02  0.25249042927E+02  0.00000000000E+00 0.  1.
</event>
<event>
 7    1  0.4673733E-013  0.5930198E+02  0.7816164E-02  0.1266605E+00
        -11   -1    0    0    0    0  0.00000000000E+00  0.00000000000E+00  0.45593999997E+02  0.45594000000E+02  0.51100000000E-03 0.  1.
         11   -1    0    0    0    0 -0.00000000000E+00 -0.00000000000E+00 -0.45593999997E+02  0.45594000000E+02  0.51100000000E-03 0. -1.
    9900012    2    1    2    0    0 -0.19213813064E+01 -0.29598742238E+02  0.11702184207E+02  0.59301978558E+02  0.50000062975E+02 0.  0.
         12    1    1    2    0    0  0.19213813064E+01  0.29598742238E+02 -0.11702184207E+02  0.31886021442E+02  0.00000000000E+00 0. -1.
         11    1    3    3    0    0  0.19015078823E+02 -0.66958182337E+01  0.50150022020E+01  0.20773960908E+02  0.51100000000E-03 0. -1.
        -11    1    3    3    0    0 -0.60251164931E+01  0.37051664238E+00  0.89494767709E+01  0.10795019503E+02  0.51100000000E-03 0.  1.
         12    1    3    3    0    0 -0.14911343637E+02 -0.23273440647E+02 -0.22622947658E+01  0.27732998146E+02  0.00000000000E+00 0. -1.
</event>
<event>
 7    1  0.4673733E-013  0.5930194E+02  0.7816164E-02  0.1266605E+00
        -11   -1    0    0    0    0  0.00000000000E+00  0.00000000000E+00  0.45593999997E+02  0.45594000000E+02  0.51100000000E-03 0. -1.
         11   -1    0    0    0    0 -0.00000000000E+00 -0.00000000000E+00 -0.45593999997E+02  0.45594000000E+02  0.51100000000E-03 0.  1.
    9900012    2    1    2    0    0  0.26401069046E+02 -0.13488214121E+02  0.11737638243E+02  0.59301944765E+02  0.50000001344E+02 0.  0.
         12    1    1    2    0    0 -0.26401069046E+02  0.13488214121E+02 -0.11737638243E+02  0.31886055235E+02  0.00000000000E+00 0. -1.
         11    1    3    3    0    0 -0.72207716787E+01  0.34299454674E+01 -0.41358476353E+01  0.90005169556E+01  0.51100000000E-03 0. -1.
        -11    1    3    3    0    0  0.38044817383E+02 -0.13780823420E+02  0.88364256686E+01  0.41417407484E+02  0.51100000000E-03 0.  1.
        -12    1    3    3    0    0 -0.44229766580E+01 -0.31373361682E+01  0.70370602095E+01  0.88840203254E+01  0.00000000000E+00 0.  1.
</event>
<event>
 7    1  0.4673733E-013  0.5930194E+02  0.7816164E-02  0.1266605E+00
        -11   -1    0    0    0    0  0.00000000000E+00  0.00000000000E+00  0.45593999997E+02  0.45594000000E+02  0.51100000000E-03 0.  1.
         11   -1    0    0    0    0 -0.00000000000E+00 -0.00000000000E+00 -0.45593999997E+02  0.45594000000E+02  0.51100000000E-03 0. -1.
    9900012    2    1    2    0    0 -0.12280011860E+02  0.23709048231E+02 -0.17429957347E+02  0.59301936079E+02  0.49999985503E+02 0.  0.
         12    1    1    2    0    0  0.12280011860E+02 -0.23709048231E+02  0.17429957347E+02  0.31886063921E+02  0.00000000000E+00 0. -1.
         11    1    3    3    0    0  0.90822324034E+01 -0.96059610764E+01 -0.52350213687E+01  0.14218540102E+02  0.51100000000E-03 0. -1.
        -11    1    3    3    0    0 -0.21494706876E+02  0.18007854895E+02 -0.89573301793E+01  0.29437034936E+02  0.51100000000E-03 0.  1.
        -12    1    3    3    0    0  0.13246261236E+00  0.15307154411E+02 -0.32376057988E+01  0.15646361041E+02  0.00000000000E+00 0.  1.
</event>
<event>
 7    1  0.4673733E-013  0.5930194E+02  0.7816164E-02  0.1266605E+00
        -11   -1    0    0    0    0  0.00000000000E+00  0.00000000000E+00  0.45593999997E+02  0.45594000000E+02  0.51100000000E-03 0. -1.
         11   -1    0    0    0    0 -0.00000000000E+00 -0.00000000000E+00 -0.45593999997E+02  0.45594000000E+02  0.51100000000E-03 0.  1.
    9900012    2    1    2    0    0  0.15324156611E+02  0.41967560378E+01 -0.27645579274E+02  0.59301943636E+02  0.49999999286E+02 0.  0.
         12    1    1    2    0    0 -0.15324156611E+02 -0.41967560378E+01  0.27645579274E+02  0.31886056364E+02  0.00000000000E+00 0. -1.
         11    1    3    3    0    0 -0.30139941784E+01  0.14786698772E+02 -0.34910693894E+01  0.15489292664E+02  0.51100000000E-03 0. -1.
        -11    1    3    3    0    0  0.24320296753E+02 -0.13920534416E+02 -0.24108154692E+02  0.36965676451E+02  0.51100000000E-03 0.  1.
        -12    1    3    3    0    0 -0.59821459641E+01  0.33305916819E+01 -0.46355192387E-01  0.68469745210E+01  0.00000000000E+00 0.  1.
</event>
<event>
 7    1  0.4673733E-013  0.5930211E+02  0.7816164E-02  0.1266604E+00
        -11   -1    0    0    0    0  0.00000000000E+00  0.00000000000E+00  0.45593999997E+02  0.45594000000E+02  0.51100000000E-03 0.  1.
         11   -1    0    0    0    0 -0.00000000000E+00 -0.00000000000E+00 -0.45593999997E+02  0.45594000000E+02  0.51100000000E-03 0. -1.
    9900012    2    1    2    0    0  0.16808339479E+01  0.40078039307E+01  0.31588321972E+02  0.59302113151E+02  0.50000308440E+02 0.  0.
         12    1    1    2    0    0 -0.16808339479E+01 -0.40078039307E+01 -0.31588321972E+02  0.31885886849E+02  0.00000000000E+00 0. -1.
         11    1    3    3    0    0  0.48725416970E+01  0.11048778740E+02 -0.57996797720E+01  0.13396024035E+02  0.51100000000E-03 0. -1.
        -11    1    3    3    0    0 -0.58099010800E+01  0.28178524651E+01  0.34784178466E+02  0.35378444212E+02  0.51100000000E-03 0.  1.
         12    1    3    3    0    0  0.26181933309E+01 -0.98588272746E+01  0.26038232781E+01  0.10527644903E+02  0.00000000000E+00 0. -1.
</event>
<event>
 7    1  0.4673733E-013  0.5930193E+02  0.7816164E-02  0.1266605E+00
        -11   -1    0    0    0    0  0.00000000000E+00  0.00000000000E+00  0.45593999997E+02  0.45594000000E+02  0.51100000000E-03 0. -1.
         11   -1    0    0    0    0 -0.00000000000E+00 -0.00000000000E+00 -0.45593999997E+02  0.45594000000E+02  0.51100000000E-03 0.  1.
    9900012    2    1    2    0    0  0.21980848765E+02  0.12671322859E+02 -0.19313246884E+02  0.59301927168E+02  0.49999969252E+02 0.  0.
         12    1    1    2    0    0 -0.21980848765E+02 -0.12671322859E+02  0.19313246884E+02  0.31886072832E+02  0.00000000000E+00 0. -1.
         11    1    3    3    0    0 -0.33015687079E+01  0.19087273388E+01  0.12688570482E+01  0.40191534503E+01  0.51100000000E-03 0. -1.
        -11    1    3    3    0    0  0.52954244107E+01  0.32955156545E+01 -0.30941972699E+02  0.31564340923E+02  0.51100000000E-03 0.  1.
        -12    1    3    3    0    0  0.19986993062E+02  0.74670798657E+01  0.10359868767E+02  0.23718432795E+02  0.00000000000E+00 0.  1.
</event>
<event>
 7    1  0.4673733E-013  0.5930196E+02  0.7816164E-02  0.1266605E+00
        -11   -1    0    0    0    0  0.00000000000E+00  0.00000000000E+00  0.45593999997E+02  0.45594000000E+02  0.51100000000E-03 0.  1.
         11   -1    0    0    0    0 -0.00000000000E+00 -0.00000000000E+00 -0.45593999997E+02  0.45594000000E+02  0.51100000000E-03 0. -1.
    9900012    2    1    2    0    0 -0.24006918703E+02 -0.23136453558E+01  0.20857473133E+02  0.59301964092E+02  0.50000036592E+02 0.  0.
         12    1    1    2    0    0  0.24006918703E+02  0.23136453558E+01 -0.20857473133E+02  0.31886035908E+02  0.00000000000E+00 0. -1.
         11    1    3    3    0    0  0.35616380745E+01 -0.16793073644E+01  0.15279908203E+02  0.15779129696E+02  0.51100000000E-03 0. -1.
        -11    1    3    3    0    0 -0.32881570226E+02 -0.82074751267E+01  0.38020816099E+01  0.34103022349E+02  0.51100000000E-03 0.  1.
         12    1    3    3    0    0  0.53130134491E+01  0.75731371352E+01  0.17754833200E+01  0.94198120469E+01  0.00000000000E+00 0. -1.
</event>
<event>
 7    1  0.4673733E-013  0.5930198E+02  0.7816164E-02  0.1266605E+00
        -11   -1    0    0    0    0  0.00000000000E+00  0.00000000000E+00  0.45593999997E+02  0.45594000000E+02  0.51100000000E-03 0. -1.
         11   -1    0    0    0    0 -0.00000000000E+00 -0.00000000000E+00 -0.45593999997E+02  0.45594000000E+02  0.51100000000E-03 0.  1.
    9900012    2    1    2    0    0  0.23521979792E+02 -0.19494250731E+02  0.91328594017E+01  0.59301976953E+02  0.50000060048E+02 0.  0.
         12    1    1    2    0    0 -0.23521979792E+02  0.19494250731E+02 -0.91328594017E+01  0.31886023047E+02  0.00000000000E+00 0. -1.
         11    1    3    3    0    0 -0.60297901572E+01 -0.13014239366E+02 -0.30543192114E+01  0.14664844415E+02  0.51100000000E-03 0. -1.
        -11    1    3    3    0    0  0.24972093581E+02 -0.15054571950E+02  0.17039306006E+02  0.33772526465E+02  0.51100000000E-03 0.  1.
         12    1    3    3    0    0  0.45796763687E+01  0.85745605852E+01 -0.48521273933E+01  0.10864606073E+02  0.00000000000E+00 0. -1.
</event>
<event>
 7    1  0.4673733E-013  0.5930193E+02  0.7816164E-02  0.1266605E+00
        -11   -1    0    0    0    0  0.00000000000E+00  0.00000000000E+00  0.45593999997E+02  0.45594000000E+02  0.51100000000E-03 0.  1.
         11   -1    0    0    0    0 -0.00000000000E+00 -0.00000000000E+00 -0.45593999997E+02  0.45594000000E+02  0.51100000000E-03 0. -1.
    9900012    2    1    2    0    0  0.25654255843E+02 -0.15363361432E+02  0.11070135978E+02  0.59301927368E+02  0.49999969616E+02 0.  0.
         12    1    1    2    0    0 -0.25654255843E+02  0.15363361432E+02 -0.11070135978E+02  0.31886072632E+02  0.00000000000E+00 0. -1.
         11    1    3    3    0    0  0.11590431572E+01  0.11814336371E+02  0.71943931960E+00  0.11892834738E+02  0.51100000000E-03 0. -1.
        -11    1    3    3    0    0  0.30780584381E+02 -0.22015177892E+02  0.10503753306E+02  0.39273926035E+02  0.51100000000E-03 0.  1.
         12    1    3    3    0    0 -0.62853716949E+01 -0.51625199109E+01 -0.15305664824E+00  0.81351665940E+01  0.00000000000E+00 0. -1.
</event>
<event>
 7    1  0.4673733E-013  0.5930193E+02  0.7816164E-02  0.1266605E+00
        -11   -1    0    0    0    0  0.00000000000E+00  0.00000000000E+00  0.45593999997E+02  0.45594000000E+02  0.51100000000E-03 0. -1.
         11   -1    0    0    0    0 -0.00000000000E+00 -0.00000000000E+00 -0.45593999997E+02  0.45594000000E+02  0.51100000000E-03 0.  1.
    9900012    2    1    2    0    0 -0.27474009985E+02 -0.11650370963E+02  0.11232490998E+02  0.59301933728E+02  0.49999981216E+02 0.  0.
         12    1    1    2    0    0  0.27474009985E+02  0.11650370963E+02 -0.11232490998E+02  0.31886066272E+02  0.00000000000E+00 0. -1.
         11    1    3    3    0    0  0.49304921479E+01  0.34684860814E+01  0.18377085959E+01  0.63021680128E+01  0.51100000000E-03 0. -1.
        -11    1    3    3    0    0 -0.19118669132E+02 -0.27630987029E+02  0.88278794393E+01  0.34740846409E+02  0.51100000000E-03 0.  1.
        -12    1    3    3    0    0 -0.13285833001E+02  0.12512129984E+02  0.56690296313E+00  0.18258919306E+02  0.00000000000E+00 0.  1.
</event>
<event>
 7    1  0.4673733E-013  0.5930194E+02  0.7816164E-02  0.1266605E+00
        -11   -1    0    0    0    0  0.00000000000E+00  0.00000000000E+00  0.45593999997E+02  0.45594000000E+02  0.51100000000E-03 0. -1.
         11   -1    0    0    0    0 -0.00000000000E+00 -0.00000000000E+00 -0.45593999997E+02  0.45594000000E+02  0.51100000000E-03 0.  1.
    9900012    2    1    2    0    0 -0.48995690757E+01 -0.82518608161E+00 -0.31496576384E+02  0.59301936694E+02  0.49999986626E+02 0.  0.
         12    1    1    2    0    0  0.48995690757E+01  0.82518608161E+00  0.31496576384E+02  0.31886063306E+02  0.00000000000E+00 0. -1.
         11    1    3    3    0    0 -0.25036345309E+01  0.29767663956E+01  0.10038844751E+01  0.40171019826E+01  0.51100000000E-03 0. -1.
        -11    1    3    3    0    0  0.63892929615E+01  0.10201560074E+02 -0.36367151286E+02  0.38307500381E+02  0.51100000000E-03 0.  1.
        -12    1    3    3    0    0 -0.87852275063E+01 -0.14003512552E+02  0.38666904272E+01  0.16977334331E+02  0.00000000000E+00 0.  1.
</event>
<event>
 7    1  0.4673733E-013  0.5930194E+02  0.7816164E-02  0.1266605E+00
        -11   -1    0    0    0    0  0.00000000000E+00  0.00000000000E+00  0.45593999997E+02  0.45594000000E+02  0.51100000000E-03 0. -1.
         11   -1    0    0    0    0 -0.00000000000E+00 -0.00000000000E+00 -0.45593999997E+02  0.45594000000E+02  0.51100000000E-03 0.  1.
    9900012    2    1    2    0    0 -0.24620313466E+02 -0.12775776404E+02 -0.15727057050E+02  0.59301943151E+02  0.49999998402E+02 0.  0.
         12    1    1    2    0    0  0.24620313466E+02  0.12775776404E+02  0.15727057050E+02  0.31886056849E+02  0.00000000000E+00 0. -1.
         11    1    3    3    0    0 -0.14493981435E+02 -0.26589799887E+02 -0.41232028075E+01  0.30562947461E+02  0.51100000000E-03 0. -1.
        -11    1    3    3    0    0 -0.42542468162E+01  0.50079509399E+01 -0.15985652226E+02  0.17283496924E+02  0.51100000000E-03 0.  1.
        -12    1    3    3    0    0 -0.58720852151E+01  0.88060725432E+01  0.43817979831E+01  0.11455498766E+02  0.00000000000E+00 0.  1.
</event>
<event>
 7    1  0.4673733E-013  0.5930195E+02  0.7816164E-02  0.1266605E+00
        -11   -1    0    0    0    0  0.00000000000E+00  0.00000000000E+00  0.45593999997E+02  0.45594000000E+02  0.51100000000E-03 0.  1.
         11   -1    0    0    0    0 -0.00000000000E+00 -0.00000000000E+00 -0.45593999997E+02  0.45594000000E+02  0.51100000000E-03 0. -1.
    9900012    2    1    2    0    0 -0.29698437697E+02 -0.10806197048E+02 -0.42366103219E+01  0.59301953470E+02  0.50000017221E+02 0.  0.
         12    1    1    2    0    0  0.29698437697E+02  0.10806197048E+02  0.42366103219E+01  0.31886046530E+02  0.00000000000E+00 0. -1.
         11    1    3    3    0    0 -0.69895640631E+00 -0.13938066110E+02 -0.19070155571E+02  0.23631103671E+02  0.51100000000E-03 0. -1.
        -11    1    3    3    0    0 -0.11489564631E+02 -0.23295473542E+01  0.12572324472E+02  0.17190120104E+02  0.51100000000E-03 0.  1.
         12    1    3    3    0    0 -0.17509916659E+02  0.54614164161E+01  0.22612207769E+01  0.18480729695E+02  0.00000000000E+00 0. -1.
</event>
<event>
 7    1  0.4673733E-013  0.5930194E+02  0.7816164E-02  0.1266605E+00
        -11   -1    0    0    0    0  0.00000000000E+00  0.00000000000E+00  0.45593999997E+02  0.45594000000E+02  0.51100000000E-03 0. -1.
         11   -1    0    0    0    0 -0.00000000000E+00 -0.00000000000E+00 -0.45593999997E+02  0.45594000000E+02  0.51100000000E-03 0.  1.
    9900012    2    1    2    0    0 -0.10875348165E+02 -0.20210103322E+02 -0.22135931468E+02  0.59301938219E+02  0.49999989406E+02 0.  0.
         12    1    1    2    0    0  0.10875348165E+02  0.20210103322E+02  0.22135931468E+02  0.31886061781E+02  0.00000000000E+00 0. -1.
         11    1    3    3    0    0 -0.22421909317E+02  0.17185081447E+01 -0.90812003599E+00  0.22505998532E+02  0.51100000000E-03 0. -1.
        -11    1    3    3    0    0  0.31688224344E+01  0.12431306181E+01 -0.82995756786E+01  0.89704941927E+01  0.51100000000E-03 0.  1.
         12    1    3    3    0    0  0.83777387180E+01 -0.23171742085E+02 -0.12928235753E+02  0.27825445494E+02  0.00000000000E+00 0. -1.
</event>
<event>
 7    1  0.4673733E-013  0.5930192E+02  0.7816164E-02  0.1266605E+00
        -11   -1    0    0    0    0  0.00000000000E+00  0.00000000000E+00  0.45593999997E+02  0.45594000000E+02  0.51100000000E-03 0.  1.
         11   -1    0    0    0    0 -0.00000000000E+00 -0.00000000000E+00 -0.45593999997E+02  0.45594000000E+02  0.51100000000E-03 0. -1.
    9900012    2    1    2    0    0  0.21519824481E+02 -0.20369475430E+02  0.11777244966E+02  0.59301923509E+02  0.49999962578E+02 0.  0.
         12    1    1    2    0    0 -0.21519824481E+02  0.20369475430E+02 -0.11777244966E+02  0.31886076491E+02  0.00000000000E+00 0. -1.
         11    1    3    3    0    0  0.22473912477E+02 -0.30957782720E+02  0.48338480240E+01  0.38559397557E+02  0.51100000000E-03 0. -1.
        -11    1    3    3    0    0  0.13614453281E+01 -0.26554744742E+01  0.66564850080E+01  0.72947838205E+01  0.51100000000E-03 0.  1.
         12    1    3    3    0    0 -0.23155333242E+01  0.13243781764E+02  0.28691193388E+00  0.13447742131E+02  0.00000000000E+00 0. -1.
</event>
<event>
 7    1  0.4673733E-013  0.5930194E+02  0.7816164E-02  0.1266605E+00
        -11   -1    0    0    0    0  0.00000000000E+00  0.00000000000E+00  0.45593999997E+02  0.45594000000E+02  0.51100000000E-03 0.  1.
         11   -1    0    0    0    0 -0.00000000000E+00 -0.00000000000E+00 -0.45593999997E+02  0.45594000000E+02  0.51100000000E-03 0. -1.
    9900012    2    1    2    0    0  0.11406449757E+02 -0.17598697660E+02  0.24018729016E+02  0.59301943502E+02  0.49999999042E+02 0.  0.
         12    1    1    2    0    0 -0.11406449757E+02  0.17598697660E+02 -0.24018729016E+02  0.31886056498E+02  0.00000000000E+00 0. -1.
         11    1    3    3    0    0  0.19309990036E+02 -0.17527428369E+01 -0.58869511050E+01  0.20263366359E+02  0.51100000000E-03 0. -1.
        -11    1    3    3    0    0 -0.11011473126E+02 -0.51028825898E+01  0.82787092425E+01  0.14691119022E+02  0.51100000000E-03 0.  1.
        -12    1    3    3    0    0  0.31079328474E+01 -0.10743072234E+02  0.21626970879E+02  0.24347458122E+02  0.00000000000E+00 0.  1.
</event>
<event>
 7    1  0.4673733E-013  0.5930195E+02  0.7816164E-02  0.1266605E+00
        -11   -1    0    0    0    0  0.00000000000E+00  0.00000000000E+00  0.45593999997E+02  0.45594000000E+02  0.51100000000E-03 0. -1.
         11   -1    0    0    0    0 -0.00000000000E+00 -0.00000000000E+00 -0.45593999997E+02  0.45594000000E+02  0.51100000000E-03 0.  1.
    9900012    2    1    2    0    0 -0.13752003396E+02  0.27129570495E+02 -0.95702261106E+01  0.59301946302E+02  0.50000004148E+02 0.  0.
         12    1    1    2    0    0  0.13752003396E+02 -0.27129570495E+02  0.95702261106E+01  0.31886053698E+02  0.00000000000E+00 0. -1.
         11    1    3    3    0    0  0.60304049117E+01  0.33606719890E+01  0.19409866475E+01  0.71712850343E+01  0.51100000000E-03 0. -1.
        -11    1    3    3    0    0 -0.25725284879E+02  0.58553840127E+00 -0.11531584670E+02  0.28197705272E+02  0.51100000000E-03 0.  1.
        -12    1    3    3    0    0  0.59428765718E+01  0.23183360104E+02  0.20371911604E-01  0.23932955996E+02  0.00000000000E+00 0.  1.
</event>
<event>
 7    1  0.4673733E-013  0.5930191E+02  0.7816164E-02  0.1266605E+00
        -11   -1    0    0    0    0  0.00000000000E+00  0.00000000000E+00  0.45593999997E+02  0.45594000000E+02  0.51100000000E-03 0.  1.
         11   -1    0    0    0    0 -0.00000000000E+00 -0.00000000000E+00 -0.45593999997E+02  0.45594000000E+02  0.51100000000E-03 0. -1.
    9900012    2    1    2    0    0 -0.17665334184E+02  0.23348111321E+02  0.12630303296E+02  0.59301907492E+02  0.49999933367E+02 0.  0.
         12    1    1    2    0    0  0.17665334184E+02 -0.23348111321E+02 -0.12630303296E+02  0.31886092508E+02  0.00000000000E+00 0. -1.
         11    1    3    3    0    0 -0.16653341643E+02  0.17853120778E+02 -0.23665197558E+01  0.24528924261E+02  0.51100000000E-03 0. -1.
        -11    1    3    3    0    0  0.11862934130E+02 -0.50021238694E+01  0.12554841211E+02  0.17982616258E+02  0.51100000000E-03 0.  1.
        -12    1    3    3    0    0 -0.12874926671E+02  0.10497114412E+02  0.24419818402E+01  0.16790366973E+02  0.00000000000E+00 0.  1.
</event>
<event>
 7    1  0.4673733E-013  0.5930195E+02  0.7816164E-02  0.1266605E+00
        -11   -1    0    0    0    0  0.00000000000E+00  0.00000000000E+00  0.45593999997E+02  0.45594000000E+02  0.51100000000E-03 0. -1.
         11   -1    0    0    0    0 -0.00000000000E+00 -0.00000000000E+00 -0.45593999997E+02  0.45594000000E+02  0.51100000000E-03 0.  1.
    9900012    2    1    2    0    0  0.26387487095E+01 -0.21054928940E+02 -0.23800144804E+02  0.59301954148E+02  0.50000018457E+02 0.  0.
         12    1    1    2    0    0 -0.26387487095E+01  0.21054928940E+02  0.23800144804E+02  0.31886045852E+02  0.00000000000E+00 0. -1.
         11    1    3    3    0    0  0.21017690626E+02 -0.16922360211E+02 -0.12805009946E+02  0.29867672731E+02  0.51100000000E-03 0. -1.
        -11    1    3    3    0    0 -0.42254538409E+01  0.75088432906E+01 -0.13377253984E+01  0.87193289436E+01  0.51100000000E-03 0.  1.
         12    1    3    3    0    0 -0.14153488076E+02 -0.11641412019E+02 -0.96574094595E+01  0.20714952474E+02  0.00000000000E+00 0. -1.
</event>
<event>
 7    1  0.4673733E-013  0.5930193E+02  0.7816164E-02  0.1266605E+00
        -11   -1    0    0    0    0  0.00000000000E+00  0.00000000000E+00  0.45593999997E+02  0.45594000000E+02  0.51100000000E-03 0. -1.
         11   -1    0    0    0    0 -0.00000000000E+00 -0.00000000000E+00 -0.45593999997E+02  0.45594000000E+02  0.51100000000E-03 0.  1.
    9900012    2    1    2    0    0 -0.28338102804E+02  0.74772315765E+01  0.12560423496E+02  0.59301932494E+02  0.49999978966E+02 0.  0.
         12    1    1    2    0    0  0.28338102804E+02 -0.74772315765E+01 -0.12560423496E+02  0.31886067506E+02  0.00000000000E+00 0. -1.
         11    1    3    3    0    0 -0.46098358707E+01 -0.18792227644E+01  0.22989714337E+02  0.23522521772E+02  0.51100000000E-03 0. -1.
        -11    1    3    3    0    0 -0.27378215724E+02  0.11809510613E+02 -0.93947735220E+01  0.31261685926E+02  0.51100000000E-03 0.  1.
        -12    1    3    3    0    0  0.36499487907E+01 -0.24530562723E+01 -0.10345173195E+01  0.45177247962E+01  0.00000000000E+00 0.  1.
</event>
<event>
 7    1  0.4673733E-013  0.5930196E+02  0.7816164E-02  0.1266605E+00
        -11   -1    0    0    0    0  0.00000000000E+00  0.00000000000E+00  0.45593999997E+02  0.45594000000E+02  0.51100000000E-03 0. -1.
         11   -1    0    0    0    0 -0.00000000000E+00 -0.00000000000E+00 -0.45593999997E+02  0.45594000000E+02  0.51100000000E-03 0.  1.
    9900012    2    1    2    0    0  0.55239674790E+01  0.31286461389E+02 -0.27134337395E+01  0.59301959079E+02  0.50000027450E+02 0.  0.
         12    1    1    2    0    0 -0.55239674790E+01 -0.31286461389E+02  0.27134337395E+01  0.31886040921E+02  0.00000000000E+00 0. -1.
         11    1    3    3    0    0  0.10257990376E+02  0.67640897866E+01 -0.10397194953E+02  0.16095991438E+02  0.51100000000E-03 0.  1.
        -11    1    3    3    0    0 -0.13245333624E+02  0.11472072714E+02  0.17521086104E+02  0.24779745230E+02  0.51100000000E-03 0. -1.
         12    1    3    3    0    0  0.85113107262E+01  0.13050298888E+02 -0.98373248903E+01  0.18426222411E+02  0.00000000000E+00 0. -1.
</event>
<event>
 7    1  0.4673733E-013  0.5930195E+02  0.7816164E-02  0.1266605E+00
        -11   -1    0    0    0    0  0.00000000000E+00  0.00000000000E+00  0.45593999997E+02  0.45594000000E+02  0.51100000000E-03 0.  1.
         11   -1    0    0    0    0 -0.00000000000E+00 -0.00000000000E+00 -0.45593999997E+02  0.45594000000E+02  0.51100000000E-03 0. -1.
    9900012    2    1    2    0    0 -0.14964700987E+02  0.23450258750E+02  0.15584071503E+02  0.59301949826E+02  0.50000010575E+02 0.  0.
         12    1    1    2    0    0  0.14964700987E+02 -0.23450258750E+02 -0.15584071503E+02  0.31886050174E+02  0.00000000000E+00 0. -1.
         11    1    3    3    0    0 -0.11145973389E+01  0.78914229691E+01 -0.42867161167E+01  0.90494651240E+01  0.51100000000E-03 0. -1.
        -11    1    3    3    0    0 -0.10004274745E+02 -0.50253880248E+01  0.26104465428E+02  0.28403928488E+02  0.51100000000E-03 0.  1.
        -12    1    3    3    0    0 -0.38458289034E+01  0.20584223806E+02 -0.62336778092E+01  0.21848556215E+02  0.00000000000E+00 0.  1.
</event>
<event>
 7    1  0.4673733E-013  0.5930185E+02  0.7816164E-02  0.1266605E+00
        -11   -1    0    0    0    0  0.00000000000E+00  0.00000000000E+00  0.45593999997E+02  0.45594000000E+02  0.51100000000E-03 0.  1.
         11   -1    0    0    0    0 -0.00000000000E+00 -0.00000000000E+00 -0.45593999997E+02  0.45594000000E+02  0.51100000000E-03 0. -1.
    9900012    2    1    2    0    0 -0.27114084250E+01 -0.78985209242E+01  0.30773178282E+02  0.59301845167E+02  0.49999819702E+02 0.  0.
         12    1    1    2    0    0  0.27114084250E+01  0.78985209242E+01 -0.30773178282E+02  0.31886154833E+02  0.00000000000E+00 0. -1.
         11    1    3    3    0    0 -0.23206881233E+02 -0.84351168330E+00  0.18957024302E+02  0.29977318412E+02  0.51100000000E-03 0.  1.
        -11    1    3    3    0    0  0.12817313377E+02 -0.10038587145E+02  0.18357623082E+01  0.16383735153E+02  0.51100000000E-03 0. -1.
        -12    1    3    3    0    0  0.76781594308E+01  0.29835779038E+01  0.99803916722E+01  0.12940791602E+02  0.00000000000E+00 0.  1.
</event>
<event>
 7    1  0.4673733E-013  0.5930194E+02  0.7816164E-02  0.1266605E+00
        -11   -1    0    0    0    0  0.00000000000E+00  0.00000000000E+00  0.45593999997E+02  0.45594000000E+02  0.51100000000E-03 0.  1.
         11   -1    0    0    0    0 -0.00000000000E+00 -0.00000000000E+00 -0.45593999997E+02  0.45594000000E+02  0.51100000000E-03 0. -1.
    9900012    2    1    2    0    0 -0.14803249705E+02  0.27307689775E+02  0.72023912869E+01  0.59301944067E+02  0.50000000072E+02 0.  0.
         12    1    1    2    0    0  0.14803249705E+02 -0.27307689775E+02 -0.72023912869E+01  0.31886055933E+02  0.00000000000E+00 0. -1.
         11    1    3    3    0    0 -0.60055511465E+01 -0.11383877407E+01 -0.64232340656E+01  0.88668205882E+01  0.51100000000E-03 0. -1.
        -11    1    3    3    0    0  0.14733639419E+02  0.81842404327E+01  0.87888966390E+01  0.19008067403E+02  0.51100000000E-03 0.  1.
        -12    1    3    3    0    0 -0.23531337978E+02  0.20261837083E+02  0.48367287136E+01  0.31427056077E+02  0.00000000000E+00 0.  1.
</event>
<event>
 7    1  0.4673733E-013  0.5930191E+02  0.7816164E-02  0.1266605E+00
        -11   -1    0    0    0    0  0.00000000000E+00  0.00000000000E+00  0.45593999997E+02  0.45594000000E+02  0.51100000000E-03 0.  1.
         11   -1    0    0    0    0 -0.00000000000E+00 -0.00000000000E+00 -0.45593999997E+02  0.45594000000E+02  0.51100000000E-03 0. -1.
    9900012    2    1    2    0    0  0.21168096692E+02  0.12267690472E+02 -0.20448420217E+02  0.59301914689E+02  0.49999946494E+02 0.  0.
         12    1    1    2    0    0 -0.21168096692E+02 -0.12267690472E+02  0.20448420217E+02  0.31886085311E+02  0.00000000000E+00 0. -1.
         11    1    3    3    0    0  0.62402378425E+00 -0.12929880654E+02  0.45117942068E+01  0.13708665385E+02  0.51100000000E-03 0. -1.
        -11    1    3    3    0    0  0.17872871403E+02  0.63413224104E+01 -0.10468088030E+02  0.21661781307E+02  0.51100000000E-03 0.  1.
         12    1    3    3    0    0  0.26712015049E+01  0.18856248716E+02 -0.14492126393E+02  0.23931467997E+02  0.00000000000E+00 0. -1.
</event>
