<event>
 8    1  0.1280823E-010  0.9118800E+02  0.7816164E-02  0.1184000E+00
        -11   -1    0    0    0    0  0.00000000000E+00  0.00000000000E+00  0.45593999997E+02  0.45594000000E+02  0.51100000000E-03 0. -1.
         11   -1    0    0    0    0 -0.00000000000E+00 -0.00000000000E+00 -0.45593999997E+02  0.45594000000E+02  0.51100000000E-03 0.  1.
         23    2    1    2    0    0 -0.88817841970E-15  0.00000000000E+00  0.00000000000E+00  0.91188000000E+02  0.91188000000E+02 0.  0.
    9900012    2    3    3    0    0 -0.54438267238E+01 -0.39321366080E+02  0.17544741447E+02  0.47787273828E+02  0.20000012691E+02 0.  0.
        -12    1    3    3    0    0  0.54438267238E+01  0.39321366080E+02 -0.17544741447E+02  0.43400726172E+02  0.00000000000E+00 0.  1.
         11    1    4    4    0    0 -0.15402672265E+01 -0.19804776009E+02  0.13268860961E+02  0.23888579852E+02  0.51100000000E-03 0. -1.
        -11    1    4    4    0    0  0.30467433179E+00 -0.19245489574E+02  0.29137021744E+01  0.19467186648E+02  0.51100000000E-03 0.  1.
         12    1    4    4    0    0 -0.42082338291E+01 -0.27110049784E+00  0.13621783112E+01  0.44315073273E+01  0.00000000000E+00 0. -1.
</event>
<event>
 8    1  0.1280823E-010  0.9118800E+02  0.7816164E-02  0.1184000E+00
        -11   -1    0    0    0    0  0.00000000000E+00  0.00000000000E+00  0.45593999997E+02  0.45594000000E+02  0.51100000000E-03 0. -1.
         11   -1    0    0    0    0 -0.00000000000E+00 -0.00000000000E+00 -0.45593999997E+02  0.45594000000E+02  0.51100000000E-03 0.  1.
         23    2    1    2    0    0 -0.88817841970E-15  0.00000000000E+00  0.00000000000E+00  0.91188000000E+02  0.91188000000E+02 0.  0.
    9900012    2    3    3    0    0 -0.67845899475E+01 -0.38925851842E+02 -0.17954676157E+02  0.47787274219E+02  0.20000014475E+02 0.  0.
         12    1    3    3    0    0  0.67845899475E+01  0.38925851842E+02  0.17954676157E+02  0.43400725781E+02  0.00000000000E+00 0. -1.
         11    1    4    4    0    0 -0.18517508038E+00 -0.11573595500E+02 -0.82985804616E+01  0.14242501204E+02  0.51100000000E-03 0. -1.
        -11    1    4    4    0    0 -0.49084766426E+01 -0.23843947140E+02 -0.13696936966E+02  0.27932651873E+02  0.51100000000E-03 0.  1.
         12    1    4    4    0    0 -0.16909382245E+01 -0.35083092018E+01  0.40408412704E+01  0.56121211415E+01  0.00000000000E+00 0. -1.
</event>
<event>
 8    1  0.1280823E-010  0.9118800E+02  0.7816164E-02  0.1184000E+00
        -11   -1    0    0    0    0  0.00000000000E+00  0.00000000000E+00  0.45593999997E+02  0.45594000000E+02  0.51100000000E-03 0. -1.
         11   -1    0    0    0    0 -0.00000000000E+00 -0.00000000000E+00 -0.45593999997E+02  0.45594000000E+02  0.51100000000E-03 0.  1.
         23    2    1    2    0    0  0.00000000000E+00 -0.35527136788E-14  0.00000000000E+00  0.91188000000E+02  0.91188000000E+02 0.  0.
    9900012    2    3    3    0    0  0.19425056523E+02 -0.26780635374E+02 -0.28090711401E+02  0.47787270525E+02  0.19999997631E+02 0.  0.
         12    1    3    3    0    0 -0.19425056523E+02  0.26780635374E+02  0.28090711401E+02  0.43400729475E+02  0.00000000000E+00 0. -1.
         11    1    4    4    0    0  0.51793477767E+01 -0.14829341080E+02 -0.75763657538E+01  0.17439504539E+02  0.51100000000E-03 0. -1.
        -11    1    4    4    0    0 -0.36386522543E-01 -0.60919106495E+01 -0.98620065608E+01  0.11591888242E+02  0.51100000000E-03 0.  1.
         12    1    4    4    0    0  0.14282095269E+02 -0.58593836449E+01 -0.10652339086E+02  0.18755877744E+02  0.00000000000E+00 0. -1.
</event>
<event>
 8    1  0.1280823E-010  0.9118800E+02  0.7816164E-02  0.1184000E+00
        -11   -1    0    0    0    0  0.00000000000E+00  0.00000000000E+00  0.45593999997E+02  0.45594000000E+02  0.51100000000E-03 0. -1.
         11   -1    0    0    0    0 -0.00000000000E+00 -0.00000000000E+00 -0.45593999997E+02  0.45594000000E+02  0.51100000000E-03 0.  1.
         23    2    1    2    0    0  0.00000000000E+00 -0.35527136788E-14  0.00000000000E+00  0.91188000000E+02  0.91188000000E+02 0.  0.
    9900012    2    3    3    0    0  0.21291782979E+02  0.23141818061E+02 -0.29912196636E+02  0.47787271052E+02  0.20000000035E+02 0.  0.
         12    1    3    3    0    0 -0.21291782979E+02 -0.23141818061E+02  0.29912196636E+02  0.43400728948E+02  0.00000000000E+00 0. -1.
         11    1    4    4    0    0 -0.21039115339E+01  0.23461969076E+01 -0.46469199364E+01  0.56147082585E+01  0.51100000000E-03 0. -1.
        -11    1    4    4    0    0  0.11622108141E+02  0.12478485527E+02 -0.21176721195E+02  0.27188959515E+02  0.51100000000E-03 0.  1.
         12    1    4    4    0    0  0.11773586372E+02  0.83171356269E+01 -0.40885555049E+01  0.14983603278E+02  0.00000000000E+00 0. -1.
</event>
<event>
 8    1  0.1280823E-010  0.9118800E+02  0.7816164E-02  0.1184000E+00
        -11   -1    0    0    0    0  0.00000000000E+00  0.00000000000E+00  0.45593999997E+02  0.45594000000E+02  0.51100000000E-03 0. -1.
         11   -1    0    0    0    0 -0.00000000000E+00 -0.00000000000E+00 -0.45593999997E+02  0.45594000000E+02  0.51100000000E-03 0.  1.
         23    2    1    2    0    0  0.00000000000E+00  0.00000000000E+00  0.00000000000E+00  0.91188000000E+02  0.91188000000E+02 0.  0.
    9900012    2    3    3    0    0  0.13175383618E+02  0.35711674252E+02  0.20849669083E+02  0.47787272906E+02  0.20000008490E+02 0.  0.
        -12    1    3    3    0    0 -0.13175383618E+02 -0.35711674252E+02 -0.20849669083E+02  0.43400727094E+02  0.00000000000E+00 0.  1.
         11    1    4    4    0    0  0.43043018671E+01  0.19001970583E+02  0.39281439758E+01  0.19875417378E+02  0.51100000000E-03 0. -1.
        -11    1    4    4    0    0  0.10925080488E+02  0.14178042008E+02  0.10608096139E+02  0.20806392354E+02  0.51100000000E-03 0.  1.
         12    1    4    4    0    0 -0.20539987374E+01  0.25316616617E+01  0.63134289685E+01  0.71054631744E+01  0.00000000000E+00 0. -1.
</event>
<event>
 8    1  0.1280823E-010  0.9118800E+02  0.7816164E-02  0.1184000E+00
        -11   -1    0    0    0    0  0.00000000000E+00  0.00000000000E+00  0.45593999997E+02  0.45594000000E+02  0.51100000000E-03 0. -1.
         11   -1    0    0    0    0 -0.00000000000E+00 -0.00000000000E+00 -0.45593999997E+02  0.45594000000E+02  0.51100000000E-03 0.  1.
         23    2    1    2    0    0 -0.35527136788E-14  0.00000000000E+00  0.00000000000E+00  0.91188000000E+02  0.91188000000E+02 0.  0.
    9900012    2    3    3    0    0 -0.30770198219E+02  0.18817488273E+02 -0.24139585896E+02  0.47787279147E+02  0.20000036945E+02 0.  0.
         12    1    3    3    0    0  0.30770198219E+02 -0.18817488273E+02  0.24139585896E+02  0.43400720853E+02  0.00000000000E+00 0. -1.
         11    1    4    4    0    0 -0.86653613142E+01  0.10893146440E+02 -0.98559932545E+01  0.17055489714E+02  0.51100000000E-03 0. -1.
        -11    1    4    4    0    0 -0.78883003497E+01  0.32344754583E+01 -0.13211167438E+02  0.15723296703E+02  0.51100000000E-03 0.  1.
        -12    1    4    4    0    0 -0.14216536555E+02  0.46898663739E+01 -0.10724252036E+01  0.15008492730E+02  0.00000000000E+00 0.  1.
</event>
<event>
 8    1  0.1280823E-010  0.9118800E+02  0.7816164E-02  0.1184000E+00
        -11   -1    0    0    0    0  0.00000000000E+00  0.00000000000E+00  0.45593999997E+02  0.45594000000E+02  0.51100000000E-03 0. -1.
         11   -1    0    0    0    0 -0.00000000000E+00 -0.00000000000E+00 -0.45593999997E+02  0.45594000000E+02  0.51100000000E-03 0.  1.
         23    2    1    2    0    0  0.00000000000E+00 -0.88817841970E-15  0.00000000000E+00  0.91188000000E+02  0.91188000000E+02 0.  0.
    9900012    2    3    3    0    0 -0.10350380432E+02 -0.18878364646E+01  0.42106158592E+02  0.47787275432E+02  0.20000020006E+02 0.  0.
        -12    1    3    3    0    0  0.10350380432E+02  0.18878364646E+01 -0.42106158592E+02  0.43400724568E+02  0.00000000000E+00 0.  1.
         11    1    4    4    0    0 -0.72598984435E+01 -0.50500294828E+01  0.10293660831E+02  0.13570864996E+02  0.51100000000E-03 0. -1.
        -11    1    4    4    0    0  0.11622378631E+01 -0.40406226715E+01  0.11774281008E+02  0.12502444639E+02  0.51100000000E-03 0.  1.
         12    1    4    4    0    0 -0.42527198520E+01  0.72028156897E+01  0.20038216753E+02  0.21713965798E+02  0.00000000000E+00 0. -1.
</event>
<event>
 8    1  0.1280823E-010  0.9118800E+02  0.7816164E-02  0.1184000E+00
        -11   -1    0    0    0    0  0.00000000000E+00  0.00000000000E+00  0.45593999997E+02  0.45594000000E+02  0.51100000000E-03 0. -1.
         11   -1    0    0    0    0 -0.00000000000E+00 -0.00000000000E+00 -0.45593999997E+02  0.45594000000E+02  0.51100000000E-03 0.  1.
         23    2    1    2    0    0 -0.35527136788E-14 -0.17763568394E-14  0.00000000000E+00  0.91188000000E+02  0.91188000000E+02 0.  0.
    9900012    2    3    3    0    0 -0.24388870516E+02 -0.84833041282E+01 -0.34883227435E+02  0.47787274082E+02  0.20000013848E+02 0.  0.
         12    1    3    3    0    0  0.24388870516E+02  0.84833041282E+01  0.34883227435E+02  0.43400725918E+02  0.00000000000E+00 0. -1.
         11    1    4    4    0    0 -0.22709016815E+02 -0.85631675777E+01 -0.20068933873E+02  0.31492687893E+02  0.51100000000E-03 0. -1.
        -11    1    4    4    0    0 -0.38845759325E+01  0.11629259456E+01 -0.68511669823E+01  0.79612069569E+01  0.51100000000E-03 0.  1.
        -12    1    4    4    0    0  0.22047222322E+01 -0.10830624961E+01 -0.79631265794E+01  0.83333792313E+01  0.00000000000E+00 0.  1.
</event>
<event>
 8    1  0.1280823E-010  0.9118800E+02  0.7816164E-02  0.1184000E+00
        -11   -1    0    0    0    0  0.00000000000E+00  0.00000000000E+00  0.45593999997E+02  0.45594000000E+02  0.51100000000E-03 0. -1.
         11   -1    0    0    0    0 -0.00000000000E+00 -0.00000000000E+00 -0.45593999997E+02  0.45594000000E+02  0.51100000000E-03 0.  1.
         23    2    1    2    0    0  0.88817841970E-15  0.00000000000E+00  0.00000000000E+00  0.91188000000E+02  0.91188000000E+02 0.  0.
    9900012    2    3    3    0    0  0.23829881218E+01  0.34135285084E+02  0.26696959477E+02  0.47787263077E+02  0.19999963675E+02 0.  0.
        -12    1    3    3    0    0 -0.23829881218E+01 -0.34135285084E+02 -0.26696959477E+02  0.43400736923E+02  0.00000000000E+00 0.  1.
         11    1    4    4    0    0  0.33494745975E+00  0.30616608349E+01  0.41886681492E+01  0.51991247334E+01  0.51100000000E-03 0. -1.
        -11    1    4    4    0    0 -0.36031583337E+01  0.13453867268E+00  0.61707132632E+01  0.71469261274E+01  0.51100000000E-03 0.  1.
         12    1    4    4    0    0  0.56511989958E+01  0.30939085576E+02  0.16337578064E+02  0.35441212217E+02  0.00000000000E+00 0. -1.
</event>
<event>
 8    1  0.1280823E-010  0.9118800E+02  0.7816164E-02  0.1184000E+00
        -11   -1    0    0    0    0  0.00000000000E+00  0.00000000000E+00  0.45593999997E+02  0.45594000000E+02  0.51100000000E-03 0. -1.
         11   -1    0    0    0    0 -0.00000000000E+00 -0.00000000000E+00 -0.45593999997E+02  0.45594000000E+02  0.51100000000E-03 0.  1.
         23    2    1    2    0    0  0.00000000000E+00  0.17763568394E-14  0.00000000000E+00  0.91188000000E+02  0.91188000000E+02 0.  0.
    9900012    2    3    3    0    0  0.38461894411E+02  0.10652493811E+02 -0.17053749587E+02  0.47787270501E+02  0.19999997523E+02 0.  0.
         12    1    3    3    0    0 -0.38461894411E+02 -0.10652493811E+02  0.17053749587E+02  0.43400729499E+02  0.00000000000E+00 0. -1.
         11    1    4    4    0    0  0.16549037408E+01  0.51956426952E+01 -0.22846949419E+01  0.59121265756E+01  0.51100000000E-03 0. -1.
        -11    1    4    4    0    0  0.20096896296E+02  0.62088885344E+01 -0.13724234079E+02  0.25115535807E+02  0.51100000000E-03 0.  1.
         12    1    4    4    0    0  0.16710094374E+02 -0.75203741901E+00 -0.10448205664E+01  0.16759608119E+02  0.00000000000E+00 0. -1.
</event>
<event>
 8    1  0.1280823E-010  0.9118800E+02  0.7816164E-02  0.1184000E+00
        -11   -1    0    0    0    0  0.00000000000E+00  0.00000000000E+00  0.45593999997E+02  0.45594000000E+02  0.51100000000E-03 0. -1.
         11   -1    0    0    0    0 -0.00000000000E+00 -0.00000000000E+00 -0.45593999997E+02  0.45594000000E+02  0.51100000000E-03 0.  1.
         23    2    1    2    0    0  0.00000000000E+00 -0.88817841970E-15  0.00000000000E+00  0.91188000000E+02  0.91188000000E+02 0.  0.
    9900012    2    3    3    0    0 -0.11767918434E+02 -0.41124563742E+01  0.41571949048E+02  0.47787272479E+02  0.20000006541E+02 0.  0.
        -12    1    3    3    0    0  0.11767918434E+02  0.41124563742E+01 -0.41571949048E+02  0.43400727521E+02  0.00000000000E+00 0.  1.
         11    1    4    4    0    0 -0.36584202255E+01 -0.87282162678E+01  0.27421239685E+02  0.29008450215E+02  0.51100000000E-03 0. -1.
        -11    1    4    4    0    0 -0.11546493659E+01 -0.14528306613E+01  0.65928894302E+01  0.68490965381E+01  0.51100000000E-03 0.  1.
        -12    1    4    4    0    0 -0.69548488430E+01  0.60685905548E+01  0.75578199325E+01  0.11929725725E+02  0.00000000000E+00 0.  1.
</event>
<event>
 8    1  0.1280823E-010  0.9118800E+02  0.7816164E-02  0.1184000E+00
        -11   -1    0    0    0    0  0.00000000000E+00  0.00000000000E+00  0.45593999997E+02  0.45594000000E+02  0.51100000000E-03 0. -1.
         11   -1    0    0    0    0 -0.00000000000E+00 -0.00000000000E+00 -0.45593999997E+02  0.45594000000E+02  0.51100000000E-03 0.  1.
         23    2    1    2    0    0  0.00000000000E+00  0.00000000000E+00  0.00000000000E+00  0.91188000000E+02  0.91188000000E+02 0.  0.
    9900012    2    3    3    0    0 -0.20060849408E+02  0.25095205861E+02 -0.29179037612E+02  0.47787271064E+02  0.20000000091E+02 0.  0.
         12    1    3    3    0    0  0.20060849408E+02 -0.25095205861E+02  0.29179037612E+02  0.43400728936E+02  0.00000000000E+00 0. -1.
         11    1    4    4    0    0 -0.95945817068E+00 -0.10449446540E+01 -0.47161518397E+01  0.49248916483E+01  0.51100000000E-03 0. -1.
        -11    1    4    4    0    0 -0.48909375960E+01  0.34053119200E+01 -0.11783203858E+02  0.13204594400E+02  0.51100000000E-03 0.  1.
         12    1    4    4    0    0 -0.14210453641E+02  0.22734838595E+02 -0.12679681915E+02  0.29657785016E+02  0.00000000000E+00 0. -1.
</event>
<event>
 8    1  0.1280823E-010  0.9118800E+02  0.7816164E-02  0.1184000E+00
        -11   -1    0    0    0    0  0.00000000000E+00  0.00000000000E+00  0.45593999997E+02  0.45594000000E+02  0.51100000000E-03 0. -1.
         11   -1    0    0    0    0 -0.00000000000E+00 -0.00000000000E+00 -0.45593999997E+02  0.45594000000E+02  0.51100000000E-03 0.  1.
         23    2    1    2    0    0  0.00000000000E+00  0.00000000000E+00  0.71054273576E-14  0.91188000000E+02  0.91188000000E+02 0.  0.
    9900012    2    3    3    0    0  0.23058029839E+02  0.29001651225E+01  0.36654325178E+02  0.47787271296E+02  0.20000001145E+02 0.  0.
        -12    1    3    3    0    0 -0.23058029839E+02 -0.29001651225E+01 -0.36654325178E+02  0.43400728704E+02  0.00000000000E+00 0.  1.
         11    1    4    4    0    0  0.56910648914E+01 -0.15332471248E+01  0.13996529751E+02  0.15186899344E+02  0.51100000000E-03 0. -1.
        -11    1    4    4    0    0  0.60875810071E+01 -0.49147486588E+01  0.12596122392E+02  0.14828206111E+02  0.51100000000E-03 0.  1.
        -12    1    4    4    0    0  0.11279383941E+02  0.93481609061E+01  0.10061673036E+02  0.17772165841E+02  0.00000000000E+00 0.  1.
</event>
<event>
 8    1  0.1280823E-010  0.9118800E+02  0.7816164E-02  0.1184000E+00
        -11   -1    0    0    0    0  0.00000000000E+00  0.00000000000E+00  0.45593999997E+02  0.45594000000E+02  0.51100000000E-03 0.  1.
         11   -1    0    0    0    0 -0.00000000000E+00 -0.00000000000E+00 -0.45593999997E+02  0.45594000000E+02  0.51100000000E-03 0. -1.
         23    2    1    2    0    0  0.00000000000E+00  0.71054273576E-14  0.00000000000E+00  0.91188000000E+02  0.91188000000E+02 0.  0.
    9900012    2    3    3    0    0 -0.30982331238E+02 -0.28909502631E+02 -0.93786177293E+01  0.47787278096E+02  0.20000032151E+02 0.  0.
        -12    1    3    3    0    0  0.30982331238E+02  0.28909502631E+02  0.93786177293E+01  0.43400721904E+02  0.00000000000E+00 0.  1.
         11    1    4    4    0    0 -0.26921031501E+01 -0.42027539612E+00 -0.32919141463E+01  0.42732598549E+01  0.51100000000E-03 0. -1.
        -11    1    4    4    0    0 -0.98569512731E+01 -0.20955613899E+02 -0.27041821543E+01  0.23315442172E+02  0.51100000000E-03 0.  1.
         12    1    4    4    0    0 -0.18433276814E+02 -0.75336133351E+01 -0.33825214288E+01  0.20198576069E+02  0.00000000000E+00 0. -1.
</event>
<event>
 8    1  0.1280823E-010  0.9118800E+02  0.7816164E-02  0.1184000E+00
        -11   -1    0    0    0    0  0.00000000000E+00  0.00000000000E+00  0.45593999997E+02  0.45594000000E+02  0.51100000000E-03 0. -1.
         11   -1    0    0    0    0 -0.00000000000E+00 -0.00000000000E+00 -0.45593999997E+02  0.45594000000E+02  0.51100000000E-03 0.  1.
         23    2    1    2    0    0  0.00000000000E+00  0.00000000000E+00  0.00000000000E+00  0.91188000000E+02  0.91188000000E+02 0.  0.
    9900012    2    3    3    0    0  0.14282778320E+02 -0.18482262769E+02 -0.36579111402E+02  0.47787272073E+02  0.20000004692E+02 0.  0.
         12    1    3    3    0    0 -0.14282778320E+02  0.18482262769E+02  0.36579111402E+02  0.43400727927E+02  0.00000000000E+00 0. -1.
         11    1    4    4    0    0  0.17163374463E+01 -0.12784316726E+02 -0.14159588179E+02  0.19154072832E+02  0.51100000000E-03 0. -1.
        -11    1    4    4    0    0  0.51976941841E+00 -0.88970208074E+00 -0.11868059589E+02  0.11912706188E+02  0.51100000000E-03 0.  1.
         12    1    4    4    0    0  0.12046671455E+02 -0.48082439620E+01 -0.10551463633E+02  0.16720493053E+02  0.00000000000E+00 0. -1.
</event>
<event>
 8    1  0.1280823E-010  0.9118800E+02  0.7816164E-02  0.1184000E+00
        -11   -1    0    0    0    0  0.00000000000E+00  0.00000000000E+00  0.45593999997E+02  0.45594000000E+02  0.51100000000E-03 0. -1.
         11   -1    0    0    0    0 -0.00000000000E+00 -0.00000000000E+00 -0.45593999997E+02  0.45594000000E+02  0.51100000000E-03 0.  1.
         23    2    1    2    0    0  0.00000000000E+00  0.71054273576E-14  0.00000000000E+00  0.91188000000E+02  0.91188000000E+02 0.  0.
    9900012    2    3    3    0    0 -0.12169798688E+02  0.35004556413E+02 -0.22587627013E+02  0.47787264248E+02  0.19999969013E+02 0.  0.
         12    1    3    3    0    0  0.12169798688E+02 -0.35004556413E+02  0.22587627013E+02  0.43400735752E+02  0.00000000000E+00 0. -1.
         11    1    4    4    0    0 -0.16709123204E+01  0.33461584263E+01 -0.57931782617E+01  0.68956246149E+01  0.51100000000E-03 0. -1.
        -11    1    4    4    0    0 -0.12765344773E+01  0.23884781250E+02 -0.58941027431E+01  0.24634381727E+02  0.51100000000E-03 0.  1.
        -12    1    4    4    0    0 -0.92223518903E+01  0.77736167359E+01 -0.10900346008E+02  0.16257257906E+02  0.00000000000E+00 0.  1.
</event>
<event>
 8    1  0.1280823E-010  0.9118800E+02  0.7816164E-02  0.1184000E+00
        -11   -1    0    0    0    0  0.00000000000E+00  0.00000000000E+00  0.45593999997E+02  0.45594000000E+02  0.51100000000E-03 0. -1.
         11   -1    0    0    0    0 -0.00000000000E+00 -0.00000000000E+00 -0.45593999997E+02  0.45594000000E+02  0.51100000000E-03 0.  1.
         23    2    1    2    0    0  0.00000000000E+00  0.22204460493E-15  0.00000000000E+00  0.91188000000E+02  0.91188000000E+02 0.  0.
    9900012    2    3    3    0    0  0.23953344830E+02  0.14307735812E+01 -0.36163714152E+02  0.47787261955E+02  0.19999958559E+02 0.  0.
         12    1    3    3    0    0 -0.23953344830E+02 -0.14307735812E+01  0.36163714152E+02  0.43400738045E+02  0.00000000000E+00 0. -1.
         11    1    4    4    0    0  0.31442452082E+01 -0.38455369940E+01 -0.41276009854E+01  0.64584458546E+01  0.51100000000E-03 0. -1.
        -11    1    4    4    0    0  0.12101935595E+01  0.95268026667E+00 -0.14780670407E+02  0.14860699380E+02  0.51100000000E-03 0.  1.
         12    1    4    4    0    0  0.19598906062E+02  0.43236303085E+01 -0.17255442760E+02  0.26468116720E+02  0.00000000000E+00 0. -1.
</event>
<event>
 8    1  0.1280823E-010  0.9118800E+02  0.7816164E-02  0.1184000E+00
        -11   -1    0    0    0    0  0.00000000000E+00  0.00000000000E+00  0.45593999997E+02  0.45594000000E+02  0.51100000000E-03 0. -1.
         11   -1    0    0    0    0 -0.00000000000E+00 -0.00000000000E+00 -0.45593999997E+02  0.45594000000E+02  0.51100000000E-03 0.  1.
         23    2    1    2    0    0  0.00000000000E+00  0.00000000000E+00  0.00000000000E+00  0.91188000000E+02  0.91188000000E+02 0.  0.
    9900012    2    3    3    0    0  0.35872151825E+02  0.18745237311E+02  0.15666133257E+02  0.47787275011E+02  0.20000018084E+02 0.  0.
        -12    1    3    3    0    0 -0.35872151825E+02 -0.18745237311E+02 -0.15666133257E+02  0.43400724989E+02  0.00000000000E+00 0.  1.
         11    1    4    4    0    0  0.10716072560E+02  0.17997472833E+00  0.56595975286E+01  0.12120133929E+02  0.51100000000E-03 0. -1.
        -11    1    4    4    0    0  0.49434926774E+01 -0.16789808689E+01  0.36272060574E+01  0.63571786709E+01  0.51100000000E-03 0.  1.
        -12    1    4    4    0    0  0.20212586587E+02  0.20244243451E+02  0.63793296705E+01  0.29309962410E+02  0.00000000000E+00 0.  1.
</event>
<event>
 8    1  0.1280823E-010  0.9118800E+02  0.7816164E-02  0.1184000E+00
        -11   -1    0    0    0    0  0.00000000000E+00  0.00000000000E+00  0.45593999997E+02  0.45594000000E+02  0.51100000000E-03 0.  1.
         11   -1    0    0    0    0 -0.00000000000E+00 -0.00000000000E+00 -0.45593999997E+02  0.45594000000E+02  0.51100000000E-03 0. -1.
         23    2    1    2    0    0  0.00000000000E+00  0.00000000000E+00  0.35527136788E-14  0.91188000000E+02  0.91188000000E+02 0.  0.
    9900012    2    3    3    0    0  0.21749001368E+01 -0.39019268858E+02  0.18878288081E+02  0.47787270816E+02  0.19999998957E+02 0.  0.
        -12    1    3    3    0    0 -0.21749001368E+01  0.39019268858E+02 -0.18878288081E+02  0.43400729184E+02  0.00000000000E+00 0.  1.
         11    1    4    4    0    0 -0.16069474079E+01 -0.24063695863E+02  0.42691960719E+01  0.24492239055E+02  0.51100000000E-03 0. -1.
        -11    1    4    4    0    0  0.21058832924E+01 -0.58315785414E+01  0.25649531936E+00  0.62054687845E+01  0.51100000000E-03 0.  1.
        -12    1    4    4    0    0  0.16759642523E+01 -0.91239944538E+01  0.14352596690E+02  0.17089562976E+02  0.00000000000E+00 0.  1.
</event>
<event>
 8    1  0.1280823E-010  0.9118800E+02  0.7816164E-02  0.1184000E+00
        -11   -1    0    0    0    0  0.00000000000E+00  0.00000000000E+00  0.45593999997E+02  0.45594000000E+02  0.51100000000E-03 0. -1.
         11   -1    0    0    0    0 -0.00000000000E+00 -0.00000000000E+00 -0.45593999997E+02  0.45594000000E+02  0.51100000000E-03 0.  1.
         23    2    1    2    0    0  0.00000000000E+00 -0.88817841970E-15  0.35527136788E-14  0.91188000000E+02  0.91188000000E+02 0.  0.
    9900012    2    3    3    0    0 -0.32509643471E+02 -0.33023328246E+01 -0.28562924128E+02  0.47787274713E+02  0.20000016725E+02 0.  0.
         12    1    3    3    0    0  0.32509643471E+02  0.33023328246E+01  0.28562924128E+02  0.43400725287E+02  0.00000000000E+00 0. -1.
         11    1    4    4    0    0 -0.22414720526E+02 -0.89449618826E-01 -0.16162420786E+02  0.27634245845E+02  0.51100000000E-03 0. -1.
        -11    1    4    4    0    0 -0.73384735301E+01  0.23281491641E+01 -0.11586184760E+02  0.13910900396E+02  0.51100000000E-03 0.  1.
         12    1    4    4    0    0 -0.27564494148E+01 -0.55410323698E+01 -0.81431858248E+00  0.62421284714E+01  0.00000000000E+00 0. -1.
</event>
<event>
 8    1  0.1280823E-010  0.9118800E+02  0.7816164E-02  0.1184000E+00
        -11   -1    0    0    0    0  0.00000000000E+00  0.00000000000E+00  0.45593999997E+02  0.45594000000E+02  0.51100000000E-03 0.  1.
         11   -1    0    0    0    0 -0.00000000000E+00 -0.00000000000E+00 -0.45593999997E+02  0.45594000000E+02  0.51100000000E-03 0. -1.
         23    2    1    2    0    0  0.88817841970E-15  0.00000000000E+00  0.00000000000E+00  0.91188000000E+02  0.91188000000E+02 0.  0.
    9900012    2    3    3    0    0 -0.64848071109E+01  0.37983883115E+02  0.19969850677E+02  0.47787273787E+02  0.20000012506E+02 0.  0.
        -12    1    3    3    0    0  0.64848071109E+01 -0.37983883115E+02 -0.19969850677E+02  0.43400726213E+02  0.00000000000E+00 0.  1.
         11    1    4    4    0    0  0.91958098742E-01  0.53354319607E+00 -0.61070149380E+00  0.81613798444E+00  0.51100000000E-03 0. -1.
        -11    1    4    4    0    0  0.47047186664E+01  0.22343306445E+02  0.75389518160E+01  0.24045654812E+02  0.51100000000E-03 0.  1.
         12    1    4    4    0    0 -0.11281483876E+02  0.15107033474E+02  0.13041600355E+02  0.22925480990E+02  0.00000000000E+00 0. -1.
</event>
<event>
 8    1  0.1280823E-010  0.9118800E+02  0.7816164E-02  0.1184000E+00
        -11   -1    0    0    0    0  0.00000000000E+00  0.00000000000E+00  0.45593999997E+02  0.45594000000E+02  0.51100000000E-03 0. -1.
         11   -1    0    0    0    0 -0.00000000000E+00 -0.00000000000E+00 -0.45593999997E+02  0.45594000000E+02  0.51100000000E-03 0.  1.
         23    2    1    2    0    0 -0.71054273576E-14  0.00000000000E+00  0.00000000000E+00  0.91188000000E+02  0.91188000000E+02 0.  0.
    9900012    2    3    3    0    0 -0.39851597259E+02 -0.40621003720E+01  0.16702466425E+02  0.47787275949E+02  0.20000022360E+02 0.  0.
        -12    1    3    3    0    0  0.39851597259E+02  0.40621003720E+01 -0.16702466425E+02  0.43400724051E+02  0.00000000000E+00 0.  1.
         11    1    4    4    0    0 -0.80173022088E+01 -0.11687494273E+01  0.10514068963E+02  0.13273611278E+02  0.51100000000E-03 0. -1.
        -11    1    4    4    0    0 -0.87831354162E+01 -0.24867561875E+01  0.69081209658E+01  0.11447687959E+02  0.51100000000E-03 0.  1.
        -12    1    4    4    0    0 -0.23051159634E+02 -0.40659475723E+00 -0.71972350330E+00  0.23065976712E+02  0.00000000000E+00 0.  1.
</event>
<event>
 8    1  0.1280823E-010  0.9118800E+02  0.7816164E-02  0.1184000E+00
        -11   -1    0    0    0    0  0.00000000000E+00  0.00000000000E+00  0.45593999997E+02  0.45594000000E+02  0.51100000000E-03 0. -1.
         11   -1    0    0    0    0 -0.00000000000E+00 -0.00000000000E+00 -0.45593999997E+02  0.45594000000E+02  0.51100000000E-03 0.  1.
         23    2    1    2    0    0  0.44408920985E-15  0.35527136788E-14  0.00000000000E+00  0.91188000000E+02  0.91188000000E+02 0.  0.
    9900012    2    3    3    0    0  0.38220495602E+01  0.31918757584E+02 -0.29158367380E+02  0.47787244974E+02  0.19999881134E+02 0.  0.
         12    1    3    3    0    0 -0.38220495602E+01 -0.31918757584E+02  0.29158367380E+02  0.43400755026E+02  0.00000000000E+00 0. -1.
         11    1    4    4    0    0 -0.30486862487E+01  0.16913874780E+02 -0.85791759928E+01  0.19208745636E+02  0.51100000000E-03 0. -1.
        -11    1    4    4    0    0  0.26000240090E+01  0.15197970748E+02 -0.14649750861E+02  0.21268606919E+02  0.51100000000E-03 0.  1.
         12    1    4    4    0    0  0.42707117999E+01 -0.19308794420E+00 -0.59294405258E+01  0.73098924193E+01  0.00000000000E+00 0. -1.
</event>
<event>
 8    1  0.1280823E-010  0.9118800E+02  0.7816164E-02  0.1184000E+00
        -11   -1    0    0    0    0  0.00000000000E+00  0.00000000000E+00  0.45593999997E+02  0.45594000000E+02  0.51100000000E-03 0. -1.
         11   -1    0    0    0    0 -0.00000000000E+00 -0.00000000000E+00 -0.45593999997E+02  0.45594000000E+02  0.51100000000E-03 0.  1.
         23    2    1    2    0    0  0.00000000000E+00  0.00000000000E+00  0.00000000000E+00  0.91188000000E+02  0.91188000000E+02 0.  0.
    9900012    2    3    3    0    0  0.29960036479E+02  0.85639447358E+01  0.30210567504E+02  0.47787270465E+02  0.19999997357E+02 0.  0.
        -12    1    3    3    0    0 -0.29960036479E+02 -0.85639447358E+01 -0.30210567504E+02  0.43400729535E+02  0.00000000000E+00 0.  1.
         11    1    4    4    0    0  0.13314533592E+01  0.70435812461E+00  0.35622643798E+01  0.38676370290E+01  0.51100000000E-03 0.  1.
        -11    1    4    4    0    0  0.86042978891E+01  0.11293543366E+02  0.14266345831E+02  0.20127262297E+02  0.51100000000E-03 0. -1.
         12    1    4    4    0    0  0.20024285231E+02 -0.34339567552E+01  0.12381957294E+02  0.23792371139E+02  0.00000000000E+00 0. -1.
</event>
<event>
 8    1  0.1373186E-010  0.9118800E+02  0.7816164E-02  0.1184000E+00
        -11   -1    0    0    0    0  0.00000000000E+00  0.00000000000E+00  0.45593999997E+02  0.45594000000E+02  0.51100000000E-03 0. -1.
         11   -1    0    0    0    0 -0.00000000000E+00 -0.00000000000E+00 -0.45593999997E+02  0.45594000000E+02  0.51100000000E-03 0.  1.
         23    2    1    2    0    0  0.00000000000E+00 -0.17763568394E-14  0.00000000000E+00  0.91188000000E+02  0.91188000000E+02 0.  0.
    9900012    2    3    3    0    0 -0.10346046845E+02 -0.70140085974E+01 -0.41561839836E+02  0.47787268066E+02  0.19999986418E+02 0.  0.
         12    1    3    3    0    0  0.10346046845E+02  0.70140085974E+01  0.41561839836E+02  0.43400731934E+02  0.00000000000E+00 0. -1.
         11    1    4    4    0    0 -0.11498808408E+02 -0.44100326782E+01 -0.16596134478E+02  0.20666462273E+02  0.51100000000E-03 0. -1.
        -11    1    4    4    0    0  0.95850659185E+00 -0.33376222504E+01 -0.17424910428E+01  0.38851940065E+01  0.51100000000E-03 0.  1.
        -12    1    4    4    0    0  0.19425497101E+00  0.73364633123E+00 -0.23223214315E+02  0.23235611786E+02  0.00000000000E+00 0.  1.
</event>
<event>
 8    1  0.1280823E-010  0.9118800E+02  0.7816164E-02  0.1184000E+00
        -11   -1    0    0    0    0  0.00000000000E+00  0.00000000000E+00  0.45593999997E+02  0.45594000000E+02  0.51100000000E-03 0.  1.
         11   -1    0    0    0    0 -0.00000000000E+00 -0.00000000000E+00 -0.45593999997E+02  0.45594000000E+02  0.51100000000E-03 0. -1.
         23    2    1    2    0    0  0.71054273576E-14  0.00000000000E+00  0.00000000000E+00  0.91188000000E+02  0.91188000000E+02 0.  0.
    9900012    2    3    3    0    0 -0.39102710573E+02 -0.18126042139E+02 -0.51037063570E+01  0.47787271938E+02  0.20000004074E+02 0.  0.
         12    1    3    3    0    0  0.39102710573E+02  0.18126042139E+02  0.51037063570E+01  0.43400728062E+02  0.00000000000E+00 0. -1.
         11    1    4    4    0    0 -0.68907964605E+01 -0.99410950487E+01 -0.33974122682E+01  0.12563871100E+02  0.51100000000E-03 0. -1.
        -11    1    4    4    0    0 -0.12066756725E+02 -0.81500886516E+01  0.21298728456E+01  0.14716212878E+02  0.51100000000E-03 0.  1.
         12    1    4    4    0    0 -0.20145157387E+02 -0.34858438572E-01 -0.38361669344E+01  0.20507187960E+02  0.00000000000E+00 0. -1.
</event>
<event>
 8    1  0.1280823E-010  0.9118800E+02  0.7816164E-02  0.1184000E+00
        -11   -1    0    0    0    0  0.00000000000E+00  0.00000000000E+00  0.45593999997E+02  0.45594000000E+02  0.51100000000E-03 0. -1.
         11   -1    0    0    0    0 -0.00000000000E+00 -0.00000000000E+00 -0.45593999997E+02  0.45594000000E+02  0.51100000000E-03 0.  1.
         23    2    1    2    0    0  0.00000000000E+00  0.00000000000E+00  0.35527136788E-14  0.91188000000E+02  0.91188000000E+02 0.  0.
    9900012    2    3    3    0    0 -0.33738282177E+02 -0.12743262284E+02 -0.24144578544E+02  0.47787273151E+02  0.20000009607E+02 0.  0.
         12    1    3    3    0    0  0.33738282177E+02  0.12743262284E+02  0.24144578544E+02  0.43400726849E+02  0.00000000000E+00 0. -1.
         11    1    4    4    0    0 -0.47461069769E+00  0.28719013280E+01 -0.26814093473E+01  0.39576544696E+01  0.51100000000E-03 0. -1.
        -11    1    4    4    0    0 -0.59518222999E+01 -0.13001420121E+01  0.28015315216E+00  0.60986100048E+01  0.51100000000E-03 0.  1.
        -12    1    4    4    0    0 -0.27311849180E+02 -0.14315021600E+02 -0.21743322349E+02  0.37731008677E+02  0.00000000000E+00 0.  1.
</event>
<event>
 8    1  0.1280823E-010  0.9118800E+02  0.7816164E-02  0.1184000E+00
        -11   -1    0    0    0    0  0.00000000000E+00  0.00000000000E+00  0.45593999997E+02  0.45594000000E+02  0.51100000000E-03 0. -1.
         11   -1    0    0    0    0 -0.00000000000E+00 -0.00000000000E+00 -0.45593999997E+02  0.45594000000E+02  0.51100000000E-03 0.  1.
         23    2    1    2    0    0  0.00000000000E+00  0.00000000000E+00  0.00000000000E+00  0.91188000000E+02  0.91188000000E+02 0.  0.
    9900012    2    3    3    0    0 -0.19763800685E+02 -0.30914567252E+02  0.23179837754E+02  0.47787272308E+02  0.20000005761E+02 0.  0.
        -12    1    3    3    0    0  0.19763800685E+02  0.30914567252E+02 -0.23179837754E+02  0.43400727692E+02  0.00000000000E+00 0.  1.
         11    1    4    4    0    0 -0.63858174409E+01 -0.27026484717E+01  0.10248791320E+02  0.12374194799E+02  0.51100000000E-03 0. -1.
        -11    1    4    4    0    0 -0.56806719702E+01 -0.28233550991E+01  0.14593104852E+01  0.65092976121E+01  0.51100000000E-03 0.  1.
        -12    1    4    4    0    0 -0.76973112740E+01 -0.25388563681E+02  0.11471735949E+02  0.28903779897E+02  0.00000000000E+00 0.  1.
</event>
<event>
 8    1  0.1280823E-010  0.9118800E+02  0.7816164E-02  0.1184000E+00
        -11   -1    0    0    0    0  0.00000000000E+00  0.00000000000E+00  0.45593999997E+02  0.45594000000E+02  0.51100000000E-03 0. -1.
         11   -1    0    0    0    0 -0.00000000000E+00 -0.00000000000E+00 -0.45593999997E+02  0.45594000000E+02  0.51100000000E-03 0.  1.
         23    2    1    2    0    0  0.35527136788E-14 -0.22204460493E-15  0.00000000000E+00  0.91188000000E+02  0.91188000000E+02 0.  0.
    9900012    2    3    3    0    0  0.31773131668E+02  0.15635043182E+01 -0.29523669577E+02  0.47787268358E+02  0.19999987752E+02 0.  0.
         12    1    3    3    0    0 -0.31773131668E+02 -0.15635043182E+01  0.29523669577E+02  0.43400731642E+02  0.00000000000E+00 0. -1.
         11    1    4    4    0    0  0.13037183456E+02 -0.45020001879E+01 -0.11712662038E+02  0.18094822752E+02  0.51100000000E-03 0. -1.
        -11    1    4    4    0    0  0.33429309702E+01  0.21808787248E+01 -0.12229284346E+02  0.12864167885E+02  0.51100000000E-03 0.  1.
         12    1    4    4    0    0  0.15393017242E+02  0.38846257812E+01 -0.55817231932E+01  0.16828277722E+02  0.00000000000E+00 0. -1.
</event>
<event>
 8    1  0.1280823E-010  0.9118800E+02  0.7816164E-02  0.1184000E+00
        -11   -1    0    0    0    0  0.00000000000E+00  0.00000000000E+00  0.45593999997E+02  0.45594000000E+02  0.51100000000E-03 0. -1.
         11   -1    0    0    0    0 -0.00000000000E+00 -0.00000000000E+00 -0.45593999997E+02  0.45594000000E+02  0.51100000000E-03 0.  1.
         23    2    1    2    0    0  0.00000000000E+00  0.00000000000E+00  0.00000000000E+00  0.91188000000E+02  0.91188000000E+02 0.  0.
    9900012    2    3    3    0    0 -0.19617462347E+02 -0.38360589483E+02 -0.52195374950E+01  0.47787271595E+02  0.20000002509E+02 0.  0.
        -12    1    3    3    0    0  0.19617462347E+02  0.38360589483E+02  0.52195374950E+01  0.43400728405E+02  0.00000000000E+00 0.  1.
         11    1    4    4    0    0 -0.33580997069E+01 -0.13206030076E+02 -0.18694132382E+01  0.13753936532E+02  0.51100000000E-03 0. -1.
        -11    1    4    4    0    0 -0.38253275432E+01 -0.11435031417E+02 -0.85732393458E+01  0.14795050100E+02  0.51100000000E-03 0.  1.
         12    1    4    4    0    0 -0.12434035097E+02 -0.13719527990E+02  0.52231150889E+01  0.19238284963E+02  0.00000000000E+00 0. -1.
</event>
<event>
 8    1  0.1280823E-010  0.9118800E+02  0.7816164E-02  0.1184000E+00
        -11   -1    0    0    0    0  0.00000000000E+00  0.00000000000E+00  0.45593999997E+02  0.45594000000E+02  0.51100000000E-03 0. -1.
         11   -1    0    0    0    0 -0.00000000000E+00 -0.00000000000E+00 -0.45593999997E+02  0.45594000000E+02  0.51100000000E-03 0.  1.
         23    2    1    2    0    0  0.00000000000E+00  0.00000000000E+00  0.00000000000E+00  0.91188000000E+02  0.91188000000E+02 0.  0.
    9900012    2    3    3    0    0  0.15164158747E+02  0.26109876344E+02  0.31176049731E+02  0.47787269245E+02  0.19999991796E+02 0.  0.
        -12    1    3    3    0    0 -0.15164158747E+02 -0.26109876344E+02 -0.31176049731E+02  0.43400730755E+02  0.00000000000E+00 0.  1.
         11    1    4    4    0    0  0.71744318897E+01  0.42921887435E+01  0.18126855713E+02  0.19961920134E+02  0.51100000000E-03 0. -1.
        -11    1    4    4    0    0 -0.16200779319E+01  0.31000324135E+01  0.24125755743E+01  0.42491616388E+01  0.51100000000E-03 0.  1.
         12    1    4    4    0    0  0.96098047897E+01  0.18717655187E+02  0.10636618444E+02  0.23576187472E+02  0.00000000000E+00 0. -1.
</event>
<event>
 8    1  0.1280823E-010  0.9118800E+02  0.7816164E-02  0.1184000E+00
        -11   -1    0    0    0    0  0.00000000000E+00  0.00000000000E+00  0.45593999997E+02  0.45594000000E+02  0.51100000000E-03 0. -1.
         11   -1    0    0    0    0 -0.00000000000E+00 -0.00000000000E+00 -0.45593999997E+02  0.45594000000E+02  0.51100000000E-03 0.  1.
         23    2    1    2    0    0  0.11102230246E-15  0.35527136788E-14  0.00000000000E+00  0.91188000000E+02  0.91188000000E+02 0.  0.
    9900012    2    3    3    0    0 -0.74441126742E+00  0.31035666114E+02  0.30329137193E+02  0.47787270949E+02  0.19999999566E+02 0.  0.
        -12    1    3    3    0    0  0.74441126742E+00 -0.31035666114E+02 -0.30329137193E+02  0.43400729051E+02  0.00000000000E+00 0.  1.
         11    1    4    4    0    0  0.41231863199E+00  0.25715989042E+01 -0.96232691121E-01  0.26062211284E+01  0.51100000000E-03 0.  1.
        -11    1    4    4    0    0 -0.11505685779E+01  0.15539188802E+02  0.27981135635E+02  0.32027084606E+02  0.51100000000E-03 0. -1.
         12    1    4    4    0    0 -0.61613215280E-02  0.12924878408E+02  0.24442342493E+01  0.13153965215E+02  0.00000000000E+00 0. -1.
</event>
<event>
 8    1  0.1280823E-010  0.9118800E+02  0.7816164E-02  0.1184000E+00
        -11   -1    0    0    0    0  0.00000000000E+00  0.00000000000E+00  0.45593999997E+02  0.45594000000E+02  0.51100000000E-03 0. -1.
         11   -1    0    0    0    0 -0.00000000000E+00 -0.00000000000E+00 -0.45593999997E+02  0.45594000000E+02  0.51100000000E-03 0.  1.
         23    2    1    2    0    0 -0.35527136788E-14 -0.35527136788E-14 -0.35527136788E-14  0.91188000000E+02  0.91188000000E+02 0.  0.
    9900012    2    3    3    0    0 -0.30021040512E+02  0.13162315145E+02  0.28444938563E+02  0.47787263333E+02  0.19999964840E+02 0.  0.
        -12    1    3    3    0    0  0.30021040512E+02 -0.13162315145E+02 -0.28444938563E+02  0.43400736667E+02  0.00000000000E+00 0.  1.
         11    1    4    4    0    0 -0.21352503894E+02  0.13360442662E+02  0.16307566294E+02  0.30006125531E+02  0.51100000000E-03 0. -1.
        -11    1    4    4    0    0 -0.10721148350E+02  0.40972158299E+00  0.10963059045E+02  0.15339477097E+02  0.51100000000E-03 0.  1.
         12    1    4    4    0    0  0.20526117323E+01 -0.60784909999E+00  0.11743132235E+01  0.24416607051E+01  0.00000000000E+00 0. -1.
</event>
<event>
 8    1  0.1280823E-010  0.9118800E+02  0.7816164E-02  0.1184000E+00
        -11   -1    0    0    0    0  0.00000000000E+00  0.00000000000E+00  0.45593999997E+02  0.45594000000E+02  0.51100000000E-03 0.  1.
         11   -1    0    0    0    0 -0.00000000000E+00 -0.00000000000E+00 -0.45593999997E+02  0.45594000000E+02  0.51100000000E-03 0. -1.
         23    2    1    2    0    0 -0.17763568394E-14  0.71054273576E-14  0.35527136788E-14  0.91188000000E+02  0.91188000000E+02 0.  0.
    9900012    2    3    3    0    0  0.45359458689E+01 -0.36364471232E+02 -0.23252382297E+02  0.47787275866E+02  0.20000021983E+02 0.  0.
         12    1    3    3    0    0 -0.45359458689E+01  0.36364471232E+02  0.23252382297E+02  0.43400724134E+02  0.00000000000E+00 0. -1.
         11    1    4    4    0    0 -0.35516966623E+01 -0.12114172595E+02 -0.47286498044E+01  0.13480647465E+02  0.51100000000E-03 0. -1.
        -11    1    4    4    0    0 -0.64104418175E+00 -0.10009173391E+02 -0.13589272614E+02  0.16889725281E+02  0.51100000000E-03 0.  1.
        -12    1    4    4    0    0  0.87286867130E+01 -0.14241125246E+02 -0.49344598782E+01  0.17416903120E+02  0.00000000000E+00 0.  1.
</event>
<event>
 8    1  0.1280823E-010  0.9118800E+02  0.7816164E-02  0.1184000E+00
        -11   -1    0    0    0    0  0.00000000000E+00  0.00000000000E+00  0.45593999997E+02  0.45594000000E+02  0.51100000000E-03 0. -1.
         11   -1    0    0    0    0 -0.00000000000E+00 -0.00000000000E+00 -0.45593999997E+02  0.45594000000E+02  0.51100000000E-03 0.  1.
         23    2    1    2    0    0  0.17763568394E-14  0.00000000000E+00  0.00000000000E+00  0.91188000000E+02  0.91188000000E+02 0.  0.
    9900012    2    3    3    0    0  0.15172423502E+02 -0.29373727036E+02  0.28117626668E+02  0.47787317928E+02  0.20000213760E+02 0.  0.
        -12    1    3    3    0    0 -0.15172423502E+02  0.29373727036E+02 -0.28117626668E+02  0.43400682072E+02  0.00000000000E+00 0.  1.
         11    1    4    4    0    0  0.17881763406E+01 -0.56982500260E+01  0.17982624524E+01  0.62370967679E+01  0.51100000000E-03 0. -1.
        -11    1    4    4    0    0  0.45588110183E+01  0.74481079300E+00  0.58553178088E-01  0.46196244170E+01  0.51100000000E-03 0.  1.
         12    1    4    4    0    0  0.88254361432E+01 -0.24420287803E+02  0.26260811037E+02  0.36930596743E+02  0.00000000000E+00 0. -1.
</event>
<event>
 8    1  0.1280823E-010  0.9118800E+02  0.7816164E-02  0.1184000E+00
        -11   -1    0    0    0    0  0.00000000000E+00  0.00000000000E+00  0.45593999997E+02  0.45594000000E+02  0.51100000000E-03 0. -1.
         11   -1    0    0    0    0 -0.00000000000E+00 -0.00000000000E+00 -0.45593999997E+02  0.45594000000E+02  0.51100000000E-03 0.  1.
         23    2    1    2    0    0  0.00000000000E+00  0.00000000000E+00  0.00000000000E+00  0.91188000000E+02  0.91188000000E+02 0.  0.
    9900012    2    3    3    0    0 -0.51707093673E+01  0.18594997750E+02 -0.38873045947E+02  0.47787264086E+02  0.19999968274E+02 0.  0.
         12    1    3    3    0    0  0.51707093673E+01 -0.18594997750E+02  0.38873045947E+02  0.43400735914E+02  0.00000000000E+00 0. -1.
         11    1    4    4    0    0 -0.86956119731E+01  0.78241202147E+01 -0.19913710722E+02  0.23095159659E+02  0.51100000000E-03 0. -1.
        -11    1    4    4    0    0 -0.17695129772E+01 -0.33440911954E+00  0.31286537592E+00  0.18278103403E+01  0.51100000000E-03 0.  1.
        -12    1    4    4    0    0  0.52944155830E+01  0.11105286655E+02 -0.19272200601E+02  0.22864294086E+02  0.00000000000E+00 0.  1.
</event>
<event>
 8    1  0.1280823E-010  0.9118800E+02  0.7816164E-02  0.1184000E+00
        -11   -1    0    0    0    0  0.00000000000E+00  0.00000000000E+00  0.45593999997E+02  0.45594000000E+02  0.51100000000E-03 0. -1.
         11   -1    0    0    0    0 -0.00000000000E+00 -0.00000000000E+00 -0.45593999997E+02  0.45594000000E+02  0.51100000000E-03 0.  1.
         23    2    1    2    0    0  0.33306690739E-15  0.00000000000E+00  0.00000000000E+00  0.91188000000E+02  0.91188000000E+02 0.  0.
    9900012    2    3    3    0    0 -0.96890384260E+00  0.12809722450E+02 -0.41455945236E+02  0.47787272364E+02  0.20000006018E+02 0.  0.
         12    1    3    3    0    0  0.96890384260E+00 -0.12809722450E+02  0.41455945236E+02  0.43400727636E+02  0.00000000000E+00 0. -1.
         11    1    4    4    0    0 -0.49553662874E+01  0.29995828053E+01 -0.36383422751E+01  0.68403718335E+01  0.51100000000E-03 0. -1.
        -11    1    4    4    0    0 -0.33237054949E+01  0.41932832585E+01 -0.21976897273E+02  0.22618900431E+02  0.51100000000E-03 0.  1.
         12    1    4    4    0    0  0.73101679398E+01  0.56168563862E+01 -0.15840705687E+02  0.18328000100E+02  0.00000000000E+00 0. -1.
</event>
<event>
 8    1  0.1280823E-010  0.9118800E+02  0.7816164E-02  0.1184000E+00
        -11   -1    0    0    0    0  0.00000000000E+00  0.00000000000E+00  0.45593999997E+02  0.45594000000E+02  0.51100000000E-03 0. -1.
         11   -1    0    0    0    0 -0.00000000000E+00 -0.00000000000E+00 -0.45593999997E+02  0.45594000000E+02  0.51100000000E-03 0.  1.
         23    2    1    2    0    0  0.00000000000E+00  0.00000000000E+00  0.00000000000E+00  0.91188000000E+02  0.91188000000E+02 0.  0.
    9900012    2    3    3    0    0 -0.17329335198E+02 -0.16303129866E+02 -0.36297733093E+02  0.47787270403E+02  0.19999997077E+02 0.  0.
         12    1    3    3    0    0  0.17329335198E+02  0.16303129866E+02  0.36297733093E+02  0.43400729597E+02  0.00000000000E+00 0. -1.
         11    1    4    4    0    0 -0.15047093304E+01 -0.10293474197E+02 -0.11034345143E+02  0.15164977224E+02  0.51100000000E-03 0. -1.
        -11    1    4    4    0    0 -0.31105183248E+00 -0.40138135365E+01 -0.17687539405E+01  0.43972654130E+01  0.51100000000E-03 0.  1.
        -12    1    4    4    0    0 -0.15513574035E+02 -0.19958421324E+01 -0.23494634010E+02  0.28225027766E+02  0.00000000000E+00 0.  1.
</event>
<event>
 8    1  0.1280823E-010  0.9118800E+02  0.7816164E-02  0.1184000E+00
        -11   -1    0    0    0    0  0.00000000000E+00  0.00000000000E+00  0.45593999997E+02  0.45594000000E+02  0.51100000000E-03 0. -1.
         11   -1    0    0    0    0 -0.00000000000E+00 -0.00000000000E+00 -0.45593999997E+02  0.45594000000E+02  0.51100000000E-03 0.  1.
         23    2    1    2    0    0 -0.12212453271E-14  0.00000000000E+00  0.00000000000E+00  0.91188000000E+02  0.91188000000E+02 0.  0.
    9900012    2    3    3    0    0 -0.97989793947E+00  0.28276226454E+02 -0.32910762689E+02  0.47787268633E+02  0.19999989005E+02 0.  0.
         12    1    3    3    0    0  0.97989793947E+00 -0.28276226454E+02  0.32910762689E+02  0.43400731367E+02  0.00000000000E+00 0. -1.
         11    1    4    4    0    0 -0.15526242231E+01  0.13752028713E+01 -0.15580788707E+01  0.25941154454E+01  0.51100000000E-03 0. -1.
        -11    1    4    4    0    0  0.69537220460E+01  0.10342488305E+02 -0.50125853294E+01  0.13433068398E+02  0.51100000000E-03 0.  1.
         12    1    4    4    0    0 -0.63809957623E+01  0.16558535277E+02 -0.26340098489E+02  0.31760084790E+02  0.00000000000E+00 0. -1.
</event>
<event>
 8    1  0.1280823E-010  0.9118800E+02  0.7816164E-02  0.1184000E+00
        -11   -1    0    0    0    0  0.00000000000E+00  0.00000000000E+00  0.45593999997E+02  0.45594000000E+02  0.51100000000E-03 0.  1.
         11   -1    0    0    0    0 -0.00000000000E+00 -0.00000000000E+00 -0.45593999997E+02  0.45594000000E+02  0.51100000000E-03 0. -1.
         23    2    1    2    0    0  0.00000000000E+00  0.00000000000E+00  0.00000000000E+00  0.91188000000E+02  0.91188000000E+02 0.  0.
    9900012    2    3    3    0    0  0.19051326968E+02  0.37600588406E+02  0.10337570486E+02  0.47787277987E+02  0.20000031653E+02 0.  0.
        -12    1    3    3    0    0 -0.19051326968E+02 -0.37600588406E+02 -0.10337570486E+02  0.43400722013E+02  0.00000000000E+00 0.  1.
         11    1    4    4    0    0 -0.97431812638E+00  0.51620790712E+01 -0.44335853108E+01  0.68740843112E+01  0.51100000000E-03 0.  1.
        -11    1    4    4    0    0  0.56559619496E+01  0.83886106585E+01  0.33289601407E+01  0.10650853029E+02  0.51100000000E-03 0. -1.
        -12    1    4    4    0    0  0.14369683144E+02  0.24049898677E+02  0.11442195656E+02  0.30262340647E+02  0.00000000000E+00 0.  1.
</event>
<event>
 8    1  0.1280823E-010  0.9118800E+02  0.7816164E-02  0.1184000E+00
        -11   -1    0    0    0    0  0.00000000000E+00  0.00000000000E+00  0.45593999997E+02  0.45594000000E+02  0.51100000000E-03 0. -1.
         11   -1    0    0    0    0 -0.00000000000E+00 -0.00000000000E+00 -0.45593999997E+02  0.45594000000E+02  0.51100000000E-03 0.  1.
         23    2    1    2    0    0  0.35527136788E-14 -0.44408920985E-15  0.00000000000E+00  0.91188000000E+02  0.91188000000E+02 0.  0.
    9900012    2    3    3    0    0  0.25995707584E+02  0.24861495557E+01 -0.34665045567E+02  0.47787272626E+02  0.20000007213E+02 0.  0.
         12    1    3    3    0    0 -0.25995707584E+02 -0.24861495557E+01  0.34665045567E+02  0.43400727374E+02  0.00000000000E+00 0. -1.
         11    1    4    4    0    0  0.16947903081E+00  0.96545163277E+00  0.94773669808E+00  0.13634607098E+01  0.51100000000E-03 0. -1.
        -11    1    4    4    0    0  0.17685497683E+00  0.29500800788E+01 -0.88345344858E+01  0.93157527874E+01  0.51100000000E-03 0.  1.
         12    1    4    4    0    0  0.25649373577E+02 -0.14293821558E+01 -0.26778247779E+02  0.37108059129E+02  0.00000000000E+00 0. -1.
</event>
<event>
 8    1  0.1280823E-010  0.9118800E+02  0.7816164E-02  0.1184000E+00
        -11   -1    0    0    0    0  0.00000000000E+00  0.00000000000E+00  0.45593999997E+02  0.45594000000E+02  0.51100000000E-03 0. -1.
         11   -1    0    0    0    0 -0.00000000000E+00 -0.00000000000E+00 -0.45593999997E+02  0.45594000000E+02  0.51100000000E-03 0.  1.
         23    2    1    2    0    0  0.00000000000E+00  0.00000000000E+00  0.00000000000E+00  0.91188000000E+02  0.91188000000E+02 0.  0.
    9900012    2    3    3    0    0  0.13672423863E+02  0.15692683133E+02 -0.38084481072E+02  0.47787272164E+02  0.20000005103E+02 0.  0.
         12    1    3    3    0    0 -0.13672423863E+02 -0.15692683133E+02  0.38084481072E+02  0.43400727836E+02  0.00000000000E+00 0. -1.
         11    1    4    4    0    0  0.78880922802E+00 -0.29458325736E+01 -0.65301059230E+01  0.72071099046E+01  0.51100000000E-03 0. -1.
        -11    1    4    4    0    0  0.74026759982E+01  0.52309772846E+01 -0.50501903589E+01  0.10376278630E+02  0.51100000000E-03 0.  1.
         12    1    4    4    0    0  0.54809386367E+01  0.13407538422E+02 -0.26504184790E+02  0.30203883629E+02  0.00000000000E+00 0. -1.
</event>
<event>
 8    1  0.1280823E-010  0.9118800E+02  0.7816164E-02  0.1184000E+00
        -11   -1    0    0    0    0  0.00000000000E+00  0.00000000000E+00  0.45593999997E+02  0.45594000000E+02  0.51100000000E-03 0. -1.
         11   -1    0    0    0    0 -0.00000000000E+00 -0.00000000000E+00 -0.45593999997E+02  0.45594000000E+02  0.51100000000E-03 0.  1.
         23    2    1    2    0    0  0.00000000000E+00  0.00000000000E+00  0.00000000000E+00  0.91188000000E+02  0.91188000000E+02 0.  0.
    9900012    2    3    3    0    0 -0.11113962972E+02  0.14417401987E+02  0.39398486813E+02  0.47787280926E+02  0.20000045053E+02 0.  0.
        -12    1    3    3    0    0  0.11113962972E+02 -0.14417401987E+02 -0.39398486813E+02  0.43400719074E+02  0.00000000000E+00 0.  1.
         11    1    4    4    0    0 -0.11907540422E+01  0.98802873790E+01  0.13307388308E+02  0.16616996050E+02  0.51100000000E-03 0.  1.
        -11    1    4    4    0    0  0.25794866617E+01  0.30685967188E+01  0.97542166906E+01  0.10545841871E+02  0.51100000000E-03 0. -1.
         12    1    4    4    0    0 -0.12502695592E+02  0.14685178895E+01  0.16336881814E+02  0.20624443005E+02  0.00000000000E+00 0. -1.
</event>
<event>
 8    1  0.1280823E-010  0.9118800E+02  0.7816164E-02  0.1184000E+00
        -11   -1    0    0    0    0  0.00000000000E+00  0.00000000000E+00  0.45593999997E+02  0.45594000000E+02  0.51100000000E-03 0.  1.
         11   -1    0    0    0    0 -0.00000000000E+00 -0.00000000000E+00 -0.45593999997E+02  0.45594000000E+02  0.51100000000E-03 0. -1.
         23    2    1    2    0    0  0.00000000000E+00  0.00000000000E+00  0.88817841970E-15  0.91188000000E+02  0.91188000000E+02 0.  0.
    9900012    2    3    3    0    0  0.42803666342E+02  0.38388924408E+01  0.60607342889E+01  0.47787269043E+02  0.19999990873E+02 0.  0.
         12    1    3    3    0    0 -0.42803666342E+02 -0.38388924408E+01 -0.60607342889E+01  0.43400730957E+02  0.00000000000E+00 0. -1.
         11    1    4    4    0    0  0.16029041132E+01 -0.93389817293E+00 -0.21632749475E+01  0.28497765093E+01  0.51100000000E-03 0. -1.
        -11    1    4    4    0    0  0.11551648940E+02  0.16847961706E+01  0.95736298284E+01  0.15097467328E+02  0.51100000000E-03 0.  1.
         12    1    4    4    0    0  0.29649113289E+02  0.30879944431E+01 -0.13496205920E+01  0.29840025205E+02  0.00000000000E+00 0. -1.
</event>
<event>
 8    1  0.1280823E-010  0.9118800E+02  0.7816164E-02  0.1184000E+00
        -11   -1    0    0    0    0  0.00000000000E+00  0.00000000000E+00  0.45593999997E+02  0.45594000000E+02  0.51100000000E-03 0. -1.
         11   -1    0    0    0    0 -0.00000000000E+00 -0.00000000000E+00 -0.45593999997E+02  0.45594000000E+02  0.51100000000E-03 0.  1.
         23    2    1    2    0    0  0.00000000000E+00  0.00000000000E+00  0.12490009027E-15  0.91188000000E+02  0.91188000000E+02 0.  0.
    9900012    2    3    3    0    0 -0.41528941715E+01  0.43201398749E+02  0.12448786104E+00  0.47787275569E+02  0.20000020630E+02 0.  0.
         12    1    3    3    0    0  0.41528941715E+01 -0.43201398749E+02 -0.12448786104E+00  0.43400724431E+02  0.00000000000E+00 0. -1.
         11    1    4    4    0    0 -0.36740886322E+01  0.63715573173E+01 -0.33966638961E+01  0.81014193700E+01  0.51100000000E-03 0.  1.
        -11    1    4    4    0    0 -0.46590549929E+01  0.12577474157E+02  0.64847882668E+01  0.14898057884E+02  0.51100000000E-03 0. -1.
        -12    1    4    4    0    0  0.41802494536E+01  0.24252367275E+02 -0.29636365097E+01  0.24787798315E+02  0.00000000000E+00 0.  1.
</event>
<event>
 8    1  0.1280823E-010  0.9118800E+02  0.7816164E-02  0.1184000E+00
        -11   -1    0    0    0    0  0.00000000000E+00  0.00000000000E+00  0.45593999997E+02  0.45594000000E+02  0.51100000000E-03 0. -1.
         11   -1    0    0    0    0 -0.00000000000E+00 -0.00000000000E+00 -0.45593999997E+02  0.45594000000E+02  0.51100000000E-03 0.  1.
         23    2    1    2    0    0 -0.88817841970E-15 -0.17763568394E-14  0.00000000000E+00  0.91188000000E+02  0.91188000000E+02 0.  0.
    9900012    2    3    3    0    0  0.30079103834E+01  0.60420967099E+01  0.42872702256E+02  0.47787273552E+02  0.20000011432E+02 0.  0.
        -12    1    3    3    0    0 -0.30079103834E+01 -0.60420967099E+01 -0.42872702256E+02  0.43400726448E+02  0.00000000000E+00 0.  1.
         11    1    4    4    0    0  0.20632310404E+00  0.73525534546E+01  0.94392679857E+01  0.11966720181E+02  0.51100000000E-03 0. -1.
        -11    1    4    4    0    0  0.47626438402E+01  0.41470116337E+01  0.11351962238E+02  0.12990285938E+02  0.51100000000E-03 0.  1.
         12    1    4    4    0    0 -0.19610565609E+01 -0.54574683785E+01  0.22081472032E+02  0.22830267432E+02  0.00000000000E+00 0. -1.
</event>
<event>
 8    1  0.1280823E-010  0.9118800E+02  0.7816164E-02  0.1184000E+00
        -11   -1    0    0    0    0  0.00000000000E+00  0.00000000000E+00  0.45593999997E+02  0.45594000000E+02  0.51100000000E-03 0. -1.
         11   -1    0    0    0    0 -0.00000000000E+00 -0.00000000000E+00 -0.45593999997E+02  0.45594000000E+02  0.51100000000E-03 0.  1.
         23    2    1    2    0    0  0.00000000000E+00  0.00000000000E+00  0.17763568394E-14  0.91188000000E+02  0.91188000000E+02 0.  0.
    9900012    2    3    3    0    0  0.34961858281E+02 -0.20883172838E+02 -0.15006057621E+02  0.47787306369E+02  0.20000161060E+02 0.  0.
         12    1    3    3    0    0 -0.34961858281E+02  0.20883172838E+02  0.15006057621E+02  0.43400693631E+02  0.00000000000E+00 0. -1.
         11    1    4    4    0    0  0.29517931913E+01 -0.67483264015E+00  0.37253816381E+01  0.48007239815E+01  0.51100000000E-03 0. -1.
        -11    1    4    4    0    0  0.30355486697E+01 -0.24183746379E+01  0.51800696975E+00  0.39155361188E+01  0.51100000000E-03 0.  1.
        -12    1    4    4    0    0  0.28974516420E+02 -0.17789965560E+02 -0.19249446229E+02  0.39071046269E+02  0.00000000000E+00 0.  1.
</event>
<event>
 8    1  0.1280823E-010  0.9118800E+02  0.7816164E-02  0.1184000E+00
        -11   -1    0    0    0    0  0.00000000000E+00  0.00000000000E+00  0.45593999997E+02  0.45594000000E+02  0.51100000000E-03 0.  1.
         11   -1    0    0    0    0 -0.00000000000E+00 -0.00000000000E+00 -0.45593999997E+02  0.45594000000E+02  0.51100000000E-03 0. -1.
         23    2    1    2    0    0  0.17763568394E-14  0.71054273576E-14  0.00000000000E+00  0.91188000000E+02  0.91188000000E+02 0.  0.
    9900012    2    3    3    0    0  0.11332915251E+02  0.39214678312E+02  0.14744396544E+02  0.47787271980E+02  0.20000004266E+02 0.  0.
        -12    1    3    3    0    0 -0.11332915251E+02 -0.39214678312E+02 -0.14744396544E+02  0.43400728020E+02  0.00000000000E+00 0.  1.
         11    1    4    4    0    0  0.63523319203E+01  0.31088997213E+02  0.15898785015E+02  0.35491537495E+02  0.51100000000E-03 0. -1.
        -11    1    4    4    0    0 -0.11314153033E+01  0.14300267095E+01  0.19909671475E+01  0.26998198869E+01  0.51100000000E-03 0.  1.
        -12    1    4    4    0    0  0.61119986342E+01  0.66956543900E+01 -0.31453556187E+01  0.95959145985E+01  0.00000000000E+00 0.  1.
</event>
<event>
 8    1  0.1280823E-010  0.9118800E+02  0.7816164E-02  0.1184000E+00
        -11   -1    0    0    0    0  0.00000000000E+00  0.00000000000E+00  0.45593999997E+02  0.45594000000E+02  0.51100000000E-03 0. -1.
         11   -1    0    0    0    0 -0.00000000000E+00 -0.00000000000E+00 -0.45593999997E+02  0.45594000000E+02  0.51100000000E-03 0.  1.
         23    2    1    2    0    0  0.00000000000E+00  0.00000000000E+00 -0.35527136788E-14  0.91188000000E+02  0.91188000000E+02 0.  0.
    9900012    2    3    3    0    0  0.30449455019E+02  0.94791296323E+01 -0.29438072407E+02  0.47787270552E+02  0.19999997754E+02 0.  0.
         12    1    3    3    0    0 -0.30449455019E+02 -0.94791296323E+01  0.29438072407E+02  0.43400729448E+02  0.00000000000E+00 0. -1.
         11    1    4    4    0    0  0.73385001420E-01  0.76924374916E+00 -0.35300297621E+00  0.84954850738E+00  0.51100000000E-03 0. -1.
        -11    1    4    4    0    0  0.24976597381E+02  0.10474805872E+02 -0.30789767404E+02  0.41006850059E+02  0.51100000000E-03 0.  1.
        -12    1    4    4    0    0  0.53994726373E+01 -0.17649199885E+01  0.17046979725E+01  0.59308719851E+01  0.00000000000E+00 0.  1.
</event>
<event>
 8    1  0.1280823E-010  0.9118800E+02  0.7816164E-02  0.1184000E+00
        -11   -1    0    0    0    0  0.00000000000E+00  0.00000000000E+00  0.45593999997E+02  0.45594000000E+02  0.51100000000E-03 0. -1.
         11   -1    0    0    0    0 -0.00000000000E+00 -0.00000000000E+00 -0.45593999997E+02  0.45594000000E+02  0.51100000000E-03 0.  1.
         23    2    1    2    0    0 -0.44408920985E-15  0.71054273576E-14  0.00000000000E+00  0.91188000000E+02  0.91188000000E+02 0.  0.
    9900012    2    3    3    0    0  0.35336285599E+01  0.32111211424E+02  0.28982853267E+02  0.47787283261E+02  0.20000055702E+02 0.  0.
        -12    1    3    3    0    0 -0.35336285599E+01 -0.32111211424E+02 -0.28982853267E+02  0.43400716739E+02  0.00000000000E+00 0.  1.
         11    1    4    4    0    0  0.14124456904E+01  0.19147543031E+02  0.17334565275E+02  0.25867171482E+02  0.51100000000E-03 0. -1.
        -11    1    4    4    0    0 -0.21867103638E+01  0.12697014152E+02  0.46490322947E+01  0.13697057061E+02  0.51100000000E-03 0.  1.
         12    1    4    4    0    0  0.43078932333E+01  0.26665424174E+00  0.69992556974E+01  0.82230547190E+01  0.00000000000E+00 0. -1.
</event>
<event>
 8    1  0.1280823E-010  0.9118800E+02  0.7816164E-02  0.1184000E+00
        -11   -1    0    0    0    0  0.00000000000E+00  0.00000000000E+00  0.45593999997E+02  0.45594000000E+02  0.51100000000E-03 0. -1.
         11   -1    0    0    0    0 -0.00000000000E+00 -0.00000000000E+00 -0.45593999997E+02  0.45594000000E+02  0.51100000000E-03 0.  1.
         23    2    1    2    0    0  0.00000000000E+00 -0.44408920985E-15  0.17763568394E-14  0.91188000000E+02  0.91188000000E+02 0.  0.
    9900012    2    3    3    0    0  0.41362994031E+02 -0.19287153474E+01 -0.13000244233E+02  0.47787267653E+02  0.19999984538E+02 0.  0.
         12    1    3    3    0    0 -0.41362994031E+02  0.19287153474E+01  0.13000244233E+02  0.43400732347E+02  0.00000000000E+00 0. -1.
         11    1    4    4    0    0  0.18278747622E+02  0.10908568119E+01 -0.10028493096E+02  0.20877577859E+02  0.51100000000E-03 0. -1.
        -11    1    4    4    0    0  0.14944988454E+02  0.45353068255E+01 -0.11988194073E+01  0.15663934886E+02  0.51100000000E-03 0.  1.
         12    1    4    4    0    0  0.81392579548E+01 -0.75548789847E+01 -0.17729317298E+01  0.11245754908E+02  0.00000000000E+00 0. -1.
</event>
<event>
 8    1  0.1280823E-010  0.9118800E+02  0.7816164E-02  0.1184000E+00
        -11   -1    0    0    0    0  0.00000000000E+00  0.00000000000E+00  0.45593999997E+02  0.45594000000E+02  0.51100000000E-03 0. -1.
         11   -1    0    0    0    0 -0.00000000000E+00 -0.00000000000E+00 -0.45593999997E+02  0.45594000000E+02  0.51100000000E-03 0.  1.
         23    2    1    2    0    0  0.00000000000E+00  0.00000000000E+00  0.00000000000E+00  0.91188000000E+02  0.91188000000E+02 0.  0.
    9900012    2    3    3    0    0  0.31686815058E+02  0.19648583373E+02  0.22214909082E+02  0.47787271174E+02  0.20000000593E+02 0.  0.
        -12    1    3    3    0    0 -0.31686815058E+02 -0.19648583373E+02 -0.22214909082E+02  0.43400728826E+02  0.00000000000E+00 0.  1.
         11    1    4    4    0    0  0.15290525182E+02  0.88262785347E+01  0.16455658506E+02  0.24134872079E+02  0.51100000000E-03 0. -1.
        -11    1    4    4    0    0  0.11932973044E+01 -0.14656237446E+01  0.34955421935E+01  0.39737673441E+01  0.51100000000E-03 0.  1.
        -12    1    4    4    0    0  0.15202992572E+02  0.12287928583E+02  0.22637083821E+01  0.19678631752E+02  0.00000000000E+00 0.  1.
</event>
<event>
 8    1  0.1280823E-010  0.9118800E+02  0.7816164E-02  0.1184000E+00
        -11   -1    0    0    0    0  0.00000000000E+00  0.00000000000E+00  0.45593999997E+02  0.45594000000E+02  0.51100000000E-03 0. -1.
         11   -1    0    0    0    0 -0.00000000000E+00 -0.00000000000E+00 -0.45593999997E+02  0.45594000000E+02  0.51100000000E-03 0.  1.
         23    2    1    2    0    0  0.00000000000E+00 -0.26645352591E-14  0.00000000000E+00  0.91188000000E+02  0.91188000000E+02 0.  0.
    9900012    2    3    3    0    0 -0.15014843224E+02  0.39721071844E+01 -0.40526535307E+02  0.47787271705E+02  0.20000003010E+02 0.  0.
         12    1    3    3    0    0  0.15014843224E+02 -0.39721071844E+01  0.40526535307E+02  0.43400728295E+02  0.00000000000E+00 0. -1.
         11    1    4    4    0    0 -0.63247755658E+01  0.84610883745E+01 -0.12380626327E+02  0.16274910475E+02  0.51100000000E-03 0. -1.
        -11    1    4    4    0    0 -0.42401429334E+01  0.31817065507E+01 -0.10241938341E+02  0.11532535277E+02  0.51100000000E-03 0.  1.
         12    1    4    4    0    0 -0.44499247252E+01 -0.76706877407E+01 -0.17903970639E+02  0.19979825953E+02  0.00000000000E+00 0. -1.
</event>
<event>
 8    1  0.1280823E-010  0.9118800E+02  0.7816164E-02  0.1184000E+00
        -11   -1    0    0    0    0  0.00000000000E+00  0.00000000000E+00  0.45593999997E+02  0.45594000000E+02  0.51100000000E-03 0. -1.
         11   -1    0    0    0    0 -0.00000000000E+00 -0.00000000000E+00 -0.45593999997E+02  0.45594000000E+02  0.51100000000E-03 0.  1.
         23    2    1    2    0    0  0.00000000000E+00  0.00000000000E+00  0.00000000000E+00  0.91188000000E+02  0.91188000000E+02 0.  0.
    9900012    2    3    3    0    0  0.33359557154E+02 -0.10165979044E+02  0.25834421674E+02  0.47787256612E+02  0.19999934196E+02 0.  0.
        -12    1    3    3    0    0 -0.33359557154E+02  0.10165979044E+02 -0.25834421674E+02  0.43400743388E+02  0.00000000000E+00 0.  1.
         11    1    4    4    0    0  0.48087578471E+01 -0.35082289988E+01  0.11702675676E+01  0.60664115571E+01  0.51100000000E-03 0. -1.
        -11    1    4    4    0    0  0.89683952471E+01 -0.72573903798E+01  0.19091870030E+01  0.11693879754E+02  0.51100000000E-03 0.  1.
        -12    1    4    4    0    0  0.19582404060E+02  0.59964033421E+00  0.22754967103E+02  0.30026965300E+02  0.00000000000E+00 0.  1.
</event>
<event>
 8    1  0.1280823E-010  0.9118800E+02  0.7816164E-02  0.1184000E+00
        -11   -1    0    0    0    0  0.00000000000E+00  0.00000000000E+00  0.45593999997E+02  0.45594000000E+02  0.51100000000E-03 0. -1.
         11   -1    0    0    0    0 -0.00000000000E+00 -0.00000000000E+00 -0.45593999997E+02  0.45594000000E+02  0.51100000000E-03 0.  1.
         23    2    1    2    0    0  0.00000000000E+00  0.00000000000E+00 -0.71054273576E-14  0.91188000000E+02  0.91188000000E+02 0.  0.
    9900012    2    3    3    0    0  0.43899223070E+01  0.22934314582E+02  0.36583725177E+02  0.47787272460E+02  0.20000006454E+02 0.  0.
        -12    1    3    3    0    0 -0.43899223070E+01 -0.22934314582E+02 -0.36583725177E+02  0.43400727540E+02  0.00000000000E+00 0.  1.
         11    1    4    4    0    0 -0.58174024253E+01  0.72216859350E+01  0.19013036696E+02  0.21153970865E+02  0.51100000000E-03 0. -1.
        -11    1    4    4    0    0  0.11940491591E+01  0.78499041708E+01  0.56399410844E+01  0.97393883064E+01  0.51100000000E-03 0.  1.
         12    1    4    4    0    0  0.90132755731E+01  0.78627244758E+01  0.11930747397E+02  0.16893913288E+02  0.00000000000E+00 0. -1.
</event>
<event>
 8    1  0.1280823E-010  0.9118800E+02  0.7816164E-02  0.1184000E+00
        -11   -1    0    0    0    0  0.00000000000E+00  0.00000000000E+00  0.45593999997E+02  0.45594000000E+02  0.51100000000E-03 0. -1.
         11   -1    0    0    0    0 -0.00000000000E+00 -0.00000000000E+00 -0.45593999997E+02  0.45594000000E+02  0.51100000000E-03 0.  1.
         23    2    1    2    0    0  0.88817841970E-15  0.35527136788E-14  0.00000000000E+00  0.91188000000E+02  0.91188000000E+02 0.  0.
    9900012    2    3    3    0    0 -0.29392785688E+01 -0.16903953410E+02 -0.39865277538E+02  0.47787270138E+02  0.19999995868E+02 0.  0.
         12    1    3    3    0    0  0.29392785688E+01  0.16903953410E+02  0.39865277538E+02  0.43400729862E+02  0.00000000000E+00 0. -1.
         11    1    4    4    0    0 -0.19033903384E+01 -0.21183215046E+01 -0.38579800863E+00  0.28738512734E+01  0.51100000000E-03 0. -1.
        -11    1    4    4    0    0  0.51439481464E+01 -0.57696011742E+01 -0.62751433329E+01  0.99562002969E+01  0.51100000000E-03 0.  1.
        -12    1    4    4    0    0 -0.61798363768E+01 -0.90160307308E+01 -0.33204336196E+02  0.34957218568E+02  0.00000000000E+00 0.  1.
</event>
<event>
 8    1  0.1280823E-010  0.9118800E+02  0.7816164E-02  0.1184000E+00
        -11   -1    0    0    0    0  0.00000000000E+00  0.00000000000E+00  0.45593999997E+02  0.45594000000E+02  0.51100000000E-03 0.  1.
         11   -1    0    0    0    0 -0.00000000000E+00 -0.00000000000E+00 -0.45593999997E+02  0.45594000000E+02  0.51100000000E-03 0. -1.
         23    2    1    2    0    0  0.00000000000E+00  0.71054273576E-14  0.00000000000E+00  0.91188000000E+02  0.91188000000E+02 0.  0.
    9900012    2    3    3    0    0 -0.27836549206E+01 -0.43284865339E+02 -0.15149752039E+01  0.47787268992E+02  0.19999990642E+02 0.  0.
         12    1    3    3    0    0  0.27836549206E+01  0.43284865339E+02  0.15149752039E+01  0.43400731008E+02  0.00000000000E+00 0. -1.
         11    1    4    4    0    0  0.48299311399E+00 -0.59841879513E+01 -0.36659551379E+00  0.60148300322E+01  0.51100000000E-03 0. -1.
        -11    1    4    4    0    0 -0.82277772712E+01 -0.34574214358E+02  0.13933919269E+01  0.35567037529E+02  0.51100000000E-03 0.  1.
         12    1    4    4    0    0  0.49611292367E+01 -0.27264630302E+01 -0.25417716170E+01  0.62054014303E+01  0.00000000000E+00 0. -1.
</event>
<event>
 8    1  0.1280823E-010  0.9118800E+02  0.7816164E-02  0.1184000E+00
        -11   -1    0    0    0    0  0.00000000000E+00  0.00000000000E+00  0.45593999997E+02  0.45594000000E+02  0.51100000000E-03 0. -1.
         11   -1    0    0    0    0 -0.00000000000E+00 -0.00000000000E+00 -0.45593999997E+02  0.45594000000E+02  0.51100000000E-03 0.  1.
         23    2    1    2    0    0  0.44408920985E-15 -0.35527136788E-14  0.00000000000E+00  0.91188000000E+02  0.91188000000E+02 0.  0.
    9900012    2    3    3    0    0 -0.24208285304E+01  0.20853712639E+02  0.37985342599E+02  0.47787262749E+02  0.19999962176E+02 0.  0.
        -12    1    3    3    0    0  0.24208285304E+01 -0.20853712639E+02 -0.37985342599E+02  0.43400737251E+02  0.00000000000E+00 0.  1.
         11    1    4    4    0    0 -0.16723731878E+00  0.61814416468E+00  0.73486545665E+01  0.73765028793E+01  0.51100000000E-03 0.  1.
        -11    1    4    4    0    0 -0.24439905369E+01  0.15150245154E+02  0.31693440150E+02  0.35213309512E+02  0.51100000000E-03 0. -1.
         12    1    4    4    0    0  0.19039932519E+00  0.50853233211E+01 -0.10567521178E+01  0.51974503578E+01  0.00000000000E+00 0. -1.
</event>
<event>
 8    1  0.1280823E-010  0.9118800E+02  0.7816164E-02  0.1184000E+00
        -11   -1    0    0    0    0  0.00000000000E+00  0.00000000000E+00  0.45593999997E+02  0.45594000000E+02  0.51100000000E-03 0.  1.
         11   -1    0    0    0    0 -0.00000000000E+00 -0.00000000000E+00 -0.45593999997E+02  0.45594000000E+02  0.51100000000E-03 0. -1.
         23    2    1    2    0    0  0.00000000000E+00 -0.66613381478E-15  0.00000000000E+00  0.91188000000E+02  0.91188000000E+02 0.  0.
    9900012    2    3    3    0    0  0.33499964843E+02  0.12842772479E+01 -0.27563135439E+02  0.47787269042E+02  0.19999990868E+02 0.  0.
         12    1    3    3    0    0 -0.33499964843E+02 -0.12842772479E+01  0.27563135439E+02  0.43400730958E+02  0.00000000000E+00 0. -1.
         11    1    4    4    0    0  0.57136468214E+01 -0.40153998341E+01 -0.44826125011E+01  0.82983739928E+01  0.51100000000E-03 0. -1.
        -11    1    4    4    0    0  0.10538974521E+02 -0.52548866244E+01 -0.95082148403E+01  0.15135718255E+02  0.51100000000E-03 0.  1.
        -12    1    4    4    0    0  0.17247343500E+02  0.10554563706E+02 -0.13572308097E+02  0.24353176793E+02  0.00000000000E+00 0.  1.
</event>
<event>
 8    1  0.1280823E-010  0.9118800E+02  0.7816164E-02  0.1184000E+00
        -11   -1    0    0    0    0  0.00000000000E+00  0.00000000000E+00  0.45593999997E+02  0.45594000000E+02  0.51100000000E-03 0. -1.
         11   -1    0    0    0    0 -0.00000000000E+00 -0.00000000000E+00 -0.45593999997E+02  0.45594000000E+02  0.51100000000E-03 0.  1.
         23    2    1    2    0    0  0.00000000000E+00 -0.71054273576E-14 -0.35527136788E-14  0.91188000000E+02  0.91188000000E+02 0.  0.
    9900012    2    3    3    0    0  0.36217516396E+01  0.35870900340E+02  0.24161637744E+02  0.47787270575E+02  0.19999997860E+02 0.  0.
        -12    1    3    3    0    0 -0.36217516396E+01 -0.35870900340E+02 -0.24161637744E+02  0.43400729425E+02  0.00000000000E+00 0.  1.
         11    1    4    4    0    0  0.22026769398E+01  0.22818402857E+02  0.19381842208E+02  0.30019778518E+02  0.51100000000E-03 0. -1.
        -11    1    4    4    0    0  0.26599848389E+01  0.15043352886E+01  0.53255503197E+01  0.61400350546E+01  0.51100000000E-03 0.  1.
        -12    1    4    4    0    0 -0.12409101391E+01  0.11548162195E+02 -0.54575478431E+00  0.11627457002E+02  0.00000000000E+00 0.  1.
</event>
<event>
 8    1  0.1280823E-010  0.9118800E+02  0.7816164E-02  0.1184000E+00
        -11   -1    0    0    0    0  0.00000000000E+00  0.00000000000E+00  0.45593999997E+02  0.45594000000E+02  0.51100000000E-03 0. -1.
         11   -1    0    0    0    0 -0.00000000000E+00 -0.00000000000E+00 -0.45593999997E+02  0.45594000000E+02  0.51100000000E-03 0.  1.
         23    2    1    2    0    0  0.22204460493E-15 -0.88817841970E-15  0.00000000000E+00  0.91188000000E+02  0.91188000000E+02 0.  0.
    9900012    2    3    3    0    0 -0.19524976411E+01 -0.62233142144E+01  0.42907833343E+02  0.47787262114E+02  0.19999959281E+02 0.  0.
        -12    1    3    3    0    0  0.19524976411E+01  0.62233142144E+01 -0.42907833343E+02  0.43400737886E+02  0.00000000000E+00 0.  1.
         11    1    4    4    0    0 -0.44212146026E+00 -0.12402312120E+01  0.21626682551E+02  0.21666726640E+02  0.51100000000E-03 0. -1.
        -11    1    4    4    0    0  0.27080044265E+01 -0.64542658099E+01  0.20399402256E+02  0.21566790391E+02  0.51100000000E-03 0.  1.
         12    1    4    4    0    0 -0.42183806073E+01  0.14711828076E+01  0.88174853677E+00  0.45537450833E+01  0.00000000000E+00 0. -1.
</event>
<event>
 8    1  0.1280823E-010  0.9118800E+02  0.7816164E-02  0.1184000E+00
        -11   -1    0    0    0    0  0.00000000000E+00  0.00000000000E+00  0.45593999997E+02  0.45594000000E+02  0.51100000000E-03 0. -1.
         11   -1    0    0    0    0 -0.00000000000E+00 -0.00000000000E+00 -0.45593999997E+02  0.45594000000E+02  0.51100000000E-03 0.  1.
         23    2    1    2    0    0  0.00000000000E+00 -0.22204460493E-15  0.00000000000E+00  0.91188000000E+02  0.91188000000E+02 0.  0.
    9900012    2    3    3    0    0 -0.13500923350E+02 -0.12069899726E+01 -0.41229743470E+02  0.47787268409E+02  0.19999987983E+02 0.  0.
         12    1    3    3    0    0  0.13500923350E+02  0.12069899726E+01  0.41229743470E+02  0.43400731591E+02  0.00000000000E+00 0. -1.
         11    1    4    4    0    0 -0.47105773831E+01  0.63799447450E+00 -0.14404131928E+02  0.15168242914E+02  0.51100000000E-03 0. -1.
        -11    1    4    4    0    0  0.30756000301E+01  0.24151093077E+01 -0.14384570435E+02  0.14906640647E+02  0.51100000000E-03 0.  1.
         12    1    4    4    0    0 -0.11865945997E+02 -0.42600937548E+01 -0.12441041107E+02  0.17712384848E+02  0.00000000000E+00 0. -1.
</event>
<event>
 8    1  0.1280823E-010  0.9118800E+02  0.7816164E-02  0.1184000E+00
        -11   -1    0    0    0    0  0.00000000000E+00  0.00000000000E+00  0.45593999997E+02  0.45594000000E+02  0.51100000000E-03 0. -1.
         11   -1    0    0    0    0 -0.00000000000E+00 -0.00000000000E+00 -0.45593999997E+02  0.45594000000E+02  0.51100000000E-03 0.  1.
         23    2    1    2    0    0 -0.17763568394E-14  0.71054273576E-14  0.17763568394E-14  0.91188000000E+02  0.91188000000E+02 0.  0.
    9900012    2    3    3    0    0  0.12631636640E+02 -0.40927646881E+02 -0.69994530314E+01  0.47787275741E+02  0.20000021415E+02 0.  0.
         12    1    3    3    0    0 -0.12631636640E+02  0.40927646881E+02  0.69994530314E+01  0.43400724259E+02  0.00000000000E+00 0. -1.
         11    1    4    4    0    0 -0.22629962629E+01 -0.10866828154E+02 -0.11289156830E+01  0.11157219954E+02  0.51100000000E-03 0. -1.
        -11    1    4    4    0    0  0.74393250650E+01 -0.25909595408E+02 -0.74163187913E+01  0.27958048507E+02  0.51100000000E-03 0.  1.
         12    1    4    4    0    0  0.74553078381E+01 -0.41512233186E+01  0.15457814428E+01  0.86720072804E+01  0.00000000000E+00 0. -1.
</event>
<event>
 8    1  0.1280823E-010  0.9118800E+02  0.7816164E-02  0.1184000E+00
        -11   -1    0    0    0    0  0.00000000000E+00  0.00000000000E+00  0.45593999997E+02  0.45594000000E+02  0.51100000000E-03 0.  1.
         11   -1    0    0    0    0 -0.00000000000E+00 -0.00000000000E+00 -0.45593999997E+02  0.45594000000E+02  0.51100000000E-03 0. -1.
         23    2    1    2    0    0  0.00000000000E+00  0.00000000000E+00 -0.88817841970E-15  0.91188000000E+02  0.91188000000E+02 0.  0.
    9900012    2    3    3    0    0  0.79523465149E+01  0.42122344251E+02 -0.67890873102E+01  0.47787269513E+02  0.19999993017E+02 0.  0.
         12    1    3    3    0    0 -0.79523465149E+01 -0.42122344251E+02  0.67890873102E+01  0.43400730487E+02  0.00000000000E+00 0. -1.
         11    1    4    4    0    0  0.13184312956E+01  0.13741573636E+02 -0.11491083780E+01  0.13852420633E+02  0.51100000000E-03 0. -1.
        -11    1    4    4    0    0  0.67802374842E+00  0.25985389270E+02 -0.99902207934E+00  0.26013423787E+02  0.51100000000E-03 0.  1.
         12    1    4    4    0    0  0.59558914708E+01  0.23953813454E+01 -0.46409568529E+01  0.79214250935E+01  0.00000000000E+00 0. -1.
</event>
<event>
 8    1  0.1280823E-010  0.9118800E+02  0.7816164E-02  0.1184000E+00
        -11   -1    0    0    0    0  0.00000000000E+00  0.00000000000E+00  0.45593999997E+02  0.45594000000E+02  0.51100000000E-03 0. -1.
         11   -1    0    0    0    0 -0.00000000000E+00 -0.00000000000E+00 -0.45593999997E+02  0.45594000000E+02  0.51100000000E-03 0.  1.
         23    2    1    2    0    0  0.00000000000E+00  0.00000000000E+00  0.00000000000E+00  0.91188000000E+02  0.91188000000E+02 0.  0.
    9900012    2    3    3    0    0 -0.90010253648E+01  0.30392855392E+01  0.42348172452E+02  0.47787269313E+02  0.19999992104E+02 0.  0.
        -12    1    3    3    0    0  0.90010253648E+01 -0.30392855392E+01 -0.42348172452E+02  0.43400730687E+02  0.00000000000E+00 0.  1.
         11    1    4    4    0    0 -0.12600875635E+01  0.42835136973E+01 -0.11608754200E+00  0.44665184251E+01  0.51100000000E-03 0. -1.
        -11    1    4    4    0    0  0.17470327422E+00  0.42012599289E+00  0.31804266578E+01  0.32128089066E+01  0.51100000000E-03 0.  1.
        -12    1    4    4    0    0 -0.79156410755E+01 -0.16643541510E+01  0.39283833336E+02  0.40107941981E+02  0.00000000000E+00 0.  1.
</event>
<event>
 8    1  0.1280823E-010  0.9118800E+02  0.7816164E-02  0.1184000E+00
        -11   -1    0    0    0    0  0.00000000000E+00  0.00000000000E+00  0.45593999997E+02  0.45594000000E+02  0.51100000000E-03 0. -1.
         11   -1    0    0    0    0 -0.00000000000E+00 -0.00000000000E+00 -0.45593999997E+02  0.45594000000E+02  0.51100000000E-03 0.  1.
         23    2    1    2    0    0 -0.35527136788E-14 -0.17763568394E-14  0.00000000000E+00  0.91188000000E+02  0.91188000000E+02 0.  0.
    9900012    2    3    3    0    0  0.21196303009E+02 -0.14609511862E+02 -0.34941413753E+02  0.47787268519E+02  0.19999988483E+02 0.  0.
         12    1    3    3    0    0 -0.21196303009E+02  0.14609511862E+02  0.34941413753E+02  0.43400731481E+02  0.00000000000E+00 0. -1.
         11    1    4    4    0    0  0.62015023584E+01  0.28995252236E+01 -0.63211979256E+01  0.93179086441E+01  0.51100000000E-03 0. -1.
        -11    1    4    4    0    0  0.99050005455E+01 -0.33819725648E+01 -0.14288090553E+02  0.17711473856E+02  0.51100000000E-03 0.  1.
         12    1    4    4    0    0  0.50898001048E+01 -0.14127064521E+02 -0.14332125274E+02  0.20757886019E+02  0.00000000000E+00 0. -1.
</event>
<event>
 8    1  0.1280823E-010  0.9118800E+02  0.7816164E-02  0.1184000E+00
        -11   -1    0    0    0    0  0.00000000000E+00  0.00000000000E+00  0.45593999997E+02  0.45594000000E+02  0.51100000000E-03 0. -1.
         11   -1    0    0    0    0 -0.00000000000E+00 -0.00000000000E+00 -0.45593999997E+02  0.45594000000E+02  0.51100000000E-03 0.  1.
         23    2    1    2    0    0 -0.17763568394E-14 -0.17763568394E-14  0.00000000000E+00  0.91188000000E+02  0.91188000000E+02 0.  0.
    9900012    2    3    3    0    0  0.94459346689E+01  0.87168463606E+01 -0.41453762292E+02  0.47787268434E+02  0.19999988099E+02 0.  0.
         12    1    3    3    0    0 -0.94459346689E+01 -0.87168463606E+01  0.41453762292E+02  0.43400731566E+02  0.00000000000E+00 0. -1.
         11    1    4    4    0    0  0.56496471951E+01  0.34188398873E+01 -0.56711343363E+01  0.87045243710E+01  0.51100000000E-03 0. -1.
        -11    1    4    4    0    0  0.85811685398E+01  0.36124144499E+01 -0.14716675287E+02  0.17414549189E+02  0.51100000000E-03 0.  1.
         12    1    4    4    0    0 -0.47848810660E+01  0.16855920235E+01 -0.21065952669E+02  0.21668194875E+02  0.00000000000E+00 0. -1.
</event>
<event>
 8    1  0.1280823E-010  0.9118800E+02  0.7816164E-02  0.1184000E+00
        -11   -1    0    0    0    0  0.00000000000E+00  0.00000000000E+00  0.45593999997E+02  0.45594000000E+02  0.51100000000E-03 0. -1.
         11   -1    0    0    0    0 -0.00000000000E+00 -0.00000000000E+00 -0.45593999997E+02  0.45594000000E+02  0.51100000000E-03 0.  1.
         23    2    1    2    0    0  0.17763568394E-14  0.00000000000E+00  0.00000000000E+00  0.91188000000E+02  0.91188000000E+02 0.  0.
    9900012    2    3    3    0    0  0.10909526905E+02  0.93407359004E+01 -0.40955539814E+02  0.47787269984E+02  0.19999995165E+02 0.  0.
         12    1    3    3    0    0 -0.10909526905E+02 -0.93407359004E+01  0.40955539814E+02  0.43400730016E+02  0.00000000000E+00 0. -1.
         11    1    4    4    0    0  0.84997041776E+01 -0.12076014735E+01 -0.62051027199E+01  0.10592760379E+02  0.51100000000E-03 0. -1.
        -11    1    4    4    0    0  0.99677315209E+00 -0.11241984453E+01 -0.38723397948E+01  0.41536001985E+01  0.51100000000E-03 0.  1.
        -12    1    4    4    0    0  0.14130495756E+01  0.11672535819E+02 -0.30878097299E+02  0.33040909406E+02  0.00000000000E+00 0.  1.
</event>
<event>
 8    1  0.1280823E-010  0.9118800E+02  0.7816164E-02  0.1184000E+00
        -11   -1    0    0    0    0  0.00000000000E+00  0.00000000000E+00  0.45593999997E+02  0.45594000000E+02  0.51100000000E-03 0.  1.
         11   -1    0    0    0    0 -0.00000000000E+00 -0.00000000000E+00 -0.45593999997E+02  0.45594000000E+02  0.51100000000E-03 0. -1.
         23    2    1    2    0    0  0.00000000000E+00 -0.35527136788E-14  0.00000000000E+00  0.91188000000E+02  0.91188000000E+02 0.  0.
    9900012    2    3    3    0    0  0.55906943988E+01  0.31171262974E+02  0.29676923942E+02  0.47787270583E+02  0.19999997897E+02 0.  0.
        -12    1    3    3    0    0 -0.55906943988E+01 -0.31171262974E+02 -0.29676923942E+02  0.43400729417E+02  0.00000000000E+00 0.  1.
         11    1    4    4    0    0 -0.65993100197E+00  0.52378642070E+01  0.26217812894E+01  0.58944438049E+01  0.51100000000E-03 0. -1.
        -11    1    4    4    0    0 -0.40298383171E+00 -0.20100597809E+00 -0.21174329370E+01  0.21647914162E+01  0.51100000000E-03 0.  1.
        -12    1    4    4    0    0  0.66536092325E+01  0.26134404745E+02  0.29172575590E+02  0.39728035362E+02  0.00000000000E+00 0.  1.
</event>
<event>
 8    1  0.1280823E-010  0.9118800E+02  0.7816164E-02  0.1184000E+00
        -11   -1    0    0    0    0  0.00000000000E+00  0.00000000000E+00  0.45593999997E+02  0.45594000000E+02  0.51100000000E-03 0. -1.
         11   -1    0    0    0    0 -0.00000000000E+00 -0.00000000000E+00 -0.45593999997E+02  0.45594000000E+02  0.51100000000E-03 0.  1.
         23    2    1    2    0    0 -0.55511151231E-16  0.00000000000E+00  0.00000000000E+00  0.91188000000E+02  0.91188000000E+02 0.  0.
    9900012    2    3    3    0    0  0.17395423056E+00  0.54044306388E+01 -0.43062571417E+02  0.47787272037E+02  0.20000004527E+02 0.  0.
         12    1    3    3    0    0 -0.17395423056E+00 -0.54044306388E+01  0.43062571417E+02  0.43400727963E+02  0.00000000000E+00 0. -1.
         11    1    4    4    0    0  0.64855819253E+01 -0.42158422186E+01 -0.22915700147E+02  0.24186058216E+02  0.51100000000E-03 0. -1.
        -11    1    4    4    0    0 -0.20661422144E+01  0.69613214889E+01 -0.11217932137E+02  0.13363043898E+02  0.51100000000E-03 0.  1.
         12    1    4    4    0    0 -0.42454854803E+01  0.26589513686E+01 -0.89289391330E+01  0.10238169924E+02  0.00000000000E+00 0. -1.
</event>
<event>
 8    1  0.1280823E-010  0.9118800E+02  0.7816164E-02  0.1184000E+00
        -11   -1    0    0    0    0  0.00000000000E+00  0.00000000000E+00  0.45593999997E+02  0.45594000000E+02  0.51100000000E-03 0. -1.
         11   -1    0    0    0    0 -0.00000000000E+00 -0.00000000000E+00 -0.45593999997E+02  0.45594000000E+02  0.51100000000E-03 0.  1.
         23    2    1    2    0    0 -0.22204460493E-15  0.00000000000E+00  0.00000000000E+00  0.91188000000E+02  0.91188000000E+02 0.  0.
    9900012    2    3    3    0    0 -0.15070285869E+01 -0.47575473648E+01  0.43112850108E+02  0.47787271475E+02  0.20000001964E+02 0.  0.
        -12    1    3    3    0    0  0.15070285869E+01  0.47575473648E+01 -0.43112850108E+02  0.43400728525E+02  0.00000000000E+00 0.  1.
         11    1    4    4    0    0  0.52204942345E+01 -0.89300562795E+00  0.16341990363E+02  0.17178814523E+02  0.51100000000E-03 0. -1.
        -11    1    4    4    0    0 -0.37982410535E+01  0.20442307228E+01  0.16204719870E+01  0.46077591159E+01  0.51100000000E-03 0.  1.
         12    1    4    4    0    0 -0.29292817680E+01 -0.59087724597E+01  0.25150387757E+02  0.26000697837E+02  0.00000000000E+00 0. -1.
</event>
<event>
 8    1  0.1280823E-010  0.9118800E+02  0.7816164E-02  0.1184000E+00
        -11   -1    0    0    0    0  0.00000000000E+00  0.00000000000E+00  0.45593999997E+02  0.45594000000E+02  0.51100000000E-03 0. -1.
         11   -1    0    0    0    0 -0.00000000000E+00 -0.00000000000E+00 -0.45593999997E+02  0.45594000000E+02  0.51100000000E-03 0.  1.
         23    2    1    2    0    0  0.00000000000E+00 -0.75286998857E-15  0.00000000000E+00  0.91188000000E+02  0.91188000000E+02 0.  0.
    9900012    2    3    3    0    0 -0.17443282425E+02 -0.23931369900E-01 -0.39741045167E+02  0.47787316302E+02  0.20000206346E+02 0.  0.
         12    1    3    3    0    0  0.17443282425E+02  0.23931369900E-01  0.39741045167E+02  0.43400683698E+02  0.00000000000E+00 0. -1.
         11    1    4    4    0    0 -0.11928673170E+02 -0.30967666299E+01 -0.11212821956E+02  0.16661650087E+02  0.51100000000E-03 0. -1.
        -11    1    4    4    0    0 -0.25217989943E+01 -0.23528128978E+01 -0.22294439643E+01  0.41067772464E+01  0.51100000000E-03 0.  1.
        -12    1    4    4    0    0 -0.29928102607E+01  0.54256481578E+01 -0.26298779247E+02  0.27018888968E+02  0.00000000000E+00 0.  1.
</event>
<event>
 8    1  0.1749559E-010  0.9118800E+02  0.7816164E-02  0.1184000E+00
        -11   -1    0    0    0    0  0.00000000000E+00  0.00000000000E+00  0.45593999997E+02  0.45594000000E+02  0.51100000000E-03 0. -1.
         11   -1    0    0    0    0 -0.00000000000E+00 -0.00000000000E+00 -0.45593999997E+02  0.45594000000E+02  0.51100000000E-03 0.  1.
         23    2    1    2    0    0  0.00000000000E+00 -0.11102230246E-15  0.71054273576E-14  0.91188000000E+02  0.91188000000E+02 0.  0.
    9900012    2    3    3    0    0  0.96556772216E+01  0.71199503907E+00 -0.42307029877E+02  0.47787264792E+02  0.19999971494E+02 0.  0.
         12    1    3    3    0    0 -0.96556772216E+01 -0.71199503907E+00  0.42307029877E+02  0.43400735208E+02  0.00000000000E+00 0. -1.
         11    1    4    4    0    0  0.16360390283E+01  0.21659957601E+01 -0.14380276579E+00  0.27182422319E+01  0.51100000000E-03 0. -1.
        -11    1    4    4    0    0  0.30427437373E+01  0.58929379395E+01 -0.23250859985E+02  0.24178244297E+02  0.51100000000E-03 0.  1.
        -12    1    4    4    0    0  0.49768944560E+01 -0.73469386605E+01 -0.18912367127E+02  0.20890778263E+02  0.00000000000E+00 0.  1.
</event>
<event>
 8    1  0.1280823E-010  0.9118800E+02  0.7816164E-02  0.1184000E+00
        -11   -1    0    0    0    0  0.00000000000E+00  0.00000000000E+00  0.45593999997E+02  0.45594000000E+02  0.51100000000E-03 0. -1.
         11   -1    0    0    0    0 -0.00000000000E+00 -0.00000000000E+00 -0.45593999997E+02  0.45594000000E+02  0.51100000000E-03 0.  1.
         23    2    1    2    0    0 -0.35527136788E-14  0.35527136788E-14 -0.35527136788E-14  0.91188000000E+02  0.91188000000E+02 0.  0.
    9900012    2    3    3    0    0  0.18414098826E+02 -0.25268613345E+02  0.30100530055E+02  0.47787265380E+02  0.19999974174E+02 0.  0.
        -12    1    3    3    0    0 -0.18414098826E+02  0.25268613345E+02 -0.30100530055E+02  0.43400734620E+02  0.00000000000E+00 0.  1.
         11    1    4    4    0    0  0.11295882738E+02 -0.11744226868E+02  0.59396114251E+01  0.17343667885E+02  0.51100000000E-03 0. -1.
        -11    1    4    4    0    0  0.13516849123E+01 -0.38434640701E-02 -0.73026880570E+00  0.15363462058E+01  0.51100000000E-03 0.  1.
        -12    1    4    4    0    0  0.57665311759E+01 -0.13520543012E+02  0.24891187436E+02  0.28907251290E+02  0.00000000000E+00 0.  1.
</event>
<event>
 8    1  0.1280823E-010  0.9118800E+02  0.7816164E-02  0.1184000E+00
        -11   -1    0    0    0    0  0.00000000000E+00  0.00000000000E+00  0.45593999997E+02  0.45594000000E+02  0.51100000000E-03 0. -1.
         11   -1    0    0    0    0 -0.00000000000E+00 -0.00000000000E+00 -0.45593999997E+02  0.45594000000E+02  0.51100000000E-03 0.  1.
         23    2    1    2    0    0  0.00000000000E+00 -0.44408920985E-15  0.00000000000E+00  0.91188000000E+02  0.91188000000E+02 0.  0.
    9900012    2    3    3    0    0  0.37833469398E+02  0.22468660162E+01  0.21147187395E+02  0.47787270187E+02  0.19999996090E+02 0.  0.
        -12    1    3    3    0    0 -0.37833469398E+02 -0.22468660162E+01 -0.21147187395E+02  0.43400729813E+02  0.00000000000E+00 0.  1.
         11    1    4    4    0    0  0.33224404936E+02  0.27173767261E+01  0.15047622061E+02  0.36574255284E+02  0.51100000000E-03 0. -1.
        -11    1    4    4    0    0  0.38712335806E+01  0.35348773503E+01  0.42086181156E+01  0.67226686681E+01  0.51100000000E-03 0.  1.
        -12    1    4    4    0    0  0.73783088133E+00 -0.40053880603E+01  0.18909472178E+01  0.44903462343E+01  0.00000000000E+00 0.  1.
</event>
<event>
 8    1  0.1280823E-010  0.9118800E+02  0.7816164E-02  0.1184000E+00
        -11   -1    0    0    0    0  0.00000000000E+00  0.00000000000E+00  0.45593999997E+02  0.45594000000E+02  0.51100000000E-03 0. -1.
         11   -1    0    0    0    0 -0.00000000000E+00 -0.00000000000E+00 -0.45593999997E+02  0.45594000000E+02  0.51100000000E-03 0.  1.
         23    2    1    2    0    0 -0.17763568394E-14  0.00000000000E+00  0.00000000000E+00  0.91188000000E+02  0.91188000000E+02 0.  0.
    9900012    2    3    3    0    0  0.15857332805E+02 -0.35308253296E+02 -0.19634041318E+02  0.47787270364E+02  0.19999996897E+02 0.  0.
         12    1    3    3    0    0 -0.15857332805E+02  0.35308253296E+02  0.19634041318E+02  0.43400729636E+02  0.00000000000E+00 0. -1.
         11    1    4    4    0    0  0.82022292420E+01 -0.42106190461E+01  0.41730598275E+00  0.92293023482E+01  0.51100000000E-03 0.  1.
        -11    1    4    4    0    0  0.33935478101E+01 -0.70500376139E+01 -0.16935680125E+01  0.80054587608E+01  0.51100000000E-03 0. -1.
        -12    1    4    4    0    0  0.42615557525E+01 -0.24047596636E+02 -0.18357779288E+02  0.30552509255E+02  0.00000000000E+00 0.  1.
</event>
<event>
 8    1  0.1280823E-010  0.9118800E+02  0.7816164E-02  0.1184000E+00
        -11   -1    0    0    0    0  0.00000000000E+00  0.00000000000E+00  0.45593999997E+02  0.45594000000E+02  0.51100000000E-03 0. -1.
         11   -1    0    0    0    0 -0.00000000000E+00 -0.00000000000E+00 -0.45593999997E+02  0.45594000000E+02  0.51100000000E-03 0.  1.
         23    2    1    2    0    0  0.66613381478E-15  0.00000000000E+00  0.00000000000E+00  0.91188000000E+02  0.91188000000E+02 0.  0.
    9900012    2    3    3    0    0  0.12651081851E+01 -0.11138508946E+02 -0.41927991016E+02  0.47787270618E+02  0.19999998056E+02 0.  0.
         12    1    3    3    0    0 -0.12651081851E+01  0.11138508946E+02  0.41927991016E+02  0.43400729382E+02  0.00000000000E+00 0. -1.
         11    1    4    4    0    0  0.59477148604E+00 -0.40939440219E+01 -0.14272442441E+02  0.14859903912E+02  0.51100000000E-03 0. -1.
        -11    1    4    4    0    0  0.29487711970E+01 -0.44744752189E+01 -0.28809833667E+02  0.29303970657E+02  0.51100000000E-03 0.  1.
         12    1    4    4    0    0 -0.22784344979E+01 -0.25700897056E+01  0.11542850926E+01  0.36233960494E+01  0.00000000000E+00 0. -1.
</event>
<event>
 8    1  0.1280823E-010  0.9118800E+02  0.7816164E-02  0.1184000E+00
        -11   -1    0    0    0    0  0.00000000000E+00  0.00000000000E+00  0.45593999997E+02  0.45594000000E+02  0.51100000000E-03 0. -1.
         11   -1    0    0    0    0 -0.00000000000E+00 -0.00000000000E+00 -0.45593999997E+02  0.45594000000E+02  0.51100000000E-03 0.  1.
         23    2    1    2    0    0  0.00000000000E+00  0.00000000000E+00 -0.17763568394E-14  0.91188000000E+02  0.91188000000E+02 0.  0.
    9900012    2    3    3    0    0  0.82487384580E+01  0.40791379065E+02 -0.12314428437E+02  0.47787269131E+02  0.19999991278E+02 0.  0.
         12    1    3    3    0    0 -0.82487384580E+01 -0.40791379065E+02  0.12314428437E+02  0.43400730869E+02  0.00000000000E+00 0. -1.
         11    1    4    4    0    0 -0.32739429248E-01  0.14661151794E+02 -0.86853908400E+01  0.17040729389E+02  0.51100000000E-03 0. -1.
        -11    1    4    4    0    0  0.52440272105E+01  0.11385045603E+02 -0.82410759108E+01  0.15001147196E+02  0.51100000000E-03 0.  1.
        -12    1    4    4    0    0  0.30374506768E+01  0.14745181668E+02  0.46120383135E+01  0.15745392546E+02  0.00000000000E+00 0.  1.
</event>
<event>
 8    1  0.1280823E-010  0.9118800E+02  0.7816164E-02  0.1184000E+00
        -11   -1    0    0    0    0  0.00000000000E+00  0.00000000000E+00  0.45593999997E+02  0.45594000000E+02  0.51100000000E-03 0. -1.
         11   -1    0    0    0    0 -0.00000000000E+00 -0.00000000000E+00 -0.45593999997E+02  0.45594000000E+02  0.51100000000E-03 0.  1.
         23    2    1    2    0    0  0.00000000000E+00 -0.17763568394E-14  0.00000000000E+00  0.91188000000E+02  0.91188000000E+02 0.  0.
    9900012    2    3    3    0    0 -0.19039261297E+02  0.10816756479E+02  0.37471680021E+02  0.47787280017E+02  0.20000040909E+02 0.  0.
        -12    1    3    3    0    0  0.19039261297E+02 -0.10816756479E+02 -0.37471680021E+02  0.43400719983E+02  0.00000000000E+00 0.  1.
         11    1    4    4    0    0 -0.10500260420E+02  0.12240535762E+01  0.15366418602E+02  0.18651557494E+02  0.51100000000E-03 0. -1.
        -11    1    4    4    0    0 -0.43941064693E+01 -0.20495275358E+01  0.12735391986E+02  0.13627139982E+02  0.51100000000E-03 0.  1.
        -12    1    4    4    0    0 -0.41448944082E+01  0.11642230439E+02  0.93698694326E+01  0.15508582541E+02  0.00000000000E+00 0.  1.
</event>
<event>
 8    1  0.1280823E-010  0.9118800E+02  0.7816164E-02  0.1184000E+00
        -11   -1    0    0    0    0  0.00000000000E+00  0.00000000000E+00  0.45593999997E+02  0.45594000000E+02  0.51100000000E-03 0. -1.
         11   -1    0    0    0    0 -0.00000000000E+00 -0.00000000000E+00 -0.45593999997E+02  0.45594000000E+02  0.51100000000E-03 0.  1.
         23    2    1    2    0    0  0.00000000000E+00  0.35527136788E-14  0.00000000000E+00  0.91188000000E+02  0.91188000000E+02 0.  0.
    9900012    2    3    3    0    0  0.12523064063E+02 -0.14893443644E+02 -0.38794087253E+02  0.47787274166E+02  0.20000014233E+02 0.  0.
         12    1    3    3    0    0 -0.12523064063E+02  0.14893443644E+02  0.38794087253E+02  0.43400725834E+02  0.00000000000E+00 0. -1.
         11    1    4    4    0    0  0.81901289442E+01 -0.86605340414E+01 -0.28036929246E+02  0.30465594755E+02  0.51100000000E-03 0. -1.
        -11    1    4    4    0    0  0.33082329728E+01 -0.91226819645E+01 -0.10417267672E+02  0.14236825406E+02  0.51100000000E-03 0.  1.
         12    1    4    4    0    0  0.10247021456E+01  0.28897723621E+01 -0.33989033573E+00  0.30848540050E+01  0.00000000000E+00 0. -1.
</event>
<event>
 8    1  0.1280823E-010  0.9118800E+02  0.7816164E-02  0.1184000E+00
        -11   -1    0    0    0    0  0.00000000000E+00  0.00000000000E+00  0.45593999997E+02  0.45594000000E+02  0.51100000000E-03 0. -1.
         11   -1    0    0    0    0 -0.00000000000E+00 -0.00000000000E+00 -0.45593999997E+02  0.45594000000E+02  0.51100000000E-03 0.  1.
         23    2    1    2    0    0  0.17763568394E-14  0.00000000000E+00  0.00000000000E+00  0.91188000000E+02  0.91188000000E+02 0.  0.
    9900012    2    3    3    0    0 -0.91599188668E+01  0.29660134201E+02  0.30331429842E+02  0.47787270620E+02  0.19999998064E+02 0.  0.
        -12    1    3    3    0    0  0.91599188668E+01 -0.29660134201E+02 -0.30331429842E+02  0.43400729380E+02  0.00000000000E+00 0.  1.
         11    1    4    4    0    0 -0.26899126860E+01  0.46887313882E+01  0.63319526599E+00  0.54424965590E+01  0.51100000000E-03 0. -1.
        -11    1    4    4    0    0  0.94966898270E+00  0.43842111682E+01 -0.10473504447E+01  0.46065303602E+01  0.51100000000E-03 0.  1.
         12    1    4    4    0    0 -0.74196751635E+01  0.20587191645E+02  0.30745585021E+02  0.37738243701E+02  0.00000000000E+00 0. -1.
</event>
<event>
 8    1  0.1280823E-010  0.9118800E+02  0.7816164E-02  0.1184000E+00
        -11   -1    0    0    0    0  0.00000000000E+00  0.00000000000E+00  0.45593999997E+02  0.45594000000E+02  0.51100000000E-03 0. -1.
         11   -1    0    0    0    0 -0.00000000000E+00 -0.00000000000E+00 -0.45593999997E+02  0.45594000000E+02  0.51100000000E-03 0.  1.
         23    2    1    2    0    0  0.00000000000E+00  0.35527136788E-14  0.00000000000E+00  0.91188000000E+02  0.91188000000E+02 0.  0.
    9900012    2    3    3    0    0  0.18110747807E+02  0.17074916432E+02 -0.35553781794E+02  0.47787270085E+02  0.19999995628E+02 0.  0.
         12    1    3    3    0    0 -0.18110747807E+02 -0.17074916432E+02  0.35553781794E+02  0.43400729915E+02  0.00000000000E+00 0. -1.
         11    1    4    4    0    0  0.61747508425E+01  0.71964265144E+01 -0.16623013507E+02  0.19137415731E+02  0.51100000000E-03 0. -1.
        -11    1    4    4    0    0  0.51837717772E+01 -0.14264475137E+01 -0.13268004744E+02  0.14315941901E+02  0.51100000000E-03 0.  1.
         12    1    4    4    0    0  0.67522251873E+01  0.11304937431E+02 -0.56627635426E+01  0.14333912454E+02  0.00000000000E+00 0. -1.
</event>
<event>
 8    1  0.1280823E-010  0.9118800E+02  0.7816164E-02  0.1184000E+00
        -11   -1    0    0    0    0  0.00000000000E+00  0.00000000000E+00  0.45593999997E+02  0.45594000000E+02  0.51100000000E-03 0. -1.
         11   -1    0    0    0    0 -0.00000000000E+00 -0.00000000000E+00 -0.45593999997E+02  0.45594000000E+02  0.51100000000E-03 0.  1.
         23    2    1    2    0    0  0.17763568394E-14  0.00000000000E+00  0.00000000000E+00  0.91188000000E+02  0.91188000000E+02 0.  0.
    9900012    2    3    3    0    0 -0.10043581745E+02 -0.38698540781E+01  0.42044904203E+02  0.47787271040E+02  0.19999999978E+02 0.  0.
        -12    1    3    3    0    0  0.10043581745E+02  0.38698540781E+01 -0.42044904203E+02  0.43400728960E+02  0.00000000000E+00 0.  1.
         11    1    4    4    0    0  0.53833615708E+00  0.76326264396E+00  0.60659071195E+00  0.11137002445E+01  0.51100000000E-03 0. -1.
        -11    1    4    4    0    0 -0.14003557109E+02 -0.12821714791E+01  0.18484314828E+02  0.23225276539E+02  0.51100000000E-03 0.  1.
         12    1    4    4    0    0  0.34216392072E+01 -0.33509452430E+01  0.22953998663E+02  0.23448294256E+02  0.00000000000E+00 0. -1.
</event>
<event>
 8    1  0.1280823E-010  0.9118800E+02  0.7816164E-02  0.1184000E+00
        -11   -1    0    0    0    0  0.00000000000E+00  0.00000000000E+00  0.45593999997E+02  0.45594000000E+02  0.51100000000E-03 0. -1.
         11   -1    0    0    0    0 -0.00000000000E+00 -0.00000000000E+00 -0.45593999997E+02  0.45594000000E+02  0.51100000000E-03 0.  1.
         23    2    1    2    0    0  0.35527136788E-14  0.00000000000E+00  0.00000000000E+00  0.91188000000E+02  0.91188000000E+02 0.  0.
    9900012    2    3    3    0    0 -0.30742699696E+02 -0.13574593521E+02  0.27463424127E+02  0.47787276058E+02  0.20000022859E+02 0.  0.
        -12    1    3    3    0    0  0.30742699696E+02  0.13574593521E+02 -0.27463424127E+02  0.43400723942E+02  0.00000000000E+00 0.  1.
         11    1    4    4    0    0 -0.28505081022E+02 -0.68431588429E+01  0.25884714336E+02  0.39107376588E+02  0.51100000000E-03 0. -1.
        -11    1    4    4    0    0 -0.33589050720E+01 -0.30362819263E+01  0.16461268368E+01  0.48177780192E+01  0.51100000000E-03 0.  1.
         12    1    4    4    0    0  0.11212863980E+01 -0.36951527516E+01 -0.67417045947E-01  0.38621214509E+01  0.00000000000E+00 0. -1.
</event>
<event>
 8    1  0.1280823E-010  0.9118800E+02  0.7816164E-02  0.1184000E+00
        -11   -1    0    0    0    0  0.00000000000E+00  0.00000000000E+00  0.45593999997E+02  0.45594000000E+02  0.51100000000E-03 0. -1.
         11   -1    0    0    0    0 -0.00000000000E+00 -0.00000000000E+00 -0.45593999997E+02  0.45594000000E+02  0.51100000000E-03 0.  1.
         23    2    1    2    0    0 -0.44408920985E-15  0.00000000000E+00  0.00000000000E+00  0.91188000000E+02  0.91188000000E+02 0.  0.
    9900012    2    3    3    0    0 -0.34931595224E+01 -0.72060069807E+01 -0.42655537955E+02  0.47787267077E+02  0.19999981911E+02 0.  0.
         12    1    3    3    0    0  0.34931595224E+01  0.72060069807E+01  0.42655537955E+02  0.43400732923E+02  0.00000000000E+00 0. -1.
         11    1    4    4    0    0 -0.40791121277E+00 -0.37083185727E+01 -0.53255742814E+01  0.65022888187E+01  0.51100000000E-03 0. -1.
        -11    1    4    4    0    0 -0.97249689369E+01  0.50023632148E+00 -0.18128667740E+02  0.20578480301E+02  0.51100000000E-03 0.  1.
         12    1    4    4    0    0  0.66397206273E+01 -0.39979247295E+01 -0.19201295933E+02  0.20706497957E+02  0.00000000000E+00 0. -1.
</event>
<event>
 8    1  0.1280823E-010  0.9118800E+02  0.7816164E-02  0.1184000E+00
        -11   -1    0    0    0    0  0.00000000000E+00  0.00000000000E+00  0.45593999997E+02  0.45594000000E+02  0.51100000000E-03 0. -1.
         11   -1    0    0    0    0 -0.00000000000E+00 -0.00000000000E+00 -0.45593999997E+02  0.45594000000E+02  0.51100000000E-03 0.  1.
         23    2    1    2    0    0  0.71054273576E-14  0.00000000000E+00  0.35527136788E-14  0.91188000000E+02  0.91188000000E+02 0.  0.
    9900012    2    3    3    0    0  0.39501934735E+02 -0.41390278726E+01  0.17495541371E+02  0.47787212364E+02  0.19999732450E+02 0.  0.
         12    1    3    3    0    0 -0.39501934735E+02  0.41390278726E+01 -0.17495541371E+02  0.43400787636E+02  0.00000000000E+00 0. -1.
         11    1    4    4    0    0  0.76113323497E+01  0.19560546148E+01 -0.95961350675E+00  0.79170315230E+01  0.51100000000E-03 0. -1.
        -11    1    4    4    0    0  0.18392150110E+01 -0.44154636650E+01  0.46632045062E+00  0.48058803832E+01  0.51100000000E-03 0.  1.
         12    1    4    4    0    0  0.30051387375E+02 -0.16796188223E+01  0.17988834427E+02  0.35064300458E+02  0.00000000000E+00 0. -1.
</event>
<event>
 8    1  0.1280823E-010  0.9118800E+02  0.7816164E-02  0.1184000E+00
        -11   -1    0    0    0    0  0.00000000000E+00  0.00000000000E+00  0.45593999997E+02  0.45594000000E+02  0.51100000000E-03 0. -1.
         11   -1    0    0    0    0 -0.00000000000E+00 -0.00000000000E+00 -0.45593999997E+02  0.45594000000E+02  0.51100000000E-03 0.  1.
         23    2    1    2    0    0  0.00000000000E+00  0.00000000000E+00  0.00000000000E+00  0.91188000000E+02  0.91188000000E+02 0.  0.
    9900012    2    3    3    0    0  0.19455602801E+02 -0.14191008062E+02 -0.36107038912E+02  0.47787269025E+02  0.19999990794E+02 0.  0.
         12    1    3    3    0    0 -0.19455602801E+02  0.14191008062E+02  0.36107038912E+02  0.43400730975E+02  0.00000000000E+00 0. -1.
         11    1    4    4    0    0  0.17447127277E+01  0.37846665776E+01 -0.11062798146E+01  0.43117953216E+01  0.51100000000E-03 0. -1.
        -11    1    4    4    0    0  0.15891830504E+01  0.68714205229E-01 -0.20745865776E+01  0.26142176915E+01  0.51100000000E-03 0.  1.
        -12    1    4    4    0    0  0.16121707023E+02 -0.18044388845E+02 -0.32926172519E+02  0.40861256012E+02  0.00000000000E+00 0.  1.
</event>
<event>
 8    1  0.1280823E-010  0.9118800E+02  0.7816164E-02  0.1184000E+00
        -11   -1    0    0    0    0  0.00000000000E+00  0.00000000000E+00  0.45593999997E+02  0.45594000000E+02  0.51100000000E-03 0. -1.
         11   -1    0    0    0    0 -0.00000000000E+00 -0.00000000000E+00 -0.45593999997E+02  0.45594000000E+02  0.51100000000E-03 0.  1.
         23    2    1    2    0    0 -0.83266726847E-15 -0.11102230246E-15  0.71054273576E-14  0.91188000000E+02  0.91188000000E+02 0.  0.
    9900012    2    3    3    0    0 -0.38134354665E+00  0.79095881527E+00 -0.43391795812E+02  0.47787320483E+02  0.20000225408E+02 0.  0.
         12    1    3    3    0    0  0.38134354665E+00 -0.79095881527E+00  0.43391795812E+02  0.43400679517E+02  0.00000000000E+00 0. -1.
         11    1    4    4    0    0 -0.36905860634E+01  0.56956504912E+00 -0.23733238615E+02  0.24025225186E+02  0.51100000000E-03 0. -1.
        -11    1    4    4    0    0 -0.43973542486E+01  0.11718107822E+01 -0.12092654035E+02  0.12920609380E+02  0.51100000000E-03 0.  1.
         12    1    4    4    0    0  0.77065967653E+01 -0.95041701603E+00 -0.75659031626E+01  0.10841485916E+02  0.00000000000E+00 0. -1.
</event>
<event>
 8    1  0.1280823E-010  0.9118800E+02  0.7816164E-02  0.1184000E+00
        -11   -1    0    0    0    0  0.00000000000E+00  0.00000000000E+00  0.45593999997E+02  0.45594000000E+02  0.51100000000E-03 0. -1.
         11   -1    0    0    0    0 -0.00000000000E+00 -0.00000000000E+00 -0.45593999997E+02  0.45594000000E+02  0.51100000000E-03 0.  1.
         23    2    1    2    0    0  0.00000000000E+00 -0.88817841970E-15  0.35527136788E-14  0.91188000000E+02  0.91188000000E+02 0.  0.
    9900012    2    3    3    0    0  0.30389775536E+02  0.79741744549E+01 -0.29941573678E+02  0.47787265563E+02  0.19999975006E+02 0.  0.
         12    1    3    3    0    0 -0.30389775536E+02 -0.79741744549E+01  0.29941573678E+02  0.43400734437E+02  0.00000000000E+00 0. -1.
         11    1    4    4    0    0  0.16528232558E+02  0.10312838769E+01 -0.10264417754E+02  0.19483436299E+02  0.51100000000E-03 0. -1.
        -11    1    4    4    0    0  0.15030272248E+02  0.52054868032E+01 -0.10905336906E+02  0.19285552883E+02  0.51100000000E-03 0.  1.
         12    1    4    4    0    0 -0.11687292697E+01  0.17374037748E+01 -0.87718190190E+01  0.90182763810E+01  0.00000000000E+00 0. -1.
</event>
<event>
 8    1  0.1280823E-010  0.9118800E+02  0.7816164E-02  0.1184000E+00
        -11   -1    0    0    0    0  0.00000000000E+00  0.00000000000E+00  0.45593999997E+02  0.45594000000E+02  0.51100000000E-03 0. -1.
         11   -1    0    0    0    0 -0.00000000000E+00 -0.00000000000E+00 -0.45593999997E+02  0.45594000000E+02  0.51100000000E-03 0.  1.
         23    2    1    2    0    0  0.00000000000E+00 -0.35527136788E-14  0.00000000000E+00  0.91188000000E+02  0.91188000000E+02 0.  0.
    9900012    2    3    3    0    0  0.20289948991E+02 -0.24017547508E+02  0.29918193221E+02  0.47787275306E+02  0.20000019431E+02 0.  0.
        -12    1    3    3    0    0 -0.20289948991E+02  0.24017547508E+02 -0.29918193221E+02  0.43400724694E+02  0.00000000000E+00 0.  1.
         11    1    4    4    0    0  0.20225685576E+01  0.25834928505E+01 -0.20591421751E+00  0.32874944570E+01  0.51100000000E-03 0. -1.
        -11    1    4    4    0    0  0.46008503925E+01 -0.30395160746E+01  0.49601456757E+01  0.74168408158E+01  0.51100000000E-03 0.  1.
         12    1    4    4    0    0  0.13666530041E+02 -0.23561524284E+02  0.25163961763E+02  0.37082940033E+02  0.00000000000E+00 0. -1.
</event>
<event>
 8    1  0.1280823E-010  0.9118800E+02  0.7816164E-02  0.1184000E+00
        -11   -1    0    0    0    0  0.00000000000E+00  0.00000000000E+00  0.45593999997E+02  0.45594000000E+02  0.51100000000E-03 0. -1.
         11   -1    0    0    0    0 -0.00000000000E+00 -0.00000000000E+00 -0.45593999997E+02  0.45594000000E+02  0.51100000000E-03 0.  1.
         23    2    1    2    0    0  0.00000000000E+00 -0.88817841970E-15  0.00000000000E+00  0.91188000000E+02  0.91188000000E+02 0.  0.
    9900012    2    3    3    0    0  0.22314657127E+02 -0.77300271180E+01  0.36413279096E+02  0.47787261107E+02  0.19999954692E+02 0.  0.
        -12    1    3    3    0    0 -0.22314657127E+02  0.77300271180E+01 -0.36413279096E+02  0.43400738893E+02  0.00000000000E+00 0.  1.
         11    1    4    4    0    0  0.29702920459E+01  0.37269058205E+01  0.70577564931E+01  0.85161252228E+01  0.51100000000E-03 0.  1.
        -11    1    4    4    0    0 -0.17073797356E+01  0.60400094495E+00  0.23660941640E+01  0.29796584632E+01  0.51100000000E-03 0. -1.
        -12    1    4    4    0    0  0.21051744817E+02 -0.12060933883E+02  0.26989428439E+02  0.36291477421E+02  0.00000000000E+00 0.  1.
</event>
<event>
 8    1  0.1280823E-010  0.9118800E+02  0.7816164E-02  0.1184000E+00
        -11   -1    0    0    0    0  0.00000000000E+00  0.00000000000E+00  0.45593999997E+02  0.45594000000E+02  0.51100000000E-03 0. -1.
         11   -1    0    0    0    0 -0.00000000000E+00 -0.00000000000E+00 -0.45593999997E+02  0.45594000000E+02  0.51100000000E-03 0.  1.
         23    2    1    2    0    0  0.00000000000E+00 -0.71054273576E-14 -0.17763568394E-14  0.91188000000E+02  0.91188000000E+02 0.  0.
    9900012    2    3    3    0    0  0.12544629922E+02  0.40142772539E+02  0.10715108207E+02  0.47787268774E+02  0.19999989650E+02 0.  0.
         12    1    3    3    0    0 -0.12544629922E+02 -0.40142772539E+02 -0.10715108207E+02  0.43400731226E+02  0.00000000000E+00 0. -1.
         11    1    4    4    0    0  0.46873803513E+01  0.77635893573E+01  0.44983948113E+01  0.10123260858E+02  0.51100000000E-03 0. -1.
        -11    1    4    4    0    0  0.66412230611E+01  0.33872678384E+02  0.75345548827E+01  0.35330351006E+02  0.51100000000E-03 0.  1.
         12    1    4    4    0    0  0.12160265095E+01 -0.14934952019E+01 -0.13178414871E+01  0.23336569103E+01  0.00000000000E+00 0. -1.
</event>
<event>
 8    1  0.1280823E-010  0.9118800E+02  0.7816164E-02  0.1184000E+00
        -11   -1    0    0    0    0  0.00000000000E+00  0.00000000000E+00  0.45593999997E+02  0.45594000000E+02  0.51100000000E-03 0. -1.
         11   -1    0    0    0    0 -0.00000000000E+00 -0.00000000000E+00 -0.45593999997E+02  0.45594000000E+02  0.51100000000E-03 0.  1.
         23    2    1    2    0    0 -0.66613381478E-15  0.00000000000E+00  0.71054273576E-14  0.91188000000E+02  0.91188000000E+02 0.  0.
    9900012    2    3    3    0    0  0.29801339868E+00 -0.15276200112E+02 -0.40622317336E+02  0.47787265356E+02  0.19999974066E+02 0.  0.
         12    1    3    3    0    0 -0.29801339868E+00  0.15276200112E+02  0.40622317336E+02  0.43400734644E+02  0.00000000000E+00 0. -1.
         11    1    4    4    0    0 -0.58129585027E-01  0.32120443537E+01 -0.92520966705E+01  0.97939726894E+01  0.51100000000E-03 0. -1.
        -11    1    4    4    0    0  0.49578206949E+01 -0.44939723538E+01 -0.10360905874E+02  0.12333861697E+02  0.51100000000E-03 0.  1.
        -12    1    4    4    0    0 -0.46016777112E+01 -0.13994272112E+02 -0.21009314791E+02  0.25659430970E+02  0.00000000000E+00 0.  1.
</event>
<event>
 8    1  0.1280823E-010  0.9118800E+02  0.7816164E-02  0.1184000E+00
        -11   -1    0    0    0    0  0.00000000000E+00  0.00000000000E+00  0.45593999997E+02  0.45594000000E+02  0.51100000000E-03 0. -1.
         11   -1    0    0    0    0 -0.00000000000E+00 -0.00000000000E+00 -0.45593999997E+02  0.45594000000E+02  0.51100000000E-03 0.  1.
         23    2    1    2    0    0  0.00000000000E+00  0.00000000000E+00  0.00000000000E+00  0.91188000000E+02  0.91188000000E+02 0.  0.
    9900012    2    3    3    0    0 -0.27933807368E+00  0.34504361014E+02  0.26324783067E+02  0.47787272330E+02  0.20000005861E+02 0.  0.
        -12    1    3    3    0    0  0.27933807368E+00 -0.34504361014E+02 -0.26324783067E+02  0.43400727670E+02  0.00000000000E+00 0.  1.
         11    1    4    4    0    0  0.83611594116E+00  0.10689618867E+02  0.75991474860E+01  0.13142073055E+02  0.51100000000E-03 0. -1.
        -11    1    4    4    0    0 -0.10136276691E+00  0.23541093174E+02  0.95419092572E+01  0.25401601815E+02  0.51100000000E-03 0.  1.
         12    1    4    4    0    0 -0.10140912479E+01  0.27364897331E+00  0.91837263238E+01  0.92435974605E+01  0.00000000000E+00 0. -1.
</event>
<event>
 8    1  0.1280823E-010  0.9118800E+02  0.7816164E-02  0.1184000E+00
        -11   -1    0    0    0    0  0.00000000000E+00  0.00000000000E+00  0.45593999997E+02  0.45594000000E+02  0.51100000000E-03 0. -1.
         11   -1    0    0    0    0 -0.00000000000E+00 -0.00000000000E+00 -0.45593999997E+02  0.45594000000E+02  0.51100000000E-03 0.  1.
         23    2    1    2    0    0 -0.17763568394E-14 -0.35527136788E-14 -0.71054273576E-14  0.91188000000E+02  0.91188000000E+02 0.  0.
    9900012    2    3    3    0    0  0.15605042845E+02  0.10963233415E+02  0.38986068821E+02  0.47787269462E+02  0.19999992786E+02 0.  0.
        -12    1    3    3    0    0 -0.15605042845E+02 -0.10963233415E+02 -0.38986068821E+02  0.43400730538E+02  0.00000000000E+00 0.  1.
         11    1    4    4    0    0  0.10514480558E+02  0.63650764266E+01  0.10981526973E+02  0.16482185360E+02  0.51100000000E-03 0.  1.
        -11    1    4    4    0    0  0.16773363911E+01  0.80861425561E+01  0.11955184488E+02  0.14530161569E+02  0.51100000000E-03 0. -1.
        -12    1    4    4    0    0  0.34132258961E+01 -0.34879855681E+01  0.16049357360E+02  0.16774922533E+02  0.00000000000E+00 0.  1.
</event>
<event>
 8    1  0.1280823E-010  0.9118800E+02  0.7816164E-02  0.1184000E+00
        -11   -1    0    0    0    0  0.00000000000E+00  0.00000000000E+00  0.45593999997E+02  0.45594000000E+02  0.51100000000E-03 0.  1.
         11   -1    0    0    0    0 -0.00000000000E+00 -0.00000000000E+00 -0.45593999997E+02  0.45594000000E+02  0.51100000000E-03 0. -1.
         23    2    1    2    0    0 -0.33306690739E-15  0.00000000000E+00  0.00000000000E+00  0.91188000000E+02  0.91188000000E+02 0.  0.
    9900012    2    3    3    0    0  0.20465237608E+00 -0.40758996186E+02  0.14909152206E+02  0.47787303321E+02  0.20000147161E+02 0.  0.
        -12    1    3    3    0    0 -0.20465237608E+00  0.40758996186E+02 -0.14909152206E+02  0.43400696679E+02  0.00000000000E+00 0.  1.
         11    1    4    4    0    0 -0.43816316934E+01 -0.12273042060E+02  0.19908946025E+01  0.13182940464E+02  0.51100000000E-03 0. -1.
        -11    1    4    4    0    0  0.13685907826E+01 -0.41782054023E+01 -0.30431837965E+01  0.53470935090E+01  0.51100000000E-03 0.  1.
        -12    1    4    4    0    0  0.32176932869E+01 -0.24307748724E+02  0.15961441400E+02  0.29257269348E+02  0.00000000000E+00 0.  1.
</event>
<event>
 8    1  0.1280823E-010  0.9118800E+02  0.7816164E-02  0.1184000E+00
        -11   -1    0    0    0    0  0.00000000000E+00  0.00000000000E+00  0.45593999997E+02  0.45594000000E+02  0.51100000000E-03 0. -1.
         11   -1    0    0    0    0 -0.00000000000E+00 -0.00000000000E+00 -0.45593999997E+02  0.45594000000E+02  0.51100000000E-03 0.  1.
         23    2    1    2    0    0 -0.17763568394E-14  0.00000000000E+00  0.35527136788E-14  0.91188000000E+02  0.91188000000E+02 0.  0.
    9900012    2    3    3    0    0 -0.14607549403E+02 -0.30565045443E+02  0.27129697202E+02  0.47787274513E+02  0.20000015816E+02 0.  0.
        -12    1    3    3    0    0  0.14607549403E+02  0.30565045443E+02 -0.27129697202E+02  0.43400725487E+02  0.00000000000E+00 0.  1.
         11    1    4    4    0    0 -0.43596420170E+01  0.67092859730E+00  0.26316742738E+00  0.44188099138E+01  0.51100000000E-03 0. -1.
        -11    1    4    4    0    0 -0.16540670422E+00 -0.77025566250E+01  0.10343022877E+02  0.12897087285E+02  0.51100000000E-03 0.  1.
        -12    1    4    4    0    0 -0.10082500682E+02 -0.23533417415E+02  0.16523506897E+02  0.30471377314E+02  0.00000000000E+00 0.  1.
</event>
<event>
 8    1  0.1280823E-010  0.9118800E+02  0.7816164E-02  0.1184000E+00
        -11   -1    0    0    0    0  0.00000000000E+00  0.00000000000E+00  0.45593999997E+02  0.45594000000E+02  0.51100000000E-03 0. -1.
         11   -1    0    0    0    0 -0.00000000000E+00 -0.00000000000E+00 -0.45593999997E+02  0.45594000000E+02  0.51100000000E-03 0.  1.
         23    2    1    2    0    0  0.00000000000E+00  0.00000000000E+00 -0.35527136788E-14  0.91188000000E+02  0.91188000000E+02 0.  0.
    9900012    2    3    3    0    0 -0.39949321617E+01  0.32092173578E+02 -0.28944017054E+02  0.47787271767E+02  0.20000003294E+02 0.  0.
         12    1    3    3    0    0  0.39949321617E+01 -0.32092173578E+02  0.28944017054E+02  0.43400728233E+02  0.00000000000E+00 0. -1.
         11    1    4    4    0    0  0.22347481879E+01  0.12292742619E+02 -0.56604379716E+01  0.13716638759E+02  0.51100000000E-03 0. -1.
        -11    1    4    4    0    0 -0.12483360207E+01  0.18369017609E+02 -0.22081941682E+02  0.28750500856E+02  0.51100000000E-03 0.  1.
         12    1    4    4    0    0 -0.49813443290E+01  0.14304133506E+01 -0.12016374005E+01  0.53201321525E+01  0.00000000000E+00 0. -1.
</event>
<event>
 8    1  0.1280823E-010  0.9118800E+02  0.7816164E-02  0.1184000E+00
        -11   -1    0    0    0    0  0.00000000000E+00  0.00000000000E+00  0.45593999997E+02  0.45594000000E+02  0.51100000000E-03 0. -1.
         11   -1    0    0    0    0 -0.00000000000E+00 -0.00000000000E+00 -0.45593999997E+02  0.45594000000E+02  0.51100000000E-03 0.  1.
         23    2    1    2    0    0 -0.35527136788E-14 -0.88817841970E-15 -0.35527136788E-14  0.91188000000E+02  0.91188000000E+02 0.  0.
    9900012    2    3    3    0    0 -0.31784040385E+02 -0.75563669464E+01 -0.28570951769E+02  0.47787272015E+02  0.20000004426E+02 0.  0.
         12    1    3    3    0    0  0.31784040385E+02  0.75563669464E+01  0.28570951769E+02  0.43400727985E+02  0.00000000000E+00 0. -1.
         11    1    4    4    0    0 -0.50988904780E+01 -0.17680568352E+01 -0.61114769658E+01  0.81532116398E+01  0.51100000000E-03 0. -1.
        -11    1    4    4    0    0 -0.29189741655E+02 -0.58984777698E+01 -0.18867051125E+02  0.35253349859E+02  0.51100000000E-03 0.  1.
         12    1    4    4    0    0  0.25045917483E+01  0.11016765856E+00 -0.35924236786E+01  0.43807105160E+01  0.00000000000E+00 0. -1.
</event>
<event>
 8    1  0.1280823E-010  0.9118800E+02  0.7816164E-02  0.1184000E+00
        -11   -1    0    0    0    0  0.00000000000E+00  0.00000000000E+00  0.45593999997E+02  0.45594000000E+02  0.51100000000E-03 0. -1.
         11   -1    0    0    0    0 -0.00000000000E+00 -0.00000000000E+00 -0.45593999997E+02  0.45594000000E+02  0.51100000000E-03 0.  1.
         23    2    1    2    0    0  0.00000000000E+00  0.00000000000E+00  0.35527136788E-14  0.91188000000E+02  0.91188000000E+02 0.  0.
    9900012    2    3    3    0    0 -0.33667392302E+02 -0.11901272964E+02 -0.24667584096E+02  0.47787270655E+02  0.19999998224E+02 0.  0.
         12    1    3    3    0    0  0.33667392302E+02  0.11901272964E+02  0.24667584096E+02  0.43400729345E+02  0.00000000000E+00 0. -1.
         11    1    4    4    0    0 -0.63454275611E+01 -0.51708097365E+01 -0.11814539754E+02  0.14373067666E+02  0.51100000000E-03 0. -1.
        -11    1    4    4    0    0 -0.72711492864E+01  0.33655794392E+01 -0.57715906069E+01  0.98746136786E+01  0.51100000000E-03 0.  1.
         12    1    4    4    0    0 -0.20050815454E+02 -0.10096042666E+02 -0.70814537347E+01  0.23539589310E+02  0.00000000000E+00 0. -1.
</event>
<event>
 8    1  0.1280823E-010  0.9118800E+02  0.7816164E-02  0.1184000E+00
        -11   -1    0    0    0    0  0.00000000000E+00  0.00000000000E+00  0.45593999997E+02  0.45594000000E+02  0.51100000000E-03 0. -1.
         11   -1    0    0    0    0 -0.00000000000E+00 -0.00000000000E+00 -0.45593999997E+02  0.45594000000E+02  0.51100000000E-03 0.  1.
         23    2    1    2    0    0  0.00000000000E+00  0.00000000000E+00  0.00000000000E+00  0.91188000000E+02  0.91188000000E+02 0.  0.
    9900012    2    3    3    0    0 -0.20236407392E+02 -0.23892314253E+02  0.30054417529E+02  0.47787275611E+02  0.20000020819E+02 0.  0.
        -12    1    3    3    0    0  0.20236407392E+02  0.23892314253E+02 -0.30054417529E+02  0.43400724389E+02  0.00000000000E+00 0.  1.
         11    1    4    4    0    0 -0.42617212329E+01 -0.68030361925E+01  0.12465844362E+02  0.14827030897E+02  0.51100000000E-03 0. -1.
        -11    1    4    4    0    0 -0.10544226983E+02 -0.77044764962E+00  0.80935241797E+01  0.13314632783E+02  0.51100000000E-03 0.  1.
        -12    1    4    4    0    0 -0.54304591770E+01 -0.16318830411E+02  0.94950489870E+01  0.19645611930E+02  0.00000000000E+00 0.  1.
</event>
<event>
 8    1  0.1280823E-010  0.9118800E+02  0.7816164E-02  0.1184000E+00
        -11   -1    0    0    0    0  0.00000000000E+00  0.00000000000E+00  0.45593999997E+02  0.45594000000E+02  0.51100000000E-03 0.  1.
         11   -1    0    0    0    0 -0.00000000000E+00 -0.00000000000E+00 -0.45593999997E+02  0.45594000000E+02  0.51100000000E-03 0. -1.
         23    2    1    2    0    0  0.00000000000E+00 -0.17763568394E-14 -0.33306690739E-15  0.91188000000E+02  0.91188000000E+02 0.  0.
    9900012    2    3    3    0    0  0.41834293287E+02  0.11518625433E+02  0.91467039824E+00  0.47787269031E+02  0.19999990821E+02 0.  0.
        -12    1    3    3    0    0 -0.41834293287E+02 -0.11518625433E+02 -0.91467039824E+00  0.43400730969E+02  0.00000000000E+00 0.  1.
         11    1    4    4    0    0  0.42332139508E+02  0.10810187664E+02  0.19514900840E+01  0.43734180070E+02  0.51100000000E-03 0. -1.
        -11    1    4    4    0    0  0.11609561256E+01  0.16431734726E+01 -0.60162626947E+00  0.20999506223E+01  0.51100000000E-03 0.  1.
         12    1    4    4    0    0 -0.16588023462E+01 -0.93473570379E+00 -0.43519341634E+00  0.19531383385E+01  0.00000000000E+00 0. -1.
</event>
<event>
 8    1  0.1280823E-010  0.9118800E+02  0.7816164E-02  0.1184000E+00
        -11   -1    0    0    0    0  0.00000000000E+00  0.00000000000E+00  0.45593999997E+02  0.45594000000E+02  0.51100000000E-03 0. -1.
         11   -1    0    0    0    0 -0.00000000000E+00 -0.00000000000E+00 -0.45593999997E+02  0.45594000000E+02  0.51100000000E-03 0.  1.
         23    2    1    2    0    0  0.71054273576E-14  0.00000000000E+00  0.00000000000E+00  0.91188000000E+02  0.91188000000E+02 0.  0.
    9900012    2    3    3    0    0  0.42465334779E+02  0.46730315320E+01  0.76473142500E+01  0.47787270780E+02  0.19999998794E+02 0.  0.
        -12    1    3    3    0    0 -0.42465334779E+02 -0.46730315320E+01 -0.76473142500E+01  0.43400729220E+02  0.00000000000E+00 0.  1.
         11    1    4    4    0    0  0.13823416401E+02  0.55035850958E+01  0.21561490656E+01  0.15034136788E+02  0.51100000000E-03 0. -1.
        -11    1    4    4    0    0  0.39603423136E+01  0.50292661619E+00 -0.45684127432E+01  0.60669301690E+01  0.51100000000E-03 0.  1.
        -12    1    4    4    0    0  0.24681576064E+02 -0.13334801800E+01  0.10059577928E+02  0.26686203823E+02  0.00000000000E+00 0.  1.
</event>
<event>
 8    1  0.1280823E-010  0.9118800E+02  0.7816164E-02  0.1184000E+00
        -11   -1    0    0    0    0  0.00000000000E+00  0.00000000000E+00  0.45593999997E+02  0.45594000000E+02  0.51100000000E-03 0. -1.
         11   -1    0    0    0    0 -0.00000000000E+00 -0.00000000000E+00 -0.45593999997E+02  0.45594000000E+02  0.51100000000E-03 0.  1.
         23    2    1    2    0    0  0.00000000000E+00  0.00000000000E+00  0.00000000000E+00  0.91188000000E+02  0.91188000000E+02 0.  0.
    9900012    2    3    3    0    0 -0.26828024465E+01  0.22135490870E+02 -0.37235007651E+02  0.47787272128E+02  0.20000004942E+02 0.  0.
         12    1    3    3    0    0  0.26828024465E+01 -0.22135490870E+02  0.37235007651E+02  0.43400727872E+02  0.00000000000E+00 0. -1.
         11    1    4    4    0    0 -0.27931015001E+01  0.11804365031E+01 -0.18879439089E-02  0.30323011317E+01  0.51100000000E-03 0. -1.
        -11    1    4    4    0    0  0.46967188516E+01  0.58785312551E+01 -0.20171667741E+02  0.21529339920E+02  0.51100000000E-03 0.  1.
         12    1    4    4    0    0 -0.45864197979E+01  0.15076523112E+02 -0.17061451966E+02  0.23225631076E+02  0.00000000000E+00 0. -1.
</event>
<event>
 8    1  0.1280823E-010  0.9118800E+02  0.7816164E-02  0.1184000E+00
        -11   -1    0    0    0    0  0.00000000000E+00  0.00000000000E+00  0.45593999997E+02  0.45594000000E+02  0.51100000000E-03 0. -1.
         11   -1    0    0    0    0 -0.00000000000E+00 -0.00000000000E+00 -0.45593999997E+02  0.45594000000E+02  0.51100000000E-03 0.  1.
         23    2    1    2    0    0 -0.35527136788E-14  0.00000000000E+00 -0.88817841970E-15  0.91188000000E+02  0.91188000000E+02 0.  0.
    9900012    2    3    3    0    0  0.27839809499E+02 -0.32676454232E+02  0.63888981471E+01  0.47787266438E+02  0.19999978999E+02 0.  0.
        -12    1    3    3    0    0 -0.27839809499E+02  0.32676454232E+02 -0.63888981471E+01  0.43400733562E+02  0.00000000000E+00 0.  1.
         11    1    4    4    0    0  0.14399312465E+02 -0.13667194305E+02 -0.29460616671E+01  0.20070168890E+02  0.51100000000E-03 0.  1.
        -11    1    4    4    0    0  0.13597439776E+02 -0.16533516645E+02  0.39223676035E+01  0.21763099710E+02  0.51100000000E-03 0. -1.
        -12    1    4    4    0    0 -0.15694274181E+00 -0.24757432819E+01  0.54125922107E+01  0.59539978386E+01  0.00000000000E+00 0.  1.
</event>
<event>
 8    1  0.1280823E-010  0.9118800E+02  0.7816164E-02  0.1184000E+00
        -11   -1    0    0    0    0  0.00000000000E+00  0.00000000000E+00  0.45593999997E+02  0.45594000000E+02  0.51100000000E-03 0. -1.
         11   -1    0    0    0    0 -0.00000000000E+00 -0.00000000000E+00 -0.45593999997E+02  0.45594000000E+02  0.51100000000E-03 0.  1.
         23    2    1    2    0    0 -0.88817841970E-15  0.00000000000E+00  0.00000000000E+00  0.91188000000E+02  0.91188000000E+02 0.  0.
    9900012    2    3    3    0    0 -0.73491736304E+01 -0.22569229691E+01  0.42714402417E+02  0.47787260050E+02  0.19999949873E+02 0.  0.
        -12    1    3    3    0    0  0.73491736304E+01  0.22569229691E+01 -0.42714402417E+02  0.43400739950E+02  0.00000000000E+00 0.  1.
         11    1    4    4    0    0  0.37603386957E+01 -0.24242830045E+01  0.23121685040E+02  0.23550575673E+02  0.51100000000E-03 0. -1.
        -11    1    4    4    0    0 -0.50083372154E+01  0.14256354794E+01  0.16459444479E+02  0.17263521976E+02  0.51100000000E-03 0.  1.
        -12    1    4    4    0    0 -0.61011751107E+01 -0.12582754440E+01  0.31332728984E+01  0.69731624016E+01  0.00000000000E+00 0.  1.
</event>
<event>
 8    1  0.1280823E-010  0.9118800E+02  0.7816164E-02  0.1184000E+00
        -11   -1    0    0    0    0  0.00000000000E+00  0.00000000000E+00  0.45593999997E+02  0.45594000000E+02  0.51100000000E-03 0. -1.
         11   -1    0    0    0    0 -0.00000000000E+00 -0.00000000000E+00 -0.45593999997E+02  0.45594000000E+02  0.51100000000E-03 0.  1.
         23    2    1    2    0    0 -0.44408920985E-15  0.00000000000E+00 -0.71054273576E-14  0.91188000000E+02  0.91188000000E+02 0.  0.
    9900012    2    3    3    0    0 -0.36773536395E+01 -0.25868557762E+02  0.34654264167E+02  0.47787271487E+02  0.20000002020E+02 0.  0.
        -12    1    3    3    0    0  0.36773536395E+01  0.25868557762E+02 -0.34654264167E+02  0.43400728513E+02  0.00000000000E+00 0.  1.
         11    1    4    4    0    0 -0.34714854374E+01 -0.10646960067E+02  0.15905862237E+02  0.19452645670E+02  0.51100000000E-03 0. -1.
        -11    1    4    4    0    0 -0.60595013067E+01 -0.13400041605E+02  0.15613766415E+02  0.21449204485E+02  0.51100000000E-03 0.  1.
        -12    1    4    4    0    0  0.58536331046E+01 -0.18215560898E+01  0.31346355150E+01  0.68854213323E+01  0.00000000000E+00 0.  1.
</event>
<event>
 8    1  0.1280823E-010  0.9118800E+02  0.7816164E-02  0.1184000E+00
        -11   -1    0    0    0    0  0.00000000000E+00  0.00000000000E+00  0.45593999997E+02  0.45594000000E+02  0.51100000000E-03 0. -1.
         11   -1    0    0    0    0 -0.00000000000E+00 -0.00000000000E+00 -0.45593999997E+02  0.45594000000E+02  0.51100000000E-03 0.  1.
         23    2    1    2    0    0  0.17763568394E-14 -0.44408920985E-15  0.71054273576E-14  0.91188000000E+02  0.91188000000E+02 0.  0.
    9900012    2    3    3    0    0  0.10145096453E+02 -0.37460763022E+01  0.42031734114E+02  0.47787277168E+02  0.20000027919E+02 0.  0.
        -12    1    3    3    0    0 -0.10145096453E+02  0.37460763022E+01 -0.42031734114E+02  0.43400722832E+02  0.00000000000E+00 0.  1.
         11    1    4    4    0    0 -0.43485002620E+01 -0.54492753822E+01  0.10455243509E+02  0.12566470221E+02  0.51100000000E-03 0. -1.
        -11    1    4    4    0    0  0.48759503512E+01  0.32322928602E+01  0.11139592779E+02  0.12582254826E+02  0.51100000000E-03 0.  1.
         12    1    4    4    0    0  0.96176463634E+01 -0.15290937803E+01  0.20436897826E+02  0.22638552121E+02  0.00000000000E+00 0. -1.
</event>
<event>
 8    1  0.1280823E-010  0.9118800E+02  0.7816164E-02  0.1184000E+00
        -11   -1    0    0    0    0  0.00000000000E+00  0.00000000000E+00  0.45593999997E+02  0.45594000000E+02  0.51100000000E-03 0. -1.
         11   -1    0    0    0    0 -0.00000000000E+00 -0.00000000000E+00 -0.45593999997E+02  0.45594000000E+02  0.51100000000E-03 0.  1.
         23    2    1    2    0    0 -0.88817841970E-15  0.00000000000E+00  0.00000000000E+00  0.91188000000E+02  0.91188000000E+02 0.  0.
    9900012    2    3    3    0    0 -0.64476234321E+01  0.96264989416E+01  0.41825611637E+02  0.47787272833E+02  0.20000008154E+02 0.  0.
        -12    1    3    3    0    0  0.64476234321E+01 -0.96264989416E+01 -0.41825611637E+02  0.43400727167E+02  0.00000000000E+00 0.  1.
         11    1    4    4    0    0  0.32765579581E+01 -0.54225837040E+00  0.33794260693E+01  0.47381849913E+01  0.51100000000E-03 0.  1.
        -11    1    4    4    0    0  0.29511842004E+01 -0.38495705615E-01  0.42075698643E+01  0.51395150090E+01  0.51100000000E-03 0. -1.
         12    1    4    4    0    0 -0.12675365591E+02  0.10207253018E+02  0.34238615704E+02  0.37909572832E+02  0.00000000000E+00 0. -1.
</event>
<event>
 8    1  0.1280823E-010  0.9118800E+02  0.7816164E-02  0.1184000E+00
        -11   -1    0    0    0    0  0.00000000000E+00  0.00000000000E+00  0.45593999997E+02  0.45594000000E+02  0.51100000000E-03 0. -1.
         11   -1    0    0    0    0 -0.00000000000E+00 -0.00000000000E+00 -0.45593999997E+02  0.45594000000E+02  0.51100000000E-03 0.  1.
         23    2    1    2    0    0  0.00000000000E+00  0.00000000000E+00  0.00000000000E+00  0.91188000000E+02  0.91188000000E+02 0.  0.
    9900012    2    3    3    0    0 -0.28692286239E+02  0.18154319477E+02  0.27033249614E+02  0.47787272011E+02  0.20000004406E+02 0.  0.
        -12    1    3    3    0    0  0.28692286239E+02 -0.18154319477E+02 -0.27033249614E+02  0.43400727989E+02  0.00000000000E+00 0.  1.
         11    1    4    4    0    0 -0.66451938114E+00  0.12576862721E+01  0.11470030516E+01  0.18272867942E+01  0.51100000000E-03 0. -1.
        -11    1    4    4    0    0 -0.99531972214E+00  0.91675212345E+01  0.29691975759E+01  0.96876334282E+01  0.51100000000E-03 0.  1.
         12    1    4    4    0    0 -0.27032447136E+02  0.77291119708E+01  0.22917048987E+02  0.36272351788E+02  0.00000000000E+00 0. -1.
</event>
<event>
 8    1  0.1280823E-010  0.9118800E+02  0.7816164E-02  0.1184000E+00
        -11   -1    0    0    0    0  0.00000000000E+00  0.00000000000E+00  0.45593999997E+02  0.45594000000E+02  0.51100000000E-03 0. -1.
         11   -1    0    0    0    0 -0.00000000000E+00 -0.00000000000E+00 -0.45593999997E+02  0.45594000000E+02  0.51100000000E-03 0.  1.
         23    2    1    2    0    0  0.00000000000E+00  0.00000000000E+00  0.00000000000E+00  0.91188000000E+02  0.91188000000E+02 0.  0.
    9900012    2    3    3    0    0  0.13246053030E+02  0.25368926423E+02  0.32627950042E+02  0.47787268754E+02  0.19999989558E+02 0.  0.
        -12    1    3    3    0    0 -0.13246053030E+02 -0.25368926423E+02 -0.32627950042E+02  0.43400731246E+02  0.00000000000E+00 0.  1.
         11    1    4    4    0    0  0.11726328285E+02  0.55714942845E+01  0.19335540589E+02  0.23289728503E+02  0.51100000000E-03 0. -1.
        -11    1    4    4    0    0 -0.53217976615E+00  0.27047202685E+01  0.42127072306E+01  0.50344443096E+01  0.51100000000E-03 0.  1.
        -12    1    4    4    0    0  0.20519045115E+01  0.17092711870E+02  0.90797022222E+01  0.19463095942E+02  0.00000000000E+00 0.  1.
</event>
<event>
 8    1  0.1280823E-010  0.9118800E+02  0.7816164E-02  0.1184000E+00
        -11   -1    0    0    0    0  0.00000000000E+00  0.00000000000E+00  0.45593999997E+02  0.45594000000E+02  0.51100000000E-03 0. -1.
         11   -1    0    0    0    0 -0.00000000000E+00 -0.00000000000E+00 -0.45593999997E+02  0.45594000000E+02  0.51100000000E-03 0.  1.
         23    2    1    2    0    0  0.00000000000E+00  0.71054273576E-14  0.17763568394E-14  0.91188000000E+02  0.91188000000E+02 0.  0.
    9900012    2    3    3    0    0  0.24266323386E+02  0.32732332371E+02  0.14945314121E+02  0.47787280567E+02  0.20000043418E+02 0.  0.
        -12    1    3    3    0    0 -0.24266323386E+02 -0.32732332371E+02 -0.14945314121E+02  0.43400719433E+02  0.00000000000E+00 0.  1.
         11    1    4    4    0    0  0.35232571037E+01 -0.13247274306E+01  0.70777519234E+00  0.38300377764E+01  0.51100000000E-03 0. -1.
        -11    1    4    4    0    0 -0.19924326164E+00  0.43293306387E+01 -0.11313325878E+01  0.44791422552E+01  0.51100000000E-03 0.  1.
         12    1    4    4    0    0  0.20942309544E+02  0.29727729163E+02  0.15368871516E+02  0.39478100536E+02  0.00000000000E+00 0. -1.
</event>
<event>
 8    1  0.1280823E-010  0.9118800E+02  0.7816164E-02  0.1184000E+00
        -11   -1    0    0    0    0  0.00000000000E+00  0.00000000000E+00  0.45593999997E+02  0.45594000000E+02  0.51100000000E-03 0. -1.
         11   -1    0    0    0    0 -0.00000000000E+00 -0.00000000000E+00 -0.45593999997E+02  0.45594000000E+02  0.51100000000E-03 0.  1.
         23    2    1    2    0    0  0.00000000000E+00  0.00000000000E+00  0.71054273576E-14  0.91188000000E+02  0.91188000000E+02 0.  0.
    9900012    2    3    3    0    0  0.94063133008E+01  0.95854468539E+01 -0.41270625384E+02  0.47787262208E+02  0.19999959711E+02 0.  0.
         12    1    3    3    0    0 -0.94063133008E+01 -0.95854468539E+01  0.41270625384E+02  0.43400737792E+02  0.00000000000E+00 0. -1.
         11    1    4    4    0    0  0.11183194172E+02  0.30414130726E+00 -0.32016317773E+02  0.33914612453E+02  0.51100000000E-03 0. -1.
        -11    1    4    4    0    0  0.59647857923E+00  0.39573862547E+01 -0.59545375367E+01  0.71744832707E+01  0.51100000000E-03 0.  1.
         12    1    4    4    0    0 -0.23733594503E+01  0.53239192920E+01 -0.32997700744E+01  0.66981664843E+01  0.00000000000E+00 0. -1.
</event>
<event>
 8    1  0.1280823E-010  0.9118800E+02  0.7816164E-02  0.1184000E+00
        -11   -1    0    0    0    0  0.00000000000E+00  0.00000000000E+00  0.45593999997E+02  0.45594000000E+02  0.51100000000E-03 0.  1.
         11   -1    0    0    0    0 -0.00000000000E+00 -0.00000000000E+00 -0.45593999997E+02  0.45594000000E+02  0.51100000000E-03 0. -1.
         23    2    1    2    0    0  0.00000000000E+00  0.00000000000E+00  0.00000000000E+00  0.91188000000E+02  0.91188000000E+02 0.  0.
    9900012    2    3    3    0    0  0.26305467349E+02  0.23966769878E+02 -0.24844303110E+02  0.47787273417E+02  0.20000010819E+02 0.  0.
         12    1    3    3    0    0 -0.26305467349E+02 -0.23966769878E+02  0.24844303110E+02  0.43400726583E+02  0.00000000000E+00 0. -1.
         11    1    4    4    0    0  0.29134614086E+00 -0.11677751065E+01 -0.41007331600E+01  0.42737096279E+01  0.51100000000E-03 0. -1.
        -11    1    4    4    0    0  0.32879110073E+01  0.10814314155E+02 -0.74960016529E+01  0.13562809092E+02  0.51100000000E-03 0.  1.
         12    1    4    4    0    0  0.22726210201E+02  0.14320230830E+02 -0.13247568297E+02  0.29950754697E+02  0.00000000000E+00 0. -1.
</event>
<event>
 8    1  0.1280823E-010  0.9118800E+02  0.7816164E-02  0.1184000E+00
        -11   -1    0    0    0    0  0.00000000000E+00  0.00000000000E+00  0.45593999997E+02  0.45594000000E+02  0.51100000000E-03 0. -1.
         11   -1    0    0    0    0 -0.00000000000E+00 -0.00000000000E+00 -0.45593999997E+02  0.45594000000E+02  0.51100000000E-03 0.  1.
         23    2    1    2    0    0 -0.44408920985E-15 -0.17763568394E-14  0.00000000000E+00  0.91188000000E+02  0.91188000000E+02 0.  0.
    9900012    2    3    3    0    0  0.15187110493E+01 -0.12759337469E+02  0.41454991326E+02  0.47787268649E+02  0.19999989080E+02 0.  0.
        -12    1    3    3    0    0 -0.15187110493E+01  0.12759337469E+02 -0.41454991326E+02  0.43400731351E+02  0.00000000000E+00 0.  1.
         11    1    4    4    0    0  0.21662512162E+01 -0.50454237885E+01  0.28901263031E+02  0.29418224804E+02  0.51100000000E-03 0. -1.
        -11    1    4    4    0    0  0.20376141281E+01 -0.88070870502E+01  0.12553919843E+02  0.15469891963E+02  0.51100000000E-03 0.  1.
        -12    1    4    4    0    0 -0.26851542950E+01  0.10931733692E+01 -0.19154840379E-03  0.28991518829E+01  0.00000000000E+00 0.  1.
</event>
<event>
 8    1  0.1280823E-010  0.9118800E+02  0.7816164E-02  0.1184000E+00
        -11   -1    0    0    0    0  0.00000000000E+00  0.00000000000E+00  0.45593999997E+02  0.45594000000E+02  0.51100000000E-03 0.  1.
         11   -1    0    0    0    0 -0.00000000000E+00 -0.00000000000E+00 -0.45593999997E+02  0.45594000000E+02  0.51100000000E-03 0. -1.
         23    2    1    2    0    0 -0.35527136788E-14 -0.35527136788E-14  0.71054273576E-14  0.91188000000E+02  0.91188000000E+02 0.  0.
    9900012    2    3    3    0    0  0.29077408544E+02  0.18636122459E+02 -0.26283493603E+02  0.47787276689E+02  0.20000025737E+02 0.  0.
         12    1    3    3    0    0 -0.29077408544E+02 -0.18636122459E+02  0.26283493603E+02  0.43400723311E+02  0.00000000000E+00 0. -1.
         11    1    4    4    0    0  0.16085049674E+02  0.22212470209E+01 -0.17693875730E+02  0.24015328437E+02  0.51100000000E-03 0. -1.
        -11    1    4    4    0    0  0.11285041774E+01 -0.70079402702E+00 -0.70547194282E+00  0.15041026793E+01  0.51100000000E-03 0.  1.
        -12    1    4    4    0    0  0.11863854693E+02  0.17115669465E+02 -0.78841459304E+01  0.22267845573E+02  0.00000000000E+00 0.  1.
</event>
<event>
 8    1  0.1280823E-010  0.9118800E+02  0.7816164E-02  0.1184000E+00
        -11   -1    0    0    0    0  0.00000000000E+00  0.00000000000E+00  0.45593999997E+02  0.45594000000E+02  0.51100000000E-03 0. -1.
         11   -1    0    0    0    0 -0.00000000000E+00 -0.00000000000E+00 -0.45593999997E+02  0.45594000000E+02  0.51100000000E-03 0.  1.
         23    2    1    2    0    0  0.00000000000E+00 -0.17763568394E-14  0.00000000000E+00  0.91188000000E+02  0.91188000000E+02 0.  0.
    9900012    2    3    3    0    0 -0.37426153123E+01  0.15797440019E+02  0.40249929625E+02  0.47787272870E+02  0.20000008326E+02 0.  0.
        -12    1    3    3    0    0  0.37426153123E+01 -0.15797440019E+02 -0.40249929625E+02  0.43400727130E+02  0.00000000000E+00 0.  1.
         11    1    4    4    0    0 -0.24420979221E+01  0.34175364286E+01  0.11735167738E+02  0.12464251266E+02  0.51100000000E-03 0. -1.
        -11    1    4    4    0    0 -0.13069182707E+01 -0.98173786478E+00  0.18632293603E+02  0.18703855478E+02  0.51100000000E-03 0.  1.
         12    1    4    4    0    0  0.64008804608E-02  0.13361641455E+02  0.98824682843E+01  0.16619166126E+02  0.00000000000E+00 0. -1.
</event>
<event>
 8    1  0.1280823E-010  0.9118800E+02  0.7816164E-02  0.1184000E+00
        -11   -1    0    0    0    0  0.00000000000E+00  0.00000000000E+00  0.45593999997E+02  0.45594000000E+02  0.51100000000E-03 0. -1.
         11   -1    0    0    0    0 -0.00000000000E+00 -0.00000000000E+00 -0.45593999997E+02  0.45594000000E+02  0.51100000000E-03 0.  1.
         23    2    1    2    0    0 -0.44408920985E-15  0.00000000000E+00  0.00000000000E+00  0.91188000000E+02  0.91188000000E+02 0.  0.
    9900012    2    3    3    0    0  0.74865512601E+00  0.74969194786E+01  0.42741768314E+02  0.47787273683E+02  0.20000012032E+02 0.  0.
        -12    1    3    3    0    0 -0.74865512601E+00 -0.74969194786E+01 -0.42741768314E+02  0.43400726317E+02  0.00000000000E+00 0.  1.
         11    1    4    4    0    0  0.18352353671E+01 -0.44288308810E+01  0.66168898525E+01  0.81710380862E+01  0.51100000000E-03 0. -1.
        -11    1    4    4    0    0  0.47228380201E+01  0.42294029212E+01  0.10879199568E+02  0.12591665161E+02  0.51100000000E-03 0.  1.
         12    1    4    4    0    0 -0.58094182612E+01  0.76963474384E+01  0.25245678894E+02  0.27024570436E+02  0.00000000000E+00 0. -1.
</event>
<event>
 8    1  0.1280823E-010  0.9118800E+02  0.7816164E-02  0.1184000E+00
        -11   -1    0    0    0    0  0.00000000000E+00  0.00000000000E+00  0.45593999997E+02  0.45594000000E+02  0.51100000000E-03 0. -1.
         11   -1    0    0    0    0 -0.00000000000E+00 -0.00000000000E+00 -0.45593999997E+02  0.45594000000E+02  0.51100000000E-03 0.  1.
         23    2    1    2    0    0  0.00000000000E+00  0.00000000000E+00  0.00000000000E+00  0.91188000000E+02  0.91188000000E+02 0.  0.
    9900012    2    3    3    0    0  0.20502314207E+02 -0.30362551621E+01  0.38132133993E+02  0.47787269866E+02  0.19999994629E+02 0.  0.
        -12    1    3    3    0    0 -0.20502314207E+02  0.30362551621E+01 -0.38132133993E+02  0.43400730134E+02  0.00000000000E+00 0.  1.
         11    1    4    4    0    0  0.73845815711E+01  0.64225976969E+00  0.76190228885E+01  0.10629866068E+02  0.51100000000E-03 0. -1.
        -11    1    4    4    0    0  0.84246093348E+00 -0.43202694528E+01  0.15410936300E+00  0.44043408731E+01  0.51100000000E-03 0.  1.
         12    1    4    4    0    0  0.12275271703E+02  0.64175452100E+00  0.30359001741E+02  0.32753062925E+02  0.00000000000E+00 0. -1.
</event>
<event>
 8    1  0.1280823E-010  0.9118800E+02  0.7816164E-02  0.1184000E+00
        -11   -1    0    0    0    0  0.00000000000E+00  0.00000000000E+00  0.45593999997E+02  0.45594000000E+02  0.51100000000E-03 0. -1.
         11   -1    0    0    0    0 -0.00000000000E+00 -0.00000000000E+00 -0.45593999997E+02  0.45594000000E+02  0.51100000000E-03 0.  1.
         23    2    1    2    0    0  0.00000000000E+00 -0.88817841970E-15  0.00000000000E+00  0.91188000000E+02  0.91188000000E+02 0.  0.
    9900012    2    3    3    0    0 -0.42102272862E+02 -0.62951143335E+01  0.84497083154E+01  0.47787223334E+02  0.19999782469E+02 0.  0.
        -12    1    3    3    0    0  0.42102272862E+02  0.62951143335E+01 -0.84497083154E+01  0.43400776666E+02  0.00000000000E+00 0.  1.
         11    1    4    4    0    0 -0.15775409232E+02 -0.13279522538E+01  0.83571278477E+01  0.17901636231E+02  0.51100000000E-03 0. -1.
        -11    1    4    4    0    0 -0.26247297302E+02 -0.20401762708E+01  0.19817833211E+01  0.26400954533E+02  0.51100000000E-03 0.  1.
        -12    1    4    4    0    0 -0.79566327699E-01 -0.29269858089E+01 -0.18892028534E+01  0.34846325699E+01  0.00000000000E+00 0.  1.
</event>
<event>
 8    1  0.1280823E-010  0.9118800E+02  0.7816164E-02  0.1184000E+00
        -11   -1    0    0    0    0  0.00000000000E+00  0.00000000000E+00  0.45593999997E+02  0.45594000000E+02  0.51100000000E-03 0. -1.
         11   -1    0    0    0    0 -0.00000000000E+00 -0.00000000000E+00 -0.45593999997E+02  0.45594000000E+02  0.51100000000E-03 0.  1.
         23    2    1    2    0    0 -0.35527136788E-14  0.17763568394E-14  0.00000000000E+00  0.91188000000E+02  0.91188000000E+02 0.  0.
    9900012    2    3    3    0    0  0.30117895373E+02  0.62357708789E+01 -0.30621092578E+02  0.47787265320E+02  0.19999973900E+02 0.  0.
         12    1    3    3    0    0 -0.30117895373E+02 -0.62357708789E+01  0.30621092578E+02  0.43400734680E+02  0.00000000000E+00 0. -1.
         11    1    4    4    0    0  0.83169790862E+01 -0.32061545538E+01 -0.83538015049E+01  0.12216282904E+02  0.51100000000E-03 0. -1.
        -11    1    4    4    0    0  0.93118607930E+00 -0.31923096745E+01 -0.30955638230E+01  0.45431777662E+01  0.51100000000E-03 0.  1.
        -12    1    4    4    0    0  0.20869730207E+02  0.12634235107E+02 -0.19171727250E+02  0.31027804650E+02  0.00000000000E+00 0.  1.
</event>
<event>
 8    1  0.1280823E-010  0.9118800E+02  0.7816164E-02  0.1184000E+00
        -11   -1    0    0    0    0  0.00000000000E+00  0.00000000000E+00  0.45593999997E+02  0.45594000000E+02  0.51100000000E-03 0.  1.
         11   -1    0    0    0    0 -0.00000000000E+00 -0.00000000000E+00 -0.45593999997E+02  0.45594000000E+02  0.51100000000E-03 0. -1.
         23    2    1    2    0    0  0.00000000000E+00  0.00000000000E+00  0.00000000000E+00  0.91188000000E+02  0.91188000000E+02 0.  0.
    9900012    2    3    3    0    0 -0.81526757296E+01 -0.38629742517E+02 -0.18024986867E+02  0.47787270974E+02  0.19999999678E+02 0.  0.
         12    1    3    3    0    0  0.81526757296E+01  0.38629742517E+02  0.18024986867E+02  0.43400729026E+02  0.00000000000E+00 0. -1.
         11    1    4    4    0    0 -0.18220777050E+01 -0.17634620012E+02 -0.14376429123E+02  0.22825019271E+02  0.51100000000E-03 0. -1.
        -11    1    4    4    0    0 -0.24189119718E+01 -0.17469395059E+02 -0.67117337276E+01  0.18870036268E+02  0.51100000000E-03 0.  1.
         12    1    4    4    0    0 -0.39116860529E+01 -0.35257274452E+01  0.30631759840E+01  0.60922154348E+01  0.00000000000E+00 0. -1.
</event>
<event>
 8    1  0.1280823E-010  0.9118800E+02  0.7816164E-02  0.1184000E+00
        -11   -1    0    0    0    0  0.00000000000E+00  0.00000000000E+00  0.45593999997E+02  0.45594000000E+02  0.51100000000E-03 0. -1.
         11   -1    0    0    0    0 -0.00000000000E+00 -0.00000000000E+00 -0.45593999997E+02  0.45594000000E+02  0.51100000000E-03 0.  1.
         23    2    1    2    0    0  0.00000000000E+00  0.00000000000E+00  0.00000000000E+00  0.91188000000E+02  0.91188000000E+02 0.  0.
    9900012    2    3    3    0    0  0.84021354800E+01 -0.30873057732E+01  0.42467587694E+02  0.47787270258E+02  0.19999996414E+02 0.  0.
        -12    1    3    3    0    0 -0.84021354800E+01  0.30873057732E+01 -0.42467587694E+02  0.43400729742E+02  0.00000000000E+00 0.  1.
         11    1    4    4    0    0 -0.44901664381E+01 -0.14363483221E+01  0.58707640853E+01  0.75293135378E+01  0.51100000000E-03 0.  1.
        -11    1    4    4    0    0 -0.80049434900E+00 -0.28998670092E+01  0.72737912864E+01  0.78713442190E+01  0.51100000000E-03 0. -1.
        -12    1    4    4    0    0  0.13692796267E+02  0.12489095581E+01  0.29323032323E+02  0.32386612501E+02  0.00000000000E+00 0.  1.
</event>
<event>
 8    1  0.1280823E-010  0.9118800E+02  0.7816164E-02  0.1184000E+00
        -11   -1    0    0    0    0  0.00000000000E+00  0.00000000000E+00  0.45593999997E+02  0.45594000000E+02  0.51100000000E-03 0. -1.
         11   -1    0    0    0    0 -0.00000000000E+00 -0.00000000000E+00 -0.45593999997E+02  0.45594000000E+02  0.51100000000E-03 0.  1.
         23    2    1    2    0    0  0.30531133177E-15  0.77715611724E-15 -0.71054273576E-14  0.91188000000E+02  0.91188000000E+02 0.  0.
    9900012    2    3    3    0    0  0.16190483094E+00  0.17747776108E+00  0.43400112235E+02  0.47787222892E+02  0.19999780452E+02 0.  0.
        -12    1    3    3    0    0 -0.16190483094E+00 -0.17747776108E+00 -0.43400112235E+02  0.43400777108E+02  0.00000000000E+00 0.  1.
         11    1    4    4    0    0 -0.60091903407E+01 -0.40208769717E+01  0.24006358414E+02  0.25071558881E+02  0.51100000000E-03 0. -1.
        -11    1    4    4    0    0 -0.22449977208E+01 -0.28374778621E+00  0.43781427913E+01  0.49283528825E+01  0.51100000000E-03 0.  1.
        -12    1    4    4    0    0  0.84160928924E+01  0.44821025190E+01  0.15015611030E+02  0.17787311128E+02  0.00000000000E+00 0.  1.
</event>
<event>
 8    1  0.1280823E-010  0.9118800E+02  0.7816164E-02  0.1184000E+00
        -11   -1    0    0    0    0  0.00000000000E+00  0.00000000000E+00  0.45593999997E+02  0.45594000000E+02  0.51100000000E-03 0. -1.
         11   -1    0    0    0    0 -0.00000000000E+00 -0.00000000000E+00 -0.45593999997E+02  0.45594000000E+02  0.51100000000E-03 0.  1.
         23    2    1    2    0    0 -0.17763568394E-14  0.00000000000E+00  0.00000000000E+00  0.91188000000E+02  0.91188000000E+02 0.  0.
    9900012    2    3    3    0    0  0.10182176466E+02 -0.23970867405E+02  0.34718059837E+02  0.47787275575E+02  0.20000020657E+02 0.  0.
        -12    1    3    3    0    0 -0.10182176466E+02  0.23970867405E+02 -0.34718059837E+02  0.43400724425E+02  0.00000000000E+00 0.  1.
         11    1    4    4    0    0  0.88486156913E+00  0.80332512204E+00 -0.88323849051E+00  0.14860759538E+01  0.51100000000E-03 0. -1.
        -11    1    4    4    0    0  0.77461150510E+01 -0.76058454040E+01  0.70331379788E+01  0.12935076837E+02  0.51100000000E-03 0.  1.
         12    1    4    4    0    0  0.15511998457E+01 -0.17168347123E+02  0.28568160349E+02  0.33366122784E+02  0.00000000000E+00 0. -1.
</event>
<event>
 8    1  0.1280823E-010  0.9118800E+02  0.7816164E-02  0.1184000E+00
        -11   -1    0    0    0    0  0.00000000000E+00  0.00000000000E+00  0.45593999997E+02  0.45594000000E+02  0.51100000000E-03 0. -1.
         11   -1    0    0    0    0 -0.00000000000E+00 -0.00000000000E+00 -0.45593999997E+02  0.45594000000E+02  0.51100000000E-03 0.  1.
         23    2    1    2    0    0  0.00000000000E+00 -0.71054273576E-14 -0.35527136788E-14  0.91188000000E+02  0.91188000000E+02 0.  0.
    9900012    2    3    3    0    0  0.15663902990E+02  0.33808684001E+02  0.22254062007E+02  0.47787213756E+02  0.19999738796E+02 0.  0.
        -12    1    3    3    0    0 -0.15663902990E+02 -0.33808684001E+02 -0.22254062007E+02  0.43400786244E+02  0.00000000000E+00 0.  1.
         11    1    4    4    0    0  0.68193029948E+01  0.98732636758E+01  0.38975503786E+01  0.12616462585E+02  0.51100000000E-03 0. -1.
        -11    1    4    4    0    0  0.28310487694E+01 -0.19237588824E+01  0.25962966939E+01  0.42960961531E+01  0.51100000000E-03 0.  1.
         12    1    4    4    0    0  0.60135512258E+01  0.25859179208E+02  0.15760214935E+02  0.30874655018E+02  0.00000000000E+00 0. -1.
</event>
<event>
 8    1  0.1280823E-010  0.9118800E+02  0.7816164E-02  0.1184000E+00
        -11   -1    0    0    0    0  0.00000000000E+00  0.00000000000E+00  0.45593999997E+02  0.45594000000E+02  0.51100000000E-03 0. -1.
         11   -1    0    0    0    0 -0.00000000000E+00 -0.00000000000E+00 -0.45593999997E+02  0.45594000000E+02  0.51100000000E-03 0.  1.
         23    2    1    2    0    0 -0.16653345369E-15  0.00000000000E+00  0.00000000000E+00  0.91188000000E+02  0.91188000000E+02 0.  0.
    9900012    2    3    3    0    0 -0.40343152840E+00 -0.34735097489E+02  0.26017949465E+02  0.47787269028E+02  0.19999990804E+02 0.  0.
        -12    1    3    3    0    0  0.40343152840E+00  0.34735097489E+02 -0.26017949465E+02  0.43400730972E+02  0.00000000000E+00 0.  1.
         11    1    4    4    0    0  0.40352765330E+01 -0.33185260590E+02  0.21262896410E+02  0.39618881119E+02  0.51100000000E-03 0. -1.
        -11    1    4    4    0    0 -0.17151372931E+01 -0.20632511753E+01  0.46815325642E+01  0.53958733082E+01  0.51100000000E-03 0.  1.
         12    1    4    4    0    0 -0.27235707683E+01  0.51341427588E+00  0.73520491140E-01  0.27725146008E+01  0.00000000000E+00 0. -1.
</event>
<event>
 8    1  0.1280823E-010  0.9118800E+02  0.7816164E-02  0.1184000E+00
        -11   -1    0    0    0    0  0.00000000000E+00  0.00000000000E+00  0.45593999997E+02  0.45594000000E+02  0.51100000000E-03 0. -1.
         11   -1    0    0    0    0 -0.00000000000E+00 -0.00000000000E+00 -0.45593999997E+02  0.45594000000E+02  0.51100000000E-03 0.  1.
         23    2    1    2    0    0  0.17763568394E-14 -0.17763568394E-14  0.00000000000E+00  0.91188000000E+02  0.91188000000E+02 0.  0.
    9900012    2    3    3    0    0  0.13640078782E+02 -0.10656179247E+02  0.39799713929E+02  0.47787272654E+02  0.20000007339E+02 0.  0.
        -12    1    3    3    0    0 -0.13640078782E+02  0.10656179247E+02 -0.39799713929E+02  0.43400727346E+02  0.00000000000E+00 0.  1.
         11    1    4    4    0    0  0.39522884891E+01 -0.96999198186E+01  0.76543558230E+01  0.12972979308E+02  0.51100000000E-03 0. -1.
        -11    1    4    4    0    0  0.32186391776E+01  0.69511316719E+00  0.18193675085E+01  0.37620365313E+01  0.51100000000E-03 0.  1.
        -12    1    4    4    0    0  0.64691511157E+01 -0.16513725951E+01  0.30325990597E+02  0.31052256815E+02  0.00000000000E+00 0.  1.
</event>
<event>
 8    1  0.1280823E-010  0.9118800E+02  0.7816164E-02  0.1184000E+00
        -11   -1    0    0    0    0  0.00000000000E+00  0.00000000000E+00  0.45593999997E+02  0.45594000000E+02  0.51100000000E-03 0. -1.
         11   -1    0    0    0    0 -0.00000000000E+00 -0.00000000000E+00 -0.45593999997E+02  0.45594000000E+02  0.51100000000E-03 0.  1.
         23    2    1    2    0    0  0.71054273576E-14 -0.17763568394E-14 -0.35527136788E-14  0.91188000000E+02  0.91188000000E+02 0.  0.
    9900012    2    3    3    0    0 -0.37903196185E+02  0.10544616516E+02  0.18324358265E+02  0.47787270464E+02  0.19999997352E+02 0.  0.
        -12    1    3    3    0    0  0.37903196185E+02 -0.10544616516E+02 -0.18324358265E+02  0.43400729536E+02  0.00000000000E+00 0.  1.
         11    1    4    4    0    0 -0.13547021666E+01  0.46094765572E+00 -0.23342583545E+01  0.27379651255E+01  0.51100000000E-03 0. -1.
        -11    1    4    4    0    0  0.19124323730E+00  0.11093140983E+01  0.32037128670E+01  0.33957220351E+01  0.51100000000E-03 0.  1.
         12    1    4    4    0    0 -0.36739737255E+02  0.89743547619E+01  0.17454903753E+02  0.41653583303E+02  0.00000000000E+00 0. -1.
</event>
<event>
 8    1  0.1280823E-010  0.9118800E+02  0.7816164E-02  0.1184000E+00
        -11   -1    0    0    0    0  0.00000000000E+00  0.00000000000E+00  0.45593999997E+02  0.45594000000E+02  0.51100000000E-03 0.  1.
         11   -1    0    0    0    0 -0.00000000000E+00 -0.00000000000E+00 -0.45593999997E+02  0.45594000000E+02  0.51100000000E-03 0. -1.
         23    2    1    2    0    0  0.00000000000E+00 -0.35527136788E-14  0.00000000000E+00  0.91188000000E+02  0.91188000000E+02 0.  0.
    9900012    2    3    3    0    0  0.32035270321E+02 -0.27167826282E+02  0.10921273799E+02  0.47787267854E+02  0.19999985452E+02 0.  0.
         12    1    3    3    0    0 -0.32035270321E+02  0.27167826282E+02 -0.10921273799E+02  0.43400732146E+02  0.00000000000E+00 0. -1.
         11    1    4    4    0    0  0.94127440863E+01 -0.15155768489E+02  0.44885157340E+01  0.18396843303E+02  0.51100000000E-03 0. -1.
        -11    1    4    4    0    0  0.12433944232E+02 -0.12911025953E+02  0.67597630563E+01  0.19157034143E+02  0.51100000000E-03 0.  1.
         12    1    4    4    0    0  0.10188582002E+02  0.89896816023E+00 -0.32700499153E+00  0.10233390408E+02  0.00000000000E+00 0. -1.
</event>
<event>
 8    1  0.1280823E-010  0.9118800E+02  0.7816164E-02  0.1184000E+00
        -11   -1    0    0    0    0  0.00000000000E+00  0.00000000000E+00  0.45593999997E+02  0.45594000000E+02  0.51100000000E-03 0. -1.
         11   -1    0    0    0    0 -0.00000000000E+00 -0.00000000000E+00 -0.45593999997E+02  0.45594000000E+02  0.51100000000E-03 0.  1.
         23    2    1    2    0    0  0.35527136788E-14  0.00000000000E+00  0.35527136788E-14  0.91188000000E+02  0.91188000000E+02 0.  0.
    9900012    2    3    3    0    0  0.30343600114E+02 -0.21080394833E+02  0.22770732979E+02  0.47787269653E+02  0.19999993656E+02 0.  0.
        -12    1    3    3    0    0 -0.30343600114E+02  0.21080394833E+02 -0.22770732979E+02  0.43400730347E+02  0.00000000000E+00 0.  1.
         11    1    4    4    0    0  0.20032160827E+02 -0.12347168342E+02  0.14566629703E+02  0.27675381382E+02  0.51100000000E-03 0. -1.
        -11    1    4    4    0    0  0.57285209881E+01 -0.43261154806E+01 -0.25507049747E+01  0.76182231519E+01  0.51100000000E-03 0.  1.
         12    1    4    4    0    0  0.45829182994E+01 -0.44071110108E+01  0.10754808251E+02  0.12493665120E+02  0.00000000000E+00 0. -1.
</event>
<event>
 8    1  0.1280823E-010  0.9118800E+02  0.7816164E-02  0.1184000E+00
        -11   -1    0    0    0    0  0.00000000000E+00  0.00000000000E+00  0.45593999997E+02  0.45594000000E+02  0.51100000000E-03 0. -1.
         11   -1    0    0    0    0 -0.00000000000E+00 -0.00000000000E+00 -0.45593999997E+02  0.45594000000E+02  0.51100000000E-03 0.  1.
         23    2    1    2    0    0  0.00000000000E+00  0.17763568394E-14  0.00000000000E+00  0.91188000000E+02  0.91188000000E+02 0.  0.
    9900012    2    3    3    0    0 -0.26983931251E+02 -0.15467444831E+02 -0.30269601267E+02  0.47787272400E+02  0.20000006181E+02 0.  0.
         12    1    3    3    0    0  0.26983931251E+02  0.15467444831E+02  0.30269601267E+02  0.43400727600E+02  0.00000000000E+00 0. -1.
         11    1    4    4    0    0 -0.18507390138E+00 -0.55739892722E+01 -0.92581245511E+01  0.10808167246E+02  0.51100000000E-03 0. -1.
        -11    1    4    4    0    0 -0.55978867565E+01 -0.61522380591E+01 -0.92781985310E+01  0.12460792010E+02  0.51100000000E-03 0.  1.
         12    1    4    4    0    0 -0.21200970593E+02 -0.37412175001E+01 -0.11733278185E+02  0.24518313144E+02  0.00000000000E+00 0. -1.
</event>
<event>
 8    1  0.1280823E-010  0.9118800E+02  0.7816164E-02  0.1184000E+00
        -11   -1    0    0    0    0  0.00000000000E+00  0.00000000000E+00  0.45593999997E+02  0.45594000000E+02  0.51100000000E-03 0. -1.
         11   -1    0    0    0    0 -0.00000000000E+00 -0.00000000000E+00 -0.45593999997E+02  0.45594000000E+02  0.51100000000E-03 0.  1.
         23    2    1    2    0    0  0.44408920985E-15  0.00000000000E+00  0.00000000000E+00  0.91188000000E+02  0.91188000000E+02 0.  0.
    9900012    2    3    3    0    0  0.38698200145E+01 -0.27677364510E+02  0.33205580371E+02  0.47787279027E+02  0.20000036397E+02 0.  0.
        -12    1    3    3    0    0 -0.38698200145E+01  0.27677364510E+02 -0.33205580371E+02  0.43400720973E+02  0.00000000000E+00 0.  1.
         11    1    4    4    0    0  0.54211226342E+00 -0.46233797562E+01  0.13942010808E+02  0.14698611898E+02  0.51100000000E-03 0. -1.
        -11    1    4    4    0    0  0.73824983147E+01 -0.67439761356E+01  0.85646339856E+01  0.13165692198E+02  0.51100000000E-03 0.  1.
         12    1    4    4    0    0 -0.40547905636E+01 -0.16310008619E+02  0.10698935577E+02  0.19922974932E+02  0.00000000000E+00 0. -1.
</event>
<event>
 8    1  0.1280823E-010  0.9118800E+02  0.7816164E-02  0.1184000E+00
        -11   -1    0    0    0    0  0.00000000000E+00  0.00000000000E+00  0.45593999997E+02  0.45594000000E+02  0.51100000000E-03 0. -1.
         11   -1    0    0    0    0 -0.00000000000E+00 -0.00000000000E+00 -0.45593999997E+02  0.45594000000E+02  0.51100000000E-03 0.  1.
         23    2    1    2    0    0  0.00000000000E+00 -0.71054273576E-14  0.71054273576E-14  0.91188000000E+02  0.91188000000E+02 0.  0.
    9900012    2    3    3    0    0  0.11441595470E+02  0.35957555119E+02 -0.21442176513E+02  0.47787276381E+02  0.20000024333E+02 0.  0.
         12    1    3    3    0    0 -0.11441595470E+02 -0.35957555119E+02  0.21442176513E+02  0.43400723619E+02  0.00000000000E+00 0. -1.
         11    1    4    4    0    0  0.10215488527E+02  0.14285636921E+02 -0.10566014089E+02  0.20495762540E+02  0.51100000000E-03 0. -1.
        -11    1    4    4    0    0  0.27626110147E+01  0.19921326716E+02 -0.13155589635E+02  0.24032495015E+02  0.51100000000E-03 0.  1.
         12    1    4    4    0    0 -0.15365040722E+01  0.17505914820E+01  0.22794272114E+01  0.32590188268E+01  0.00000000000E+00 0. -1.
</event>
<event>
 8    1  0.1280823E-010  0.9118800E+02  0.7816164E-02  0.1184000E+00
        -11   -1    0    0    0    0  0.00000000000E+00  0.00000000000E+00  0.45593999997E+02  0.45594000000E+02  0.51100000000E-03 0.  1.
         11   -1    0    0    0    0 -0.00000000000E+00 -0.00000000000E+00 -0.45593999997E+02  0.45594000000E+02  0.51100000000E-03 0. -1.
         23    2    1    2    0    0  0.00000000000E+00  0.00000000000E+00 -0.88817841970E-15  0.91188000000E+02  0.91188000000E+02 0.  0.
    9900012    2    3    3    0    0 -0.20532361087E+02 -0.37796025735E+02  0.57884295959E+01  0.47787270394E+02  0.19999997033E+02 0.  0.
        -12    1    3    3    0    0  0.20532361087E+02  0.37796025735E+02 -0.57884295959E+01  0.43400729606E+02  0.00000000000E+00 0.  1.
         11    1    4    4    0    0 -0.13651181668E+02 -0.13364368174E+02 -0.20777038474E+01  0.19216606130E+02  0.51100000000E-03 0. -1.
        -11    1    4    4    0    0  0.67154639948E+00  0.82769249823E+00  0.29446949592E-01  0.10662630174E+01  0.51100000000E-03 0.  1.
         12    1    4    4    0    0 -0.75527258184E+01 -0.25259350059E+02  0.78366864937E+01  0.27504401246E+02  0.00000000000E+00 0. -1.
</event>
<event>
 8    1  0.1280823E-010  0.9118800E+02  0.7816164E-02  0.1184000E+00
        -11   -1    0    0    0    0  0.00000000000E+00  0.00000000000E+00  0.45593999997E+02  0.45594000000E+02  0.51100000000E-03 0. -1.
         11   -1    0    0    0    0 -0.00000000000E+00 -0.00000000000E+00 -0.45593999997E+02  0.45594000000E+02  0.51100000000E-03 0.  1.
         23    2    1    2    0    0  0.00000000000E+00  0.00000000000E+00  0.00000000000E+00  0.91188000000E+02  0.91188000000E+02 0.  0.
    9900012    2    3    3    0    0  0.13670894471E+02 -0.10557813029E+02 -0.39815356367E+02  0.47787269888E+02  0.19999994730E+02 0.  0.
         12    1    3    3    0    0 -0.13670894471E+02  0.10557813029E+02  0.39815356367E+02  0.43400730112E+02  0.00000000000E+00 0. -1.
         11    1    4    4    0    0  0.72794872484E+01 -0.56989524573E+00 -0.17000026154E+02  0.18501800039E+02  0.51100000000E-03 0. -1.
        -11    1    4    4    0    0  0.74157811766E+01 -0.26502535429E+00 -0.49501509177E+01  0.89200921109E+01  0.51100000000E-03 0.  1.
        -12    1    4    4    0    0 -0.10243739538E+01 -0.97228924294E+01 -0.17865179295E+02  0.20365377739E+02  0.00000000000E+00 0.  1.
</event>
<event>
 8    1  0.1280823E-010  0.9118800E+02  0.7816164E-02  0.1184000E+00
        -11   -1    0    0    0    0  0.00000000000E+00  0.00000000000E+00  0.45593999997E+02  0.45594000000E+02  0.51100000000E-03 0. -1.
         11   -1    0    0    0    0 -0.00000000000E+00 -0.00000000000E+00 -0.45593999997E+02  0.45594000000E+02  0.51100000000E-03 0.  1.
         23    2    1    2    0    0 -0.35527136788E-14  0.00000000000E+00  0.00000000000E+00  0.91188000000E+02  0.91188000000E+02 0.  0.
    9900012    2    3    3    0    0  0.20149571455E+02  0.86416129829E+01  0.37455846378E+02  0.47787272672E+02  0.20000007418E+02 0.  0.
        -12    1    3    3    0    0 -0.20149571455E+02 -0.86416129829E+01 -0.37455846378E+02  0.43400727328E+02  0.00000000000E+00 0.  1.
         11    1    4    4    0    0  0.85199359659E+01 -0.43780979401E+01  0.96644191519E+01  0.13607279237E+02  0.51100000000E-03 0. -1.
        -11    1    4    4    0    0  0.11063101486E+00  0.26863777468E+01  0.39811212756E+00  0.27179694897E+01  0.51100000000E-03 0.  1.
         12    1    4    4    0    0  0.11519004474E+02  0.10333333176E+02  0.27393315098E+02  0.31462023945E+02  0.00000000000E+00 0. -1.
</event>
<event>
 8    1  0.1280823E-010  0.9118800E+02  0.7816164E-02  0.1184000E+00
        -11   -1    0    0    0    0  0.00000000000E+00  0.00000000000E+00  0.45593999997E+02  0.45594000000E+02  0.51100000000E-03 0. -1.
         11   -1    0    0    0    0 -0.00000000000E+00 -0.00000000000E+00 -0.45593999997E+02  0.45594000000E+02  0.51100000000E-03 0.  1.
         23    2    1    2    0    0 -0.35527136788E-14  0.00000000000E+00  0.00000000000E+00  0.91188000000E+02  0.91188000000E+02 0.  0.
    9900012    2    3    3    0    0  0.23456437236E+02  0.24997900726E+01 -0.36430360562E+02  0.47787256125E+02  0.19999931977E+02 0.  0.
         12    1    3    3    0    0 -0.23456437236E+02 -0.24997900726E+01  0.36430360562E+02  0.43400743875E+02  0.00000000000E+00 0. -1.
         11    1    4    4    0    0  0.15761518665E+02 -0.21640363662E+01 -0.20423403374E+02  0.25888683428E+02  0.51100000000E-03 0. -1.
        -11    1    4    4    0    0  0.10485801516E+02  0.50258079176E+01 -0.10293231993E+02  0.15529372291E+02  0.51100000000E-03 0.  1.
         12    1    4    4    0    0 -0.27908829442E+01 -0.36198147888E+00 -0.57137251951E+01  0.63692004054E+01  0.00000000000E+00 0. -1.
</event>
<event>
 8    1  0.1280823E-010  0.9118800E+02  0.7816164E-02  0.1184000E+00
        -11   -1    0    0    0    0  0.00000000000E+00  0.00000000000E+00  0.45593999997E+02  0.45594000000E+02  0.51100000000E-03 0. -1.
         11   -1    0    0    0    0 -0.00000000000E+00 -0.00000000000E+00 -0.45593999997E+02  0.45594000000E+02  0.51100000000E-03 0.  1.
         23    2    1    2    0    0 -0.71054273576E-14  0.00000000000E+00 -0.35527136788E-14  0.91188000000E+02  0.91188000000E+02 0.  0.
    9900012    2    3    3    0    0  0.34690688235E+02  0.21201373406E+01 -0.25993914815E+02  0.47787280652E+02  0.20000043805E+02 0.  0.
         12    1    3    3    0    0 -0.34690688235E+02 -0.21201373406E+01  0.25993914815E+02  0.43400719348E+02  0.00000000000E+00 0. -1.
         11    1    4    4    0    0  0.11131969793E+02  0.36147294870E+01 -0.45250911116E+01  0.12548444946E+02  0.51100000000E-03 0. -1.
        -11    1    4    4    0    0  0.24921644312E+02 -0.19929348416E+01 -0.22355291800E+02  0.33538324589E+02  0.51100000000E-03 0.  1.
         12    1    4    4    0    0 -0.13629258709E+01  0.49834269518E+00  0.88646809682E+00  0.17005111167E+01  0.00000000000E+00 0. -1.
</event>
<event>
 8    1  0.1280823E-010  0.9118800E+02  0.7816164E-02  0.1184000E+00
        -11   -1    0    0    0    0  0.00000000000E+00  0.00000000000E+00  0.45593999997E+02  0.45594000000E+02  0.51100000000E-03 0. -1.
         11   -1    0    0    0    0 -0.00000000000E+00 -0.00000000000E+00 -0.45593999997E+02  0.45594000000E+02  0.51100000000E-03 0.  1.
         23    2    1    2    0    0 -0.22204460493E-15 -0.35527136788E-14  0.71054273576E-14  0.91188000000E+02  0.91188000000E+02 0.  0.
    9900012    2    3    3    0    0 -0.17139501011E+01 -0.16570462134E+02  0.40076241707E+02  0.47787274319E+02  0.20000014930E+02 0.  0.
        -12    1    3    3    0    0  0.17139501011E+01  0.16570462134E+02 -0.40076241707E+02  0.43400725681E+02  0.00000000000E+00 0.  1.
         11    1    4    4    0    0 -0.12102545269E+01 -0.10282537131E+02  0.25656293229E+02  0.27666598425E+02  0.51100000000E-03 0. -1.
        -11    1    4    4    0    0 -0.33636795084E+01 -0.92934726733E+01  0.10134478721E+02  0.14155939862E+02  0.51100000000E-03 0.  1.
         12    1    4    4    0    0  0.28599839341E+01  0.30055476702E+01  0.42854697563E+01  0.59647360322E+01  0.00000000000E+00 0. -1.
</event>
<event>
 8    1  0.1280823E-010  0.9118800E+02  0.7816164E-02  0.1184000E+00
        -11   -1    0    0    0    0  0.00000000000E+00  0.00000000000E+00  0.45593999997E+02  0.45594000000E+02  0.51100000000E-03 0. -1.
         11   -1    0    0    0    0 -0.00000000000E+00 -0.00000000000E+00 -0.45593999997E+02  0.45594000000E+02  0.51100000000E-03 0.  1.
         23    2    1    2    0    0  0.00000000000E+00  0.17763568394E-14  0.00000000000E+00  0.91188000000E+02  0.91188000000E+02 0.  0.
    9900012    2    3    3    0    0 -0.18183792313E+02  0.13805994142E+02 -0.36910258890E+02  0.47787274333E+02  0.20000014993E+02 0.  0.
         12    1    3    3    0    0  0.18183792313E+02 -0.13805994142E+02  0.36910258890E+02  0.43400725667E+02  0.00000000000E+00 0. -1.
         11    1    4    4    0    0 -0.16324852949E+01  0.46498508799E+01 -0.57858540257E+01  0.76001466112E+01  0.51100000000E-03 0. -1.
        -11    1    4    4    0    0 -0.25079081084E+01  0.84124362507E+01 -0.21283750165E+02  0.23022960455E+02  0.51100000000E-03 0.  1.
         12    1    4    4    0    0 -0.14043398910E+02  0.74370701172E+00 -0.98406546987E+01  0.17164167266E+02  0.00000000000E+00 0. -1.
</event>
<event>
 8    1  0.1280823E-010  0.9118800E+02  0.7816164E-02  0.1184000E+00
        -11   -1    0    0    0    0  0.00000000000E+00  0.00000000000E+00  0.45593999997E+02  0.45594000000E+02  0.51100000000E-03 0. -1.
         11   -1    0    0    0    0 -0.00000000000E+00 -0.00000000000E+00 -0.45593999997E+02  0.45594000000E+02  0.51100000000E-03 0.  1.
         23    2    1    2    0    0 -0.88817841970E-15  0.00000000000E+00  0.00000000000E+00  0.91188000000E+02  0.91188000000E+02 0.  0.
    9900012    2    3    3    0    0 -0.17721636546E+01 -0.29096285376E+02 -0.32154138689E+02  0.47787273952E+02  0.20000013256E+02 0.  0.
         12    1    3    3    0    0  0.17721636546E+01  0.29096285376E+02  0.32154138689E+02  0.43400726048E+02  0.00000000000E+00 0. -1.
         11    1    4    4    0    0 -0.49060168881E+01 -0.99540999858E+01 -0.92403484646E+01  0.14440815359E+02  0.51100000000E-03 0.  1.
        -11    1    4    4    0    0 -0.35400210547E+00  0.23874111408E+01 -0.24460970648E+01  0.34363411584E+01  0.51100000000E-03 0. -1.
        -12    1    4    4    0    0  0.34878553390E+01 -0.21529596531E+02 -0.20467693160E+02  0.29910117434E+02  0.00000000000E+00 0.  1.
</event>
<event>
 8    1  0.1280823E-010  0.9118800E+02  0.7816164E-02  0.1184000E+00
        -11   -1    0    0    0    0  0.00000000000E+00  0.00000000000E+00  0.45593999997E+02  0.45594000000E+02  0.51100000000E-03 0. -1.
         11   -1    0    0    0    0 -0.00000000000E+00 -0.00000000000E+00 -0.45593999997E+02  0.45594000000E+02  0.51100000000E-03 0.  1.
         23    2    1    2    0    0  0.00000000000E+00  0.00000000000E+00  0.00000000000E+00  0.91188000000E+02  0.91188000000E+02 0.  0.
    9900012    2    3    3    0    0 -0.10812704871E+01  0.31549979262E+02  0.29783429000E+02  0.47787274427E+02  0.20000015422E+02 0.  0.
        -12    1    3    3    0    0  0.10812704871E+01 -0.31549979262E+02 -0.29783429000E+02  0.43400725573E+02  0.00000000000E+00 0.  1.
         11    1    4    4    0    0  0.49323844550E+01  0.11769127763E+02  0.60980117001E+01  0.14143073629E+02  0.51100000000E-03 0. -1.
        -11    1    4    4    0    0 -0.32078460203E+01  0.96851250222E+01  0.32991871942E+01  0.10722712306E+02  0.51100000000E-03 0.  1.
         12    1    4    4    0    0 -0.28058089219E+01  0.10095726477E+02  0.20386230106E+02  0.22921488493E+02  0.00000000000E+00 0. -1.
</event>
<event>
 8    1  0.1280823E-010  0.9118800E+02  0.7816164E-02  0.1184000E+00
        -11   -1    0    0    0    0  0.00000000000E+00  0.00000000000E+00  0.45593999997E+02  0.45594000000E+02  0.51100000000E-03 0. -1.
         11   -1    0    0    0    0 -0.00000000000E+00 -0.00000000000E+00 -0.45593999997E+02  0.45594000000E+02  0.51100000000E-03 0.  1.
         23    2    1    2    0    0  0.00000000000E+00 -0.44408920985E-15  0.00000000000E+00  0.91188000000E+02  0.91188000000E+02 0.  0.
    9900012    2    3    3    0    0  0.28697076720E+02 -0.77341264905E+00 -0.32550005612E+02  0.47787271380E+02  0.20000001529E+02 0.  0.
         12    1    3    3    0    0 -0.28697076720E+02  0.77341264905E+00  0.32550005612E+02  0.43400728620E+02  0.00000000000E+00 0. -1.
         11    1    4    4    0    0  0.94795492569E+01 -0.90378817969E+01 -0.16015288485E+02  0.20688997729E+02  0.51100000000E-03 0. -1.
        -11    1    4    4    0    0  0.29640373438E+01  0.33644939363E+00 -0.70611802021E+00  0.30655046060E+01  0.51100000000E-03 0.  1.
         12    1    4    4    0    0  0.16253490120E+02  0.79280197542E+01 -0.15828599107E+02  0.24032769045E+02  0.00000000000E+00 0. -1.
</event>
<event>
 8    1  0.1602355E-010  0.9118800E+02  0.7816164E-02  0.1184000E+00
        -11   -1    0    0    0    0  0.00000000000E+00  0.00000000000E+00  0.45593999997E+02  0.45594000000E+02  0.51100000000E-03 0. -1.
         11   -1    0    0    0    0 -0.00000000000E+00 -0.00000000000E+00 -0.45593999997E+02  0.45594000000E+02  0.51100000000E-03 0.  1.
         23    2    1    2    0    0  0.00000000000E+00  0.00000000000E+00  0.71054273576E-14  0.91188000000E+02  0.91188000000E+02 0.  0.
    9900012    2    3    3    0    0 -0.22161569048E+02  0.61904615799E+01 -0.36799006629E+02  0.47787264452E+02  0.19999969943E+02 0.  0.
         12    1    3    3    0    0  0.22161569048E+02 -0.61904615799E+01  0.36799006629E+02  0.43400735548E+02  0.00000000000E+00 0. -1.
         11    1    4    4    0    0  0.43346866428E+00  0.78595075562E+00 -0.10157093102E+02  0.10196673684E+02  0.51100000000E-03 0. -1.
        -11    1    4    4    0    0 -0.13637364680E+02  0.73943717004E+01 -0.22946689875E+02  0.27698466108E+02  0.51100000000E-03 0.  1.
        -12    1    4    4    0    0 -0.89576730322E+01 -0.19898608761E+01 -0.36952236519E+01  0.98921246603E+01  0.00000000000E+00 0.  1.
</event>
<event>
 8    1  0.1280823E-010  0.9118800E+02  0.7816164E-02  0.1184000E+00
        -11   -1    0    0    0    0  0.00000000000E+00  0.00000000000E+00  0.45593999997E+02  0.45594000000E+02  0.51100000000E-03 0. -1.
         11   -1    0    0    0    0 -0.00000000000E+00 -0.00000000000E+00 -0.45593999997E+02  0.45594000000E+02  0.51100000000E-03 0.  1.
         23    2    1    2    0    0  0.00000000000E+00  0.00000000000E+00 -0.35527136788E-14  0.91188000000E+02  0.91188000000E+02 0.  0.
    9900012    2    3    3    0    0  0.46153596865E+00  0.38092971853E+02  0.20792686984E+02  0.47787270144E+02  0.19999995894E+02 0.  0.
        -12    1    3    3    0    0 -0.46153596865E+00 -0.38092971853E+02 -0.20792686984E+02  0.43400729856E+02  0.00000000000E+00 0.  1.
         11    1    4    4    0    0 -0.24674211372E+01  0.19351249210E+01  0.62362279996E+01  0.69802160033E+01  0.51100000000E-03 0. -1.
        -11    1    4    4    0    0  0.33721436447E+00 -0.38640458834E+00  0.20221175047E+01  0.20861403350E+01  0.51100000000E-03 0.  1.
         12    1    4    4    0    0  0.25917427413E+01  0.36544251520E+02  0.12534341479E+02  0.38720913806E+02  0.00000000000E+00 0. -1.
</event>
<event>
 8    1  0.1280823E-010  0.9118800E+02  0.7816164E-02  0.1184000E+00
        -11   -1    0    0    0    0  0.00000000000E+00  0.00000000000E+00  0.45593999997E+02  0.45594000000E+02  0.51100000000E-03 0. -1.
         11   -1    0    0    0    0 -0.00000000000E+00 -0.00000000000E+00 -0.45593999997E+02  0.45594000000E+02  0.51100000000E-03 0.  1.
         23    2    1    2    0    0  0.00000000000E+00  0.17763568394E-14  0.00000000000E+00  0.91188000000E+02  0.91188000000E+02 0.  0.
    9900012    2    3    3    0    0  0.23108267436E+02  0.11645550258E+02  0.34842673963E+02  0.47787276578E+02  0.20000025229E+02 0.  0.
        -12    1    3    3    0    0 -0.23108267436E+02 -0.11645550258E+02 -0.34842673963E+02  0.43400723422E+02  0.00000000000E+00 0.  1.
         11    1    4    4    0    0  0.76164047377E+01  0.67672344099E+01  0.20907984191E+02  0.23258307890E+02  0.51100000000E-03 0. -1.
        -11    1    4    4    0    0  0.10851941241E+01  0.56554095050E+01  0.39147090194E+01  0.69632068707E+01  0.51100000000E-03 0.  1.
         12    1    4    4    0    0  0.14406668574E+02 -0.77709365672E+00  0.10019980752E+02  0.17565761817E+02  0.00000000000E+00 0. -1.
</event>
<event>
 8    1  0.1280823E-010  0.9118800E+02  0.7816164E-02  0.1184000E+00
        -11   -1    0    0    0    0  0.00000000000E+00  0.00000000000E+00  0.45593999997E+02  0.45594000000E+02  0.51100000000E-03 0. -1.
         11   -1    0    0    0    0 -0.00000000000E+00 -0.00000000000E+00 -0.45593999997E+02  0.45594000000E+02  0.51100000000E-03 0.  1.
         23    2    1    2    0    0  0.00000000000E+00  0.00000000000E+00  0.00000000000E+00  0.91188000000E+02  0.91188000000E+02 0.  0.
    9900012    2    3    3    0    0  0.41751204522E+02 -0.59077039786E+01  0.10274193863E+02  0.47787272991E+02  0.20000008877E+02 0.  0.
        -12    1    3    3    0    0 -0.41751204522E+02  0.59077039786E+01 -0.10274193863E+02  0.43400727009E+02  0.00000000000E+00 0.  1.
         11    1    4    4    0    0  0.73778317252E+01 -0.72377030203E+01  0.32732338970E+01  0.10841162594E+02  0.51100000000E-03 0. -1.
        -11    1    4    4    0    0  0.14625673522E+02 -0.51082414842E+01  0.34980375928E+01  0.15882088159E+02  0.51100000000E-03 0.  1.
        -12    1    4    4    0    0  0.19747699275E+02  0.64382405259E+01  0.35029223732E+01  0.21064022239E+02  0.00000000000E+00 0.  1.
</event>
<event>
 8    1  0.1280823E-010  0.9118800E+02  0.7816164E-02  0.1184000E+00
        -11   -1    0    0    0    0  0.00000000000E+00  0.00000000000E+00  0.45593999997E+02  0.45594000000E+02  0.51100000000E-03 0. -1.
         11   -1    0    0    0    0 -0.00000000000E+00 -0.00000000000E+00 -0.45593999997E+02  0.45594000000E+02  0.51100000000E-03 0.  1.
         23    2    1    2    0    0  0.00000000000E+00  0.13877787808E-16  0.71054273576E-14  0.91188000000E+02  0.91188000000E+02 0.  0.
    9900012    2    3    3    0    0 -0.11338374644E+02  0.88863854388E-01 -0.41893403304E+02  0.47787264099E+02  0.19999968335E+02 0.  0.
         12    1    3    3    0    0  0.11338374644E+02 -0.88863854388E-01  0.41893403304E+02  0.43400735901E+02  0.00000000000E+00 0. -1.
         11    1    4    4    0    0 -0.48040651642E+01 -0.30580471561E+01 -0.75094801212E+01  0.94245947639E+01  0.51100000000E-03 0. -1.
        -11    1    4    4    0    0 -0.63868907953E+01 -0.11170416320E+01 -0.33347636308E+02  0.33972120977E+02  0.51100000000E-03 0.  1.
         12    1    4    4    0    0 -0.14741868413E+00  0.42639526425E+01 -0.10362868743E+01  0.43905483589E+01  0.00000000000E+00 0. -1.
</event>
<event>
 8    1  0.1280823E-010  0.9118800E+02  0.7816164E-02  0.1184000E+00
        -11   -1    0    0    0    0  0.00000000000E+00  0.00000000000E+00  0.45593999997E+02  0.45594000000E+02  0.51100000000E-03 0. -1.
         11   -1    0    0    0    0 -0.00000000000E+00 -0.00000000000E+00 -0.45593999997E+02  0.45594000000E+02  0.51100000000E-03 0.  1.
         23    2    1    2    0    0  0.00000000000E+00  0.00000000000E+00  0.00000000000E+00  0.91188000000E+02  0.91188000000E+02 0.  0.
    9900012    2    3    3    0    0  0.23109855862E+02  0.25745915935E+02  0.26205069005E+02  0.47787271125E+02  0.20000000369E+02 0.  0.
        -12    1    3    3    0    0 -0.23109855862E+02 -0.25745915935E+02 -0.26205069005E+02  0.43400728875E+02  0.00000000000E+00 0.  1.
         11    1    4    4    0    0  0.16497283485E+02  0.14734531042E+02  0.14085890013E+02  0.26223635620E+02  0.51100000000E-03 0. -1.
        -11    1    4    4    0    0  0.49852219856E+01  0.13225610403E+02  0.70433374585E+01  0.15791700719E+02  0.51100000000E-03 0.  1.
        -12    1    4    4    0    0  0.16273503915E+01 -0.22142255100E+01  0.50758415337E+01  0.57719347866E+01  0.00000000000E+00 0.  1.
</event>
<event>
 8    1  0.1280823E-010  0.9118800E+02  0.7816164E-02  0.1184000E+00
        -11   -1    0    0    0    0  0.00000000000E+00  0.00000000000E+00  0.45593999997E+02  0.45594000000E+02  0.51100000000E-03 0. -1.
         11   -1    0    0    0    0 -0.00000000000E+00 -0.00000000000E+00 -0.45593999997E+02  0.45594000000E+02  0.51100000000E-03 0.  1.
         23    2    1    2    0    0  0.00000000000E+00  0.35527136788E-14  0.00000000000E+00  0.91188000000E+02  0.91188000000E+02 0.  0.
    9900012    2    3    3    0    0 -0.37147161383E+02  0.17222867886E+02 -0.14390441469E+02  0.47787267486E+02  0.19999983778E+02 0.  0.
         12    1    3    3    0    0  0.37147161383E+02 -0.17222867886E+02  0.14390441469E+02  0.43400732514E+02  0.00000000000E+00 0. -1.
         11    1    4    4    0    0 -0.12145784001E+01 -0.27024022552E+01 -0.37420730788E+01  0.47729749452E+01  0.51100000000E-03 0. -1.
        -11    1    4    4    0    0 -0.57906836449E+01  0.67710900422E+00 -0.24448688948E+01  0.63220153316E+01  0.51100000000E-03 0.  1.
        -12    1    4    4    0    0 -0.30141899338E+02  0.19248161137E+02 -0.82034994952E+01  0.36692277210E+02  0.00000000000E+00 0.  1.
</event>
<event>
 8    1  0.1322457E-010  0.9118800E+02  0.7816164E-02  0.1184000E+00
        -11   -1    0    0    0    0  0.00000000000E+00  0.00000000000E+00  0.45593999997E+02  0.45594000000E+02  0.51100000000E-03 0. -1.
         11   -1    0    0    0    0 -0.00000000000E+00 -0.00000000000E+00 -0.45593999997E+02  0.45594000000E+02  0.51100000000E-03 0.  1.
         23    2    1    2    0    0  0.00000000000E+00  0.00000000000E+00  0.00000000000E+00  0.91188000000E+02  0.91188000000E+02 0.  0.
    9900012    2    3    3    0    0 -0.16977660747E+02 -0.12042472716E+02 -0.38083614789E+02  0.47787264650E+02  0.19999970843E+02 0.  0.
         12    1    3    3    0    0  0.16977660747E+02  0.12042472716E+02  0.38083614789E+02  0.43400735350E+02  0.00000000000E+00 0. -1.
         11    1    4    4    0    0 -0.51084020428E+01 -0.43491550747E+01 -0.20816293217E+01  0.70245357277E+01  0.51100000000E-03 0. -1.
        -11    1    4    4    0    0 -0.52553403076E+01  0.21220139632E+00 -0.27202296185E+01  0.59214255564E+01  0.51100000000E-03 0.  1.
        -12    1    4    4    0    0 -0.66139183961E+01 -0.79055190377E+01 -0.33281755849E+02  0.34841303365E+02  0.00000000000E+00 0.  1.
</event>
<event>
 8    1  0.1280823E-010  0.9118800E+02  0.7816164E-02  0.1184000E+00
        -11   -1    0    0    0    0  0.00000000000E+00  0.00000000000E+00  0.45593999997E+02  0.45594000000E+02  0.51100000000E-03 0. -1.
         11   -1    0    0    0    0 -0.00000000000E+00 -0.00000000000E+00 -0.45593999997E+02  0.45594000000E+02  0.51100000000E-03 0.  1.
         23    2    1    2    0    0 -0.71054273576E-14  0.35527136788E-14  0.00000000000E+00  0.91188000000E+02  0.91188000000E+02 0.  0.
    9900012    2    3    3    0    0 -0.31452818158E+02  0.24637330925E+02 -0.16951268131E+02  0.47787270324E+02  0.19999996715E+02 0.  0.
         12    1    3    3    0    0  0.31452818158E+02 -0.24637330925E+02  0.16951268131E+02  0.43400729676E+02  0.00000000000E+00 0. -1.
         11    1    4    4    0    0 -0.20102681407E+02  0.15962244215E+02 -0.16145005167E+02  0.30324449414E+02  0.51100000000E-03 0. -1.
        -11    1    4    4    0    0 -0.94325190504E+01  0.38865328407E+01 -0.44676573120E+01  0.11137213084E+02  0.51100000000E-03 0.  1.
        -12    1    4    4    0    0 -0.19176177008E+01  0.47885538688E+01  0.36613943485E+01  0.63256078266E+01  0.00000000000E+00 0.  1.
</event>
<event>
 8    1  0.1280823E-010  0.9118800E+02  0.7816164E-02  0.1184000E+00
        -11   -1    0    0    0    0  0.00000000000E+00  0.00000000000E+00  0.45593999997E+02  0.45594000000E+02  0.51100000000E-03 0. -1.
         11   -1    0    0    0    0 -0.00000000000E+00 -0.00000000000E+00 -0.45593999997E+02  0.45594000000E+02  0.51100000000E-03 0.  1.
         23    2    1    2    0    0  0.00000000000E+00  0.00000000000E+00  0.00000000000E+00  0.91188000000E+02  0.91188000000E+02 0.  0.
    9900012    2    3    3    0    0 -0.23213741874E+02  0.35423690277E+02 -0.94819608115E+01  0.47787271602E+02  0.20000002541E+02 0.  0.
         12    1    3    3    0    0  0.23213741874E+02 -0.35423690277E+02  0.94819608115E+01  0.43400728398E+02  0.00000000000E+00 0. -1.
         11    1    4    4    0    0 -0.10813222190E+02  0.11716338243E+02  0.93572729436E+00  0.15971034462E+02  0.51100000000E-03 0. -1.
        -11    1    4    4    0    0 -0.15686971963E+01  0.45674901416E+01  0.33430790192E+01  0.58735810778E+01  0.51100000000E-03 0.  1.
        -12    1    4    4    0    0 -0.10831822488E+02  0.19139861893E+02 -0.13760767125E+02  0.25942656062E+02  0.00000000000E+00 0.  1.
</event>
<event>
 8    1  0.1280823E-010  0.9118800E+02  0.7816164E-02  0.1184000E+00
        -11   -1    0    0    0    0  0.00000000000E+00  0.00000000000E+00  0.45593999997E+02  0.45594000000E+02  0.51100000000E-03 0.  1.
         11   -1    0    0    0    0 -0.00000000000E+00 -0.00000000000E+00 -0.45593999997E+02  0.45594000000E+02  0.51100000000E-03 0. -1.
         23    2    1    2    0    0  0.00000000000E+00  0.00000000000E+00  0.00000000000E+00  0.91188000000E+02  0.91188000000E+02 0.  0.
    9900012    2    3    3    0    0  0.98984081822E+01  0.40329452849E+02 -0.12616657940E+02  0.47787270637E+02  0.19999998144E+02 0.  0.
         12    1    3    3    0    0 -0.98984081822E+01 -0.40329452849E+02  0.12616657940E+02  0.43400729363E+02  0.00000000000E+00 0. -1.
         11    1    4    4    0    0 -0.22965140814E+01  0.23035114911E+02 -0.56857187355E+01  0.23837321445E+02  0.51100000000E-03 0. -1.
        -11    1    4    4    0    0  0.48994037770E+01  0.13755991727E+02 -0.60049487545E+01  0.15788947893E+02  0.51100000000E-03 0.  1.
        -12    1    4    4    0    0  0.72955184866E+01  0.35383462115E+01 -0.92599044995E+00  0.81610012997E+01  0.00000000000E+00 0.  1.
</event>
<event>
 8    1  0.1280823E-010  0.9118800E+02  0.7816164E-02  0.1184000E+00
        -11   -1    0    0    0    0  0.00000000000E+00  0.00000000000E+00  0.45593999997E+02  0.45594000000E+02  0.51100000000E-03 0. -1.
         11   -1    0    0    0    0 -0.00000000000E+00 -0.00000000000E+00 -0.45593999997E+02  0.45594000000E+02  0.51100000000E-03 0.  1.
         23    2    1    2    0    0  0.00000000000E+00  0.00000000000E+00  0.00000000000E+00  0.91188000000E+02  0.91188000000E+02 0.  0.
    9900012    2    3    3    0    0  0.62568678479E+01  0.16919385141E+02  0.39474159645E+02  0.47787271106E+02  0.20000000282E+02 0.  0.
        -12    1    3    3    0    0 -0.62568678479E+01 -0.16919385141E+02 -0.39474159645E+02  0.43400728894E+02  0.00000000000E+00 0.  1.
         11    1    4    4    0    0  0.15730122066E+01  0.35476535412E+01  0.45720557691E+01  0.59969915180E+01  0.51100000000E-03 0. -1.
        -11    1    4    4    0    0  0.15948365042E+01  0.24321806351E+01  0.28688521606E+02  0.28835573140E+02  0.51100000000E-03 0.  1.
        -12    1    4    4    0    0  0.30890191371E+01  0.10939550965E+02  0.62135822706E+01  0.12954706449E+02  0.00000000000E+00 0.  1.
</event>
<event>
 8    1  0.1280823E-010  0.9118800E+02  0.7816164E-02  0.1184000E+00
        -11   -1    0    0    0    0  0.00000000000E+00  0.00000000000E+00  0.45593999997E+02  0.45594000000E+02  0.51100000000E-03 0. -1.
         11   -1    0    0    0    0 -0.00000000000E+00 -0.00000000000E+00 -0.45593999997E+02  0.45594000000E+02  0.51100000000E-03 0.  1.
         23    2    1    2    0    0  0.00000000000E+00  0.00000000000E+00  0.00000000000E+00  0.91188000000E+02  0.91188000000E+02 0.  0.
    9900012    2    3    3    0    0  0.28484115708E+02 -0.95780517560E+01 -0.31313554131E+02  0.47787278860E+02  0.20000035635E+02 0.  0.
         12    1    3    3    0    0 -0.28484115708E+02  0.95780517560E+01  0.31313554131E+02  0.43400721140E+02  0.00000000000E+00 0. -1.
         11    1    4    4    0    0  0.37940041033E+01  0.30085462966E+01 -0.11869278070E+01  0.49854403852E+01  0.51100000000E-03 0. -1.
        -11    1    4    4    0    0  0.51136052301E+01 -0.29735281533E+01 -0.39455306289E+00  0.59284484065E+01  0.51100000000E-03 0.  1.
         12    1    4    4    0    0  0.19576506375E+02 -0.96130698993E+01 -0.29732073261E+02  0.36873390069E+02  0.00000000000E+00 0. -1.
</event>
<event>
 8    1  0.1280823E-010  0.9118800E+02  0.7816164E-02  0.1184000E+00
        -11   -1    0    0    0    0  0.00000000000E+00  0.00000000000E+00  0.45593999997E+02  0.45594000000E+02  0.51100000000E-03 0. -1.
         11   -1    0    0    0    0 -0.00000000000E+00 -0.00000000000E+00 -0.45593999997E+02  0.45594000000E+02  0.51100000000E-03 0.  1.
         23    2    1    2    0    0  0.00000000000E+00 -0.71054273576E-14  0.00000000000E+00  0.91188000000E+02  0.91188000000E+02 0.  0.
    9900012    2    3    3    0    0 -0.54707436228E+01  0.33706011275E+02 -0.26788037765E+02  0.47787271906E+02  0.20000003926E+02 0.  0.
         12    1    3    3    0    0  0.54707436228E+01 -0.33706011275E+02  0.26788037765E+02  0.43400728094E+02  0.00000000000E+00 0. -1.
         11    1    4    4    0    0  0.67278065236E+00  0.24233853147E+02 -0.10816123300E+02  0.26546577852E+02  0.51100000000E-03 0. -1.
        -11    1    4    4    0    0 -0.37123968575E+01  0.40526191428E+01 -0.16537972307E+01  0.57393952543E+01  0.51100000000E-03 0.  1.
        -12    1    4    4    0    0 -0.24311274177E+01  0.54195389851E+01 -0.14318117234E+02  0.15501298799E+02  0.00000000000E+00 0.  1.
</event>
<event>
 8    1  0.1280823E-010  0.9118800E+02  0.7816164E-02  0.1184000E+00
        -11   -1    0    0    0    0  0.00000000000E+00  0.00000000000E+00  0.45593999997E+02  0.45594000000E+02  0.51100000000E-03 0. -1.
         11   -1    0    0    0    0 -0.00000000000E+00 -0.00000000000E+00 -0.45593999997E+02  0.45594000000E+02  0.51100000000E-03 0.  1.
         23    2    1    2    0    0  0.88817841970E-15 -0.35527136788E-14  0.00000000000E+00  0.91188000000E+02  0.91188000000E+02 0.  0.
    9900012    2    3    3    0    0 -0.62556875557E+01  0.27602769735E+02  0.32902535225E+02  0.47787270189E+02  0.19999996102E+02 0.  0.
        -12    1    3    3    0    0  0.62556875557E+01 -0.27602769735E+02 -0.32902535225E+02  0.43400729811E+02  0.00000000000E+00 0.  1.
         11    1    4    4    0    0 -0.35489785210E+01  0.17003965862E+02  0.22280260422E+02  0.28251373565E+02  0.51100000000E-03 0. -1.
        -11    1    4    4    0    0 -0.62183526550E+01  0.26442025173E+01  0.79618914238E+01  0.10442769365E+02  0.51100000000E-03 0.  1.
         12    1    4    4    0    0  0.35116436204E+01  0.79546013550E+01  0.26603833797E+01  0.90931272596E+01  0.00000000000E+00 0. -1.
</event>
<event>
 8    1  0.1280823E-010  0.9118800E+02  0.7816164E-02  0.1184000E+00
        -11   -1    0    0    0    0  0.00000000000E+00  0.00000000000E+00  0.45593999997E+02  0.45594000000E+02  0.51100000000E-03 0. -1.
         11   -1    0    0    0    0 -0.00000000000E+00 -0.00000000000E+00 -0.45593999997E+02  0.45594000000E+02  0.51100000000E-03 0.  1.
         23    2    1    2    0    0  0.00000000000E+00  0.00000000000E+00  0.00000000000E+00  0.91188000000E+02  0.91188000000E+02 0.  0.
    9900012    2    3    3    0    0  0.26828249697E+02 -0.30482390874E+02 -0.15319669429E+02  0.47787269515E+02  0.19999993027E+02 0.  0.
         12    1    3    3    0    0 -0.26828249697E+02  0.30482390874E+02  0.15319669429E+02  0.43400730485E+02  0.00000000000E+00 0. -1.
         11    1    4    4    0    0 -0.38571650056E+00 -0.83770511024E-01 -0.25752115867E+01  0.26052849547E+01  0.51100000000E-03 0. -1.
        -11    1    4    4    0    0  0.85199305497E+01 -0.20487297418E+02 -0.64707796124E+01  0.23112541209E+02  0.51100000000E-03 0.  1.
        -12    1    4    4    0    0  0.18694035648E+02 -0.99113229451E+01 -0.62736782300E+01  0.22069443352E+02  0.00000000000E+00 0.  1.
</event>
<event>
 8    1  0.1280823E-010  0.9118800E+02  0.7816164E-02  0.1184000E+00
        -11   -1    0    0    0    0  0.00000000000E+00  0.00000000000E+00  0.45593999997E+02  0.45594000000E+02  0.51100000000E-03 0. -1.
         11   -1    0    0    0    0 -0.00000000000E+00 -0.00000000000E+00 -0.45593999997E+02  0.45594000000E+02  0.51100000000E-03 0.  1.
         23    2    1    2    0    0  0.00000000000E+00  0.17763568394E-14  0.88817841970E-15  0.91188000000E+02  0.91188000000E+02 0.  0.
    9900012    2    3    3    0    0  0.39985648981E+02  0.15802368897E+02  0.59208077607E+01  0.47787274756E+02  0.20000016922E+02 0.  0.
        -12    1    3    3    0    0 -0.39985648981E+02 -0.15802368897E+02 -0.59208077607E+01  0.43400725244E+02  0.00000000000E+00 0.  1.
         11    1    4    4    0    0 -0.35491526256E-01 -0.81925410934E-01  0.23215604317E+00  0.24873301127E+00  0.51100000000E-03 0. -1.
        -11    1    4    4    0    0  0.18141810868E+02  0.17538756141E+02  0.37596210331E+01  0.25512115144E+02  0.51100000000E-03 0.  1.
         12    1    4    4    0    0  0.21879329639E+02 -0.16544618331E+01  0.19290306845E+01  0.22026426600E+02  0.00000000000E+00 0. -1.
</event>
<event>
 8    1  0.1280823E-010  0.9118800E+02  0.7816164E-02  0.1184000E+00
        -11   -1    0    0    0    0  0.00000000000E+00  0.00000000000E+00  0.45593999997E+02  0.45594000000E+02  0.51100000000E-03 0. -1.
         11   -1    0    0    0    0 -0.00000000000E+00 -0.00000000000E+00 -0.45593999997E+02  0.45594000000E+02  0.51100000000E-03 0.  1.
         23    2    1    2    0    0 -0.35527136788E-14  0.11102230246E-15  0.71054273576E-14  0.91188000000E+02  0.91188000000E+02 0.  0.
    9900012    2    3    3    0    0 -0.18430200764E+02  0.62917516373E+00  0.39288103306E+02  0.47787271631E+02  0.20000002673E+02 0.  0.
        -12    1    3    3    0    0  0.18430200764E+02 -0.62917516373E+00 -0.39288103306E+02  0.43400728369E+02  0.00000000000E+00 0.  1.
         11    1    4    4    0    0 -0.10608144311E+02  0.17019735923E+00  0.19517347848E+02  0.22214602409E+02  0.51100000000E-03 0. -1.
        -11    1    4    4    0    0  0.96021294903E+00  0.43527133744E+01  0.11242984919E+01  0.45969740033E+01  0.51100000000E-03 0.  1.
        -12    1    4    4    0    0 -0.87822694016E+01 -0.38937355699E+01  0.18646456966E+02  0.20975695219E+02  0.00000000000E+00 0.  1.
</event>
<event>
 8    1  0.1280823E-010  0.9118800E+02  0.7816164E-02  0.1184000E+00
        -11   -1    0    0    0    0  0.00000000000E+00  0.00000000000E+00  0.45593999997E+02  0.45594000000E+02  0.51100000000E-03 0. -1.
         11   -1    0    0    0    0 -0.00000000000E+00 -0.00000000000E+00 -0.45593999997E+02  0.45594000000E+02  0.51100000000E-03 0.  1.
         23    2    1    2    0    0 -0.88817841970E-15  0.17763568394E-14  0.00000000000E+00  0.91188000000E+02  0.91188000000E+02 0.  0.
    9900012    2    3    3    0    0  0.71931201383E+01  0.68713800673E+01  0.42245314581E+02  0.47787269068E+02  0.19999990989E+02 0.  0.
        -12    1    3    3    0    0 -0.71931201383E+01 -0.68713800673E+01 -0.42245314581E+02  0.43400730932E+02  0.00000000000E+00 0.  1.
         11    1    4    4    0    0 -0.19086989346E+01  0.10944824854E+02  0.18396453461E+02  0.21490970730E+02  0.51100000000E-03 0. -1.
        -11    1    4    4    0    0  0.74461710260E+00 -0.22780444745E+01  0.36895252410E+01  0.43996065758E+01  0.51100000000E-03 0.  1.
         12    1    4    4    0    0  0.83572019703E+01 -0.17954003118E+01  0.20159335879E+02  0.21896691762E+02  0.00000000000E+00 0. -1.
</event>
<event>
 8    1  0.1280823E-010  0.9118800E+02  0.7816164E-02  0.1184000E+00
        -11   -1    0    0    0    0  0.00000000000E+00  0.00000000000E+00  0.45593999997E+02  0.45594000000E+02  0.51100000000E-03 0. -1.
         11   -1    0    0    0    0 -0.00000000000E+00 -0.00000000000E+00 -0.45593999997E+02  0.45594000000E+02  0.51100000000E-03 0.  1.
         23    2    1    2    0    0  0.00000000000E+00 -0.17763568394E-14  0.00000000000E+00  0.91188000000E+02  0.91188000000E+02 0.  0.
    9900012    2    3    3    0    0 -0.58237786267E+01 -0.15709625354E+02 -0.40036417258E+02  0.47787269210E+02  0.19999991636E+02 0.  0.
         12    1    3    3    0    0  0.58237786267E+01  0.15709625354E+02  0.40036417258E+02  0.43400730790E+02  0.00000000000E+00 0. -1.
         11    1    4    4    0    0 -0.49621330927E+01 -0.77219841299E+01 -0.20811790845E+02  0.22746042340E+02  0.51100000000E-03 0.  1.
        -11    1    4    4    0    0 -0.12022209759E+01 -0.83713789024E+01 -0.21292524336E+02  0.22910628818E+02  0.51100000000E-03 0. -1.
         12    1    4    4    0    0  0.34057544188E+00  0.38373767856E+00  0.20678979225E+01  0.21305980511E+01  0.00000000000E+00 0. -1.
</event>
<event>
 8    1  0.1280823E-010  0.9118800E+02  0.7816164E-02  0.1184000E+00
        -11   -1    0    0    0    0  0.00000000000E+00  0.00000000000E+00  0.45593999997E+02  0.45594000000E+02  0.51100000000E-03 0.  1.
         11   -1    0    0    0    0 -0.00000000000E+00 -0.00000000000E+00 -0.45593999997E+02  0.45594000000E+02  0.51100000000E-03 0. -1.
         23    2    1    2    0    0 -0.17763568394E-14  0.00000000000E+00  0.00000000000E+00  0.91188000000E+02  0.91188000000E+02 0.  0.
    9900012    2    3    3    0    0 -0.83182768891E+01  0.33363763668E+02 -0.26481861374E+02  0.47787269150E+02  0.19999991363E+02 0.  0.
         12    1    3    3    0    0  0.83182768891E+01 -0.33363763668E+02  0.26481861374E+02  0.43400730850E+02  0.00000000000E+00 0. -1.
         11    1    4    4    0    0 -0.58769213687E+01  0.10125109743E+02 -0.32449323252E+01  0.12148482956E+02  0.51100000000E-03 0. -1.
        -11    1    4    4    0    0 -0.34415127644E+01  0.24951853738E+01  0.28556328405E+00  0.42604585208E+01  0.51100000000E-03 0.  1.
         12    1    4    4    0    0  0.10001572440E+01  0.20743468551E+02 -0.23522492332E+02  0.31378327673E+02  0.00000000000E+00 0. -1.
</event>
<event>
 8    1  0.1416840E-010  0.9118800E+02  0.7816164E-02  0.1184000E+00
        -11   -1    0    0    0    0  0.00000000000E+00  0.00000000000E+00  0.45593999997E+02  0.45594000000E+02  0.51100000000E-03 0. -1.
         11   -1    0    0    0    0 -0.00000000000E+00 -0.00000000000E+00 -0.45593999997E+02  0.45594000000E+02  0.51100000000E-03 0.  1.
         23    2    1    2    0    0 -0.17763568394E-14  0.35527136788E-14  0.00000000000E+00  0.91188000000E+02  0.91188000000E+02 0.  0.
    9900012    2    3    3    0    0 -0.11225017752E+02  0.24355138959E+02 -0.34124019119E+02  0.47787279982E+02  0.20000040749E+02 0.  0.
         12    1    3    3    0    0  0.11225017752E+02 -0.24355138959E+02  0.34124019119E+02  0.43400720018E+02  0.00000000000E+00 0. -1.
         11    1    4    4    0    0 -0.51741374939E+01 -0.11651077990E+01 -0.26401470806E+01  0.59244874763E+01  0.51100000000E-03 0. -1.
        -11    1    4    4    0    0 -0.28533664464E+01  0.90613777004E+01 -0.56142396944E+01  0.11034942388E+02  0.51100000000E-03 0.  1.
        -12    1    4    4    0    0 -0.31975138118E+01  0.16458869058E+02 -0.25869632344E+02  0.30827850117E+02  0.00000000000E+00 0.  1.
</event>
<event>
 8    1  0.1280823E-010  0.9118800E+02  0.7816164E-02  0.1184000E+00
        -11   -1    0    0    0    0  0.00000000000E+00  0.00000000000E+00  0.45593999997E+02  0.45594000000E+02  0.51100000000E-03 0. -1.
         11   -1    0    0    0    0 -0.00000000000E+00 -0.00000000000E+00 -0.45593999997E+02  0.45594000000E+02  0.51100000000E-03 0.  1.
         23    2    1    2    0    0  0.00000000000E+00  0.19428902931E-15  0.00000000000E+00  0.91188000000E+02  0.91188000000E+02 0.  0.
    9900012    2    3    3    0    0  0.16149938834E+02  0.19414686021E+00  0.40283546662E+02  0.47787281699E+02  0.20000048580E+02 0.  0.
        -12    1    3    3    0    0 -0.16149938834E+02 -0.19414686021E+00 -0.40283546662E+02  0.43400718301E+02  0.00000000000E+00 0.  1.
         11    1    4    4    0    0  0.61625765963E+01 -0.10535288380E+01  0.38277178682E+01  0.73306682954E+01  0.51100000000E-03 0. -1.
        -11    1    4    4    0    0  0.16593848278E+01  0.26723741070E+01  0.11628620119E+00  0.31478030618E+01  0.51100000000E-03 0.  1.
         12    1    4    4    0    0  0.83279774094E+01 -0.14246984087E+01  0.36339542593E+02  0.37308810342E+02  0.00000000000E+00 0. -1.
</event>
<event>
 8    1  0.1280823E-010  0.9118800E+02  0.7816164E-02  0.1184000E+00
        -11   -1    0    0    0    0  0.00000000000E+00  0.00000000000E+00  0.45593999997E+02  0.45594000000E+02  0.51100000000E-03 0. -1.
         11   -1    0    0    0    0 -0.00000000000E+00 -0.00000000000E+00 -0.45593999997E+02  0.45594000000E+02  0.51100000000E-03 0.  1.
         23    2    1    2    0    0  0.00000000000E+00  0.44408920985E-15  0.00000000000E+00  0.91188000000E+02  0.91188000000E+02 0.  0.
    9900012    2    3    3    0    0  0.13052822620E+02  0.15922553035E+01 -0.41360756001E+02  0.47787267376E+02  0.19999983275E+02 0.  0.
         12    1    3    3    0    0 -0.13052822620E+02 -0.15922553035E+01  0.41360756001E+02  0.43400732624E+02  0.00000000000E+00 0. -1.
         11    1    4    4    0    0  0.25148492735E+01 -0.40651759304E+01 -0.45484727195E+01  0.65983881785E+01  0.51100000000E-03 0. -1.
        -11    1    4    4    0    0  0.66054065101E+01 -0.36134185883E+01 -0.97851310364E+01  0.12346537114E+02  0.51100000000E-03 0.  1.
         12    1    4    4    0    0  0.39325668366E+01  0.92708498222E+01 -0.27027152245E+02  0.28842342083E+02  0.00000000000E+00 0. -1.
</event>
<event>
 8    1  0.1280823E-010  0.9118800E+02  0.7816164E-02  0.1184000E+00
        -11   -1    0    0    0    0  0.00000000000E+00  0.00000000000E+00  0.45593999997E+02  0.45594000000E+02  0.51100000000E-03 0. -1.
         11   -1    0    0    0    0 -0.00000000000E+00 -0.00000000000E+00 -0.45593999997E+02  0.45594000000E+02  0.51100000000E-03 0.  1.
         23    2    1    2    0    0  0.44408920985E-15  0.00000000000E+00  0.00000000000E+00  0.91188000000E+02  0.91188000000E+02 0.  0.
    9900012    2    3    3    0    0  0.10969105552E+01 -0.26797793502E+02 -0.34121818591E+02  0.47787268978E+02  0.19999990577E+02 0.  0.
         12    1    3    3    0    0 -0.10969105552E+01  0.26797793502E+02  0.34121818591E+02  0.43400731022E+02  0.00000000000E+00 0. -1.
         11    1    4    4    0    0 -0.45158800342E+00 -0.39990043383E+01 -0.19045366685E+01  0.44523283353E+01  0.51100000000E-03 0. -1.
        -11    1    4    4    0    0  0.89308013772E+01 -0.13247909909E+02 -0.23615328131E+02  0.28512278990E+02  0.51100000000E-03 0.  1.
        -12    1    4    4    0    0 -0.73823028187E+01 -0.95508792544E+01 -0.86019537917E+01  0.14822661653E+02  0.00000000000E+00 0.  1.
</event>
<event>
 8    1  0.1280823E-010  0.9118800E+02  0.7816164E-02  0.1184000E+00
        -11   -1    0    0    0    0  0.00000000000E+00  0.00000000000E+00  0.45593999997E+02  0.45594000000E+02  0.51100000000E-03 0. -1.
         11   -1    0    0    0    0 -0.00000000000E+00 -0.00000000000E+00 -0.45593999997E+02  0.45594000000E+02  0.51100000000E-03 0.  1.
         23    2    1    2    0    0  0.00000000000E+00  0.00000000000E+00  0.00000000000E+00  0.91188000000E+02  0.91188000000E+02 0.  0.
    9900012    2    3    3    0    0  0.18133502126E+02 -0.12494296839E+02 -0.37399089367E+02  0.47787271454E+02  0.20000001866E+02 0.  0.
         12    1    3    3    0    0 -0.18133502126E+02  0.12494296839E+02  0.37399089367E+02  0.43400728546E+02  0.00000000000E+00 0. -1.
         11    1    4    4    0    0  0.50114425310E+01 -0.22236421154E+01 -0.19751871164E+01  0.58275642343E+01  0.51100000000E-03 0. -1.
        -11    1    4    4    0    0  0.61511662895E+01 -0.73750794307E+01 -0.54338158274E+01  0.11034264726E+02  0.51100000000E-03 0.  1.
         12    1    4    4    0    0  0.69708933057E+01 -0.28955752931E+01 -0.29990086423E+02  0.30925442494E+02  0.00000000000E+00 0. -1.
</event>
<event>
 8    1  0.1280823E-010  0.9118800E+02  0.7816164E-02  0.1184000E+00
        -11   -1    0    0    0    0  0.00000000000E+00  0.00000000000E+00  0.45593999997E+02  0.45594000000E+02  0.51100000000E-03 0.  1.
         11   -1    0    0    0    0 -0.00000000000E+00 -0.00000000000E+00 -0.45593999997E+02  0.45594000000E+02  0.51100000000E-03 0. -1.
         23    2    1    2    0    0  0.71054273576E-14  0.13322676296E-14  0.22204460493E-15  0.91188000000E+02  0.91188000000E+02 0.  0.
    9900012    2    3    3    0    0 -0.43264481426E+02 -0.30709577075E+01 -0.15416796432E+01  0.47787275232E+02  0.20000019092E+02 0.  0.
        -12    1    3    3    0    0  0.43264481426E+02  0.30709577075E+01  0.15416796432E+01  0.43400724768E+02  0.00000000000E+00 0.  1.
         11    1    4    4    0    0 -0.26137580866E+02 -0.39011537324E+01 -0.74736997015E+00  0.26437675694E+02  0.51100000000E-03 0. -1.
        -11    1    4    4    0    0 -0.12605253278E+02 -0.48622275877E+01  0.18020225372E+01  0.13630148672E+02  0.51100000000E-03 0.  1.
         12    1    4    4    0    0 -0.45216472809E+01  0.56924236127E+01 -0.25963322103E+01  0.77194508655E+01  0.00000000000E+00 0. -1.
</event>
<event>
 8    1  0.1280823E-010  0.9118800E+02  0.7816164E-02  0.1184000E+00
        -11   -1    0    0    0    0  0.00000000000E+00  0.00000000000E+00  0.45593999997E+02  0.45594000000E+02  0.51100000000E-03 0. -1.
         11   -1    0    0    0    0 -0.00000000000E+00 -0.00000000000E+00 -0.45593999997E+02  0.45594000000E+02  0.51100000000E-03 0.  1.
         23    2    1    2    0    0  0.00000000000E+00  0.00000000000E+00  0.00000000000E+00  0.91188000000E+02  0.91188000000E+02 0.  0.
    9900012    2    3    3    0    0  0.31031327815E+02  0.19595286692E+02  0.23166871570E+02  0.47787279904E+02  0.20000040395E+02 0.  0.
        -12    1    3    3    0    0 -0.31031327815E+02 -0.19595286692E+02 -0.23166871570E+02  0.43400720096E+02  0.00000000000E+00 0.  1.
         11    1    4    4    0    0  0.76029278675E+01  0.11319578983E+02  0.14268009849E+02  0.19736096013E+02  0.51100000000E-03 0. -1.
        -11    1    4    4    0    0  0.13592868071E+01 -0.18659305657E+01  0.94004272948E+00  0.24925966570E+01  0.51100000000E-03 0.  1.
        -12    1    4    4    0    0  0.22069113140E+02  0.10141638275E+02  0.79588189919E+01  0.25558587235E+02  0.00000000000E+00 0.  1.
</event>
<event>
 8    1  0.1280823E-010  0.9118800E+02  0.7816164E-02  0.1184000E+00
        -11   -1    0    0    0    0  0.00000000000E+00  0.00000000000E+00  0.45593999997E+02  0.45594000000E+02  0.51100000000E-03 0. -1.
         11   -1    0    0    0    0 -0.00000000000E+00 -0.00000000000E+00 -0.45593999997E+02  0.45594000000E+02  0.51100000000E-03 0.  1.
         23    2    1    2    0    0  0.00000000000E+00  0.00000000000E+00 -0.71054273576E-14  0.91188000000E+02  0.91188000000E+02 0.  0.
    9900012    2    3    3    0    0 -0.16886948598E+02 -0.29590221948E+02 -0.26886297757E+02  0.47787271032E+02  0.19999999944E+02 0.  0.
         12    1    3    3    0    0  0.16886948598E+02  0.29590221948E+02  0.26886297757E+02  0.43400728968E+02  0.00000000000E+00 0. -1.
         11    1    4    4    0    0 -0.24272480778E+00 -0.47916864857E+01 -0.54268566391E+01  0.72436142879E+01  0.51100000000E-03 0. -1.
        -11    1    4    4    0    0 -0.20052053725E+02 -0.19505891257E+02 -0.18831562715E+02  0.33722283536E+02  0.51100000000E-03 0.  1.
        -12    1    4    4    0    0  0.34078299348E+01 -0.52926442052E+01 -0.26278784025E+01  0.68213732082E+01  0.00000000000E+00 0.  1.
</event>
<event>
 8    1  0.1280823E-010  0.9118800E+02  0.7816164E-02  0.1184000E+00
        -11   -1    0    0    0    0  0.00000000000E+00  0.00000000000E+00  0.45593999997E+02  0.45594000000E+02  0.51100000000E-03 0. -1.
         11   -1    0    0    0    0 -0.00000000000E+00 -0.00000000000E+00 -0.45593999997E+02  0.45594000000E+02  0.51100000000E-03 0.  1.
         23    2    1    2    0    0 -0.44408920985E-15  0.00000000000E+00 -0.71054273576E-14  0.91188000000E+02  0.91188000000E+02 0.  0.
    9900012    2    3    3    0    0 -0.93557534714E+00  0.25667169047E+02 -0.34984919237E+02  0.47787269106E+02  0.19999991163E+02 0.  0.
         12    1    3    3    0    0  0.93557534714E+00 -0.25667169047E+02  0.34984919237E+02  0.43400730894E+02  0.00000000000E+00 0. -1.
         11    1    4    4    0    0 -0.22382544894E+01 -0.16430473872E+00 -0.33926328652E+01  0.40677680890E+01  0.51100000000E-03 0.  1.
        -11    1    4    4    0    0 -0.10963986422E+01  0.56755333963E+00 -0.10915098634E+02  0.10984697776E+02  0.51100000000E-03 0. -1.
         12    1    4    4    0    0  0.23990777844E+01  0.25263920446E+02 -0.20677187737E+02  0.32734803241E+02  0.00000000000E+00 0. -1.
</event>
<event>
 8    1  0.1280823E-010  0.9118800E+02  0.7816164E-02  0.1184000E+00
        -11   -1    0    0    0    0  0.00000000000E+00  0.00000000000E+00  0.45593999997E+02  0.45594000000E+02  0.51100000000E-03 0. -1.
         11   -1    0    0    0    0 -0.00000000000E+00 -0.00000000000E+00 -0.45593999997E+02  0.45594000000E+02  0.51100000000E-03 0.  1.
         23    2    1    2    0    0 -0.71054273576E-14 -0.26645352591E-14  0.00000000000E+00  0.91188000000E+02  0.91188000000E+02 0.  0.
    9900012    2    3    3    0    0  0.32207451183E+02 -0.53326491054E+01  0.28598361175E+02  0.47787270513E+02  0.19999997576E+02 0.  0.
        -12    1    3    3    0    0 -0.32207451183E+02  0.53326491054E+01 -0.28598361175E+02  0.43400729487E+02  0.00000000000E+00 0.  1.
         11    1    4    4    0    0  0.25377917734E+01 -0.16995835001E+01  0.49026715316E+01  0.57762582670E+01  0.51100000000E-03 0.  1.
        -11    1    4    4    0    0  0.21063591369E+02 -0.75630085506E+01  0.81602625432E+01  0.23821500052E+02  0.51100000000E-03 0. -1.
         12    1    4    4    0    0  0.86060680398E+01  0.39299429453E+01  0.15535427100E+02  0.18189512193E+02  0.00000000000E+00 0. -1.
</event>
<event>
 8    1  0.1280823E-010  0.9118800E+02  0.7816164E-02  0.1184000E+00
        -11   -1    0    0    0    0  0.00000000000E+00  0.00000000000E+00  0.45593999997E+02  0.45594000000E+02  0.51100000000E-03 0.  1.
         11   -1    0    0    0    0 -0.00000000000E+00 -0.00000000000E+00 -0.45593999997E+02  0.45594000000E+02  0.51100000000E-03 0. -1.
         23    2    1    2    0    0 -0.35527136788E-14  0.00000000000E+00 -0.88817841970E-15  0.91188000000E+02  0.91188000000E+02 0.  0.
    9900012    2    3    3    0    0  0.26037020966E+02  0.33962816835E+02  0.72265969787E+01  0.47787273139E+02  0.20000009551E+02 0.  0.
        -12    1    3    3    0    0 -0.26037020966E+02 -0.33962816835E+02 -0.72265969787E+01  0.43400726861E+02  0.00000000000E+00 0.  1.
         11    1    4    4    0    0  0.74459000939E+00  0.64888242762E+01  0.59954243450E+01  0.88659104500E+01  0.51100000000E-03 0.  1.
        -11    1    4    4    0    0  0.51889949629E+01  0.13026908490E+02 -0.10424666976E+01  0.14061036612E+02  0.51100000000E-03 0. -1.
         12    1    4    4    0    0  0.20103435994E+02  0.14447084068E+02  0.22736393313E+01  0.24860326077E+02  0.00000000000E+00 0. -1.
</event>
<event>
 8    1  0.1280823E-010  0.9118800E+02  0.7816164E-02  0.1184000E+00
        -11   -1    0    0    0    0  0.00000000000E+00  0.00000000000E+00  0.45593999997E+02  0.45594000000E+02  0.51100000000E-03 0. -1.
         11   -1    0    0    0    0 -0.00000000000E+00 -0.00000000000E+00 -0.45593999997E+02  0.45594000000E+02  0.51100000000E-03 0.  1.
         23    2    1    2    0    0  0.00000000000E+00  0.35527136788E-14  0.00000000000E+00  0.91188000000E+02  0.91188000000E+02 0.  0.
    9900012    2    3    3    0    0  0.17278690605E+02 -0.17958274593E+02 -0.35532668123E+02  0.47787270982E+02  0.19999999715E+02 0.  0.
         12    1    3    3    0    0 -0.17278690605E+02  0.17958274593E+02  0.35532668123E+02  0.43400729018E+02  0.00000000000E+00 0. -1.
         11    1    4    4    0    0  0.22960103269E+01 -0.68918756658E+01 -0.24148339051E+01  0.76551313943E+01  0.51100000000E-03 0.  1.
        -11    1    4    4    0    0 -0.13157342724E+01 -0.50993745526E+01 -0.66828718351E+01  0.85085576762E+01  0.51100000000E-03 0. -1.
        -12    1    4    4    0    0  0.16298414550E+02 -0.59670243746E+01 -0.26434962383E+02  0.31623581911E+02  0.00000000000E+00 0.  1.
</event>
<event>
 8    1  0.1280823E-010  0.9118800E+02  0.7816164E-02  0.1184000E+00
        -11   -1    0    0    0    0  0.00000000000E+00  0.00000000000E+00  0.45593999997E+02  0.45594000000E+02  0.51100000000E-03 0. -1.
         11   -1    0    0    0    0 -0.00000000000E+00 -0.00000000000E+00 -0.45593999997E+02  0.45594000000E+02  0.51100000000E-03 0.  1.
         23    2    1    2    0    0  0.71054273576E-14 -0.35527136788E-14 -0.35527136788E-14  0.91188000000E+02  0.91188000000E+02 0.  0.
    9900012    2    3    3    0    0  0.23228130693E+02 -0.20238494379E+02 -0.30569275647E+02  0.47787270469E+02  0.19999997377E+02 0.  0.
         12    1    3    3    0    0 -0.23228130693E+02  0.20238494379E+02  0.30569275647E+02  0.43400729531E+02  0.00000000000E+00 0. -1.
         11    1    4    4    0    0  0.65170866830E+01 -0.28861341137E+01 -0.12967188701E+01  0.72445613425E+01  0.51100000000E-03 0. -1.
        -11    1    4    4    0    0  0.13701596586E+02 -0.16982979550E+02 -0.16343521062E+02  0.27262905648E+02  0.51100000000E-03 0.  1.
         12    1    4    4    0    0  0.30094474239E+01 -0.36938071536E+00 -0.12929035715E+02  0.13279803479E+02  0.00000000000E+00 0. -1.
</event>
<event>
 8    1  0.1280823E-010  0.9118800E+02  0.7816164E-02  0.1184000E+00
        -11   -1    0    0    0    0  0.00000000000E+00  0.00000000000E+00  0.45593999997E+02  0.45594000000E+02  0.51100000000E-03 0. -1.
         11   -1    0    0    0    0 -0.00000000000E+00 -0.00000000000E+00 -0.45593999997E+02  0.45594000000E+02  0.51100000000E-03 0.  1.
         23    2    1    2    0    0 -0.35527136788E-14 -0.71054273576E-14  0.00000000000E+00  0.91188000000E+02  0.91188000000E+02 0.  0.
    9900012    2    3    3    0    0 -0.28192425963E+02 -0.31745568027E+02 -0.90016204648E+01  0.47787272563E+02  0.20000006923E+02 0.  0.
         12    1    3    3    0    0  0.28192425963E+02  0.31745568027E+02  0.90016204648E+01  0.43400727437E+02  0.00000000000E+00 0. -1.
         11    1    4    4    0    0 -0.13556087902E+02 -0.24316424635E+02 -0.13077475259E+02  0.30758354729E+02  0.51100000000E-03 0. -1.
        -11    1    4    4    0    0 -0.73395742734E+01 -0.38895855249E+01  0.10488400515E+01  0.83724722624E+01  0.51100000000E-03 0.  1.
         12    1    4    4    0    0 -0.72967637876E+01 -0.35395578680E+01  0.30270147431E+01  0.86564455712E+01  0.00000000000E+00 0. -1.
</event>
<event>
 8    1  0.1280823E-010  0.9118800E+02  0.7816164E-02  0.1184000E+00
        -11   -1    0    0    0    0  0.00000000000E+00  0.00000000000E+00  0.45593999997E+02  0.45594000000E+02  0.51100000000E-03 0. -1.
         11   -1    0    0    0    0 -0.00000000000E+00 -0.00000000000E+00 -0.45593999997E+02  0.45594000000E+02  0.51100000000E-03 0.  1.
         23    2    1    2    0    0  0.00000000000E+00 -0.17763568394E-14 -0.35527136788E-14  0.91188000000E+02  0.91188000000E+02 0.  0.
    9900012    2    3    3    0    0 -0.36136167654E+02  0.14971413412E+02  0.18805773308E+02  0.47787274868E+02  0.20000017434E+02 0.  0.
        -12    1    3    3    0    0  0.36136167654E+02 -0.14971413412E+02 -0.18805773308E+02  0.43400725132E+02  0.00000000000E+00 0.  1.
         11    1    4    4    0    0 -0.16544487222E+02  0.10745882601E+02  0.93435778533E+01  0.21828799730E+02  0.51100000000E-03 0. -1.
        -11    1    4    4    0    0 -0.12108193368E+02  0.50333707537E+01 -0.90852469495E+00  0.13144146422E+02  0.51100000000E-03 0.  1.
        -12    1    4    4    0    0 -0.74834870642E+01 -0.80783994286E+00  0.10370720150E+02  0.12814328716E+02  0.00000000000E+00 0.  1.
</event>
<event>
 8    1  0.1280823E-010  0.9118800E+02  0.7816164E-02  0.1184000E+00
        -11   -1    0    0    0    0  0.00000000000E+00  0.00000000000E+00  0.45593999997E+02  0.45594000000E+02  0.51100000000E-03 0. -1.
         11   -1    0    0    0    0 -0.00000000000E+00 -0.00000000000E+00 -0.45593999997E+02  0.45594000000E+02  0.51100000000E-03 0.  1.
         23    2    1    2    0    0  0.00000000000E+00  0.00000000000E+00  0.00000000000E+00  0.91188000000E+02  0.91188000000E+02 0.  0.
    9900012    2    3    3    0    0 -0.24698531387E+02  0.23965653481E+02  0.26443395616E+02  0.47787272228E+02  0.20000005396E+02 0.  0.
        -12    1    3    3    0    0  0.24698531387E+02 -0.23965653481E+02 -0.26443395616E+02  0.43400727772E+02  0.00000000000E+00 0.  1.
         11    1    4    4    0    0 -0.59050140803E+01  0.24490034165E+01 -0.13588441270E+01  0.65355387418E+01  0.51100000000E-03 0. -1.
        -11    1    4    4    0    0 -0.14804922798E+02  0.13706727091E+02  0.12858516979E+02  0.23924915167E+02  0.51100000000E-03 0.  1.
        -12    1    4    4    0    0 -0.39885945087E+01  0.78099229731E+01  0.14943722764E+02  0.17326818319E+02  0.00000000000E+00 0.  1.
</event>
<event>
 8    1  0.1280823E-010  0.9118800E+02  0.7816164E-02  0.1184000E+00
        -11   -1    0    0    0    0  0.00000000000E+00  0.00000000000E+00  0.45593999997E+02  0.45594000000E+02  0.51100000000E-03 0. -1.
         11   -1    0    0    0    0 -0.00000000000E+00 -0.00000000000E+00 -0.45593999997E+02  0.45594000000E+02  0.51100000000E-03 0.  1.
         23    2    1    2    0    0  0.00000000000E+00 -0.35527136788E-14 -0.88817841970E-15  0.91188000000E+02  0.91188000000E+02 0.  0.
    9900012    2    3    3    0    0 -0.29636336250E+02 -0.31086168081E+02 -0.62418842295E+01  0.47787269695E+02  0.19999993847E+02 0.  0.
         12    1    3    3    0    0  0.29636336250E+02  0.31086168081E+02  0.62418842295E+01  0.43400730305E+02  0.00000000000E+00 0. -1.
         11    1    4    4    0    0 -0.34528804285E+00 -0.46392393962E+01 -0.17867861506E+01  0.49834095775E+01  0.51100000000E-03 0.  1.
        -11    1    4    4    0    0 -0.60402702167E+00  0.12262079935E+01 -0.25571987061E+01  0.28996034505E+01  0.51100000000E-03 0. -1.
         12    1    4    4    0    0 -0.28687021186E+02 -0.27673136678E+02 -0.18978993727E+01  0.39904256667E+02  0.00000000000E+00 0. -1.
</event>
<event>
 8    1  0.1280823E-010  0.9118800E+02  0.7816164E-02  0.1184000E+00
        -11   -1    0    0    0    0  0.00000000000E+00  0.00000000000E+00  0.45593999997E+02  0.45594000000E+02  0.51100000000E-03 0. -1.
         11   -1    0    0    0    0 -0.00000000000E+00 -0.00000000000E+00 -0.45593999997E+02  0.45594000000E+02  0.51100000000E-03 0.  1.
         23    2    1    2    0    0 -0.35527136788E-14  0.00000000000E+00  0.00000000000E+00  0.91188000000E+02  0.91188000000E+02 0.  0.
    9900012    2    3    3    0    0  0.16923586644E+02  0.33154494731E+02  0.22315800118E+02  0.47787271427E+02  0.20000001746E+02 0.  0.
        -12    1    3    3    0    0 -0.16923586644E+02 -0.33154494731E+02 -0.22315800118E+02  0.43400728573E+02  0.00000000000E+00 0.  1.
         11    1    4    4    0    0 -0.16589572153E+01  0.19391022386E+01  0.32544925738E+01  0.41356956740E+01  0.51100000000E-03 0. -1.
        -11    1    4    4    0    0  0.80726205704E+01  0.22587033944E+02  0.58430965904E+01  0.24687711179E+02  0.51100000000E-03 0.  1.
        -12    1    4    4    0    0  0.10509923289E+02  0.86283585485E+01  0.13218210954E+02  0.18963864574E+02  0.00000000000E+00 0.  1.
</event>
<event>
 8    1  0.1280823E-010  0.9118800E+02  0.7816164E-02  0.1184000E+00
        -11   -1    0    0    0    0  0.00000000000E+00  0.00000000000E+00  0.45593999997E+02  0.45594000000E+02  0.51100000000E-03 0. -1.
         11   -1    0    0    0    0 -0.00000000000E+00 -0.00000000000E+00 -0.45593999997E+02  0.45594000000E+02  0.51100000000E-03 0.  1.
         23    2    1    2    0    0 -0.35527136788E-14  0.00000000000E+00  0.00000000000E+00  0.91188000000E+02  0.91188000000E+02 0.  0.
    9900012    2    3    3    0    0  0.16705964228E+02 -0.17256210942E+02  0.36149098776E+02  0.47787269601E+02  0.19999993417E+02 0.  0.
        -12    1    3    3    0    0 -0.16705964228E+02  0.17256210942E+02 -0.36149098776E+02  0.43400730399E+02  0.00000000000E+00 0.  1.
         11    1    4    4    0    0  0.20035206670E+02 -0.16470491502E+02  0.33493718005E+02  0.42361724973E+02  0.51100000000E-03 0. -1.
        -11    1    4    4    0    0 -0.10698170801E+00 -0.12207969275E+01 -0.32442438672E-02  0.12254799102E+01  0.51100000000E-03 0.  1.
         12    1    4    4    0    0 -0.32222607340E+01  0.43507748798E+00  0.26586250154E+01  0.42000647175E+01  0.00000000000E+00 0. -1.
</event>
<event>
 8    1  0.1280823E-010  0.9118800E+02  0.7816164E-02  0.1184000E+00
        -11   -1    0    0    0    0  0.00000000000E+00  0.00000000000E+00  0.45593999997E+02  0.45594000000E+02  0.51100000000E-03 0.  1.
         11   -1    0    0    0    0 -0.00000000000E+00 -0.00000000000E+00 -0.45593999997E+02  0.45594000000E+02  0.51100000000E-03 0. -1.
         23    2    1    2    0    0  0.00000000000E+00  0.35527136788E-14 -0.44408920985E-15  0.91188000000E+02  0.91188000000E+02 0.  0.
    9900012    2    3    3    0    0 -0.37246185163E+02 -0.22138048681E+02 -0.25002572404E+01  0.47787276563E+02  0.20000025161E+02 0.  0.
        -12    1    3    3    0    0  0.37246185163E+02  0.22138048681E+02  0.25002572404E+01  0.43400723437E+02  0.00000000000E+00 0.  1.
         11    1    4    4    0    0 -0.99658680161E+01 -0.88733261502E+01 -0.61995370676E+01  0.14713555056E+02  0.51100000000E-03 0. -1.
        -11    1    4    4    0    0 -0.16299777991E+02 -0.32290474984E+01 -0.27812293560E+01  0.16847692640E+02  0.51100000000E-03 0.  1.
         12    1    4    4    0    0 -0.10980539156E+02 -0.10035675032E+02  0.64805091832E+01  0.16226028867E+02  0.00000000000E+00 0. -1.
</event>
<event>
 8    1  0.1280823E-010  0.9118800E+02  0.7816164E-02  0.1184000E+00
        -11   -1    0    0    0    0  0.00000000000E+00  0.00000000000E+00  0.45593999997E+02  0.45594000000E+02  0.51100000000E-03 0. -1.
         11   -1    0    0    0    0 -0.00000000000E+00 -0.00000000000E+00 -0.45593999997E+02  0.45594000000E+02  0.51100000000E-03 0.  1.
         23    2    1    2    0    0  0.00000000000E+00  0.00000000000E+00 -0.71054273576E-14  0.91188000000E+02  0.91188000000E+02 0.  0.
    9900012    2    3    3    0    0  0.19673281321E+02  0.11579561924E+02  0.36912047040E+02  0.47787268797E+02  0.19999989752E+02 0.  0.
        -12    1    3    3    0    0 -0.19673281321E+02 -0.11579561924E+02 -0.36912047040E+02  0.43400731203E+02  0.00000000000E+00 0.  1.
         11    1    4    4    0    0  0.14523428080E+02  0.12100822176E+02  0.14684958887E+02  0.23937582967E+02  0.51100000000E-03 0. -1.
        -11    1    4    4    0    0  0.34469010282E+01 -0.87719615826E+00  0.33288407789E+01  0.48715275828E+01  0.51100000000E-03 0.  1.
        -12    1    4    4    0    0  0.17029522125E+01  0.35593590592E+00  0.18898247375E+02  0.18978158247E+02  0.00000000000E+00 0.  1.
</event>
<event>
 8    1  0.1280823E-010  0.9118800E+02  0.7816164E-02  0.1184000E+00
        -11   -1    0    0    0    0  0.00000000000E+00  0.00000000000E+00  0.45593999997E+02  0.45594000000E+02  0.51100000000E-03 0. -1.
         11   -1    0    0    0    0 -0.00000000000E+00 -0.00000000000E+00 -0.45593999997E+02  0.45594000000E+02  0.51100000000E-03 0.  1.
         23    2    1    2    0    0  0.00000000000E+00  0.71054273576E-14  0.35527136788E-14  0.91188000000E+02  0.91188000000E+02 0.  0.
    9900012    2    3    3    0    0 -0.58115640871E+01  0.33946289888E+02  0.26410190058E+02  0.47787274048E+02  0.20000013694E+02 0.  0.
        -12    1    3    3    0    0  0.58115640871E+01 -0.33946289888E+02 -0.26410190058E+02  0.43400725952E+02  0.00000000000E+00 0.  1.
         11    1    4    4    0    0 -0.47938808133E+01  0.74046313986E+01  0.65746908744E+01  0.11001655319E+02  0.51100000000E-03 0. -1.
        -11    1    4    4    0    0 -0.40953192612E+01  0.18963051875E+02  0.53074232024E+01  0.20113123019E+02  0.51100000000E-03 0.  1.
         12    1    4    4    0    0  0.30776359874E+01  0.75786066141E+01  0.14528075981E+02  0.16672495710E+02  0.00000000000E+00 0. -1.
</event>
<event>
 8    1  0.1280823E-010  0.9118800E+02  0.7816164E-02  0.1184000E+00
        -11   -1    0    0    0    0  0.00000000000E+00  0.00000000000E+00  0.45593999997E+02  0.45594000000E+02  0.51100000000E-03 0. -1.
         11   -1    0    0    0    0 -0.00000000000E+00 -0.00000000000E+00 -0.45593999997E+02  0.45594000000E+02  0.51100000000E-03 0.  1.
         23    2    1    2    0    0  0.00000000000E+00  0.00000000000E+00 -0.35527136788E-14  0.91188000000E+02  0.91188000000E+02 0.  0.
    9900012    2    3    3    0    0  0.34032862803E+02 -0.41941890866E+01  0.26604437756E+02  0.47787273267E+02  0.20000010132E+02 0.  0.
        -12    1    3    3    0    0 -0.34032862803E+02  0.41941890866E+01 -0.26604437756E+02  0.43400726733E+02  0.00000000000E+00 0.  1.
         11    1    4    4    0    0  0.13643378289E+02  0.20832914573E+01  0.72152164536E+01  0.15573735042E+02  0.51100000000E-03 0. -1.
        -11    1    4    4    0    0  0.10447342949E+02  0.41775149410E+01  0.94529801039E+01  0.14695490427E+02  0.51100000000E-03 0.  1.
         12    1    4    4    0    0  0.99421415654E+01 -0.10454995485E+02  0.99362411988E+01  0.17518047798E+02  0.00000000000E+00 0. -1.
</event>
<event>
 8    1  0.1280823E-010  0.9118800E+02  0.7816164E-02  0.1184000E+00
        -11   -1    0    0    0    0  0.00000000000E+00  0.00000000000E+00  0.45593999997E+02  0.45594000000E+02  0.51100000000E-03 0. -1.
         11   -1    0    0    0    0 -0.00000000000E+00 -0.00000000000E+00 -0.45593999997E+02  0.45594000000E+02  0.51100000000E-03 0.  1.
         23    2    1    2    0    0  0.00000000000E+00 -0.35527136788E-14 -0.35527136788E-14  0.91188000000E+02  0.91188000000E+02 0.  0.
    9900012    2    3    3    0    0  0.32323748352E+02  0.21035216302E+02  0.19907722031E+02  0.47787280779E+02  0.20000044384E+02 0.  0.
        -12    1    3    3    0    0 -0.32323748352E+02 -0.21035216302E+02 -0.19907722031E+02  0.43400719221E+02  0.00000000000E+00 0.  1.
         11    1    4    4    0    0  0.11180867319E+02  0.30527985800E+01  0.13957180621E+02  0.18142057885E+02  0.51100000000E-03 0.  1.
        -11    1    4    4    0    0  0.95975351654E+01  0.95729842862E+01  0.71243233346E+01  0.15313741954E+02  0.51100000000E-03 0. -1.
        -12    1    4    4    0    0  0.11545345868E+02  0.84094334361E+01 -0.11737819241E+01  0.14331480940E+02  0.00000000000E+00 0.  1.
</event>
<event>
 8    1  0.1280823E-010  0.9118800E+02  0.7816164E-02  0.1184000E+00
        -11   -1    0    0    0    0  0.00000000000E+00  0.00000000000E+00  0.45593999997E+02  0.45594000000E+02  0.51100000000E-03 0. -1.
         11   -1    0    0    0    0 -0.00000000000E+00 -0.00000000000E+00 -0.45593999997E+02  0.45594000000E+02  0.51100000000E-03 0.  1.
         23    2    1    2    0    0  0.35527136788E-14  0.00000000000E+00  0.35527136788E-14  0.91188000000E+02  0.91188000000E+02 0.  0.
    9900012    2    3    3    0    0 -0.20324234175E+02 -0.26599088042E+02 -0.27623137792E+02  0.47787265894E+02  0.19999976517E+02 0.  0.
         12    1    3    3    0    0  0.20324234175E+02  0.26599088042E+02  0.27623137792E+02  0.43400734106E+02  0.00000000000E+00 0. -1.
         11    1    4    4    0    0  0.20826540705E+01 -0.53098168241E+01 -0.33985056432E+01  0.66393857811E+01  0.51100000000E-03 0.  1.
        -11    1    4    4    0    0  0.13525165174E+01 -0.29369436548E+01 -0.25897313869E+01  0.41426619315E+01  0.51100000000E-03 0. -1.
        -12    1    4    4    0    0 -0.23759404763E+02 -0.18352327563E+02 -0.21634900762E+02  0.37005218181E+02  0.00000000000E+00 0.  1.
</event>
<event>
 8    1  0.1280823E-010  0.9118800E+02  0.7816164E-02  0.1184000E+00
        -11   -1    0    0    0    0  0.00000000000E+00  0.00000000000E+00  0.45593999997E+02  0.45594000000E+02  0.51100000000E-03 0. -1.
         11   -1    0    0    0    0 -0.00000000000E+00 -0.00000000000E+00 -0.45593999997E+02  0.45594000000E+02  0.51100000000E-03 0.  1.
         23    2    1    2    0    0  0.00000000000E+00 -0.17763568394E-14  0.00000000000E+00  0.91188000000E+02  0.91188000000E+02 0.  0.
    9900012    2    3    3    0    0  0.17413557339E+02  0.13719173075E+02 -0.37311870210E+02  0.47787270194E+02  0.19999996125E+02 0.  0.
         12    1    3    3    0    0 -0.17413557339E+02 -0.13719173075E+02  0.37311870210E+02  0.43400729806E+02  0.00000000000E+00 0. -1.
         11    1    4    4    0    0  0.95513269890E+00 -0.34645208877E+01 -0.10464412082E+02  0.11064316695E+02  0.51100000000E-03 0. -1.
        -11    1    4    4    0    0  0.10375275798E+01  0.26557982237E+01 -0.75306723030E+01  0.80523756296E+01  0.51100000000E-03 0.  1.
        -12    1    4    4    0    0  0.15420897060E+02  0.14527895739E+02 -0.19316785826E+02  0.28670577870E+02  0.00000000000E+00 0.  1.
</event>
<event>
 8    1  0.1280823E-010  0.9118800E+02  0.7816164E-02  0.1184000E+00
        -11   -1    0    0    0    0  0.00000000000E+00  0.00000000000E+00  0.45593999997E+02  0.45594000000E+02  0.51100000000E-03 0. -1.
         11   -1    0    0    0    0 -0.00000000000E+00 -0.00000000000E+00 -0.45593999997E+02  0.45594000000E+02  0.51100000000E-03 0.  1.
         23    2    1    2    0    0  0.17763568394E-14 -0.35527136788E-14 -0.35527136788E-14  0.91188000000E+02  0.91188000000E+02 0.  0.
    9900012    2    3    3    0    0  0.10104206631E+02 -0.28337103110E+02 -0.31281572073E+02  0.47787272407E+02  0.20000006211E+02 0.  0.
         12    1    3    3    0    0 -0.10104206631E+02  0.28337103110E+02  0.31281572073E+02  0.43400727593E+02  0.00000000000E+00 0. -1.
         11    1    4    4    0    0  0.67815608980E+01 -0.19351796271E+02 -0.99958192955E+01  0.22812233358E+02  0.51100000000E-03 0. -1.
        -11    1    4    4    0    0  0.77326712150E+00 -0.58194608151E+01 -0.37311002223E+01  0.69559453239E+01  0.51100000000E-03 0.  1.
        -12    1    4    4    0    0  0.25493786120E+01 -0.31658460236E+01 -0.17554652555E+02  0.18019093725E+02  0.00000000000E+00 0.  1.
</event>
<event>
 8    1  0.1985072E-010  0.9118800E+02  0.7816164E-02  0.1184000E+00
        -11   -1    0    0    0    0  0.00000000000E+00  0.00000000000E+00  0.45593999997E+02  0.45594000000E+02  0.51100000000E-03 0. -1.
         11   -1    0    0    0    0 -0.00000000000E+00 -0.00000000000E+00 -0.45593999997E+02  0.45594000000E+02  0.51100000000E-03 0.  1.
         23    2    1    2    0    0  0.00000000000E+00  0.00000000000E+00  0.00000000000E+00  0.91188000000E+02  0.91188000000E+02 0.  0.
    9900012    2    3    3    0    0 -0.71092975168E+00 -0.10172836075E+02 -0.42185684294E+02  0.47787262976E+02  0.19999963212E+02 0.  0.
         12    1    3    3    0    0  0.71092975168E+00  0.10172836075E+02  0.42185684294E+02  0.43400737024E+02  0.00000000000E+00 0. -1.
         11    1    4    4    0    0 -0.26826481139E+01 -0.21367275437E+01 -0.14975732518E+00  0.34328753279E+01  0.51100000000E-03 0. -1.
        -11    1    4    4    0    0  0.40911879584E+01 -0.53179570032E+01 -0.94668894785E+01  0.11603468544E+02  0.51100000000E-03 0.  1.
        -12    1    4    4    0    0 -0.21194695962E+01 -0.27181515276E+01 -0.32569037490E+02  0.32750919104E+02  0.00000000000E+00 0.  1.
</event>
<event>
 8    1  0.1280823E-010  0.9118800E+02  0.7816164E-02  0.1184000E+00
        -11   -1    0    0    0    0  0.00000000000E+00  0.00000000000E+00  0.45593999997E+02  0.45594000000E+02  0.51100000000E-03 0. -1.
         11   -1    0    0    0    0 -0.00000000000E+00 -0.00000000000E+00 -0.45593999997E+02  0.45594000000E+02  0.51100000000E-03 0.  1.
         23    2    1    2    0    0  0.00000000000E+00 -0.44408920985E-15  0.35527136788E-14  0.91188000000E+02  0.91188000000E+02 0.  0.
    9900012    2    3    3    0    0 -0.31862833052E+02 -0.34424088594E+01  0.29266572418E+02  0.47787279154E+02  0.20000036975E+02 0.  0.
        -12    1    3    3    0    0  0.31862833052E+02  0.34424088594E+01 -0.29266572418E+02  0.43400720846E+02  0.00000000000E+00 0.  1.
         11    1    4    4    0    0 -0.17517230053E+02  0.36965848820E+01  0.12084113742E+02  0.21599627166E+02  0.51100000000E-03 0. -1.
        -11    1    4    4    0    0 -0.30532081454E+01  0.24078334832E+00 -0.12821071366E+01  0.33202192053E+01  0.51100000000E-03 0.  1.
        -12    1    4    4    0    0 -0.11292394854E+02 -0.73797770897E+01  0.18464565813E+02  0.22867432783E+02  0.00000000000E+00 0.  1.
</event>
<event>
 8    1  0.1280823E-010  0.9118800E+02  0.7816164E-02  0.1184000E+00
        -11   -1    0    0    0    0  0.00000000000E+00  0.00000000000E+00  0.45593999997E+02  0.45594000000E+02  0.51100000000E-03 0. -1.
         11   -1    0    0    0    0 -0.00000000000E+00 -0.00000000000E+00 -0.45593999997E+02  0.45594000000E+02  0.51100000000E-03 0.  1.
         23    2    1    2    0    0 -0.17763568394E-14  0.00000000000E+00  0.71054273576E-14  0.91188000000E+02  0.91188000000E+02 0.  0.
    9900012    2    3    3    0    0  0.15184499838E+02 -0.13269056739E+02 -0.38431586178E+02  0.47787265925E+02  0.19999976659E+02 0.  0.
         12    1    3    3    0    0 -0.15184499838E+02  0.13269056739E+02  0.38431586178E+02  0.43400734075E+02  0.00000000000E+00 0. -1.
         11    1    4    4    0    0  0.24824096639E+01  0.22234074344E+01  0.58621272459E-01  0.33330669171E+01  0.51100000000E-03 0. -1.
        -11    1    4    4    0    0 -0.80883427656E+00 -0.40507656924E+01 -0.43654485908E+01  0.60099964427E+01  0.51100000000E-03 0.  1.
        -12    1    4    4    0    0  0.13510924451E+02 -0.11441698482E+02 -0.34124758860E+02  0.38444202565E+02  0.00000000000E+00 0.  1.
</event>
<event>
 8    1  0.1280823E-010  0.9118800E+02  0.7816164E-02  0.1184000E+00
        -11   -1    0    0    0    0  0.00000000000E+00  0.00000000000E+00  0.45593999997E+02  0.45594000000E+02  0.51100000000E-03 0. -1.
         11   -1    0    0    0    0 -0.00000000000E+00 -0.00000000000E+00 -0.45593999997E+02  0.45594000000E+02  0.51100000000E-03 0.  1.
         23    2    1    2    0    0 -0.17763568394E-14  0.00000000000E+00  0.00000000000E+00  0.91188000000E+02  0.91188000000E+02 0.  0.
    9900012    2    3    3    0    0  0.13197822042E+02  0.21003334328E+02 -0.35613206834E+02  0.47787273502E+02  0.20000011207E+02 0.  0.
         12    1    3    3    0    0 -0.13197822042E+02 -0.21003334328E+02  0.35613206834E+02  0.43400726498E+02  0.00000000000E+00 0. -1.
         11    1    4    4    0    0 -0.78815713641E+00  0.60212404667E+01 -0.12946026970E+01  0.62090679521E+01  0.51100000000E-03 0. -1.
        -11    1    4    4    0    0  0.89134077547E+01  0.11039872362E+02 -0.12759444466E+02  0.19082217977E+02  0.51100000000E-03 0.  1.
         12    1    4    4    0    0  0.50725714233E+01  0.39422214990E+01 -0.21559159671E+02  0.22495987573E+02  0.00000000000E+00 0. -1.
</event>
<event>
 8    1  0.1280823E-010  0.9118800E+02  0.7816164E-02  0.1184000E+00
        -11   -1    0    0    0    0  0.00000000000E+00  0.00000000000E+00  0.45593999997E+02  0.45594000000E+02  0.51100000000E-03 0. -1.
         11   -1    0    0    0    0 -0.00000000000E+00 -0.00000000000E+00 -0.45593999997E+02  0.45594000000E+02  0.51100000000E-03 0.  1.
         23    2    1    2    0    0  0.35527136788E-14 -0.35527136788E-14  0.35527136788E-14  0.91188000000E+02  0.91188000000E+02 0.  0.
    9900012    2    3    3    0    0 -0.27575116454E+02 -0.16924502048E+02 -0.28927453493E+02  0.47787269792E+02  0.19999994291E+02 0.  0.
         12    1    3    3    0    0  0.27575116454E+02  0.16924502048E+02  0.28927453493E+02  0.43400730208E+02  0.00000000000E+00 0. -1.
         11    1    4    4    0    0 -0.11392610313E+02 -0.16898226290E+02 -0.12548050478E+02  0.23933140048E+02  0.51100000000E-03 0. -1.
        -11    1    4    4    0    0 -0.73589624511E+01 -0.24391218216E+01 -0.10213386582E+02  0.12822515718E+02  0.51100000000E-03 0.  1.
        -12    1    4    4    0    0 -0.88235436897E+01  0.24128460640E+01 -0.61660164329E+01  0.11031614026E+02  0.00000000000E+00 0.  1.
</event>
<event>
 8    1  0.1280823E-010  0.9118800E+02  0.7816164E-02  0.1184000E+00
        -11   -1    0    0    0    0  0.00000000000E+00  0.00000000000E+00  0.45593999997E+02  0.45594000000E+02  0.51100000000E-03 0. -1.
         11   -1    0    0    0    0 -0.00000000000E+00 -0.00000000000E+00 -0.45593999997E+02  0.45594000000E+02  0.51100000000E-03 0.  1.
         23    2    1    2    0    0  0.00000000000E+00 -0.35527136788E-14  0.00000000000E+00  0.91188000000E+02  0.91188000000E+02 0.  0.
    9900012    2    3    3    0    0  0.11736678338E+02  0.21266793305E+02  0.35966621660E+02  0.47787262800E+02  0.19999962409E+02 0.  0.
        -12    1    3    3    0    0 -0.11736678338E+02 -0.21266793305E+02 -0.35966621660E+02  0.43400737200E+02  0.00000000000E+00 0.  1.
         11    1    4    4    0    0  0.62899521940E+01  0.11744068463E+02  0.23829013761E+02  0.27300339553E+02  0.51100000000E-03 0.  1.
        -11    1    4    4    0    0  0.65560966386E+01  0.47050987901E+01  0.13161368698E+02  0.15438328408E+02  0.51100000000E-03 0. -1.
        -12    1    4    4    0    0 -0.11093704942E+01  0.48176260519E+01 -0.10237607990E+01  0.50485948385E+01  0.00000000000E+00 0.  1.
</event>
<event>
 8    1  0.1280823E-010  0.9118800E+02  0.7816164E-02  0.1184000E+00
        -11   -1    0    0    0    0  0.00000000000E+00  0.00000000000E+00  0.45593999997E+02  0.45594000000E+02  0.51100000000E-03 0. -1.
         11   -1    0    0    0    0 -0.00000000000E+00 -0.00000000000E+00 -0.45593999997E+02  0.45594000000E+02  0.51100000000E-03 0.  1.
         23    2    1    2    0    0  0.00000000000E+00  0.00000000000E+00  0.00000000000E+00  0.91188000000E+02  0.91188000000E+02 0.  0.
    9900012    2    3    3    0    0  0.13139004623E+02 -0.90884361029E+01 -0.40353339956E+02  0.47787249328E+02  0.19999900986E+02 0.  0.
         12    1    3    3    0    0 -0.13139004623E+02  0.90884361029E+01  0.40353339956E+02  0.43400750672E+02  0.00000000000E+00 0. -1.
         11    1    4    4    0    0 -0.32369095349E+01  0.30767701643E+00 -0.51958397271E+01  0.61293555301E+01  0.51100000000E-03 0. -1.
        -11    1    4    4    0    0 -0.57849622560E+00 -0.40382911342E+01 -0.10445119336E+02  0.11213517351E+02  0.51100000000E-03 0.  1.
         12    1    4    4    0    0  0.16954410383E+02 -0.53578219851E+01 -0.24712380893E+02  0.30444376447E+02  0.00000000000E+00 0. -1.
</event>
<event>
 8    1  0.1344595E-010  0.9118800E+02  0.7816164E-02  0.1184000E+00
        -11   -1    0    0    0    0  0.00000000000E+00  0.00000000000E+00  0.45593999997E+02  0.45594000000E+02  0.51100000000E-03 0. -1.
         11   -1    0    0    0    0 -0.00000000000E+00 -0.00000000000E+00 -0.45593999997E+02  0.45594000000E+02  0.51100000000E-03 0.  1.
         23    2    1    2    0    0 -0.11102230246E-14 -0.17763568394E-14 -0.71054273576E-14  0.91188000000E+02  0.91188000000E+02 0.  0.
    9900012    2    3    3    0    0  0.75670964582E+00 -0.14557625677E+02 -0.40879414549E+02  0.47787267187E+02  0.19999982412E+02 0.  0.
         12    1    3    3    0    0 -0.75670964582E+00  0.14557625677E+02  0.40879414549E+02  0.43400732813E+02  0.00000000000E+00 0. -1.
         11    1    4    4    0    0  0.58953134121E+01 -0.23587944596E+01 -0.47263343319E+01  0.79156091369E+01  0.51100000000E-03 0. -1.
        -11    1    4    4    0    0  0.68850639599E+00 -0.25855980992E+01 -0.20080349415E+02  0.20257832842E+02  0.51100000000E-03 0.  1.
        -12    1    4    4    0    0 -0.58271101623E+01 -0.96132331187E+01 -0.16072730802E+02  0.19613825208E+02  0.00000000000E+00 0.  1.
</event>
<event>
 8    1  0.1280823E-010  0.9118800E+02  0.7816164E-02  0.1184000E+00
        -11   -1    0    0    0    0  0.00000000000E+00  0.00000000000E+00  0.45593999997E+02  0.45594000000E+02  0.51100000000E-03 0. -1.
         11   -1    0    0    0    0 -0.00000000000E+00 -0.00000000000E+00 -0.45593999997E+02  0.45594000000E+02  0.51100000000E-03 0.  1.
         23    2    1    2    0    0  0.35527136788E-14 -0.88817841970E-15 -0.35527136788E-14  0.91188000000E+02  0.91188000000E+02 0.  0.
    9900012    2    3    3    0    0  0.30875123468E+02  0.79202698558E+01  0.29455360635E+02  0.47787283487E+02  0.20000056730E+02 0.  0.
        -12    1    3    3    0    0 -0.30875123468E+02 -0.79202698558E+01 -0.29455360635E+02  0.43400716513E+02  0.00000000000E+00 0.  1.
         11    1    4    4    0    0  0.88031740181E+01 -0.13537772611E+01  0.32339070552E+01  0.94755865659E+01  0.51100000000E-03 0. -1.
        -11    1    4    4    0    0  0.46746676866E+01  0.57302157953E+01  0.99215265310E+00  0.74613844686E+01  0.51100000000E-03 0.  1.
         12    1    4    4    0    0  0.17397281763E+02  0.35438313216E+01  0.25229300926E+02  0.30850312452E+02  0.00000000000E+00 0. -1.
</event>
<event>
 8    1  0.1644700E-010  0.9118800E+02  0.7816164E-02  0.1184000E+00
        -11   -1    0    0    0    0  0.00000000000E+00  0.00000000000E+00  0.45593999997E+02  0.45594000000E+02  0.51100000000E-03 0. -1.
         11   -1    0    0    0    0 -0.00000000000E+00 -0.00000000000E+00 -0.45593999997E+02  0.45594000000E+02  0.51100000000E-03 0.  1.
         23    2    1    2    0    0 -0.88817841970E-15  0.00000000000E+00  0.71054273576E-14  0.91188000000E+02  0.91188000000E+02 0.  0.
    9900012    2    3    3    0    0 -0.63648250260E+01 -0.23259356556E+01 -0.42868449917E+02  0.47787251474E+02  0.19999910771E+02 0.  0.
         12    1    3    3    0    0  0.63648250260E+01  0.23259356556E+01  0.42868449917E+02  0.43400748526E+02  0.00000000000E+00 0. -1.
         11    1    4    4    0    0 -0.19062431885E+00 -0.78003179359E+00  0.95005062991E+00  0.12439387808E+01  0.51100000000E-03 0. -1.
        -11    1    4    4    0    0  0.42985878333E+01 -0.15823396731E+01 -0.20104037724E+02  0.20619262578E+02  0.51100000000E-03 0.  1.
        -12    1    4    4    0    0 -0.10472788540E+02  0.36435811097E-01 -0.23714462823E+02  0.25924050115E+02  0.00000000000E+00 0.  1.
</event>
<event>
 8    1  0.1280823E-010  0.9118800E+02  0.7816164E-02  0.1184000E+00
        -11   -1    0    0    0    0  0.00000000000E+00  0.00000000000E+00  0.45593999997E+02  0.45594000000E+02  0.51100000000E-03 0. -1.
         11   -1    0    0    0    0 -0.00000000000E+00 -0.00000000000E+00 -0.45593999997E+02  0.45594000000E+02  0.51100000000E-03 0.  1.
         23    2    1    2    0    0  0.00000000000E+00  0.00000000000E+00  0.71054273576E-14  0.91188000000E+02  0.91188000000E+02 0.  0.
    9900012    2    3    3    0    0  0.21312509845E+02  0.16363435924E+02 -0.34082801411E+02  0.47787280385E+02  0.20000042585E+02 0.  0.
         12    1    3    3    0    0 -0.21312509845E+02 -0.16363435924E+02  0.34082801411E+02  0.43400719615E+02  0.00000000000E+00 0. -1.
         11    1    4    4    0    0  0.20869657846E+02  0.14461038087E+02 -0.20706258986E+02  0.32762988304E+02  0.51100000000E-03 0. -1.
        -11    1    4    4    0    0  0.15149456017E+01  0.27760260184E+01 -0.24235665704E+01  0.39843513667E+01  0.51100000000E-03 0.  1.
         12    1    4    4    0    0 -0.10720936030E+01 -0.87362818144E+00 -0.10952975855E+02  0.11039940714E+02  0.00000000000E+00 0. -1.
</event>
<event>
 8    1  0.1280823E-010  0.9118800E+02  0.7816164E-02  0.1184000E+00
        -11   -1    0    0    0    0  0.00000000000E+00  0.00000000000E+00  0.45593999997E+02  0.45594000000E+02  0.51100000000E-03 0. -1.
         11   -1    0    0    0    0 -0.00000000000E+00 -0.00000000000E+00 -0.45593999997E+02  0.45594000000E+02  0.51100000000E-03 0.  1.
         23    2    1    2    0    0 -0.35527136788E-14  0.88817841970E-15  0.00000000000E+00  0.91188000000E+02  0.91188000000E+02 0.  0.
    9900012    2    3    3    0    0  0.28501137952E+02 -0.48369986943E+01  0.32371464166E+02  0.47787272896E+02  0.20000008441E+02 0.  0.
        -12    1    3    3    0    0 -0.28501137952E+02  0.48369986943E+01 -0.32371464166E+02  0.43400727104E+02  0.00000000000E+00 0.  1.
         11    1    4    4    0    0  0.11503171924E+02 -0.56939088772E+01  0.12594491276E+02  0.17982346159E+02  0.51100000000E-03 0. -1.
        -11    1    4    4    0    0  0.43114672640E+01 -0.43156467315E+01  0.45313721170E+00  0.61170981906E+01  0.51100000000E-03 0.  1.
        -12    1    4    4    0    0  0.12686498763E+02  0.51725569145E+01  0.19323835678E+02  0.23687828546E+02  0.00000000000E+00 0.  1.
</event>
<event>
 8    1  0.1280823E-010  0.9118800E+02  0.7816164E-02  0.1184000E+00
        -11   -1    0    0    0    0  0.00000000000E+00  0.00000000000E+00  0.45593999997E+02  0.45594000000E+02  0.51100000000E-03 0. -1.
         11   -1    0    0    0    0 -0.00000000000E+00 -0.00000000000E+00 -0.45593999997E+02  0.45594000000E+02  0.51100000000E-03 0.  1.
         23    2    1    2    0    0  0.00000000000E+00  0.00000000000E+00  0.00000000000E+00  0.91188000000E+02  0.91188000000E+02 0.  0.
    9900012    2    3    3    0    0  0.84383463984E+01 -0.24051750601E+02 -0.35127354916E+02  0.47787268896E+02  0.19999990206E+02 0.  0.
         12    1    3    3    0    0 -0.84383463984E+01  0.24051750601E+02  0.35127354916E+02  0.43400731104E+02  0.00000000000E+00 0. -1.
         11    1    4    4    0    0  0.26171737114E+01 -0.30669082140E+01 -0.51403142236E+01  0.65328672730E+01  0.51100000000E-03 0. -1.
        -11    1    4    4    0    0 -0.27279340055E+01 -0.13373207608E+02 -0.25570987613E+02  0.28985508680E+02  0.51100000000E-03 0.  1.
         12    1    4    4    0    0  0.85491066926E+01 -0.76116347796E+01 -0.44160530793E+01  0.12268892943E+02  0.00000000000E+00 0. -1.
</event>
<event>
 8    1  0.1280823E-010  0.9118800E+02  0.7816164E-02  0.1184000E+00
        -11   -1    0    0    0    0  0.00000000000E+00  0.00000000000E+00  0.45593999997E+02  0.45594000000E+02  0.51100000000E-03 0. -1.
         11   -1    0    0    0    0 -0.00000000000E+00 -0.00000000000E+00 -0.45593999997E+02  0.45594000000E+02  0.51100000000E-03 0.  1.
         23    2    1    2    0    0  0.00000000000E+00  0.00000000000E+00  0.00000000000E+00  0.91188000000E+02  0.91188000000E+02 0.  0.
    9900012    2    3    3    0    0  0.67713074509E+01  0.42311258240E+02  0.68943156176E+01  0.47787253851E+02  0.19999921609E+02 0.  0.
        -12    1    3    3    0    0 -0.67713074509E+01 -0.42311258240E+02 -0.68943156176E+01  0.43400746149E+02  0.00000000000E+00 0.  1.
         11    1    4    4    0    0  0.46231537742E+00  0.16149352506E+02 -0.25023154445E+01  0.16348605590E+02  0.51100000000E-03 0. -1.
        -11    1    4    4    0    0 -0.25449265053E+01  0.14658805406E+02  0.16068125574E+01  0.14964594004E+02  0.51100000000E-03 0.  1.
        -12    1    4    4    0    0  0.88539185787E+01  0.11503100328E+02  0.77898185047E+01  0.16474054258E+02  0.00000000000E+00 0.  1.
</event>
<event>
 8    1  0.1280823E-010  0.9118800E+02  0.7816164E-02  0.1184000E+00
        -11   -1    0    0    0    0  0.00000000000E+00  0.00000000000E+00  0.45593999997E+02  0.45594000000E+02  0.51100000000E-03 0. -1.
         11   -1    0    0    0    0 -0.00000000000E+00 -0.00000000000E+00 -0.45593999997E+02  0.45594000000E+02  0.51100000000E-03 0.  1.
         23    2    1    2    0    0  0.00000000000E+00  0.00000000000E+00  0.00000000000E+00  0.91188000000E+02  0.91188000000E+02 0.  0.
    9900012    2    3    3    0    0  0.15807872251E+02 -0.26955088846E+02 -0.30119066594E+02  0.47787264842E+02  0.19999971720E+02 0.  0.
         12    1    3    3    0    0 -0.15807872251E+02  0.26955088846E+02  0.30119066594E+02  0.43400735158E+02  0.00000000000E+00 0. -1.
         11    1    4    4    0    0  0.73212513175E+01 -0.13721574122E+02 -0.61170166487E+01  0.16712277229E+02  0.51100000000E-03 0. -1.
        -11    1    4    4    0    0  0.65585811908E+00 -0.95059291230E+01 -0.64772471703E+01  0.11521613148E+02  0.51100000000E-03 0.  1.
        -12    1    4    4    0    0  0.78307628149E+01 -0.37275856007E+01 -0.17524802775E+02  0.19553374465E+02  0.00000000000E+00 0.  1.
</event>
<event>
 8    1  0.1280823E-010  0.9118800E+02  0.7816164E-02  0.1184000E+00
        -11   -1    0    0    0    0  0.00000000000E+00  0.00000000000E+00  0.45593999997E+02  0.45594000000E+02  0.51100000000E-03 0. -1.
         11   -1    0    0    0    0 -0.00000000000E+00 -0.00000000000E+00 -0.45593999997E+02  0.45594000000E+02  0.51100000000E-03 0.  1.
         23    2    1    2    0    0 -0.35527136788E-14 -0.17763568394E-14  0.00000000000E+00  0.91188000000E+02  0.91188000000E+02 0.  0.
    9900012    2    3    3    0    0  0.20635473668E+02  0.11253015395E+02 -0.36485202501E+02  0.47787272696E+02  0.20000007531E+02 0.  0.
         12    1    3    3    0    0 -0.20635473668E+02 -0.11253015395E+02  0.36485202501E+02  0.43400727304E+02  0.00000000000E+00 0. -1.
         11    1    4    4    0    0  0.21788334061E+01  0.49070205075E+01 -0.43831571371E+01  0.69309618396E+01  0.51100000000E-03 0. -1.
        -11    1    4    4    0    0  0.14166756073E+02  0.74516689210E+01 -0.32679062078E+02  0.36388809350E+02  0.51100000000E-03 0.  1.
         12    1    4    4    0    0  0.42898841891E+01 -0.11056740334E+01  0.57701671435E+00  0.44675015067E+01  0.00000000000E+00 0. -1.
</event>
<event>
 8    1  0.1280823E-010  0.9118800E+02  0.7816164E-02  0.1184000E+00
        -11   -1    0    0    0    0  0.00000000000E+00  0.00000000000E+00  0.45593999997E+02  0.45594000000E+02  0.51100000000E-03 0. -1.
         11   -1    0    0    0    0 -0.00000000000E+00 -0.00000000000E+00 -0.45593999997E+02  0.45594000000E+02  0.51100000000E-03 0.  1.
         23    2    1    2    0    0  0.00000000000E+00  0.22204460493E-15  0.00000000000E+00  0.91188000000E+02  0.91188000000E+02 0.  0.
    9900012    2    3    3    0    0  0.97301692407E+01  0.13358453928E+01 -0.42274850473E+02  0.47787266609E+02  0.19999979775E+02 0.  0.
         12    1    3    3    0    0 -0.97301692407E+01 -0.13358453928E+01  0.42274850473E+02  0.43400733391E+02  0.00000000000E+00 0. -1.
         11    1    4    4    0    0  0.28107725463E+01 -0.63389761748E+01 -0.12276198256E+02  0.14099223565E+02  0.51100000000E-03 0.  1.
        -11    1    4    4    0    0 -0.17620549320E+00  0.18839948625E+01  0.40483465713E+00  0.19350391155E+01  0.51100000000E-03 0. -1.
         12    1    4    4    0    0  0.70956021876E+01  0.57908267051E+01 -0.30403486875E+02  0.31753003928E+02  0.00000000000E+00 0. -1.
</event>
<event>
 8    1  0.1280823E-010  0.9118800E+02  0.7816164E-02  0.1184000E+00
        -11   -1    0    0    0    0  0.00000000000E+00  0.00000000000E+00  0.45593999997E+02  0.45594000000E+02  0.51100000000E-03 0. -1.
         11   -1    0    0    0    0 -0.00000000000E+00 -0.00000000000E+00 -0.45593999997E+02  0.45594000000E+02  0.51100000000E-03 0.  1.
         23    2    1    2    0    0 -0.71054273576E-14  0.00000000000E+00 -0.35527136788E-14  0.91188000000E+02  0.91188000000E+02 0.  0.
    9900012    2    3    3    0    0 -0.34621356410E+02 -0.90456102191E+01 -0.24559364644E+02  0.47787265264E+02  0.19999973647E+02 0.  0.
         12    1    3    3    0    0  0.34621356410E+02  0.90456102191E+01  0.24559364644E+02  0.43400734736E+02  0.00000000000E+00 0. -1.
         11    1    4    4    0    0  0.68454505542E+00 -0.32616006788E+00 -0.25493796885E+00  0.79998496977E+00  0.51100000000E-03 0.  1.
        -11    1    4    4    0    0 -0.17536983667E+02  0.44023824146E+01 -0.98589277370E+01  0.20594300751E+02  0.51100000000E-03 0. -1.
        -12    1    4    4    0    0 -0.17768917798E+02 -0.13121832566E+02 -0.14445498938E+02  0.26392979543E+02  0.00000000000E+00 0.  1.
</event>
<event>
 8    1  0.1280823E-010  0.9118800E+02  0.7816164E-02  0.1184000E+00
        -11   -1    0    0    0    0  0.00000000000E+00  0.00000000000E+00  0.45593999997E+02  0.45594000000E+02  0.51100000000E-03 0. -1.
         11   -1    0    0    0    0 -0.00000000000E+00 -0.00000000000E+00 -0.45593999997E+02  0.45594000000E+02  0.51100000000E-03 0.  1.
         23    2    1    2    0    0  0.00000000000E+00  0.88817841970E-15  0.00000000000E+00  0.91188000000E+02  0.91188000000E+02 0.  0.
    9900012    2    3    3    0    0 -0.40927041323E+02 -0.69867069358E+01  0.12640639280E+02  0.47787279422E+02  0.20000038199E+02 0.  0.
        -12    1    3    3    0    0  0.40927041323E+02  0.69867069358E+01 -0.12640639280E+02  0.43400720578E+02  0.00000000000E+00 0.  1.
         11    1    4    4    0    0 -0.79010441252E+01 -0.66297847831E+01  0.24381888528E+01  0.10598363538E+02  0.51100000000E-03 0. -1.
        -11    1    4    4    0    0 -0.42193339370E+00  0.15573325818E+01  0.34916068155E+01  0.38463789431E+01  0.51100000000E-03 0.  1.
         12    1    4    4    0    0 -0.32604063804E+02 -0.19142547345E+01  0.67108436122E+01  0.33342536941E+02  0.00000000000E+00 0. -1.
</event>
<event>
 8    1  0.1280823E-010  0.9118800E+02  0.7816164E-02  0.1184000E+00
        -11   -1    0    0    0    0  0.00000000000E+00  0.00000000000E+00  0.45593999997E+02  0.45594000000E+02  0.51100000000E-03 0. -1.
         11   -1    0    0    0    0 -0.00000000000E+00 -0.00000000000E+00 -0.45593999997E+02  0.45594000000E+02  0.51100000000E-03 0.  1.
         23    2    1    2    0    0  0.00000000000E+00 -0.35527136788E-14  0.71054273576E-14  0.91188000000E+02  0.91188000000E+02 0.  0.
    9900012    2    3    3    0    0  0.13699403267E+02 -0.27800045666E+02  0.30382673126E+02  0.47787274025E+02  0.20000013589E+02 0.  0.
        -12    1    3    3    0    0 -0.13699403267E+02  0.27800045666E+02 -0.30382673126E+02  0.43400725975E+02  0.00000000000E+00 0.  1.
         11    1    4    4    0    0  0.77833144264E+01 -0.22487136094E+02  0.22792629912E+02  0.32950800472E+02  0.51100000000E-03 0. -1.
        -11    1    4    4    0    0 -0.97711224563E-01 -0.24751506797E+01  0.77995596184E+01  0.81834619125E+01  0.51100000000E-03 0.  1.
        -12    1    4    4    0    0  0.60138000657E+01 -0.28377588917E+01 -0.20951640487E+00  0.66530116400E+01  0.00000000000E+00 0.  1.
</event>
<event>
 8    1  0.1280823E-010  0.9118800E+02  0.7816164E-02  0.1184000E+00
        -11   -1    0    0    0    0  0.00000000000E+00  0.00000000000E+00  0.45593999997E+02  0.45594000000E+02  0.51100000000E-03 0. -1.
         11   -1    0    0    0    0 -0.00000000000E+00 -0.00000000000E+00 -0.45593999997E+02  0.45594000000E+02  0.51100000000E-03 0.  1.
         23    2    1    2    0    0 -0.17763568394E-14  0.00000000000E+00  0.35527136788E-14  0.91188000000E+02  0.91188000000E+02 0.  0.
    9900012    2    3    3    0    0 -0.14791140541E+02 -0.35005126844E+02  0.20963931819E+02  0.47787272112E+02  0.20000004867E+02 0.  0.
        -12    1    3    3    0    0  0.14791140541E+02  0.35005126844E+02 -0.20963931819E+02  0.43400727888E+02  0.00000000000E+00 0.  1.
         11    1    4    4    0    0 -0.41862600158E+01 -0.79754781768E+01  0.29759726928E+01  0.94862763400E+01  0.51100000000E-03 0. -1.
        -11    1    4    4    0    0 -0.48295704835E+01 -0.13099189560E+02 -0.10656789403E+01  0.14001756677E+02  0.51100000000E-03 0.  1.
         12    1    4    4    0    0 -0.57753100423E+01 -0.13930459108E+02  0.19053638066E+02  0.24299239095E+02  0.00000000000E+00 0. -1.
</event>
<event>
 8    1  0.1280823E-010  0.9118800E+02  0.7816164E-02  0.1184000E+00
        -11   -1    0    0    0    0  0.00000000000E+00  0.00000000000E+00  0.45593999997E+02  0.45594000000E+02  0.51100000000E-03 0. -1.
         11   -1    0    0    0    0 -0.00000000000E+00 -0.00000000000E+00 -0.45593999997E+02  0.45594000000E+02  0.51100000000E-03 0.  1.
         23    2    1    2    0    0 -0.35527136788E-14  0.00000000000E+00  0.00000000000E+00  0.91188000000E+02  0.91188000000E+02 0.  0.
    9900012    2    3    3    0    0  0.19542253002E+02  0.61984152081E+01  0.38253149976E+02  0.47787268594E+02  0.19999988829E+02 0.  0.
        -12    1    3    3    0    0 -0.19542253002E+02 -0.61984152081E+01 -0.38253149976E+02  0.43400731406E+02  0.00000000000E+00 0.  1.
         11    1    4    4    0    0  0.35801620101E+01  0.31021415625E+01  0.21000646595E+02  0.21528306946E+02  0.51100000000E-03 0. -1.
        -11    1    4    4    0    0 -0.14391819979E+01 -0.11677683785E+01  0.20340403470E+01  0.27517718298E+01  0.51100000000E-03 0.  1.
        -12    1    4    4    0    0  0.17401272990E+02  0.42640420241E+01  0.15218463034E+02  0.23507189818E+02  0.00000000000E+00 0.  1.
</event>
<event>
 8    1  0.1280823E-010  0.9118800E+02  0.7816164E-02  0.1184000E+00
        -11   -1    0    0    0    0  0.00000000000E+00  0.00000000000E+00  0.45593999997E+02  0.45594000000E+02  0.51100000000E-03 0. -1.
         11   -1    0    0    0    0 -0.00000000000E+00 -0.00000000000E+00 -0.45593999997E+02  0.45594000000E+02  0.51100000000E-03 0.  1.
         23    2    1    2    0    0  0.00000000000E+00  0.00000000000E+00  0.00000000000E+00  0.91188000000E+02  0.91188000000E+02 0.  0.
    9900012    2    3    3    0    0 -0.42104386846E+02 -0.36456368851E+01 -0.98769108103E+01  0.47787269279E+02  0.19999991950E+02 0.  0.
         12    1    3    3    0    0  0.42104386846E+02  0.36456368851E+01  0.98769108103E+01  0.43400730721E+02  0.00000000000E+00 0. -1.
         11    1    4    4    0    0 -0.66385836640E+01 -0.16141649494E+01  0.21738886906E+01  0.71695267520E+01  0.51100000000E-03 0. -1.
        -11    1    4    4    0    0 -0.27035970947E+02 -0.52299424917E+01 -0.27662783753E+01  0.27675771350E+02  0.51100000000E-03 0.  1.
         12    1    4    4    0    0 -0.84298322353E+01  0.31984705560E+01 -0.92845211257E+01  0.12941971177E+02  0.00000000000E+00 0. -1.
</event>
<event>
 8    1  0.1280823E-010  0.9118800E+02  0.7816164E-02  0.1184000E+00
        -11   -1    0    0    0    0  0.00000000000E+00  0.00000000000E+00  0.45593999997E+02  0.45594000000E+02  0.51100000000E-03 0. -1.
         11   -1    0    0    0    0 -0.00000000000E+00 -0.00000000000E+00 -0.45593999997E+02  0.45594000000E+02  0.51100000000E-03 0.  1.
         23    2    1    2    0    0  0.17763568394E-14 -0.35527136788E-14  0.00000000000E+00  0.91188000000E+02  0.91188000000E+02 0.  0.
    9900012    2    3    3    0    0 -0.93458005707E+01  0.23527441977E+02  0.35252497571E+02  0.47787273056E+02  0.20000009171E+02 0.  0.
        -12    1    3    3    0    0  0.93458005707E+01 -0.23527441977E+02 -0.35252497571E+02  0.43400726944E+02  0.00000000000E+00 0.  1.
         11    1    4    4    0    0 -0.33094177923E+01  0.83484407392E+01  0.11899047748E+02  0.14907583522E+02  0.51100000000E-03 0. -1.
        -11    1    4    4    0    0 -0.88469326222E+01  0.16365819568E+02  0.14720256258E+02  0.23723284163E+02  0.51100000000E-03 0.  1.
         12    1    4    4    0    0  0.28105498437E+01 -0.11868183300E+01  0.86331935648E+01  0.91564053700E+01  0.00000000000E+00 0. -1.
</event>
<event>
 8    1  0.1280823E-010  0.9118800E+02  0.7816164E-02  0.1184000E+00
        -11   -1    0    0    0    0  0.00000000000E+00  0.00000000000E+00  0.45593999997E+02  0.45594000000E+02  0.51100000000E-03 0. -1.
         11   -1    0    0    0    0 -0.00000000000E+00 -0.00000000000E+00 -0.45593999997E+02  0.45594000000E+02  0.51100000000E-03 0.  1.
         23    2    1    2    0    0 -0.88817841970E-15  0.71054273576E-14  0.17763568394E-14  0.91188000000E+02  0.91188000000E+02 0.  0.
    9900012    2    3    3    0    0 -0.76894239720E+01  0.40351994509E+02  0.14007544023E+02  0.47787285819E+02  0.20000067361E+02 0.  0.
        -12    1    3    3    0    0  0.76894239720E+01 -0.40351994509E+02 -0.14007544023E+02  0.43400714181E+02  0.00000000000E+00 0.  1.
         11    1    4    4    0    0  0.29470800192E+00  0.15804521368E+01 -0.11508952029E+01  0.19771802630E+01  0.51100000000E-03 0. -1.
        -11    1    4    4    0    0  0.45725556061E+01  0.11363310155E+02  0.85748431266E+01  0.14951956974E+02  0.51100000000E-03 0.  1.
         12    1    4    4    0    0 -0.12556687580E+02  0.27408232218E+02  0.65835960996E+01  0.30858148582E+02  0.00000000000E+00 0. -1.
</event>
<event>
 8    1  0.1280823E-010  0.9118800E+02  0.7816164E-02  0.1184000E+00
        -11   -1    0    0    0    0  0.00000000000E+00  0.00000000000E+00  0.45593999997E+02  0.45594000000E+02  0.51100000000E-03 0. -1.
         11   -1    0    0    0    0 -0.00000000000E+00 -0.00000000000E+00 -0.45593999997E+02  0.45594000000E+02  0.51100000000E-03 0.  1.
         23    2    1    2    0    0  0.00000000000E+00  0.00000000000E+00  0.00000000000E+00  0.91188000000E+02  0.91188000000E+02 0.  0.
    9900012    2    3    3    0    0 -0.38694831872E+02 -0.87715008323E+01 -0.17589612802E+02  0.47787265917E+02  0.19999976621E+02 0.  0.
         12    1    3    3    0    0  0.38694831872E+02  0.87715008323E+01  0.17589612802E+02  0.43400734083E+02  0.00000000000E+00 0. -1.
         11    1    4    4    0    0 -0.15711327507E+02 -0.17643031312E+01 -0.12268948185E+02  0.20012138002E+02  0.51100000000E-03 0. -1.
        -11    1    4    4    0    0 -0.11251555741E+02 -0.90066963314E+01 -0.65104627696E+01  0.15814683403E+02  0.51100000000E-03 0.  1.
         12    1    4    4    0    0 -0.11731948624E+02  0.19994986303E+01  0.11897981526E+01  0.11960444512E+02  0.00000000000E+00 0. -1.
</event>
<event>
 8    1  0.1280823E-010  0.9118800E+02  0.7816164E-02  0.1184000E+00
        -11   -1    0    0    0    0  0.00000000000E+00  0.00000000000E+00  0.45593999997E+02  0.45594000000E+02  0.51100000000E-03 0.  1.
         11   -1    0    0    0    0 -0.00000000000E+00 -0.00000000000E+00 -0.45593999997E+02  0.45594000000E+02  0.51100000000E-03 0. -1.
         23    2    1    2    0    0  0.00000000000E+00  0.17763568394E-14  0.35527136788E-14  0.91188000000E+02  0.91188000000E+02 0.  0.
    9900012    2    3    3    0    0 -0.26136744188E+02  0.15151353957E+02 -0.31159757129E+02  0.47787269732E+02  0.19999994014E+02 0.  0.
         12    1    3    3    0    0  0.26136744188E+02 -0.15151353957E+02  0.31159757129E+02  0.43400730268E+02  0.00000000000E+00 0. -1.
         11    1    4    4    0    0 -0.13008655422E+02  0.43009407726E+01 -0.22050958952E+02  0.25960893636E+02  0.51100000000E-03 0. -1.
        -11    1    4    4    0    0 -0.82552487289E+01  0.10889594952E+01 -0.13423227254E+01  0.84342631520E+01  0.51100000000E-03 0.  1.
        -12    1    4    4    0    0 -0.48728400368E+01  0.97614536887E+01 -0.77664754517E+01  0.13392112943E+02  0.00000000000E+00 0.  1.
</event>
<event>
 8    1  0.1280823E-010  0.9118800E+02  0.7816164E-02  0.1184000E+00
        -11   -1    0    0    0    0  0.00000000000E+00  0.00000000000E+00  0.45593999997E+02  0.45594000000E+02  0.51100000000E-03 0. -1.
         11   -1    0    0    0    0 -0.00000000000E+00 -0.00000000000E+00 -0.45593999997E+02  0.45594000000E+02  0.51100000000E-03 0.  1.
         23    2    1    2    0    0  0.00000000000E+00  0.00000000000E+00  0.00000000000E+00  0.91188000000E+02  0.91188000000E+02 0.  0.
    9900012    2    3    3    0    0 -0.22046527531E+01  0.19920693806E+02  0.38495824686E+02  0.47787273580E+02  0.20000011563E+02 0.  0.
        -12    1    3    3    0    0  0.22046527531E+01 -0.19920693806E+02 -0.38495824686E+02  0.43400726420E+02  0.00000000000E+00 0.  1.
         11    1    4    4    0    0  0.33047048108E+01 -0.51636584619E+00  0.18018839319E+01  0.37992753965E+01  0.51100000000E-03 0.  1.
        -11    1    4    4    0    0 -0.86943448287E+01  0.17209821643E+02  0.25972485181E+02  0.32347172669E+02  0.51100000000E-03 0. -1.
         12    1    4    4    0    0  0.31849872648E+01  0.32272380094E+01  0.10721455574E+02  0.11640825515E+02  0.00000000000E+00 0. -1.
</event>
<event>
 8    1  0.1280823E-010  0.9118800E+02  0.7816164E-02  0.1184000E+00
        -11   -1    0    0    0    0  0.00000000000E+00  0.00000000000E+00  0.45593999997E+02  0.45594000000E+02  0.51100000000E-03 0. -1.
         11   -1    0    0    0    0 -0.00000000000E+00 -0.00000000000E+00 -0.45593999997E+02  0.45594000000E+02  0.51100000000E-03 0.  1.
         23    2    1    2    0    0  0.00000000000E+00  0.00000000000E+00 -0.35527136788E-14  0.91188000000E+02  0.91188000000E+02 0.  0.
    9900012    2    3    3    0    0  0.36557898067E+02 -0.88249296046E+01 -0.21662488394E+02  0.47787277690E+02  0.20000030300E+02 0.  0.
         12    1    3    3    0    0 -0.36557898067E+02  0.88249296046E+01  0.21662488394E+02  0.43400722310E+02  0.00000000000E+00 0. -1.
         11    1    4    4    0    0  0.16889628716E+02 -0.21268910691E+01 -0.67968871275E+01  0.18329781741E+02  0.51100000000E-03 0. -1.
        -11    1    4    4    0    0  0.19035948449E+02 -0.10284895984E+01 -0.83922761751E+01  0.20829196429E+02  0.51100000000E-03 0.  1.
         12    1    4    4    0    0  0.63232090202E+00 -0.56695489371E+01 -0.64733250912E+01  0.86282995202E+01  0.00000000000E+00 0. -1.
</event>
<event>
 8    1  0.1280823E-010  0.9118800E+02  0.7816164E-02  0.1184000E+00
        -11   -1    0    0    0    0  0.00000000000E+00  0.00000000000E+00  0.45593999997E+02  0.45594000000E+02  0.51100000000E-03 0. -1.
         11   -1    0    0    0    0 -0.00000000000E+00 -0.00000000000E+00 -0.45593999997E+02  0.45594000000E+02  0.51100000000E-03 0.  1.
         23    2    1    2    0    0  0.00000000000E+00  0.00000000000E+00  0.00000000000E+00  0.91188000000E+02  0.91188000000E+02 0.  0.
    9900012    2    3    3    0    0  0.13239993647E+02  0.28359981348E+02  0.30067211705E+02  0.47787271970E+02  0.20000004219E+02 0.  0.
        -12    1    3    3    0    0 -0.13239993647E+02 -0.28359981348E+02 -0.30067211705E+02  0.43400728030E+02  0.00000000000E+00 0.  1.
         11    1    4    4    0    0  0.30672564625E+01  0.29505946047E+01  0.49748653509E+01  0.65470112455E+01  0.51100000000E-03 0. -1.
        -11    1    4    4    0    0  0.44827337462E+01  0.26151905574E+02  0.17756172850E+02  0.31926458331E+02  0.51100000000E-03 0.  1.
        -12    1    4    4    0    0  0.56900034382E+01 -0.74251883107E+00  0.73361735044E+01  0.93138023937E+01  0.00000000000E+00 0.  1.
</event>
<event>
 8    1  0.1280823E-010  0.9118800E+02  0.7816164E-02  0.1184000E+00
        -11   -1    0    0    0    0  0.00000000000E+00  0.00000000000E+00  0.45593999997E+02  0.45594000000E+02  0.51100000000E-03 0.  1.
         11   -1    0    0    0    0 -0.00000000000E+00 -0.00000000000E+00 -0.45593999997E+02  0.45594000000E+02  0.51100000000E-03 0. -1.
         23    2    1    2    0    0  0.00000000000E+00  0.00000000000E+00  0.00000000000E+00  0.91188000000E+02  0.91188000000E+02 0.  0.
    9900012    2    3    3    0    0 -0.36980549410E+02  0.21623695097E+02  0.69626115797E+01  0.47787272076E+02  0.20000004704E+02 0.  0.
        -12    1    3    3    0    0  0.36980549410E+02 -0.21623695097E+02 -0.69626115797E+01  0.43400727924E+02  0.00000000000E+00 0.  1.
         11    1    4    4    0    0 -0.19665029056E+02  0.97931723075E+01  0.26010053789E+01  0.22122043777E+02  0.51100000000E-03 0. -1.
        -11    1    4    4    0    0 -0.90595278444E+01 -0.14135225073E+01  0.41314221448E+01  0.10056924969E+02  0.51100000000E-03 0.  1.
         12    1    4    4    0    0 -0.82559925095E+01  0.13244045297E+02  0.23018405596E+00  0.15608303330E+02  0.00000000000E+00 0. -1.
</event>
<event>
 8    1  0.1280823E-010  0.9118800E+02  0.7816164E-02  0.1184000E+00
        -11   -1    0    0    0    0  0.00000000000E+00  0.00000000000E+00  0.45593999997E+02  0.45594000000E+02  0.51100000000E-03 0. -1.
         11   -1    0    0    0    0 -0.00000000000E+00 -0.00000000000E+00 -0.45593999997E+02  0.45594000000E+02  0.51100000000E-03 0.  1.
         23    2    1    2    0    0  0.00000000000E+00  0.00000000000E+00  0.71054273576E-14  0.91188000000E+02  0.91188000000E+02 0.  0.
    9900012    2    3    3    0    0 -0.15101495961E+01 -0.46569079392E+01 -0.43123727335E+02  0.47787271865E+02  0.20000003743E+02 0.  0.
         12    1    3    3    0    0  0.15101495961E+01  0.46569079392E+01  0.43123727335E+02  0.43400728135E+02  0.00000000000E+00 0. -1.
         11    1    4    4    0    0 -0.21664722752E+01 -0.72259019972E+01 -0.36669817302E+02  0.37437718454E+02  0.51100000000E-03 0.  1.
        -11    1    4    4    0    0  0.41105998416E+01  0.13860431812E+01 -0.43117716268E+01  0.61163323635E+01  0.51100000000E-03 0. -1.
        -12    1    4    4    0    0 -0.34542771625E+01  0.11829508767E+01 -0.21421384061E+01  0.42332210482E+01  0.00000000000E+00 0.  1.
</event>
<event>
 8    1  0.1280823E-010  0.9118800E+02  0.7816164E-02  0.1184000E+00
        -11   -1    0    0    0    0  0.00000000000E+00  0.00000000000E+00  0.45593999997E+02  0.45594000000E+02  0.51100000000E-03 0. -1.
         11   -1    0    0    0    0 -0.00000000000E+00 -0.00000000000E+00 -0.45593999997E+02  0.45594000000E+02  0.51100000000E-03 0.  1.
         23    2    1    2    0    0  0.00000000000E+00  0.88817841970E-15  0.00000000000E+00  0.91188000000E+02  0.91188000000E+02 0.  0.
    9900012    2    3    3    0    0 -0.10353636698E+02 -0.41397872942E+01  0.41943863249E+02  0.47787270790E+02  0.19999998838E+02 0.  0.
        -12    1    3    3    0    0  0.10353636698E+02  0.41397872942E+01 -0.41943863249E+02  0.43400729210E+02  0.00000000000E+00 0.  1.
         11    1    4    4    0    0 -0.10357794963E+01 -0.36181960585E+00  0.11680082144E+02  0.11731499126E+02  0.51100000000E-03 0. -1.
        -11    1    4    4    0    0 -0.13488036579E+02 -0.50409850554E+01  0.18061310281E+02  0.23098692396E+02  0.51100000000E-03 0.  1.
        -12    1    4    4    0    0  0.41701793778E+01  0.12630173671E+01  0.12202470825E+02  0.12957079267E+02  0.00000000000E+00 0.  1.
</event>
<event>
 8    1  0.1280823E-010  0.9118800E+02  0.7816164E-02  0.1184000E+00
        -11   -1    0    0    0    0  0.00000000000E+00  0.00000000000E+00  0.45593999997E+02  0.45594000000E+02  0.51100000000E-03 0. -1.
         11   -1    0    0    0    0 -0.00000000000E+00 -0.00000000000E+00 -0.45593999997E+02  0.45594000000E+02  0.51100000000E-03 0.  1.
         23    2    1    2    0    0  0.44408920985E-15  0.00000000000E+00  0.00000000000E+00  0.91188000000E+02  0.91188000000E+02 0.  0.
    9900012    2    3    3    0    0 -0.30615212903E+01  0.57967700230E+00 -0.43288709770E+02  0.47787293421E+02  0.20000102023E+02 0.  0.
         12    1    3    3    0    0  0.30615212903E+01 -0.57967700230E+00  0.43288709770E+02  0.43400706579E+02  0.00000000000E+00 0. -1.
         11    1    4    4    0    0 -0.35008529053E+01  0.11505654736E+01 -0.13128286287E+02  0.13635676480E+02  0.51100000000E-03 0. -1.
        -11    1    4    4    0    0 -0.19966752309E+01 -0.66464130300E+01 -0.61759836642E+01  0.92900103673E+01  0.51100000000E-03 0.  1.
         12    1    4    4    0    0  0.24360068459E+01  0.60755245588E+01 -0.23984439819E+02  0.24861606574E+02  0.00000000000E+00 0. -1.
</event>
<event>
 8    1  0.1280823E-010  0.9118800E+02  0.7816164E-02  0.1184000E+00
        -11   -1    0    0    0    0  0.00000000000E+00  0.00000000000E+00  0.45593999997E+02  0.45594000000E+02  0.51100000000E-03 0. -1.
         11   -1    0    0    0    0 -0.00000000000E+00 -0.00000000000E+00 -0.45593999997E+02  0.45594000000E+02  0.51100000000E-03 0.  1.
         23    2    1    2    0    0  0.00000000000E+00  0.17763568394E-14  0.35527136788E-14  0.91188000000E+02  0.91188000000E+02 0.  0.
    9900012    2    3    3    0    0  0.34998579066E+02 -0.14559990171E+02  0.21135907849E+02  0.47787303565E+02  0.20000148274E+02 0.  0.
        -12    1    3    3    0    0 -0.34998579066E+02  0.14559990171E+02 -0.21135907849E+02  0.43400696435E+02  0.00000000000E+00 0.  1.
         11    1    4    4    0    0  0.14701589979E+02 -0.70890715374E+01  0.16243783331E+02  0.23027205222E+02  0.51100000000E-03 0. -1.
        -11    1    4    4    0    0  0.34845294521E+01 -0.32299645950E+01  0.56774176191E+01  0.74032214522E+01  0.51100000000E-03 0.  1.
        -12    1    4    4    0    0  0.16812459636E+02 -0.42409540386E+01 -0.78529310151E+00  0.17356876891E+02  0.00000000000E+00 0.  1.
</event>
<event>
 8    1  0.1280823E-010  0.9118800E+02  0.7816164E-02  0.1184000E+00
        -11   -1    0    0    0    0  0.00000000000E+00  0.00000000000E+00  0.45593999997E+02  0.45594000000E+02  0.51100000000E-03 0. -1.
         11   -1    0    0    0    0 -0.00000000000E+00 -0.00000000000E+00 -0.45593999997E+02  0.45594000000E+02  0.51100000000E-03 0.  1.
         23    2    1    2    0    0  0.00000000000E+00  0.00000000000E+00  0.00000000000E+00  0.91188000000E+02  0.91188000000E+02 0.  0.
    9900012    2    3    3    0    0 -0.28046543496E+02  0.64689450079E+01  0.32483363779E+02  0.47787253763E+02  0.19999921205E+02 0.  0.
        -12    1    3    3    0    0  0.28046543496E+02 -0.64689450079E+01 -0.32483363779E+02  0.43400746237E+02  0.00000000000E+00 0.  1.
         11    1    4    4    0    0  0.12010886628E+01 -0.19045734403E+01  0.13592101928E+01  0.26301077116E+01  0.51100000000E-03 0. -1.
        -11    1    4    4    0    0 -0.27228236356E+01 -0.14429045760E+01 -0.27423043876E-01  0.30816382737E+01  0.51100000000E-03 0.  1.
         12    1    4    4    0    0 -0.26524808523E+02  0.98164230242E+01  0.31151576630E+02  0.42075507777E+02  0.00000000000E+00 0. -1.
</event>
<event>
 8    1  0.1280823E-010  0.9118800E+02  0.7816164E-02  0.1184000E+00
        -11   -1    0    0    0    0  0.00000000000E+00  0.00000000000E+00  0.45593999997E+02  0.45594000000E+02  0.51100000000E-03 0. -1.
         11   -1    0    0    0    0 -0.00000000000E+00 -0.00000000000E+00 -0.45593999997E+02  0.45594000000E+02  0.51100000000E-03 0.  1.
         23    2    1    2    0    0 -0.71054273576E-14 -0.88817841970E-15  0.88817841970E-15  0.91188000000E+02  0.91188000000E+02 0.  0.
    9900012    2    3    3    0    0 -0.42713283462E+02 -0.68831022281E+01  0.34382658963E+01  0.47787270136E+02  0.19999995857E+02 0.  0.
        -12    1    3    3    0    0  0.42713283462E+02  0.68831022281E+01 -0.34382658963E+01  0.43400729864E+02  0.00000000000E+00 0.  1.
         11    1    4    4    0    0 -0.13262295220E+02 -0.58421748490E+01  0.18968469902E+01  0.14615659760E+02  0.51100000000E-03 0. -1.
        -11    1    4    4    0    0 -0.10268885607E+02 -0.40844342394E+01 -0.57108568708E+01  0.12439714672E+02  0.51100000000E-03 0.  1.
         12    1    4    4    0    0 -0.19182102635E+02  0.30435068602E+01  0.72522757769E+01  0.20731895703E+02  0.00000000000E+00 0. -1.
</event>
<event>
 8    1  0.1280823E-010  0.9118800E+02  0.7816164E-02  0.1184000E+00
        -11   -1    0    0    0    0  0.00000000000E+00  0.00000000000E+00  0.45593999997E+02  0.45594000000E+02  0.51100000000E-03 0. -1.
         11   -1    0    0    0    0 -0.00000000000E+00 -0.00000000000E+00 -0.45593999997E+02  0.45594000000E+02  0.51100000000E-03 0.  1.
         23    2    1    2    0    0  0.35527136788E-14  0.00000000000E+00  0.71054273576E-14  0.91188000000E+02  0.91188000000E+02 0.  0.
    9900012    2    3    3    0    0  0.11185213478E+02 -0.21160792062E+02  0.36204074386E+02  0.47787272778E+02  0.20000007905E+02 0.  0.
        -12    1    3    3    0    0 -0.11185213478E+02  0.21160792062E+02 -0.36204074386E+02  0.43400727222E+02  0.00000000000E+00 0.  1.
         11    1    4    4    0    0  0.87563969654E+01 -0.66289449842E+01  0.10222374963E+02  0.15003811168E+02  0.51100000000E-03 0. -1.
        -11    1    4    4    0    0  0.39464637083E+01 -0.31264623358E+00  0.11396362149E+01  0.41195988193E+01  0.51100000000E-03 0.  1.
        -12    1    4    4    0    0 -0.15176471961E+01 -0.14219200845E+02  0.24842063208E+02  0.28663862791E+02  0.00000000000E+00 0.  1.
</event>
<event>
 8    1  0.1280823E-010  0.9118800E+02  0.7816164E-02  0.1184000E+00
        -11   -1    0    0    0    0  0.00000000000E+00  0.00000000000E+00  0.45593999997E+02  0.45594000000E+02  0.51100000000E-03 0.  1.
         11   -1    0    0    0    0 -0.00000000000E+00 -0.00000000000E+00 -0.45593999997E+02  0.45594000000E+02  0.51100000000E-03 0. -1.
         23    2    1    2    0    0 -0.35527136788E-14  0.00000000000E+00 -0.35527136788E-14  0.91188000000E+02  0.91188000000E+02 0.  0.
    9900012    2    3    3    0    0 -0.18659270846E+02  0.34135333271E+02 -0.19241462145E+02  0.47787271533E+02  0.20000002227E+02 0.  0.
         12    1    3    3    0    0  0.18659270846E+02 -0.34135333271E+02  0.19241462145E+02  0.43400728467E+02  0.00000000000E+00 0. -1.
         11    1    4    4    0    0 -0.55561873525E+01  0.17866741898E+01  0.14354485303E+01  0.60103190681E+01  0.51100000000E-03 0. -1.
        -11    1    4    4    0    0  0.11316719162E+01  0.44490321597E+01 -0.74301838623E+00  0.46504456848E+01  0.51100000000E-03 0.  1.
        -12    1    4    4    0    0 -0.14234755410E+02  0.27899626921E+02 -0.19933892289E+02  0.37126506780E+02  0.00000000000E+00 0.  1.
</event>
<event>
 8    1  0.1357772E-010  0.9118800E+02  0.7816164E-02  0.1184000E+00
        -11   -1    0    0    0    0  0.00000000000E+00  0.00000000000E+00  0.45593999997E+02  0.45594000000E+02  0.51100000000E-03 0. -1.
         11   -1    0    0    0    0 -0.00000000000E+00 -0.00000000000E+00 -0.45593999997E+02  0.45594000000E+02  0.51100000000E-03 0.  1.
         23    2    1    2    0    0  0.44408920985E-15  0.00000000000E+00 -0.71054273576E-14  0.91188000000E+02  0.91188000000E+02 0.  0.
    9900012    2    3    3    0    0  0.30163088961E+01  0.11665206029E+02 -0.41694700751E+02  0.47787271645E+02  0.20000002739E+02 0.  0.
         12    1    3    3    0    0 -0.30163088961E+01 -0.11665206029E+02  0.41694700751E+02  0.43400728355E+02  0.00000000000E+00 0. -1.
         11    1    4    4    0    0  0.75838203652E+00  0.60201677981E+01 -0.30828746744E+01  0.68060032434E+01  0.51100000000E-03 0.  1.
        -11    1    4    4    0    0 -0.38483367193E+01  0.16580343540E+01 -0.47110661118E+01  0.63049914825E+01  0.51100000000E-03 0. -1.
        -12    1    4    4    0    0  0.61062635788E+01  0.39870038766E+01 -0.33900759965E+02  0.34676276919E+02  0.00000000000E+00 0.  1.
</event>
<event>
 8    1  0.1280823E-010  0.9118800E+02  0.7816164E-02  0.1184000E+00
        -11   -1    0    0    0    0  0.00000000000E+00  0.00000000000E+00  0.45593999997E+02  0.45594000000E+02  0.51100000000E-03 0. -1.
         11   -1    0    0    0    0 -0.00000000000E+00 -0.00000000000E+00 -0.45593999997E+02  0.45594000000E+02  0.51100000000E-03 0.  1.
         23    2    1    2    0    0  0.00000000000E+00  0.17763568394E-14  0.00000000000E+00  0.91188000000E+02  0.91188000000E+02 0.  0.
    9900012    2    3    3    0    0 -0.33773235251E+02  0.77814804608E+01 -0.26123563888E+02  0.47787269042E+02  0.19999990869E+02 0.  0.
         12    1    3    3    0    0  0.33773235251E+02 -0.77814804608E+01  0.26123563888E+02  0.43400730958E+02  0.00000000000E+00 0. -1.
         11    1    4    4    0    0 -0.10749012245E+02  0.57971156054E+01 -0.71633820028E+01  0.14158455268E+02  0.51100000000E-03 0. -1.
        -11    1    4    4    0    0 -0.96570059739E+01  0.79871602048E+01 -0.53370872660E+01  0.13621196470E+02  0.51100000000E-03 0.  1.
         12    1    4    4    0    0 -0.13367217032E+02 -0.60027953494E+01 -0.13623094619E+02  0.20007617304E+02  0.00000000000E+00 0. -1.
</event>
<event>
 8    1  0.1280823E-010  0.9118800E+02  0.7816164E-02  0.1184000E+00
        -11   -1    0    0    0    0  0.00000000000E+00  0.00000000000E+00  0.45593999997E+02  0.45594000000E+02  0.51100000000E-03 0. -1.
         11   -1    0    0    0    0 -0.00000000000E+00 -0.00000000000E+00 -0.45593999997E+02  0.45594000000E+02  0.51100000000E-03 0.  1.
         23    2    1    2    0    0  0.00000000000E+00  0.17763568394E-14  0.00000000000E+00  0.91188000000E+02  0.91188000000E+02 0.  0.
    9900012    2    3    3    0    0 -0.19357394558E+02 -0.15015271432E+02 -0.35825359456E+02  0.47787268665E+02  0.19999989152E+02 0.  0.
         12    1    3    3    0    0  0.19357394558E+02  0.15015271432E+02  0.35825359456E+02  0.43400731335E+02  0.00000000000E+00 0. -1.
         11    1    4    4    0    0 -0.31487594653E+01 -0.56596289646E-01 -0.19109720475E+02  0.19367480637E+02  0.51100000000E-03 0. -1.
        -11    1    4    4    0    0 -0.23984190017E+01  0.27024563370E+00 -0.20487279219E+01  0.31658699862E+01  0.51100000000E-03 0.  1.
         12    1    4    4    0    0 -0.13810216091E+02 -0.15228920776E+02 -0.14666911059E+02  0.25253918042E+02  0.00000000000E+00 0. -1.
</event>
<event>
 8    1  0.1280823E-010  0.9118800E+02  0.7816164E-02  0.1184000E+00
        -11   -1    0    0    0    0  0.00000000000E+00  0.00000000000E+00  0.45593999997E+02  0.45594000000E+02  0.51100000000E-03 0. -1.
         11   -1    0    0    0    0 -0.00000000000E+00 -0.00000000000E+00 -0.45593999997E+02  0.45594000000E+02  0.51100000000E-03 0.  1.
         23    2    1    2    0    0  0.00000000000E+00  0.00000000000E+00  0.00000000000E+00  0.91188000000E+02  0.91188000000E+02 0.  0.
    9900012    2    3    3    0    0  0.11415964812E+02 -0.15926486436E+02  0.38725265236E+02  0.47787269702E+02  0.19999993881E+02 0.  0.
        -12    1    3    3    0    0 -0.11415964812E+02  0.15926486436E+02 -0.38725265236E+02  0.43400730298E+02  0.00000000000E+00 0.  1.
         11    1    4    4    0    0  0.26152992394E+01 -0.37091249212E+01  0.80993916247E+01  0.92842631772E+01  0.51100000000E-03 0. -1.
        -11    1    4    4    0    0  0.20058564517E+01 -0.11148067704E+02  0.57682108260E+01  0.12711220635E+02  0.51100000000E-03 0.  1.
         12    1    4    4    0    0  0.67948091206E+01 -0.10692938107E+01  0.24857662785E+02  0.25791785890E+02  0.00000000000E+00 0. -1.
</event>
<event>
 8    1  0.1280823E-010  0.9118800E+02  0.7816164E-02  0.1184000E+00
        -11   -1    0    0    0    0  0.00000000000E+00  0.00000000000E+00  0.45593999997E+02  0.45594000000E+02  0.51100000000E-03 0. -1.
         11   -1    0    0    0    0 -0.00000000000E+00 -0.00000000000E+00 -0.45593999997E+02  0.45594000000E+02  0.51100000000E-03 0.  1.
         23    2    1    2    0    0  0.00000000000E+00  0.00000000000E+00  0.00000000000E+00  0.91188000000E+02  0.91188000000E+02 0.  0.
    9900012    2    3    3    0    0 -0.34694398677E+02 -0.85955981166E+01  0.24617829937E+02  0.47787272387E+02  0.20000006120E+02 0.  0.
        -12    1    3    3    0    0  0.34694398677E+02  0.85955981166E+01 -0.24617829937E+02  0.43400727613E+02  0.00000000000E+00 0.  1.
         11    1    4    4    0    0 -0.15956875866E+02 -0.62529713699E+01  0.23126134772E+01  0.17293632346E+02  0.51100000000E-03 0. -1.
        -11    1    4    4    0    0 -0.30854371147E+01  0.13963181907E+00 -0.52393883646E-01  0.30890394322E+01  0.51100000000E-03 0.  1.
        -12    1    4    4    0    0 -0.15652085696E+02 -0.24822585657E+01  0.22357610344E+02  0.27404600608E+02  0.00000000000E+00 0.  1.
</event>
<event>
 8    1  0.1280823E-010  0.9118800E+02  0.7816164E-02  0.1184000E+00
        -11   -1    0    0    0    0  0.00000000000E+00  0.00000000000E+00  0.45593999997E+02  0.45594000000E+02  0.51100000000E-03 0. -1.
         11   -1    0    0    0    0 -0.00000000000E+00 -0.00000000000E+00 -0.45593999997E+02  0.45594000000E+02  0.51100000000E-03 0.  1.
         23    2    1    2    0    0  0.00000000000E+00  0.00000000000E+00  0.00000000000E+00  0.91188000000E+02  0.91188000000E+02 0.  0.
    9900012    2    3    3    0    0  0.13370448951E+02  0.22062082635E+02 -0.34901553869E+02  0.47787275837E+02  0.20000021853E+02 0.  0.
         12    1    3    3    0    0 -0.13370448951E+02 -0.22062082635E+02  0.34901553869E+02  0.43400724163E+02  0.00000000000E+00 0. -1.
         11    1    4    4    0    0  0.10864076875E+01  0.34977162434E+01 -0.14081704871E+01  0.39239323344E+01  0.51100000000E-03 0. -1.
        -11    1    4    4    0    0  0.51532038853E+01  0.17258743947E+02 -0.31596751034E+02  0.36369966031E+02  0.51100000000E-03 0.  1.
        -12    1    4    4    0    0  0.71308373780E+01  0.13056224444E+01 -0.18966323483E+01  0.74933774723E+01  0.00000000000E+00 0.  1.
</event>
<event>
 8    1  0.1330650E-010  0.9118800E+02  0.7816164E-02  0.1184000E+00
        -11   -1    0    0    0    0  0.00000000000E+00  0.00000000000E+00  0.45593999997E+02  0.45594000000E+02  0.51100000000E-03 0. -1.
         11   -1    0    0    0    0 -0.00000000000E+00 -0.00000000000E+00 -0.45593999997E+02  0.45594000000E+02  0.51100000000E-03 0.  1.
         23    2    1    2    0    0  0.00000000000E+00  0.35527136788E-14 -0.35527136788E-14  0.91188000000E+02  0.91188000000E+02 0.  0.
    9900012    2    3    3    0    0  0.34175254379E+02  0.20148903768E+02 -0.17598218631E+02  0.47787266897E+02  0.19999981089E+02 0.  0.
         12    1    3    3    0    0 -0.34175254379E+02 -0.20148903768E+02  0.17598218631E+02  0.43400733103E+02  0.00000000000E+00 0. -1.
         11    1    4    4    0    0  0.30553943884E+01 -0.19043550337E+01  0.19784550439E+00  0.36057102030E+01  0.51100000000E-03 0. -1.
        -11    1    4    4    0    0  0.50921717269E+01  0.10433537393E+02 -0.26694805336E+01  0.11912809996E+02  0.51100000000E-03 0.  1.
        -12    1    4    4    0    0  0.26027688264E+02  0.11619721408E+02 -0.15126583601E+02  0.32268746698E+02  0.00000000000E+00 0.  1.
</event>
<event>
 8    1  0.1280823E-010  0.9118800E+02  0.7816164E-02  0.1184000E+00
        -11   -1    0    0    0    0  0.00000000000E+00  0.00000000000E+00  0.45593999997E+02  0.45594000000E+02  0.51100000000E-03 0. -1.
         11   -1    0    0    0    0 -0.00000000000E+00 -0.00000000000E+00 -0.45593999997E+02  0.45594000000E+02  0.51100000000E-03 0.  1.
         23    2    1    2    0    0  0.17763568394E-14  0.17763568394E-14  0.00000000000E+00  0.91188000000E+02  0.91188000000E+02 0.  0.
    9900012    2    3    3    0    0  0.82276248427E+01  0.14067393747E+02 -0.40224844525E+02  0.47787268503E+02  0.19999988413E+02 0.  0.
         12    1    3    3    0    0 -0.82276248427E+01 -0.14067393747E+02  0.40224844525E+02  0.43400731497E+02  0.00000000000E+00 0. -1.
         11    1    4    4    0    0  0.47954758163E+00  0.60794934339E+01 -0.11100463156E+02  0.12665326243E+02  0.51100000000E-03 0. -1.
        -11    1    4    4    0    0  0.79568706215E+01  0.66275714062E+01 -0.31063471243E+02  0.32744094716E+02  0.51100000000E-03 0.  1.
         12    1    4    4    0    0 -0.20879336035E+00  0.13603289072E+01  0.19390898742E+01  0.23778475442E+01  0.00000000000E+00 0. -1.
</event>
<event>
 8    1  0.1280823E-010  0.9118800E+02  0.7816164E-02  0.1184000E+00
        -11   -1    0    0    0    0  0.00000000000E+00  0.00000000000E+00  0.45593999997E+02  0.45594000000E+02  0.51100000000E-03 0. -1.
         11   -1    0    0    0    0 -0.00000000000E+00 -0.00000000000E+00 -0.45593999997E+02  0.45594000000E+02  0.51100000000E-03 0.  1.
         23    2    1    2    0    0  0.00000000000E+00  0.00000000000E+00  0.00000000000E+00  0.91188000000E+02  0.91188000000E+02 0.  0.
    9900012    2    3    3    0    0 -0.19198587187E+02 -0.15626507207E+02  0.35648974379E+02  0.47787275907E+02  0.20000022172E+02 0.  0.
        -12    1    3    3    0    0  0.19198587187E+02  0.15626507207E+02 -0.35648974379E+02  0.43400724093E+02  0.00000000000E+00 0.  1.
         11    1    4    4    0    0 -0.82816146977E+01 -0.56629622684E+01  0.22878484203E+02  0.24981579681E+02  0.51100000000E-03 0. -1.
        -11    1    4    4    0    0 -0.12409069637E+02 -0.51447244471E+01  0.11292266865E+02  0.17549031030E+02  0.51100000000E-03 0.  1.
        -12    1    4    4    0    0  0.14920971471E+01 -0.48188204917E+01  0.14782233101E+01  0.52566651959E+01  0.00000000000E+00 0.  1.
</event>
<event>
 8    1  0.1280823E-010  0.9118800E+02  0.7816164E-02  0.1184000E+00
        -11   -1    0    0    0    0  0.00000000000E+00  0.00000000000E+00  0.45593999997E+02  0.45594000000E+02  0.51100000000E-03 0. -1.
         11   -1    0    0    0    0 -0.00000000000E+00 -0.00000000000E+00 -0.45593999997E+02  0.45594000000E+02  0.51100000000E-03 0.  1.
         23    2    1    2    0    0  0.00000000000E+00  0.00000000000E+00  0.35527136788E-14  0.91188000000E+02  0.91188000000E+02 0.  0.
    9900012    2    3    3    0    0 -0.93534884472E+01  0.30797040447E+02  0.29114949989E+02  0.47787242411E+02  0.19999869450E+02 0.  0.
        -12    1    3    3    0    0  0.93534884472E+01 -0.30797040447E+02 -0.29114949989E+02  0.43400757589E+02  0.00000000000E+00 0.  1.
         11    1    4    4    0    0  0.26380138887E+01  0.40460236659E+01  0.25161593411E+01  0.54461438535E+01  0.51100000000E-03 0.  1.
        -11    1    4    4    0    0  0.25684787852E+01  0.64880636361E+01  0.10634648786E+02  0.12719583644E+02  0.51100000000E-03 0. -1.
         12    1    4    4    0    0 -0.14559981121E+02  0.20262953145E+02  0.15964141862E+02  0.29621514914E+02  0.00000000000E+00 0. -1.
</event>
<event>
 8    1  0.1280823E-010  0.9118800E+02  0.7816164E-02  0.1184000E+00
        -11   -1    0    0    0    0  0.00000000000E+00  0.00000000000E+00  0.45593999997E+02  0.45594000000E+02  0.51100000000E-03 0. -1.
         11   -1    0    0    0    0 -0.00000000000E+00 -0.00000000000E+00 -0.45593999997E+02  0.45594000000E+02  0.51100000000E-03 0.  1.
         23    2    1    2    0    0 -0.22204460493E-15  0.00000000000E+00  0.00000000000E+00  0.91188000000E+02  0.91188000000E+02 0.  0.
    9900012    2    3    3    0    0  0.10953495135E+01 -0.11283690081E+02  0.41893940505E+02  0.47787266095E+02  0.19999977435E+02 0.  0.
        -12    1    3    3    0    0 -0.10953495135E+01  0.11283690081E+02 -0.41893940505E+02  0.43400733905E+02  0.00000000000E+00 0.  1.
         11    1    4    4    0    0  0.16773275000E+01  0.85837943574E+00  0.33096195411E+01  0.38083887100E+01  0.51100000000E-03 0. -1.
        -11    1    4    4    0    0 -0.16977800388E+01 -0.39875807553E+01 -0.19247163944E+00  0.43382373072E+01  0.51100000000E-03 0.  1.
         12    1    4    4    0    0  0.11158020523E+01 -0.81544887616E+01  0.38776792604E+02  0.39640640078E+02  0.00000000000E+00 0. -1.
</event>
<event>
 8    1  0.1280823E-010  0.9118800E+02  0.7816164E-02  0.1184000E+00
        -11   -1    0    0    0    0  0.00000000000E+00  0.00000000000E+00  0.45593999997E+02  0.45594000000E+02  0.51100000000E-03 0. -1.
         11   -1    0    0    0    0 -0.00000000000E+00 -0.00000000000E+00 -0.45593999997E+02  0.45594000000E+02  0.51100000000E-03 0.  1.
         23    2    1    2    0    0  0.00000000000E+00  0.35527136788E-14  0.00000000000E+00  0.91188000000E+02  0.91188000000E+02 0.  0.
    9900012    2    3    3    0    0 -0.55126023594E+01 -0.22683170390E+02  0.36588363527E+02  0.47787270176E+02  0.19999996038E+02 0.  0.
        -12    1    3    3    0    0  0.55126023594E+01  0.22683170390E+02 -0.36588363527E+02  0.43400729824E+02  0.00000000000E+00 0.  1.
         11    1    4    4    0    0  0.11837637231E+01 -0.27934555840E+01  0.33284093929E+00  0.30521261448E+01  0.51100000000E-03 0.  1.
        -11    1    4    4    0    0 -0.79998260158E+01 -0.23121150053E+01  0.14657641008E+02  0.16857921944E+02  0.51100000000E-03 0. -1.
         12    1    4    4    0    0  0.13034599334E+01 -0.17577599801E+02  0.21597881580E+02  0.27877222087E+02  0.00000000000E+00 0. -1.
</event>
<event>
 8    1  0.1280823E-010  0.9118800E+02  0.7816164E-02  0.1184000E+00
        -11   -1    0    0    0    0  0.00000000000E+00  0.00000000000E+00  0.45593999997E+02  0.45594000000E+02  0.51100000000E-03 0.  1.
         11   -1    0    0    0    0 -0.00000000000E+00 -0.00000000000E+00 -0.45593999997E+02  0.45594000000E+02  0.51100000000E-03 0. -1.
         23    2    1    2    0    0  0.00000000000E+00  0.00000000000E+00  0.00000000000E+00  0.91188000000E+02  0.91188000000E+02 0.  0.
    9900012    2    3    3    0    0  0.42649313722E+02 -0.47305033192E+01 -0.65024274291E+01  0.47787272067E+02  0.20000004663E+02 0.  0.
        -12    1    3    3    0    0 -0.42649313722E+02  0.47305033192E+01  0.65024274291E+01  0.43400727933E+02  0.00000000000E+00 0.  1.
         11    1    4    4    0    0  0.18214624071E+02 -0.56638546975E+01 -0.43617718178E+01  0.19567238787E+02  0.51100000000E-03 0.  1.
        -11    1    4    4    0    0  0.18726969366E+02 -0.54722686344E+01 -0.71865119311E+00  0.19523359481E+02  0.51100000000E-03 0. -1.
        -12    1    4    4    0    0  0.57077202856E+01  0.64056200127E+01 -0.14220044182E+01  0.86966737993E+01  0.00000000000E+00 0.  1.
</event>
<event>
 8    1  0.1280823E-010  0.9118800E+02  0.7816164E-02  0.1184000E+00
        -11   -1    0    0    0    0  0.00000000000E+00  0.00000000000E+00  0.45593999997E+02  0.45594000000E+02  0.51100000000E-03 0. -1.
         11   -1    0    0    0    0 -0.00000000000E+00 -0.00000000000E+00 -0.45593999997E+02  0.45594000000E+02  0.51100000000E-03 0.  1.
         23    2    1    2    0    0  0.00000000000E+00  0.00000000000E+00  0.00000000000E+00  0.91188000000E+02  0.91188000000E+02 0.  0.
    9900012    2    3    3    0    0 -0.10049399505E+02 -0.78131005023E+01 -0.41492027094E+02  0.47787270948E+02  0.19999999560E+02 0.  0.
         12    1    3    3    0    0  0.10049399505E+02  0.78131005023E+01  0.41492027094E+02  0.43400729052E+02  0.00000000000E+00 0. -1.
         11    1    4    4    0    0  0.14897265204E+01  0.21770023276E+00 -0.11742765033E+02  0.11838885479E+02  0.51100000000E-03 0. -1.
        -11    1    4    4    0    0 -0.98083817742E+00  0.30466930556E+01 -0.12436094540E+02  0.12841371803E+02  0.51100000000E-03 0.  1.
        -12    1    4    4    0    0 -0.10558287848E+02 -0.11077493791E+02 -0.17313167520E+02  0.23107013666E+02  0.00000000000E+00 0.  1.
</event>
<event>
 8    1  0.1280823E-010  0.9118800E+02  0.7816164E-02  0.1184000E+00
        -11   -1    0    0    0    0  0.00000000000E+00  0.00000000000E+00  0.45593999997E+02  0.45594000000E+02  0.51100000000E-03 0. -1.
         11   -1    0    0    0    0 -0.00000000000E+00 -0.00000000000E+00 -0.45593999997E+02  0.45594000000E+02  0.51100000000E-03 0.  1.
         23    2    1    2    0    0  0.00000000000E+00  0.00000000000E+00  0.00000000000E+00  0.91188000000E+02  0.91188000000E+02 0.  0.
    9900012    2    3    3    0    0 -0.13246144052E+01  0.47005144076E+01  0.43125100843E+02  0.47787265424E+02  0.19999974373E+02 0.  0.
        -12    1    3    3    0    0  0.13246144052E+01 -0.47005144076E+01 -0.43125100843E+02  0.43400734576E+02  0.00000000000E+00 0.  1.
         11    1    4    4    0    0  0.35486531777E+01  0.24831260180E+01  0.17796907419E+02  0.18316352480E+02  0.51100000000E-03 0. -1.
        -11    1    4    4    0    0  0.27783504034E+01  0.57761360930E+01  0.85041831941E+01  0.10649136640E+02  0.51100000000E-03 0.  1.
         12    1    4    4    0    0 -0.76516179863E+01 -0.35587477033E+01  0.16824010230E+02  0.18821776304E+02  0.00000000000E+00 0. -1.
</event>
<event>
 8    1  0.1280823E-010  0.9118800E+02  0.7816164E-02  0.1184000E+00
        -11   -1    0    0    0    0  0.00000000000E+00  0.00000000000E+00  0.45593999997E+02  0.45594000000E+02  0.51100000000E-03 0. -1.
         11   -1    0    0    0    0 -0.00000000000E+00 -0.00000000000E+00 -0.45593999997E+02  0.45594000000E+02  0.51100000000E-03 0.  1.
         23    2    1    2    0    0  0.22204460493E-15  0.00000000000E+00  0.00000000000E+00  0.91188000000E+02  0.91188000000E+02 0.  0.
    9900012    2    3    3    0    0 -0.12887720680E+01 -0.43152802025E+02 -0.44494901820E+01  0.47787271678E+02  0.20000002887E+02 0.  0.
         12    1    3    3    0    0  0.12887720680E+01  0.43152802025E+02  0.44494901820E+01  0.43400728322E+02  0.00000000000E+00 0. -1.
         11    1    4    4    0    0 -0.36001633241E+01 -0.43849727473E+01 -0.49479055473E+01  0.75280097981E+01  0.51100000000E-03 0. -1.
        -11    1    4    4    0    0  0.17745441711E+01 -0.87367596269E+00  0.12751190118E+01  0.23533477130E+01  0.51100000000E-03 0.  1.
         12    1    4    4    0    0  0.53684708499E+00 -0.37894153315E+02 -0.77670364655E+00  0.37905914166E+02  0.00000000000E+00 0. -1.
</event>
<event>
 8    1  0.1280823E-010  0.9118800E+02  0.7816164E-02  0.1184000E+00
        -11   -1    0    0    0    0  0.00000000000E+00  0.00000000000E+00  0.45593999997E+02  0.45594000000E+02  0.51100000000E-03 0. -1.
         11   -1    0    0    0    0 -0.00000000000E+00 -0.00000000000E+00 -0.45593999997E+02  0.45594000000E+02  0.51100000000E-03 0.  1.
         23    2    1    2    0    0  0.00000000000E+00  0.00000000000E+00  0.71054273576E-14  0.91188000000E+02  0.91188000000E+02 0.  0.
    9900012    2    3    3    0    0 -0.55009708398E+01 -0.23744538650E+02 -0.35910439976E+02  0.47787268496E+02  0.19999988379E+02 0.  0.
         12    1    3    3    0    0  0.55009708398E+01  0.23744538650E+02  0.35910439976E+02  0.43400731504E+02  0.00000000000E+00 0. -1.
         11    1    4    4    0    0 -0.17622164179E-01 -0.25863629538E+01 -0.16992145528E+02  0.17187861815E+02  0.51100000000E-03 0. -1.
        -11    1    4    4    0    0 -0.16157307349E+01 -0.10922097442E+02 -0.15700009917E+02  0.19193569496E+02  0.51100000000E-03 0.  1.
        -12    1    4    4    0    0 -0.38676179407E+01 -0.10236078254E+02 -0.32182845304E+01  0.11405837184E+02  0.00000000000E+00 0.  1.
</event>
<event>
 8    1  0.1280823E-010  0.9118800E+02  0.7816164E-02  0.1184000E+00
        -11   -1    0    0    0    0  0.00000000000E+00  0.00000000000E+00  0.45593999997E+02  0.45594000000E+02  0.51100000000E-03 0. -1.
         11   -1    0    0    0    0 -0.00000000000E+00 -0.00000000000E+00 -0.45593999997E+02  0.45594000000E+02  0.51100000000E-03 0.  1.
         23    2    1    2    0    0 -0.88817841970E-15  0.00000000000E+00  0.00000000000E+00  0.91188000000E+02  0.91188000000E+02 0.  0.
    9900012    2    3    3    0    0 -0.20865819617E+01  0.16768556793E+02 -0.39976035554E+02  0.47787288717E+02  0.20000080578E+02 0.  0.
         12    1    3    3    0    0  0.20865819617E+01 -0.16768556793E+02  0.39976035554E+02  0.43400711283E+02  0.00000000000E+00 0. -1.
         11    1    4    4    0    0 -0.69264642652E+01  0.10669412480E+02 -0.32811203296E+02  0.35190727925E+02  0.51100000000E-03 0. -1.
        -11    1    4    4    0    0  0.12677332331E-01  0.34206186735E+01 -0.60715164297E+01  0.69687950782E+01  0.51100000000E-03 0.  1.
         12    1    4    4    0    0  0.48272049712E+01  0.26785256394E+01 -0.10933158287E+01  0.56277657144E+01  0.00000000000E+00 0. -1.
</event>
<event>
 8    1  0.1280823E-010  0.9118800E+02  0.7816164E-02  0.1184000E+00
        -11   -1    0    0    0    0  0.00000000000E+00  0.00000000000E+00  0.45593999997E+02  0.45594000000E+02  0.51100000000E-03 0. -1.
         11   -1    0    0    0    0 -0.00000000000E+00 -0.00000000000E+00 -0.45593999997E+02  0.45594000000E+02  0.51100000000E-03 0.  1.
         23    2    1    2    0    0  0.00000000000E+00  0.00000000000E+00  0.00000000000E+00  0.91188000000E+02  0.91188000000E+02 0.  0.
    9900012    2    3    3    0    0  0.31902483664E+01 -0.15470367714E+02 -0.40424170479E+02  0.47787268200E+02  0.19999987033E+02 0.  0.
         12    1    3    3    0    0 -0.31902483664E+01  0.15470367714E+02  0.40424170479E+02  0.43400731800E+02  0.00000000000E+00 0. -1.
         11    1    4    4    0    0 -0.35276583572E+01  0.22448130022E+01 -0.38531699662E+01  0.56859896192E+01  0.51100000000E-03 0. -1.
        -11    1    4    4    0    0  0.74410112703E+00 -0.43868375603E+01 -0.17630010882E+02  0.18182830204E+02  0.51100000000E-03 0.  1.
        -12    1    4    4    0    0  0.59738055966E+01 -0.13328343156E+02 -0.18940989631E+02  0.23918448377E+02  0.00000000000E+00 0.  1.
</event>
<event>
 8    1  0.1280823E-010  0.9118800E+02  0.7816164E-02  0.1184000E+00
        -11   -1    0    0    0    0  0.00000000000E+00  0.00000000000E+00  0.45593999997E+02  0.45594000000E+02  0.51100000000E-03 0. -1.
         11   -1    0    0    0    0 -0.00000000000E+00 -0.00000000000E+00 -0.45593999997E+02  0.45594000000E+02  0.51100000000E-03 0.  1.
         23    2    1    2    0    0  0.00000000000E+00 -0.88817841970E-15  0.00000000000E+00  0.91188000000E+02  0.91188000000E+02 0.  0.
    9900012    2    3    3    0    0  0.15426634882E+02  0.57699306827E+01  0.40154075132E+02  0.47787275196E+02  0.20000018927E+02 0.  0.
        -12    1    3    3    0    0 -0.15426634882E+02 -0.57699306827E+01 -0.40154075132E+02  0.43400724804E+02  0.00000000000E+00 0.  1.
         11    1    4    4    0    0  0.50252678208E+01 -0.25506407927E+01  0.19755620003E+02  0.20543699937E+02  0.51100000000E-03 0. -1.
        -11    1    4    4    0    0  0.24669964993E+01 -0.20995749515E+01  0.10026850609E+02  0.10537173250E+02  0.51100000000E-03 0.  1.
         12    1    4    4    0    0  0.79343705614E+01  0.10420146427E+02  0.10371604520E+02  0.16706402009E+02  0.00000000000E+00 0. -1.
</event>
<event>
 8    1  0.1280823E-010  0.9118800E+02  0.7816164E-02  0.1184000E+00
        -11   -1    0    0    0    0  0.00000000000E+00  0.00000000000E+00  0.45593999997E+02  0.45594000000E+02  0.51100000000E-03 0. -1.
         11   -1    0    0    0    0 -0.00000000000E+00 -0.00000000000E+00 -0.45593999997E+02  0.45594000000E+02  0.51100000000E-03 0.  1.
         23    2    1    2    0    0  0.00000000000E+00  0.00000000000E+00  0.00000000000E+00  0.91188000000E+02  0.91188000000E+02 0.  0.
    9900012    2    3    3    0    0 -0.19210333314E+02 -0.52890571627E+01  0.38556610272E+02  0.47787271580E+02  0.20000002444E+02 0.  0.
        -12    1    3    3    0    0  0.19210333314E+02  0.52890571627E+01 -0.38556610272E+02  0.43400728420E+02  0.00000000000E+00 0.  1.
         11    1    4    4    0    0 -0.66398746207E+01 -0.34276119242E+01  0.16039094234E+02  0.17694321196E+02  0.51100000000E-03 0. -1.
        -11    1    4    4    0    0  0.15909133094E+01 -0.41881785404E+01  0.10349411328E+02  0.11277506805E+02  0.51100000000E-03 0.  1.
         12    1    4    4    0    0 -0.14161372003E+02  0.23267333018E+01  0.12168104709E+02  0.18815443579E+02  0.00000000000E+00 0. -1.
</event>
<event>
 8    1  0.1280823E-010  0.9118800E+02  0.7816164E-02  0.1184000E+00
        -11   -1    0    0    0    0  0.00000000000E+00  0.00000000000E+00  0.45593999997E+02  0.45594000000E+02  0.51100000000E-03 0. -1.
         11   -1    0    0    0    0 -0.00000000000E+00 -0.00000000000E+00 -0.45593999997E+02  0.45594000000E+02  0.51100000000E-03 0.  1.
         23    2    1    2    0    0  0.00000000000E+00  0.00000000000E+00  0.00000000000E+00  0.91188000000E+02  0.91188000000E+02 0.  0.
    9900012    2    3    3    0    0  0.17668983035E+02 -0.22980880730E+02  0.32300320009E+02  0.47787256766E+02  0.19999934897E+02 0.  0.
        -12    1    3    3    0    0 -0.17668983035E+02  0.22980880730E+02 -0.32300320009E+02  0.43400743234E+02  0.00000000000E+00 0.  1.
         11    1    4    4    0    0  0.22632162485E+01 -0.58563366014E+00  0.29428498331E+01  0.37583879487E+01  0.51100000000E-03 0. -1.
        -11    1    4    4    0    0 -0.27367435544E+01  0.91603597591E+00  0.92857302743E+00  0.30316885262E+01  0.51100000000E-03 0.  1.
         12    1    4    4    0    0  0.18142510341E+02 -0.23311283045E+02  0.28428897149E+02  0.40997180291E+02  0.00000000000E+00 0. -1.
</event>
<event>
 8    1  0.1280823E-010  0.9118800E+02  0.7816164E-02  0.1184000E+00
        -11   -1    0    0    0    0  0.00000000000E+00  0.00000000000E+00  0.45593999997E+02  0.45594000000E+02  0.51100000000E-03 0. -1.
         11   -1    0    0    0    0 -0.00000000000E+00 -0.00000000000E+00 -0.45593999997E+02  0.45594000000E+02  0.51100000000E-03 0.  1.
         23    2    1    2    0    0  0.00000000000E+00 -0.35527136788E-14  0.00000000000E+00  0.91188000000E+02  0.91188000000E+02 0.  0.
    9900012    2    3    3    0    0 -0.17087402521E+02 -0.25069467018E+02 -0.31034914853E+02  0.47787269114E+02  0.19999991200E+02 0.  0.
         12    1    3    3    0    0  0.17087402521E+02  0.25069467018E+02  0.31034914853E+02  0.43400730886E+02  0.00000000000E+00 0. -1.
         11    1    4    4    0    0 -0.50679157359E+01 -0.22533369199E+02 -0.21249823225E+02  0.31384573993E+02  0.51100000000E-03 0. -1.
        -11    1    4    4    0    0 -0.21218967049E+01 -0.22878225278E+01 -0.13655991255E+01  0.34060884864E+01  0.51100000000E-03 0.  1.
         12    1    4    4    0    0 -0.98975900798E+01 -0.24827529069E+00 -0.84194925028E+01  0.12996606635E+02  0.00000000000E+00 0. -1.
</event>
<event>
 8    1  0.1280823E-010  0.9118800E+02  0.7816164E-02  0.1184000E+00
        -11   -1    0    0    0    0  0.00000000000E+00  0.00000000000E+00  0.45593999997E+02  0.45594000000E+02  0.51100000000E-03 0. -1.
         11   -1    0    0    0    0 -0.00000000000E+00 -0.00000000000E+00 -0.45593999997E+02  0.45594000000E+02  0.51100000000E-03 0.  1.
         23    2    1    2    0    0  0.00000000000E+00  0.00000000000E+00  0.71054273576E-14  0.91188000000E+02  0.91188000000E+02 0.  0.
    9900012    2    3    3    0    0 -0.56828156989E+01  0.15121697611E+02  0.40282289842E+02  0.47787274109E+02  0.20000013974E+02 0.  0.
        -12    1    3    3    0    0  0.56828156989E+01 -0.15121697611E+02 -0.40282289842E+02  0.43400725891E+02  0.00000000000E+00 0.  1.
         11    1    4    4    0    0 -0.57787675046E+01 -0.10819770095E+01  0.84122339930E+01  0.10263065289E+02  0.51100000000E-03 0. -1.
        -11    1    4    4    0    0 -0.32670882148E+01  0.32281449477E+01  0.24753036297E+01  0.52174623647E+01  0.51100000000E-03 0.  1.
        -12    1    4    4    0    0  0.33630400204E+01  0.12975529673E+02  0.29394752219E+02  0.32306746455E+02  0.00000000000E+00 0.  1.
</event>
<event>
 8    1  0.1280823E-010  0.9118800E+02  0.7816164E-02  0.1184000E+00
        -11   -1    0    0    0    0  0.00000000000E+00  0.00000000000E+00  0.45593999997E+02  0.45594000000E+02  0.51100000000E-03 0. -1.
         11   -1    0    0    0    0 -0.00000000000E+00 -0.00000000000E+00 -0.45593999997E+02  0.45594000000E+02  0.51100000000E-03 0.  1.
         23    2    1    2    0    0  0.00000000000E+00  0.00000000000E+00  0.00000000000E+00  0.91188000000E+02  0.91188000000E+02 0.  0.
    9900012    2    3    3    0    0  0.18700680845E+02  0.10717696691E+02 -0.37670147967E+02  0.47787256524E+02  0.19999933797E+02 0.  0.
         12    1    3    3    0    0 -0.18700680845E+02 -0.10717696691E+02  0.37670147967E+02  0.43400743476E+02  0.00000000000E+00 0. -1.
         11    1    4    4    0    0  0.87729489187E+01  0.40711139644E+01 -0.15610790997E+02  0.18363970090E+02  0.51100000000E-03 0. -1.
        -11    1    4    4    0    0  0.37261685856E+01  0.94945734803E+01 -0.19733511628E+02  0.22213571062E+02  0.51100000000E-03 0.  1.
         12    1    4    4    0    0  0.62015633407E+01 -0.28479907539E+01 -0.23258453421E+01  0.72097153729E+01  0.00000000000E+00 0. -1.
</event>
<event>
 8    1  0.1280823E-010  0.9118800E+02  0.7816164E-02  0.1184000E+00
        -11   -1    0    0    0    0  0.00000000000E+00  0.00000000000E+00  0.45593999997E+02  0.45594000000E+02  0.51100000000E-03 0.  1.
         11   -1    0    0    0    0 -0.00000000000E+00 -0.00000000000E+00 -0.45593999997E+02  0.45594000000E+02  0.51100000000E-03 0. -1.
         23    2    1    2    0    0  0.00000000000E+00  0.00000000000E+00  0.00000000000E+00  0.91188000000E+02  0.91188000000E+02 0.  0.
    9900012    2    3    3    0    0  0.27908668319E+02  0.25928116418E+02 -0.20795729207E+02  0.47787270264E+02  0.19999996442E+02 0.  0.
         12    1    3    3    0    0 -0.27908668319E+02 -0.25928116418E+02  0.20795729207E+02  0.43400729736E+02  0.00000000000E+00 0. -1.
         11    1    4    4    0    0  0.10494158101E+02  0.96113398454E+01 -0.34184750855E+01  0.14635271779E+02  0.51100000000E-03 0. -1.
        -11    1    4    4    0    0  0.17240538584E+02  0.18841555041E+02 -0.16759163561E+02  0.30546848128E+02  0.51100000000E-03 0.  1.
         12    1    4    4    0    0  0.17397163345E+00 -0.25247784678E+01 -0.61809056045E+00  0.26051503568E+01  0.00000000000E+00 0. -1.
</event>
<event>
 8    1  0.1280823E-010  0.9118800E+02  0.7816164E-02  0.1184000E+00
        -11   -1    0    0    0    0  0.00000000000E+00  0.00000000000E+00  0.45593999997E+02  0.45594000000E+02  0.51100000000E-03 0. -1.
         11   -1    0    0    0    0 -0.00000000000E+00 -0.00000000000E+00 -0.45593999997E+02  0.45594000000E+02  0.51100000000E-03 0.  1.
         23    2    1    2    0    0  0.88817841970E-15  0.00000000000E+00  0.00000000000E+00  0.91188000000E+02  0.91188000000E+02 0.  0.
    9900012    2    3    3    0    0  0.52935434132E+01 -0.38095201906E+02  0.20108603892E+02  0.47787286174E+02  0.20000068981E+02 0.  0.
        -12    1    3    3    0    0 -0.52935434132E+01  0.38095201906E+02 -0.20108603892E+02  0.43400713826E+02  0.00000000000E+00 0.  1.
         11    1    4    4    0    0  0.91273505564E+01 -0.25263419207E+02  0.19449946001E+02  0.33163975605E+02  0.51100000000E-03 0.  1.
        -11    1    4    4    0    0  0.15419872220E+01 -0.20998750468E+01  0.14693897287E+00  0.26093660395E+01  0.51100000000E-03 0. -1.
        -12    1    4    4    0    0 -0.53757943653E+01 -0.10731907652E+02  0.51171891810E+00  0.12013944530E+02  0.00000000000E+00 0.  1.
</event>
<event>
 8    1  0.1280823E-010  0.9118800E+02  0.7816164E-02  0.1184000E+00
        -11   -1    0    0    0    0  0.00000000000E+00  0.00000000000E+00  0.45593999997E+02  0.45594000000E+02  0.51100000000E-03 0.  1.
         11   -1    0    0    0    0 -0.00000000000E+00 -0.00000000000E+00 -0.45593999997E+02  0.45594000000E+02  0.51100000000E-03 0. -1.
         23    2    1    2    0    0 -0.71054273576E-14  0.00000000000E+00  0.00000000000E+00  0.91188000000E+02  0.91188000000E+02 0.  0.
    9900012    2    3    3    0    0  0.32885167749E+02  0.38294465649E+01  0.28062858476E+02  0.47787274837E+02  0.20000017290E+02 0.  0.
        -12    1    3    3    0    0 -0.32885167749E+02 -0.38294465649E+01 -0.28062858476E+02  0.43400725163E+02  0.00000000000E+00 0.  1.
         11    1    4    4    0    0  0.62193226584E+01 -0.17040103108E+01  0.47384815721E+01  0.80023017525E+01  0.51100000000E-03 0. -1.
        -11    1    4    4    0    0  0.46942304255E+01  0.63109466493E+01  0.18643196442E+00  0.78675665893E+01  0.51100000000E-03 0.  1.
        -12    1    4    4    0    0  0.21971614665E+02 -0.77748977363E+00  0.23137944940E+02  0.31917406495E+02  0.00000000000E+00 0.  1.
</event>
<event>
 8    1  0.1280823E-010  0.9118800E+02  0.7816164E-02  0.1184000E+00
        -11   -1    0    0    0    0  0.00000000000E+00  0.00000000000E+00  0.45593999997E+02  0.45594000000E+02  0.51100000000E-03 0. -1.
         11   -1    0    0    0    0 -0.00000000000E+00 -0.00000000000E+00 -0.45593999997E+02  0.45594000000E+02  0.51100000000E-03 0.  1.
         23    2    1    2    0    0  0.00000000000E+00  0.00000000000E+00 -0.71054273576E-14  0.91188000000E+02  0.91188000000E+02 0.  0.
    9900012    2    3    3    0    0 -0.20120203565E+02 -0.19433412383E+02 -0.33183472418E+02  0.47787274775E+02  0.20000017009E+02 0.  0.
         12    1    3    3    0    0  0.20120203565E+02  0.19433412383E+02  0.33183472418E+02  0.43400725225E+02  0.00000000000E+00 0. -1.
         11    1    4    4    0    0  0.21086782950E+01  0.38021596111E+00 -0.31905234218E+00  0.21663063004E+01  0.51100000000E-03 0. -1.
        -11    1    4    4    0    0 -0.38009451761E+01 -0.10139822883E+02 -0.11325155101E+02  0.15669152199E+02  0.51100000000E-03 0.  1.
        -12    1    4    4    0    0 -0.18427936684E+02 -0.96738054612E+01 -0.21539264975E+02  0.29951816275E+02  0.00000000000E+00 0.  1.
</event>
<event>
 8    1  0.1280823E-010  0.9118800E+02  0.7816164E-02  0.1184000E+00
        -11   -1    0    0    0    0  0.00000000000E+00  0.00000000000E+00  0.45593999997E+02  0.45594000000E+02  0.51100000000E-03 0. -1.
         11   -1    0    0    0    0 -0.00000000000E+00 -0.00000000000E+00 -0.45593999997E+02  0.45594000000E+02  0.51100000000E-03 0.  1.
         23    2    1    2    0    0 -0.55511151231E-16  0.00000000000E+00 -0.71054273576E-14  0.91188000000E+02  0.91188000000E+02 0.  0.
    9900012    2    3    3    0    0 -0.34797332918E+00 -0.24591147405E+02  0.35760001706E+02  0.47787270304E+02  0.19999996624E+02 0.  0.
        -12    1    3    3    0    0  0.34797332918E+00  0.24591147405E+02 -0.35760001706E+02  0.43400729696E+02  0.00000000000E+00 0.  1.
         11    1    4    4    0    0 -0.32988279957E+01 -0.63099368435E+01  0.36595980185E+01  0.80056372034E+01  0.51100000000E-03 0. -1.
        -11    1    4    4    0    0  0.50053114153E+01 -0.10098413251E+02  0.69204786402E+01  0.13225888152E+02  0.51100000000E-03 0.  1.
        -12    1    4    4    0    0 -0.20544567488E+01 -0.81827973103E+01  0.25179925047E+02  0.26555744948E+02  0.00000000000E+00 0.  1.
</event>
<event>
 8    1  0.1280823E-010  0.9118800E+02  0.7816164E-02  0.1184000E+00
        -11   -1    0    0    0    0  0.00000000000E+00  0.00000000000E+00  0.45593999997E+02  0.45594000000E+02  0.51100000000E-03 0. -1.
         11   -1    0    0    0    0 -0.00000000000E+00 -0.00000000000E+00 -0.45593999997E+02  0.45594000000E+02  0.51100000000E-03 0.  1.
         23    2    1    2    0    0  0.71054273576E-14 -0.17763568394E-14  0.17763568394E-14  0.91188000000E+02  0.91188000000E+02 0.  0.
    9900012    2    3    3    0    0 -0.40874362049E+02 -0.83088688772E+01  0.11994680118E+02  0.47787272747E+02  0.20000007763E+02 0.  0.
        -12    1    3    3    0    0  0.40874362049E+02  0.83088688772E+01 -0.11994680118E+02  0.43400727253E+02  0.00000000000E+00 0.  1.
         11    1    4    4    0    0 -0.16895679802E+02  0.17835652658E+01  0.59572669960E+01  0.18003725485E+02  0.51100000000E-03 0. -1.
        -11    1    4    4    0    0 -0.20876784675E+02 -0.13239651371E+02  0.55633353849E+01  0.25339281908E+02  0.51100000000E-03 0.  1.
        -12    1    4    4    0    0 -0.31018975729E+01  0.31472172279E+01  0.47407773731E+00  0.44442653536E+01  0.00000000000E+00 0.  1.
</event>
<event>
 8    1  0.1280823E-010  0.9118800E+02  0.7816164E-02  0.1184000E+00
        -11   -1    0    0    0    0  0.00000000000E+00  0.00000000000E+00  0.45593999997E+02  0.45594000000E+02  0.51100000000E-03 0. -1.
         11   -1    0    0    0    0 -0.00000000000E+00 -0.00000000000E+00 -0.45593999997E+02  0.45594000000E+02  0.51100000000E-03 0.  1.
         23    2    1    2    0    0  0.71054273576E-14  0.00000000000E+00 -0.17763568394E-14  0.91188000000E+02  0.91188000000E+02 0.  0.
    9900012    2    3    3    0    0 -0.32850161560E+02  0.24892139088E+02  0.13596751368E+02  0.47787270159E+02  0.19999995965E+02 0.  0.
        -12    1    3    3    0    0  0.32850161560E+02 -0.24892139088E+02 -0.13596751368E+02  0.43400729841E+02  0.00000000000E+00 0.  1.
         11    1    4    4    0    0 -0.61922526959E+01  0.35175180490E+00  0.59600154140E+01  0.86017153393E+01  0.51100000000E-03 0. -1.
        -11    1    4    4    0    0  0.12712067122E+01  0.49224810187E+00  0.11064614028E+01  0.17557140417E+01  0.51100000000E-03 0.  1.
        -12    1    4    4    0    0 -0.27929115577E+02  0.24048139181E+02  0.65302745510E+01  0.37429840779E+02  0.00000000000E+00 0.  1.
</event>
<event>
 8    1  0.1280823E-010  0.9118800E+02  0.7816164E-02  0.1184000E+00
        -11   -1    0    0    0    0  0.00000000000E+00  0.00000000000E+00  0.45593999997E+02  0.45594000000E+02  0.51100000000E-03 0. -1.
         11   -1    0    0    0    0 -0.00000000000E+00 -0.00000000000E+00 -0.45593999997E+02  0.45594000000E+02  0.51100000000E-03 0.  1.
         23    2    1    2    0    0  0.44408920985E-15  0.00000000000E+00  0.00000000000E+00  0.91188000000E+02  0.91188000000E+02 0.  0.
    9900012    2    3    3    0    0  0.26910140696E+01 -0.24346821856E+02  0.35827561473E+02  0.47787268988E+02  0.19999990626E+02 0.  0.
        -12    1    3    3    0    0 -0.26910140696E+01  0.24346821856E+02 -0.35827561473E+02  0.43400731012E+02  0.00000000000E+00 0.  1.
         11    1    4    4    0    0  0.44638337247E+01 -0.82738772928E+01  0.11385863157E+02  0.14765525289E+02  0.51100000000E-03 0. -1.
        -11    1    4    4    0    0  0.50521331944E+01 -0.46377577683E+00  0.43791980037E+01  0.67019783051E+01  0.51100000000E-03 0.  1.
         12    1    4    4    0    0 -0.68249528495E+01 -0.15609168787E+02  0.20062500312E+02  0.26319765394E+02  0.00000000000E+00 0. -1.
</event>
<event>
 8    1  0.1280823E-010  0.9118800E+02  0.7816164E-02  0.1184000E+00
        -11   -1    0    0    0    0  0.00000000000E+00  0.00000000000E+00  0.45593999997E+02  0.45594000000E+02  0.51100000000E-03 0. -1.
         11   -1    0    0    0    0 -0.00000000000E+00 -0.00000000000E+00 -0.45593999997E+02  0.45594000000E+02  0.51100000000E-03 0.  1.
         23    2    1    2    0    0  0.00000000000E+00  0.00000000000E+00  0.00000000000E+00  0.91188000000E+02  0.91188000000E+02 0.  0.
    9900012    2    3    3    0    0  0.90922819514E+01 -0.20304750164E+02  0.37264874393E+02  0.47787270353E+02  0.19999996849E+02 0.  0.
        -12    1    3    3    0    0 -0.90922819514E+01  0.20304750164E+02 -0.37264874393E+02  0.43400729647E+02  0.00000000000E+00 0.  1.
         11    1    4    4    0    0  0.11830951649E+02 -0.93788102925E+01  0.21640221317E+02  0.26386221373E+02  0.51100000000E-03 0. -1.
        -11    1    4    4    0    0  0.21320129138E+01 -0.49317058848E+01  0.11387869308E+02  0.12591694470E+02  0.51100000000E-03 0.  1.
        -12    1    4    4    0    0 -0.48706826113E+01 -0.59942339867E+01  0.42367837682E+01  0.88093545102E+01  0.00000000000E+00 0.  1.
</event>
<event>
 8    1  0.1280823E-010  0.9118800E+02  0.7816164E-02  0.1184000E+00
        -11   -1    0    0    0    0  0.00000000000E+00  0.00000000000E+00  0.45593999997E+02  0.45594000000E+02  0.51100000000E-03 0. -1.
         11   -1    0    0    0    0 -0.00000000000E+00 -0.00000000000E+00 -0.45593999997E+02  0.45594000000E+02  0.51100000000E-03 0.  1.
         23    2    1    2    0    0  0.17763568394E-14 -0.35527136788E-14  0.35527136788E-14  0.91188000000E+02  0.91188000000E+02 0.  0.
    9900012    2    3    3    0    0 -0.89572957231E+01 -0.30755254390E+02  0.29283180213E+02  0.47787268870E+02  0.19999990085E+02 0.  0.
        -12    1    3    3    0    0  0.89572957231E+01  0.30755254390E+02 -0.29283180213E+02  0.43400731130E+02  0.00000000000E+00 0.  1.
         11    1    4    4    0    0 -0.33905965542E+00 -0.16361520236E+02  0.47532439409E+01  0.17041350713E+02  0.51100000000E-03 0.  1.
        -11    1    4    4    0    0  0.14605141992E+01 -0.15916465357E+01  0.20166133636E+01  0.29551937567E+01  0.51100000000E-03 0. -1.
        -12    1    4    4    0    0 -0.10078750267E+02 -0.12802087618E+02  0.22513322909E+02  0.27790724400E+02  0.00000000000E+00 0.  1.
</event>
<event>
 8    1  0.2459016E-010  0.9118800E+02  0.7816164E-02  0.1184000E+00
        -11   -1    0    0    0    0  0.00000000000E+00  0.00000000000E+00  0.45593999997E+02  0.45594000000E+02  0.51100000000E-03 0. -1.
         11   -1    0    0    0    0 -0.00000000000E+00 -0.00000000000E+00 -0.45593999997E+02  0.45594000000E+02  0.51100000000E-03 0.  1.
         23    2    1    2    0    0 -0.17763568394E-14  0.00000000000E+00 -0.71054273576E-14  0.91188000000E+02  0.91188000000E+02 0.  0.
    9900012    2    3    3    0    0 -0.97333788346E+01  0.11539763828E+02 -0.40690531452E+02  0.47787260806E+02  0.19999953319E+02 0.  0.
         12    1    3    3    0    0  0.97333788346E+01 -0.11539763828E+02  0.40690531452E+02  0.43400739194E+02  0.00000000000E+00 0. -1.
         11    1    4    4    0    0 -0.29945040677E+01  0.14757107310E+01  0.12964796760E+00  0.33408959322E+01  0.51100000000E-03 0. -1.
        -11    1    4    4    0    0  0.38206118363E+01  0.22594694540E+01 -0.95456414415E+01  0.10527181380E+02  0.51100000000E-03 0.  1.
        -12    1    4    4    0    0 -0.10559486603E+02  0.78045836435E+01 -0.31274537978E+02  0.33919183494E+02  0.00000000000E+00 0.  1.
</event>
<event>
 8    1  0.1280823E-010  0.9118800E+02  0.7816164E-02  0.1184000E+00
        -11   -1    0    0    0    0  0.00000000000E+00  0.00000000000E+00  0.45593999997E+02  0.45594000000E+02  0.51100000000E-03 0. -1.
         11   -1    0    0    0    0 -0.00000000000E+00 -0.00000000000E+00 -0.45593999997E+02  0.45594000000E+02  0.51100000000E-03 0.  1.
         23    2    1    2    0    0  0.00000000000E+00  0.00000000000E+00  0.00000000000E+00  0.91188000000E+02  0.91188000000E+02 0.  0.
    9900012    2    3    3    0    0  0.43377588944E+01 -0.20335596540E+02  0.38095546983E+02  0.47787270297E+02  0.19999996591E+02 0.  0.
        -12    1    3    3    0    0 -0.43377588944E+01  0.20335596540E+02 -0.38095546983E+02  0.43400729703E+02  0.00000000000E+00 0.  1.
         11    1    4    4    0    0 -0.43102781907E+01 -0.68661060150E+01  0.66057499859E+01  0.10457430039E+02  0.51100000000E-03 0. -1.
        -11    1    4    4    0    0  0.41872650556E+01 -0.25591213296E+00  0.18739413199E+01  0.45945985676E+01  0.51100000000E-03 0.  1.
        -12    1    4    4    0    0  0.44607720295E+01 -0.13213578392E+02  0.29615855677E+02  0.32735241690E+02  0.00000000000E+00 0.  1.
</event>
<event>
 8    1  0.1280823E-010  0.9118800E+02  0.7816164E-02  0.1184000E+00
        -11   -1    0    0    0    0  0.00000000000E+00  0.00000000000E+00  0.45593999997E+02  0.45594000000E+02  0.51100000000E-03 0. -1.
         11   -1    0    0    0    0 -0.00000000000E+00 -0.00000000000E+00 -0.45593999997E+02  0.45594000000E+02  0.51100000000E-03 0.  1.
         23    2    1    2    0    0  0.00000000000E+00  0.17763568394E-14 -0.88817841970E-15  0.91188000000E+02  0.91188000000E+02 0.  0.
    9900012    2    3    3    0    0 -0.40295960951E+02  0.15434783965E+02 -0.46504047612E+01  0.47787270865E+02  0.19999999180E+02 0.  0.
         12    1    3    3    0    0  0.40295960951E+02 -0.15434783965E+02  0.46504047612E+01  0.43400729135E+02  0.00000000000E+00 0. -1.
         11    1    4    4    0    0 -0.82560646582E+01  0.89411965986E+01 -0.52459585372E+00  0.12181247938E+02  0.51100000000E-03 0. -1.
        -11    1    4    4    0    0 -0.13971357225E+02  0.96534101834E+01 -0.11224710726E+01  0.17019021489E+02  0.51100000000E-03 0.  1.
         12    1    4    4    0    0 -0.18068539068E+02 -0.31598228170E+01 -0.30033378348E+01  0.18587001438E+02  0.00000000000E+00 0. -1.
</event>
<event>
 8    1  0.1280823E-010  0.9118800E+02  0.7816164E-02  0.1184000E+00
        -11   -1    0    0    0    0  0.00000000000E+00  0.00000000000E+00  0.45593999997E+02  0.45594000000E+02  0.51100000000E-03 0. -1.
         11   -1    0    0    0    0 -0.00000000000E+00 -0.00000000000E+00 -0.45593999997E+02  0.45594000000E+02  0.51100000000E-03 0.  1.
         23    2    1    2    0    0  0.00000000000E+00  0.00000000000E+00  0.00000000000E+00  0.91188000000E+02  0.91188000000E+02 0.  0.
    9900012    2    3    3    0    0  0.13288948645E+02  0.27182834168E+02 -0.31114636778E+02  0.47787271304E+02  0.20000001185E+02 0.  0.
         12    1    3    3    0    0 -0.13288948645E+02 -0.27182834168E+02  0.31114636778E+02  0.43400728696E+02  0.00000000000E+00 0. -1.
         11    1    4    4    0    0  0.60169928650E+01  0.80762801263E+01 -0.34818569978E+01  0.10656164049E+02  0.51100000000E-03 0. -1.
        -11    1    4    4    0    0 -0.68958165950E-01  0.61557313769E+01 -0.49200830928E+00  0.61757474407E+01  0.51100000000E-03 0.  1.
        -12    1    4    4    0    0  0.73409139461E+01  0.12950822665E+02 -0.27140771471E+02  0.30955359815E+02  0.00000000000E+00 0.  1.
</event>
<event>
 8    1  0.1280823E-010  0.9118800E+02  0.7816164E-02  0.1184000E+00
        -11   -1    0    0    0    0  0.00000000000E+00  0.00000000000E+00  0.45593999997E+02  0.45594000000E+02  0.51100000000E-03 0. -1.
         11   -1    0    0    0    0 -0.00000000000E+00 -0.00000000000E+00 -0.45593999997E+02  0.45594000000E+02  0.51100000000E-03 0.  1.
         23    2    1    2    0    0  0.00000000000E+00 -0.17763568394E-14  0.71054273576E-14  0.91188000000E+02  0.91188000000E+02 0.  0.
    9900012    2    3    3    0    0  0.17645675748E+02  0.13582290910E+02 -0.37252845734E+02  0.47787274035E+02  0.20000013637E+02 0.  0.
         12    1    3    3    0    0 -0.17645675748E+02 -0.13582290910E+02  0.37252845734E+02  0.43400725965E+02  0.00000000000E+00 0. -1.
         11    1    4    4    0    0  0.15739737849E+02  0.48186170484E+01 -0.27899581232E+02  0.32393595833E+02  0.51100000000E-03 0. -1.
        -11    1    4    4    0    0 -0.30745957503E+00  0.20716625496E+01 -0.79312477880E+01  0.82031097058E+01  0.51100000000E-03 0.  1.
         12    1    4    4    0    0  0.22133974742E+01  0.66920113115E+01 -0.14220167145E+01  0.71905684969E+01  0.00000000000E+00 0. -1.
</event>
<event>
 8    1  0.1280823E-010  0.9118800E+02  0.7816164E-02  0.1184000E+00
        -11   -1    0    0    0    0  0.00000000000E+00  0.00000000000E+00  0.45593999997E+02  0.45594000000E+02  0.51100000000E-03 0. -1.
         11   -1    0    0    0    0 -0.00000000000E+00 -0.00000000000E+00 -0.45593999997E+02  0.45594000000E+02  0.51100000000E-03 0.  1.
         23    2    1    2    0    0  0.88817841970E-15 -0.17763568394E-14 -0.71054273576E-14  0.91188000000E+02  0.91188000000E+02 0.  0.
    9900012    2    3    3    0    0  0.34546850661E+01  0.80013236520E+01  0.42516677262E+02  0.47787264125E+02  0.19999968453E+02 0.  0.
        -12    1    3    3    0    0 -0.34546850661E+01 -0.80013236520E+01 -0.42516677262E+02  0.43400735875E+02  0.00000000000E+00 0.  1.
         11    1    4    4    0    0 -0.12768888344E+01  0.13063849436E+01  0.16233127993E+01  0.24438149320E+01  0.51100000000E-03 0. -1.
        -11    1    4    4    0    0 -0.63921432443E+01  0.47627486779E+01  0.21113172406E+02  0.22567882478E+02  0.51100000000E-03 0.  1.
         12    1    4    4    0    0  0.11123717145E+02  0.19321900306E+01  0.19780192056E+02  0.22775566716E+02  0.00000000000E+00 0. -1.
</event>
<event>
 8    1  0.1846301E-010  0.9118800E+02  0.7816164E-02  0.1184000E+00
        -11   -1    0    0    0    0  0.00000000000E+00  0.00000000000E+00  0.45593999997E+02  0.45594000000E+02  0.51100000000E-03 0. -1.
         11   -1    0    0    0    0 -0.00000000000E+00 -0.00000000000E+00 -0.45593999997E+02  0.45594000000E+02  0.51100000000E-03 0.  1.
         23    2    1    2    0    0 -0.17763568394E-14  0.00000000000E+00 -0.71054273576E-14  0.91188000000E+02  0.91188000000E+02 0.  0.
    9900012    2    3    3    0    0 -0.15806958236E+02  0.70210925405E+01 -0.39805363649E+02  0.47787278296E+02  0.20000033064E+02 0.  0.
         12    1    3    3    0    0  0.15806958236E+02 -0.70210925405E+01  0.39805363649E+02  0.43400721704E+02  0.00000000000E+00 0. -1.
         11    1    4    4    0    0  0.32573406035E+01 -0.20159510291E+01 -0.45225705088E+01  0.59268854069E+01  0.51100000000E-03 0. -1.
        -11    1    4    4    0    0 -0.12382673385E+02  0.28545029665E+01 -0.15209280513E+02  0.19819207889E+02  0.51100000000E-03 0.  1.
        -12    1    4    4    0    0 -0.66816254549E+01  0.61825406031E+01 -0.20073512627E+02  0.22041185001E+02  0.00000000000E+00 0.  1.
</event>
<event>
 8    1  0.1280823E-010  0.9118800E+02  0.7816164E-02  0.1184000E+00
        -11   -1    0    0    0    0  0.00000000000E+00  0.00000000000E+00  0.45593999997E+02  0.45594000000E+02  0.51100000000E-03 0.  1.
         11   -1    0    0    0    0 -0.00000000000E+00 -0.00000000000E+00 -0.45593999997E+02  0.45594000000E+02  0.51100000000E-03 0. -1.
         23    2    1    2    0    0  0.71054273576E-14  0.17763568394E-14  0.00000000000E+00  0.91188000000E+02  0.91188000000E+02 0.  0.
    9900012    2    3    3    0    0  0.40696129130E+02 -0.53225999512E+01 -0.14110923794E+02  0.47787272279E+02  0.20000005627E+02 0.  0.
         12    1    3    3    0    0 -0.40696129130E+02  0.53225999512E+01  0.14110923794E+02  0.43400727721E+02  0.00000000000E+00 0. -1.
         11    1    4    4    0    0  0.15607069268E+02  0.52881572505E+01 -0.73304399269E+01  0.18035536255E+02  0.51100000000E-03 0.  1.
        -11    1    4    4    0    0  0.26243997137E+01 -0.55066693897E+00 -0.42262828352E+01  0.50052147605E+01  0.51100000000E-03 0. -1.
        -12    1    4    4    0    0  0.22464660149E+02 -0.10060090263E+02 -0.25542010322E+01  0.24746521263E+02  0.00000000000E+00 0.  1.
</event>
<event>
 8    1  0.1280823E-010  0.9118800E+02  0.7816164E-02  0.1184000E+00
        -11   -1    0    0    0    0  0.00000000000E+00  0.00000000000E+00  0.45593999997E+02  0.45594000000E+02  0.51100000000E-03 0. -1.
         11   -1    0    0    0    0 -0.00000000000E+00 -0.00000000000E+00 -0.45593999997E+02  0.45594000000E+02  0.51100000000E-03 0.  1.
         23    2    1    2    0    0 -0.71054273576E-14  0.00000000000E+00  0.35527136788E-14  0.91188000000E+02  0.91188000000E+02 0.  0.
    9900012    2    3    3    0    0  0.35519528282E+02 -0.53887570340E+01  0.24350515020E+02  0.47787272201E+02  0.20000005274E+02 0.  0.
        -12    1    3    3    0    0 -0.35519528282E+02  0.53887570340E+01 -0.24350515020E+02  0.43400727799E+02  0.00000000000E+00 0.  1.
         11    1    4    4    0    0  0.13465253776E+02 -0.62100626061E+01  0.11768581678E+02  0.18930859774E+02  0.51100000000E-03 0. -1.
        -11    1    4    4    0    0  0.19264599244E+02 -0.45892865894E+01  0.10551683312E+02  0.22439348395E+02  0.51100000000E-03 0.  1.
        -12    1    4    4    0    0  0.27896752618E+01  0.54105921615E+01  0.20302500309E+01  0.64170640321E+01  0.00000000000E+00 0.  1.
</event>
<event>
 8    1  0.1280823E-010  0.9118800E+02  0.7816164E-02  0.1184000E+00
        -11   -1    0    0    0    0  0.00000000000E+00  0.00000000000E+00  0.45593999997E+02  0.45594000000E+02  0.51100000000E-03 0. -1.
         11   -1    0    0    0    0 -0.00000000000E+00 -0.00000000000E+00 -0.45593999997E+02  0.45594000000E+02  0.51100000000E-03 0.  1.
         23    2    1    2    0    0 -0.13322676296E-14  0.00000000000E+00  0.00000000000E+00  0.91188000000E+02  0.91188000000E+02 0.  0.
    9900012    2    3    3    0    0  0.39986289719E+01 -0.64163054867E+01  0.42737173761E+02  0.47787262324E+02  0.19999960238E+02 0.  0.
        -12    1    3    3    0    0 -0.39986289719E+01  0.64163054867E+01 -0.42737173761E+02  0.43400737676E+02  0.00000000000E+00 0.  1.
         11    1    4    4    0    0  0.30058757345E+01 -0.26251943727E+01  0.56001721595E+01  0.68766898217E+01  0.51100000000E-03 0. -1.
        -11    1    4    4    0    0  0.22693167671E+01  0.85444702424E+00  0.35839111089E+02  0.35921049013E+02  0.51100000000E-03 0.  1.
        -12    1    4    4    0    0 -0.12765635297E+01 -0.46455581382E+01  0.12978905131E+01  0.49895234888E+01  0.00000000000E+00 0.  1.
</event>
<event>
 8    1  0.1280823E-010  0.9118800E+02  0.7816164E-02  0.1184000E+00
        -11   -1    0    0    0    0  0.00000000000E+00  0.00000000000E+00  0.45593999997E+02  0.45594000000E+02  0.51100000000E-03 0. -1.
         11   -1    0    0    0    0 -0.00000000000E+00 -0.00000000000E+00 -0.45593999997E+02  0.45594000000E+02  0.51100000000E-03 0.  1.
         23    2    1    2    0    0  0.00000000000E+00  0.35527136788E-14 -0.71054273576E-14  0.91188000000E+02  0.91188000000E+02 0.  0.
    9900012    2    3    3    0    0  0.64014796491E+01  0.17840667615E+02 -0.39042992533E+02  0.47787266958E+02  0.19999981370E+02 0.  0.
         12    1    3    3    0    0 -0.64014796491E+01 -0.17840667615E+02  0.39042992533E+02  0.43400733042E+02  0.00000000000E+00 0. -1.
         11    1    4    4    0    0 -0.91528689185E+00  0.14130853871E+01 -0.23617458639E+02  0.23677392450E+02  0.51100000000E-03 0. -1.
        -11    1    4    4    0    0  0.11789770769E+01  0.48186489064E+01 -0.67278128127E+01  0.83589969336E+01  0.51100000000E-03 0.  1.
        -12    1    4    4    0    0  0.61377894640E+01  0.11608933321E+02 -0.86977210808E+01  0.15750877574E+02  0.00000000000E+00 0.  1.
</event>
<event>
 8    1  0.1280823E-010  0.9118800E+02  0.7816164E-02  0.1184000E+00
        -11   -1    0    0    0    0  0.00000000000E+00  0.00000000000E+00  0.45593999997E+02  0.45594000000E+02  0.51100000000E-03 0. -1.
         11   -1    0    0    0    0 -0.00000000000E+00 -0.00000000000E+00 -0.45593999997E+02  0.45594000000E+02  0.51100000000E-03 0.  1.
         23    2    1    2    0    0  0.35527136788E-14  0.00000000000E+00  0.00000000000E+00  0.91188000000E+02  0.91188000000E+02 0.  0.
    9900012    2    3    3    0    0  0.27968735739E+02 -0.22300004273E+02  0.24578116357E+02  0.47787260685E+02  0.19999952769E+02 0.  0.
        -12    1    3    3    0    0 -0.27968735739E+02  0.22300004273E+02 -0.24578116357E+02  0.43400739315E+02  0.00000000000E+00 0.  1.
         11    1    4    4    0    0  0.10662421588E+02 -0.78893745742E+01  0.85250263238E+01  0.15767229921E+02  0.51100000000E-03 0. -1.
        -11    1    4    4    0    0  0.78974126297E+01 -0.15994738252E+02  0.80664933372E+01  0.19577259589E+02  0.51100000000E-03 0.  1.
         12    1    4    4    0    0  0.94089015217E+01  0.15841085534E+01  0.79865966958E+01  0.12442771176E+02  0.00000000000E+00 0. -1.
</event>
<event>
 8    1  0.1280823E-010  0.9118800E+02  0.7816164E-02  0.1184000E+00
        -11   -1    0    0    0    0  0.00000000000E+00  0.00000000000E+00  0.45593999997E+02  0.45594000000E+02  0.51100000000E-03 0. -1.
         11   -1    0    0    0    0 -0.00000000000E+00 -0.00000000000E+00 -0.45593999997E+02  0.45594000000E+02  0.51100000000E-03 0.  1.
         23    2    1    2    0    0  0.00000000000E+00  0.00000000000E+00  0.00000000000E+00  0.91188000000E+02  0.91188000000E+02 0.  0.
    9900012    2    3    3    0    0  0.25645331000E+02  0.31885024265E+02 -0.14466684767E+02  0.47787277164E+02  0.20000027902E+02 0.  0.
         12    1    3    3    0    0 -0.25645331000E+02 -0.31885024265E+02  0.14466684767E+02  0.43400722836E+02  0.00000000000E+00 0. -1.
         11    1    4    4    0    0  0.10908610717E+02  0.30041706413E+01 -0.57002323267E+01  0.12669470307E+02  0.51100000000E-03 0. -1.
        -11    1    4    4    0    0  0.72667156434E+01  0.11640762263E+02 -0.88496098193E+01  0.16328750611E+02  0.51100000000E-03 0.  1.
        -12    1    4    4    0    0  0.74700046397E+01  0.17240091361E+02  0.83157378813E-01  0.18789056246E+02  0.00000000000E+00 0.  1.
</event>
<event>
 8    1  0.1280823E-010  0.9118800E+02  0.7816164E-02  0.1184000E+00
        -11   -1    0    0    0    0  0.00000000000E+00  0.00000000000E+00  0.45593999997E+02  0.45594000000E+02  0.51100000000E-03 0.  1.
         11   -1    0    0    0    0 -0.00000000000E+00 -0.00000000000E+00 -0.45593999997E+02  0.45594000000E+02  0.51100000000E-03 0. -1.
         23    2    1    2    0    0  0.00000000000E+00  0.00000000000E+00  0.11657341759E-14  0.91188000000E+02  0.91188000000E+02 0.  0.
    9900012    2    3    3    0    0 -0.72350988858E+01 -0.42791315133E+02  0.42399224545E+00  0.47787273322E+02  0.20000010386E+02 0.  0.
         12    1    3    3    0    0  0.72350988858E+01  0.42791315133E+02 -0.42399224545E+00  0.43400726678E+02  0.00000000000E+00 0. -1.
         11    1    4    4    0    0 -0.23485428993E+01 -0.13892166875E+01  0.82672808847E+00  0.28511500045E+01  0.51100000000E-03 0. -1.
        -11    1    4    4    0    0 -0.45071836789E+01 -0.12169147040E+02  0.70463268868E+01  0.14766636965E+02  0.51100000000E-03 0.  1.
         12    1    4    4    0    0 -0.37937230763E+00 -0.29232951406E+02 -0.74490627298E+01  0.30169486353E+02  0.00000000000E+00 0. -1.
</event>
<event>
 8    1  0.1280823E-010  0.9118800E+02  0.7816164E-02  0.1184000E+00
        -11   -1    0    0    0    0  0.00000000000E+00  0.00000000000E+00  0.45593999997E+02  0.45594000000E+02  0.51100000000E-03 0. -1.
         11   -1    0    0    0    0 -0.00000000000E+00 -0.00000000000E+00 -0.45593999997E+02  0.45594000000E+02  0.51100000000E-03 0.  1.
         23    2    1    2    0    0  0.00000000000E+00  0.00000000000E+00  0.00000000000E+00  0.91188000000E+02  0.91188000000E+02 0.  0.
    9900012    2    3    3    0    0  0.11965942534E+02  0.32464046514E+02  0.26201624581E+02  0.47787271579E+02  0.20000002437E+02 0.  0.
        -12    1    3    3    0    0 -0.11965942534E+02 -0.32464046514E+02 -0.26201624581E+02  0.43400728421E+02  0.00000000000E+00 0.  1.
         11    1    4    4    0    0 -0.22646338958E+00  0.89851119036E+01  0.38107664291E+00  0.89960403099E+01  0.51100000000E-03 0. -1.
        -11    1    4    4    0    0  0.31681281766E+00 -0.12975384762E+00  0.53554678423E+01  0.53663993975E+01  0.51100000000E-03 0.  1.
         12    1    4    4    0    0  0.11875593106E+02  0.23608688458E+02  0.20465080096E+02  0.33424831872E+02  0.00000000000E+00 0. -1.
</event>
<event>
 8    1  0.1764874E-010  0.9118800E+02  0.7816164E-02  0.1184000E+00
        -11   -1    0    0    0    0  0.00000000000E+00  0.00000000000E+00  0.45593999997E+02  0.45594000000E+02  0.51100000000E-03 0. -1.
         11   -1    0    0    0    0 -0.00000000000E+00 -0.00000000000E+00 -0.45593999997E+02  0.45594000000E+02  0.51100000000E-03 0.  1.
         23    2    1    2    0    0  0.00000000000E+00  0.17763568394E-14  0.00000000000E+00  0.91188000000E+02  0.91188000000E+02 0.  0.
    9900012    2    3    3    0    0 -0.37461089913E+02 -0.14072702307E+02 -0.16800236113E+02  0.47787284093E+02  0.20000059496E+02 0.  0.
         12    1    3    3    0    0  0.37461089913E+02  0.14072702307E+02  0.16800236113E+02  0.43400715907E+02  0.00000000000E+00 0. -1.
         11    1    4    4    0    0 -0.17994008577E+00 -0.29137431631E+01  0.11093445071E+01  0.31229670430E+01  0.51100000000E-03 0. -1.
        -11    1    4    4    0    0 -0.99158233841E+01 -0.90578375978E+01 -0.68221769105E+01  0.15063534558E+02  0.51100000000E-03 0.  1.
        -12    1    4    4    0    0 -0.27365326444E+02 -0.21011215464E+01 -0.11087403710E+02  0.29600782492E+02  0.00000000000E+00 0.  1.
</event>
<event>
 8    1  0.1280823E-010  0.9118800E+02  0.7816164E-02  0.1184000E+00
        -11   -1    0    0    0    0  0.00000000000E+00  0.00000000000E+00  0.45593999997E+02  0.45594000000E+02  0.51100000000E-03 0. -1.
         11   -1    0    0    0    0 -0.00000000000E+00 -0.00000000000E+00 -0.45593999997E+02  0.45594000000E+02  0.51100000000E-03 0.  1.
         23    2    1    2    0    0  0.44408920985E-15  0.00000000000E+00  0.00000000000E+00  0.91188000000E+02  0.91188000000E+02 0.  0.
    9900012    2    3    3    0    0  0.20183781735E+01  0.50643457177E+01 -0.43056957672E+02  0.47787273601E+02  0.20000011656E+02 0.  0.
         12    1    3    3    0    0 -0.20183781735E+01 -0.50643457177E+01  0.43056957672E+02  0.43400726399E+02  0.00000000000E+00 0. -1.
         11    1    4    4    0    0  0.21953129296E+01  0.41781294138E+01 -0.65750765959E+01  0.80936886992E+01  0.51100000000E-03 0. -1.
        -11    1    4    4    0    0  0.30700261989E+01  0.41806713656E+01 -0.34097224014E+02  0.34489473171E+02  0.51100000000E-03 0.  1.
        -12    1    4    4    0    0 -0.32469609550E+01 -0.32944550617E+01 -0.23846570626E+01  0.52041117305E+01  0.00000000000E+00 0.  1.
</event>
<event>
 8    1  0.1280823E-010  0.9118800E+02  0.7816164E-02  0.1184000E+00
        -11   -1    0    0    0    0  0.00000000000E+00  0.00000000000E+00  0.45593999997E+02  0.45594000000E+02  0.51100000000E-03 0. -1.
         11   -1    0    0    0    0 -0.00000000000E+00 -0.00000000000E+00 -0.45593999997E+02  0.45594000000E+02  0.51100000000E-03 0.  1.
         23    2    1    2    0    0  0.17763568394E-14  0.17763568394E-14  0.71054273576E-14  0.91188000000E+02  0.91188000000E+02 0.  0.
    9900012    2    3    3    0    0 -0.86297241491E+01 -0.11041125127E+02 -0.41076082153E+02  0.47787272955E+02  0.20000008711E+02 0.  0.
         12    1    3    3    0    0  0.86297241491E+01  0.11041125127E+02  0.41076082153E+02  0.43400727045E+02  0.00000000000E+00 0. -1.
         11    1    4    4    0    0 -0.69087305381E+01 -0.97936710193E+01 -0.18101714576E+02  0.21709873803E+02  0.51100000000E-03 0. -1.
        -11    1    4    4    0    0  0.33592090834E+01 -0.49372638568E+01 -0.12747168322E+02  0.14076617511E+02  0.51100000000E-03 0.  1.
         12    1    4    4    0    0 -0.50802026944E+01  0.36898097486E+01 -0.10227199255E+02  0.12000781641E+02  0.00000000000E+00 0. -1.
</event>
<event>
 8    1  0.1280823E-010  0.9118800E+02  0.7816164E-02  0.1184000E+00
        -11   -1    0    0    0    0  0.00000000000E+00  0.00000000000E+00  0.45593999997E+02  0.45594000000E+02  0.51100000000E-03 0. -1.
         11   -1    0    0    0    0 -0.00000000000E+00 -0.00000000000E+00 -0.45593999997E+02  0.45594000000E+02  0.51100000000E-03 0.  1.
         23    2    1    2    0    0  0.44408920985E-15 -0.35527136788E-14  0.00000000000E+00  0.91188000000E+02  0.91188000000E+02 0.  0.
    9900012    2    3    3    0    0  0.10188125044E+01 -0.29640197069E+02 -0.31686654133E+02  0.47787270613E+02  0.19999998032E+02 0.  0.
         12    1    3    3    0    0 -0.10188125044E+01  0.29640197069E+02  0.31686654133E+02  0.43400729387E+02  0.00000000000E+00 0. -1.
         11    1    4    4    0    0  0.45671019853E+01  0.50159988206E-02 -0.31554029576E+01  0.55511272540E+01  0.51100000000E-03 0.  1.
        -11    1    4    4    0    0  0.98226405971E+00 -0.20834062519E+01 -0.57433601579E+01  0.61880215302E+01  0.51100000000E-03 0. -1.
        -12    1    4    4    0    0 -0.45305535406E+01 -0.27561806816E+02 -0.22787891017E+02  0.36048121829E+02  0.00000000000E+00 0.  1.
</event>
<event>
 8    1  0.1280823E-010  0.9118800E+02  0.7816164E-02  0.1184000E+00
        -11   -1    0    0    0    0  0.00000000000E+00  0.00000000000E+00  0.45593999997E+02  0.45594000000E+02  0.51100000000E-03 0. -1.
         11   -1    0    0    0    0 -0.00000000000E+00 -0.00000000000E+00 -0.45593999997E+02  0.45594000000E+02  0.51100000000E-03 0.  1.
         23    2    1    2    0    0  0.00000000000E+00 -0.17763568394E-14  0.00000000000E+00  0.91188000000E+02  0.91188000000E+02 0.  0.
    9900012    2    3    3    0    0 -0.30999853584E+02 -0.15450339309E+02  0.26151849738E+02  0.47787272452E+02  0.20000006417E+02 0.  0.
        -12    1    3    3    0    0  0.30999853584E+02  0.15450339309E+02 -0.26151849738E+02  0.43400727548E+02  0.00000000000E+00 0.  1.
         11    1    4    4    0    0 -0.17409097381E+02 -0.10693591879E+02  0.11410467371E+02  0.23401460313E+02  0.51100000000E-03 0.  1.
        -11    1    4    4    0    0 -0.10050265867E+02 -0.10778144865E+01  0.15311705910E+01  0.10223209462E+02  0.51100000000E-03 0. -1.
        -12    1    4    4    0    0 -0.35404903360E+01 -0.36789329437E+01  0.13210211775E+02  0.14162602677E+02  0.00000000000E+00 0.  1.
</event>
<event>
 8    1  0.1280823E-010  0.9118800E+02  0.7816164E-02  0.1184000E+00
        -11   -1    0    0    0    0  0.00000000000E+00  0.00000000000E+00  0.45593999997E+02  0.45594000000E+02  0.51100000000E-03 0.  1.
         11   -1    0    0    0    0 -0.00000000000E+00 -0.00000000000E+00 -0.45593999997E+02  0.45594000000E+02  0.51100000000E-03 0. -1.
         23    2    1    2    0    0  0.00000000000E+00  0.00000000000E+00  0.35527136788E-14  0.91188000000E+02  0.91188000000E+02 0.  0.
    9900012    2    3    3    0    0 -0.33192755665E+02  0.88501825544E+01 -0.26524302227E+02  0.47787269954E+02  0.19999995029E+02 0.  0.
         12    1    3    3    0    0  0.33192755665E+02 -0.88501825544E+01  0.26524302227E+02  0.43400730046E+02  0.00000000000E+00 0. -1.
         11    1    4    4    0    0 -0.11018182262E+02  0.40198479901E+01 -0.11343695429E+02  0.16316830098E+02  0.51100000000E-03 0. -1.
        -11    1    4    4    0    0 -0.49166353168E+00 -0.31106721690E+01 -0.56929810899E+01  0.65060009470E+01  0.51100000000E-03 0.  1.
        -12    1    4    4    0    0 -0.21682909872E+02  0.79410067333E+01 -0.94876257083E+01  0.24964438909E+02  0.00000000000E+00 0.  1.
</event>
<event>
 8    1  0.1280823E-010  0.9118800E+02  0.7816164E-02  0.1184000E+00
        -11   -1    0    0    0    0  0.00000000000E+00  0.00000000000E+00  0.45593999997E+02  0.45594000000E+02  0.51100000000E-03 0. -1.
         11   -1    0    0    0    0 -0.00000000000E+00 -0.00000000000E+00 -0.45593999997E+02  0.45594000000E+02  0.51100000000E-03 0.  1.
         23    2    1    2    0    0  0.00000000000E+00 -0.17763568394E-14  0.00000000000E+00  0.91188000000E+02  0.91188000000E+02 0.  0.
    9900012    2    3    3    0    0 -0.31723170921E+02 -0.15280678662E+02 -0.25372525323E+02  0.47787265502E+02  0.19999974732E+02 0.  0.
         12    1    3    3    0    0  0.31723170921E+02  0.15280678662E+02  0.25372525323E+02  0.43400734498E+02  0.00000000000E+00 0. -1.
         11    1    4    4    0    0 -0.73645026855E+01  0.54083619755E+00 -0.10012697405E+01  0.74519088126E+01  0.51100000000E-03 0. -1.
        -11    1    4    4    0    0 -0.91725393739E+01 -0.61401748672E+01 -0.13706297585E+01  0.11122762794E+02  0.51100000000E-03 0.  1.
         12    1    4    4    0    0 -0.15186128862E+02 -0.96813399928E+01 -0.23000625824E+02  0.29212593896E+02  0.00000000000E+00 0. -1.
</event>
<event>
 8    1  0.1280823E-010  0.9118800E+02  0.7816164E-02  0.1184000E+00
        -11   -1    0    0    0    0  0.00000000000E+00  0.00000000000E+00  0.45593999997E+02  0.45594000000E+02  0.51100000000E-03 0. -1.
         11   -1    0    0    0    0 -0.00000000000E+00 -0.00000000000E+00 -0.45593999997E+02  0.45594000000E+02  0.51100000000E-03 0.  1.
         23    2    1    2    0    0  0.00000000000E+00 -0.35527136788E-14 -0.35527136788E-14  0.91188000000E+02  0.91188000000E+02 0.  0.
    9900012    2    3    3    0    0 -0.31807146015E+02 -0.24981125280E+02  0.15743951131E+02  0.47787272413E+02  0.20000006241E+02 0.  0.
        -12    1    3    3    0    0  0.31807146015E+02  0.24981125280E+02 -0.15743951131E+02  0.43400727587E+02  0.00000000000E+00 0.  1.
         11    1    4    4    0    0 -0.31246837007E+02 -0.19756266618E+02  0.16715000188E+02  0.40571740475E+02  0.51100000000E-03 0. -1.
        -11    1    4    4    0    0 -0.27087143664E+01 -0.25821503346E+01 -0.58932558019E+00  0.37883952763E+01  0.51100000000E-03 0.  1.
        -12    1    4    4    0    0  0.21484053588E+01 -0.26427083268E+01 -0.38172347615E+00  0.34271366618E+01  0.00000000000E+00 0.  1.
</event>
<event>
 8    1  0.1280823E-010  0.9118800E+02  0.7816164E-02  0.1184000E+00
        -11   -1    0    0    0    0  0.00000000000E+00  0.00000000000E+00  0.45593999997E+02  0.45594000000E+02  0.51100000000E-03 0.  1.
         11   -1    0    0    0    0 -0.00000000000E+00 -0.00000000000E+00 -0.45593999997E+02  0.45594000000E+02  0.51100000000E-03 0. -1.
         23    2    1    2    0    0 -0.35527136788E-14  0.00000000000E+00  0.00000000000E+00  0.91188000000E+02  0.91188000000E+02 0.  0.
    9900012    2    3    3    0    0  0.30496501207E+02 -0.27982696185E+02 -0.13059763394E+02  0.47787247800E+02  0.19999894018E+02 0.  0.
        -12    1    3    3    0    0 -0.30496501207E+02  0.27982696185E+02  0.13059763394E+02  0.43400752200E+02  0.00000000000E+00 0.  1.
         11    1    4    4    0    0  0.18263224165E+02 -0.12741925843E+02 -0.80890490483E+01  0.23692504002E+02  0.51100000000E-03 0. -1.
        -11    1    4    4    0    0  0.13177269032E+02 -0.16501753683E+02 -0.26402920457E+01  0.21281903959E+02  0.51100000000E-03 0.  1.
        -12    1    4    4    0    0 -0.94399199042E+00  0.12609833414E+01 -0.23304223001E+01  0.28128398394E+01  0.00000000000E+00 0.  1.
</event>
<event>
 8    1  0.1280823E-010  0.9118800E+02  0.7816164E-02  0.1184000E+00
        -11   -1    0    0    0    0  0.00000000000E+00  0.00000000000E+00  0.45593999997E+02  0.45594000000E+02  0.51100000000E-03 0. -1.
         11   -1    0    0    0    0 -0.00000000000E+00 -0.00000000000E+00 -0.45593999997E+02  0.45594000000E+02  0.51100000000E-03 0.  1.
         23    2    1    2    0    0  0.00000000000E+00  0.11102230246E-15  0.00000000000E+00  0.91188000000E+02  0.91188000000E+02 0.  0.
    9900012    2    3    3    0    0  0.74636542407E+01 -0.42283559986E+00 -0.42752055622E+02  0.47787272075E+02  0.20000004697E+02 0.  0.
         12    1    3    3    0    0 -0.74636542407E+01  0.42283559986E+00  0.42752055622E+02  0.43400727925E+02  0.00000000000E+00 0. -1.
         11    1    4    4    0    0  0.40744473106E+01  0.36967001907E+01 -0.58878183028E+01  0.80581088237E+01  0.51100000000E-03 0. -1.
        -11    1    4    4    0    0 -0.28369053798E+00 -0.24216405137E+01  0.19843488843E+00  0.24462624072E+01  0.51100000000E-03 0.  1.
        -12    1    4    4    0    0  0.36728974681E+01 -0.16978952769E+01 -0.37062672207E+02  0.37282900844E+02  0.00000000000E+00 0.  1.
</event>
<event>
 8    1  0.1280823E-010  0.9118800E+02  0.7816164E-02  0.1184000E+00
        -11   -1    0    0    0    0  0.00000000000E+00  0.00000000000E+00  0.45593999997E+02  0.45594000000E+02  0.51100000000E-03 0. -1.
         11   -1    0    0    0    0 -0.00000000000E+00 -0.00000000000E+00 -0.45593999997E+02  0.45594000000E+02  0.51100000000E-03 0.  1.
         23    2    1    2    0    0  0.00000000000E+00 -0.35527136788E-14  0.71054273576E-14  0.91188000000E+02  0.91188000000E+02 0.  0.
    9900012    2    3    3    0    0 -0.57342071257E+00 -0.29654702508E+02  0.31684270348E+02  0.47787272130E+02  0.20000004951E+02 0.  0.
        -12    1    3    3    0    0  0.57342071257E+00  0.29654702508E+02 -0.31684270348E+02  0.43400727870E+02  0.00000000000E+00 0.  1.
         11    1    4    4    0    0  0.77865033739E+00 -0.23005924355E+02  0.30204843054E+02  0.37976458445E+02  0.51100000000E-03 0. -1.
        -11    1    4    4    0    0 -0.31200602526E+01 -0.13596966110E+01  0.23919110737E+01  0.41599026070E+01  0.51100000000E-03 0.  1.
         12    1    4    4    0    0  0.17679892026E+01 -0.52890815413E+01 -0.91248378007E+00  0.56509110788E+01  0.00000000000E+00 0. -1.
</event>
<event>
 8    1  0.1280823E-010  0.9118800E+02  0.7816164E-02  0.1184000E+00
        -11   -1    0    0    0    0  0.00000000000E+00  0.00000000000E+00  0.45593999997E+02  0.45594000000E+02  0.51100000000E-03 0. -1.
         11   -1    0    0    0    0 -0.00000000000E+00 -0.00000000000E+00 -0.45593999997E+02  0.45594000000E+02  0.51100000000E-03 0.  1.
         23    2    1    2    0    0  0.00000000000E+00  0.00000000000E+00  0.00000000000E+00  0.91188000000E+02  0.91188000000E+02 0.  0.
    9900012    2    3    3    0    0  0.40241996206E+01  0.10118047913E+02 -0.42012550175E+02  0.47787269034E+02  0.19999990833E+02 0.  0.
         12    1    3    3    0    0 -0.40241996206E+01 -0.10118047913E+02  0.42012550175E+02  0.43400730966E+02  0.00000000000E+00 0. -1.
         11    1    4    4    0    0  0.79406238759E+01  0.68559826971E+01 -0.10876665125E+02  0.15111580023E+02  0.51100000000E-03 0. -1.
        -11    1    4    4    0    0  0.60821035378E+00 -0.11141493548E+01 -0.44371484395E+00  0.13446678933E+01  0.51100000000E-03 0.  1.
        -12    1    4    4    0    0 -0.45246346091E+01  0.43762145711E+01 -0.30692170206E+02  0.31331021118E+02  0.00000000000E+00 0.  1.
</event>
<event>
 8    1  0.1280823E-010  0.9118800E+02  0.7816164E-02  0.1184000E+00
        -11   -1    0    0    0    0  0.00000000000E+00  0.00000000000E+00  0.45593999997E+02  0.45594000000E+02  0.51100000000E-03 0. -1.
         11   -1    0    0    0    0 -0.00000000000E+00 -0.00000000000E+00 -0.45593999997E+02  0.45594000000E+02  0.51100000000E-03 0.  1.
         23    2    1    2    0    0 -0.17763568394E-14  0.00000000000E+00  0.00000000000E+00  0.91188000000E+02  0.91188000000E+02 0.  0.
    9900012    2    3    3    0    0 -0.14831483800E+02  0.11236915454E+02 -0.39209465881E+02  0.47787269645E+02  0.19999993619E+02 0.  0.
         12    1    3    3    0    0  0.14831483800E+02 -0.11236915454E+02  0.39209465881E+02  0.43400730355E+02  0.00000000000E+00 0. -1.
         11    1    4    4    0    0 -0.11643514049E+02  0.88363622315E+01 -0.14192312213E+02  0.20373375840E+02  0.51100000000E-03 0. -1.
        -11    1    4    4    0    0 -0.55136461079E+01  0.51895867196E+01 -0.17347134953E+02  0.18927630466E+02  0.51100000000E-03 0.  1.
         12    1    4    4    0    0  0.23256763566E+01 -0.27890334970E+01 -0.76700187157E+01  0.84862633392E+01  0.00000000000E+00 0. -1.
</event>
<event>
 8    1  0.1280823E-010  0.9118800E+02  0.7816164E-02  0.1184000E+00
        -11   -1    0    0    0    0  0.00000000000E+00  0.00000000000E+00  0.45593999997E+02  0.45594000000E+02  0.51100000000E-03 0.  1.
         11   -1    0    0    0    0 -0.00000000000E+00 -0.00000000000E+00 -0.45593999997E+02  0.45594000000E+02  0.51100000000E-03 0. -1.
         23    2    1    2    0    0  0.00000000000E+00  0.00000000000E+00  0.00000000000E+00  0.91188000000E+02  0.91188000000E+02 0.  0.
    9900012    2    3    3    0    0  0.18626985757E+02  0.37972508853E+02 -0.97337739894E+01  0.47787281307E+02  0.20000046793E+02 0.  0.
         12    1    3    3    0    0 -0.18626985757E+02 -0.37972508853E+02  0.97337739894E+01  0.43400718693E+02  0.00000000000E+00 0. -1.
         11    1    4    4    0    0 -0.30718517833E+01  0.54270247576E+01 -0.57317246444E-01  0.62363576409E+01  0.51100000000E-03 0. -1.
        -11    1    4    4    0    0  0.14482672947E+01  0.58915664845E+01  0.15190354254E+01  0.62542387772E+01  0.51100000000E-03 0.  1.
        -12    1    4    4    0    0  0.20250570246E+02  0.26653917611E+02 -0.11195492168E+02  0.35296684889E+02  0.00000000000E+00 0.  1.
</event>
<event>
 8    1  0.1280823E-010  0.9118800E+02  0.7816164E-02  0.1184000E+00
        -11   -1    0    0    0    0  0.00000000000E+00  0.00000000000E+00  0.45593999997E+02  0.45594000000E+02  0.51100000000E-03 0. -1.
         11   -1    0    0    0    0 -0.00000000000E+00 -0.00000000000E+00 -0.45593999997E+02  0.45594000000E+02  0.51100000000E-03 0.  1.
         23    2    1    2    0    0  0.71054273576E-14  0.88817841970E-15  0.00000000000E+00  0.91188000000E+02  0.91188000000E+02 0.  0.
    9900012    2    3    3    0    0 -0.37115804698E+02  0.46565768370E+01 -0.22008103812E+02  0.47787270748E+02  0.19999998646E+02 0.  0.
         12    1    3    3    0    0  0.37115804698E+02 -0.46565768370E+01  0.22008103812E+02  0.43400729252E+02  0.00000000000E+00 0. -1.
         11    1    4    4    0    0 -0.10488152579E+02 -0.32005495058E+01 -0.52615565376E+01  0.12162600015E+02  0.51100000000E-03 0. -1.
        -11    1    4    4    0    0 -0.24684469221E+02  0.75893522959E+01 -0.19417808616E+02  0.32310564537E+02  0.51100000000E-03 0.  1.
         12    1    4    4    0    0 -0.19431828985E+01  0.26777404690E+00  0.26712613421E+01  0.33141061955E+01  0.00000000000E+00 0. -1.
</event>
<event>
 8    1  0.1280823E-010  0.9118800E+02  0.7816164E-02  0.1184000E+00
        -11   -1    0    0    0    0  0.00000000000E+00  0.00000000000E+00  0.45593999997E+02  0.45594000000E+02  0.51100000000E-03 0. -1.
         11   -1    0    0    0    0 -0.00000000000E+00 -0.00000000000E+00 -0.45593999997E+02  0.45594000000E+02  0.51100000000E-03 0.  1.
         23    2    1    2    0    0  0.00000000000E+00  0.00000000000E+00  0.00000000000E+00  0.91188000000E+02  0.91188000000E+02 0.  0.
    9900012    2    3    3    0    0  0.31132145676E+01  0.42450802618E+02 -0.84770628845E+01  0.47787270248E+02  0.19999996370E+02 0.  0.
         12    1    3    3    0    0 -0.31132145676E+01 -0.42450802618E+02  0.84770628845E+01  0.43400729752E+02  0.00000000000E+00 0. -1.
         11    1    4    4    0    0 -0.13255846216E+01  0.96225477237E+00 -0.26464958796E+01  0.31124025347E+01  0.51100000000E-03 0. -1.
        -11    1    4    4    0    0  0.30349187675E+01  0.11188482790E+01  0.15909179679E+01  0.36046599893E+01  0.51100000000E-03 0.  1.
        -12    1    4    4    0    0  0.14038804217E+01  0.40369699566E+02 -0.74214849727E+01  0.41070207724E+02  0.00000000000E+00 0.  1.
</event>
<event>
 8    1  0.1280823E-010  0.9118800E+02  0.7816164E-02  0.1184000E+00
        -11   -1    0    0    0    0  0.00000000000E+00  0.00000000000E+00  0.45593999997E+02  0.45594000000E+02  0.51100000000E-03 0. -1.
         11   -1    0    0    0    0 -0.00000000000E+00 -0.00000000000E+00 -0.45593999997E+02  0.45594000000E+02  0.51100000000E-03 0.  1.
         23    2    1    2    0    0  0.00000000000E+00 -0.17763568394E-14  0.00000000000E+00  0.91188000000E+02  0.91188000000E+02 0.  0.
    9900012    2    3    3    0    0 -0.37264762564E+02 -0.12906069889E+02  0.18121655705E+02  0.47787267582E+02  0.19999984214E+02 0.  0.
        -12    1    3    3    0    0  0.37264762564E+02  0.12906069889E+02 -0.18121655705E+02  0.43400732418E+02  0.00000000000E+00 0.  1.
         11    1    4    4    0    0 -0.13721021162E+02 -0.70632662687E+01  0.10246082418E+02  0.18523994097E+02  0.51100000000E-03 0. -1.
        -11    1    4    4    0    0 -0.17863045339E+02 -0.10601573129E+02  0.57015733506E+01  0.21540419692E+02  0.51100000000E-03 0.  1.
        -12    1    4    4    0    0 -0.56806960631E+01  0.47587695079E+01  0.21739999358E+01  0.77228537932E+01  0.00000000000E+00 0.  1.
</event>
<event>
 8    1  0.1280823E-010  0.9118800E+02  0.7816164E-02  0.1184000E+00
        -11   -1    0    0    0    0  0.00000000000E+00  0.00000000000E+00  0.45593999997E+02  0.45594000000E+02  0.51100000000E-03 0. -1.
         11   -1    0    0    0    0 -0.00000000000E+00 -0.00000000000E+00 -0.45593999997E+02  0.45594000000E+02  0.51100000000E-03 0.  1.
         23    2    1    2    0    0 -0.71054273576E-14  0.00000000000E+00  0.00000000000E+00  0.91188000000E+02  0.91188000000E+02 0.  0.
    9900012    2    3    3    0    0  0.20667338031E+02  0.19837904345E+02 -0.32602798354E+02  0.47787265322E+02  0.19999973908E+02 0.  0.
         12    1    3    3    0    0 -0.20667338031E+02 -0.19837904345E+02  0.32602798354E+02  0.43400734678E+02  0.00000000000E+00 0. -1.
         11    1    4    4    0    0  0.16844968049E+02  0.16364196158E+02 -0.23486015326E+02  0.33213442770E+02  0.51100000000E-03 0. -1.
        -11    1    4    4    0    0  0.11422723026E+01  0.67930099410E+01 -0.42156012272E+01  0.80759559211E+01  0.51100000000E-03 0.  1.
         12    1    4    4    0    0  0.26800976793E+01 -0.33193017540E+01 -0.49011818009E+01  0.64978666307E+01  0.00000000000E+00 0. -1.
</event>
<event>
 8    1  0.1280823E-010  0.9118800E+02  0.7816164E-02  0.1184000E+00
        -11   -1    0    0    0    0  0.00000000000E+00  0.00000000000E+00  0.45593999997E+02  0.45594000000E+02  0.51100000000E-03 0. -1.
         11   -1    0    0    0    0 -0.00000000000E+00 -0.00000000000E+00 -0.45593999997E+02  0.45594000000E+02  0.51100000000E-03 0.  1.
         23    2    1    2    0    0  0.00000000000E+00  0.00000000000E+00  0.00000000000E+00  0.91188000000E+02  0.91188000000E+02 0.  0.
    9900012    2    3    3    0    0 -0.23387879221E+02  0.36215219675E+02  0.50088228602E+01  0.47787270317E+02  0.19999996684E+02 0.  0.
         12    1    3    3    0    0  0.23387879221E+02 -0.36215219675E+02 -0.50088228602E+01  0.43400729683E+02  0.00000000000E+00 0. -1.
         11    1    4    4    0    0 -0.60430083939E+01  0.17439409441E+02  0.79487832772E+01  0.20095624099E+02  0.51100000000E-03 0. -1.
        -11    1    4    4    0    0 -0.64014418195E+01  0.36237736981E+01  0.31949437085E+01  0.80198415661E+01  0.51100000000E-03 0.  1.
        -12    1    4    4    0    0 -0.10943429007E+02  0.15152036536E+02 -0.61349041255E+01  0.19671804652E+02  0.00000000000E+00 0.  1.
</event>
<event>
 8    1  0.1280823E-010  0.9118800E+02  0.7816164E-02  0.1184000E+00
        -11   -1    0    0    0    0  0.00000000000E+00  0.00000000000E+00  0.45593999997E+02  0.45594000000E+02  0.51100000000E-03 0.  1.
         11   -1    0    0    0    0 -0.00000000000E+00 -0.00000000000E+00 -0.45593999997E+02  0.45594000000E+02  0.51100000000E-03 0. -1.
         23    2    1    2    0    0 -0.35527136788E-14  0.00000000000E+00  0.00000000000E+00  0.91188000000E+02  0.91188000000E+02 0.  0.
    9900012    2    3    3    0    0  0.29832853181E+02  0.20540366140E+02 -0.23910620158E+02  0.47787268135E+02  0.19999986733E+02 0.  0.
         12    1    3    3    0    0 -0.29832853181E+02 -0.20540366140E+02  0.23910620158E+02  0.43400731865E+02  0.00000000000E+00 0. -1.
         11    1    4    4    0    0 -0.12075700187E+01  0.27779036933E+01 -0.56759416273E+01  0.64336061348E+01  0.51100000000E-03 0. -1.
        -11    1    4    4    0    0  0.14576802789E+01  0.29282272733E+01  0.52469060969E+00  0.33128005157E+01  0.51100000000E-03 0.  1.
        -12    1    4    4    0    0  0.29582742921E+02  0.14834235173E+02 -0.18759369140E+02  0.38040861484E+02  0.00000000000E+00 0.  1.
</event>
<event>
 8    1  0.1280823E-010  0.9118800E+02  0.7816164E-02  0.1184000E+00
        -11   -1    0    0    0    0  0.00000000000E+00  0.00000000000E+00  0.45593999997E+02  0.45594000000E+02  0.51100000000E-03 0. -1.
         11   -1    0    0    0    0 -0.00000000000E+00 -0.00000000000E+00 -0.45593999997E+02  0.45594000000E+02  0.51100000000E-03 0.  1.
         23    2    1    2    0    0  0.00000000000E+00  0.00000000000E+00  0.00000000000E+00  0.91188000000E+02  0.91188000000E+02 0.  0.
    9900012    2    3    3    0    0 -0.16880631831E+02 -0.16480096360E+02 -0.36429017857E+02  0.47787278243E+02  0.20000032821E+02 0.  0.
         12    1    3    3    0    0  0.16880631831E+02  0.16480096360E+02  0.36429017857E+02  0.43400721757E+02  0.00000000000E+00 0. -1.
         11    1    4    4    0    0 -0.56446725484E+00 -0.52517859423E+01 -0.11003744084E+02  0.12205829058E+02  0.51100000000E-03 0. -1.
        -11    1    4    4    0    0 -0.12981147836E+02 -0.96738088692E+01 -0.27077411305E+02  0.31548042418E+02  0.51100000000E-03 0.  1.
         12    1    4    4    0    0 -0.33350167396E+01 -0.15545015483E+01  0.16521375326E+01  0.40334067665E+01  0.00000000000E+00 0. -1.
</event>
<event>
 8    1  0.1280823E-010  0.9118800E+02  0.7816164E-02  0.1184000E+00
        -11   -1    0    0    0    0  0.00000000000E+00  0.00000000000E+00  0.45593999997E+02  0.45594000000E+02  0.51100000000E-03 0. -1.
         11   -1    0    0    0    0 -0.00000000000E+00 -0.00000000000E+00 -0.45593999997E+02  0.45594000000E+02  0.51100000000E-03 0.  1.
         23    2    1    2    0    0  0.00000000000E+00  0.00000000000E+00  0.00000000000E+00  0.91188000000E+02  0.91188000000E+02 0.  0.
    9900012    2    3    3    0    0 -0.17276117255E+02  0.80076221592E+01 -0.39000472553E+02  0.47787273054E+02  0.20000009163E+02 0.  0.
         12    1    3    3    0    0  0.17276117255E+02 -0.80076221592E+01  0.39000472553E+02  0.43400726946E+02  0.00000000000E+00 0. -1.
         11    1    4    4    0    0 -0.12326151493E+02 -0.40957365169E+01 -0.20705166207E+02  0.24442032979E+02  0.51100000000E-03 0. -1.
        -11    1    4    4    0    0 -0.22225383805E+01  0.69386018902E+00 -0.12201526783E+01  0.26286672733E+01  0.51100000000E-03 0.  1.
         12    1    4    4    0    0 -0.27274273812E+01  0.11409498487E+02 -0.17075153669E+02  0.20716572802E+02  0.00000000000E+00 0. -1.
</event>
<event>
 8    1  0.1280823E-010  0.9118800E+02  0.7816164E-02  0.1184000E+00
        -11   -1    0    0    0    0  0.00000000000E+00  0.00000000000E+00  0.45593999997E+02  0.45594000000E+02  0.51100000000E-03 0. -1.
         11   -1    0    0    0    0 -0.00000000000E+00 -0.00000000000E+00 -0.45593999997E+02  0.45594000000E+02  0.51100000000E-03 0.  1.
         23    2    1    2    0    0  0.00000000000E+00  0.00000000000E+00  0.00000000000E+00  0.91188000000E+02  0.91188000000E+02 0.  0.
    9900012    2    3    3    0    0  0.96129412794E+01 -0.24111738570E+02 -0.34782734459E+02  0.47787271972E+02  0.20000004231E+02 0.  0.
         12    1    3    3    0    0 -0.96129412794E+01  0.24111738570E+02  0.34782734459E+02  0.43400728028E+02  0.00000000000E+00 0. -1.
         11    1    4    4    0    0  0.36369532815E+00 -0.53553938385E+01 -0.42636507116E+01  0.68550153252E+01  0.51100000000E-03 0. -1.
        -11    1    4    4    0    0  0.53260386013E+01  0.22988605642E+01 -0.54441557684E+01  0.79555187995E+01  0.51100000000E-03 0.  1.
        -12    1    4    4    0    0  0.39232073499E+01 -0.21055205295E+02 -0.25074927979E+02  0.32976737848E+02  0.00000000000E+00 0.  1.
</event>
<event>
 8    1  0.1590653E-010  0.9118800E+02  0.7816164E-02  0.1184000E+00
        -11   -1    0    0    0    0  0.00000000000E+00  0.00000000000E+00  0.45593999997E+02  0.45594000000E+02  0.51100000000E-03 0. -1.
         11   -1    0    0    0    0 -0.00000000000E+00 -0.00000000000E+00 -0.45593999997E+02  0.45594000000E+02  0.51100000000E-03 0.  1.
         23    2    1    2    0    0  0.00000000000E+00  0.35527136788E-14  0.35527136788E-14  0.91188000000E+02  0.91188000000E+02 0.  0.
    9900012    2    3    3    0    0 -0.74994020522E+01 -0.31305881501E+02 -0.29108835496E+02  0.47787267845E+02  0.19999985410E+02 0.  0.
         12    1    3    3    0    0  0.74994020522E+01  0.31305881501E+02  0.29108835496E+02  0.43400732155E+02  0.00000000000E+00 0. -1.
         11    1    4    4    0    0 -0.46997256984E+01 -0.14689184969E+00 -0.66969748702E+01  0.81828156236E+01  0.51100000000E-03 0. -1.
        -11    1    4    4    0    0 -0.21675091088E+01 -0.33980209776E+01 -0.18251643276E+00  0.40345947517E+01  0.51100000000E-03 0.  1.
        -12    1    4    4    0    0 -0.63216724492E+00 -0.27760968674E+02 -0.22229344193E+02  0.35569857469E+02  0.00000000000E+00 0.  1.
</event>
<event>
 8    1  0.1280823E-010  0.9118800E+02  0.7816164E-02  0.1184000E+00
        -11   -1    0    0    0    0  0.00000000000E+00  0.00000000000E+00  0.45593999997E+02  0.45594000000E+02  0.51100000000E-03 0. -1.
         11   -1    0    0    0    0 -0.00000000000E+00 -0.00000000000E+00 -0.45593999997E+02  0.45594000000E+02  0.51100000000E-03 0.  1.
         23    2    1    2    0    0  0.00000000000E+00  0.16653345369E-15  0.88817841970E-15  0.91188000000E+02  0.91188000000E+02 0.  0.
    9900012    2    3    3    0    0 -0.43182451595E+02 -0.45643264767E+00 -0.43232563750E+01  0.47787274174E+02  0.20000014270E+02 0.  0.
         12    1    3    3    0    0  0.43182451595E+02  0.45643264767E+00  0.43232563750E+01  0.43400725826E+02  0.00000000000E+00 0. -1.
         11    1    4    4    0    0 -0.10225039821E+02  0.67481232496E+00  0.41350180555E+01  0.11050121520E+02  0.51100000000E-03 0. -1.
        -11    1    4    4    0    0 -0.16905266644E+02  0.21493288571E+01  0.22129580695E+01  0.17184435938E+02  0.51100000000E-03 0.  1.
        -12    1    4    4    0    0 -0.16052145130E+02 -0.32805738298E+01 -0.10671232500E+02  0.19552716716E+02  0.00000000000E+00 0.  1.
</event>
<event>
 8    1  0.1280823E-010  0.9118800E+02  0.7816164E-02  0.1184000E+00
        -11   -1    0    0    0    0  0.00000000000E+00  0.00000000000E+00  0.45593999997E+02  0.45594000000E+02  0.51100000000E-03 0. -1.
         11   -1    0    0    0    0 -0.00000000000E+00 -0.00000000000E+00 -0.45593999997E+02  0.45594000000E+02  0.51100000000E-03 0.  1.
         23    2    1    2    0    0 -0.35527136788E-14  0.00000000000E+00 -0.35527136788E-14  0.91188000000E+02  0.91188000000E+02 0.  0.
    9900012    2    3    3    0    0 -0.23327131697E+02  0.22510490525E+02 -0.28857336167E+02  0.47787272961E+02  0.20000008737E+02 0.  0.
         12    1    3    3    0    0  0.23327131697E+02 -0.22510490525E+02  0.28857336167E+02  0.43400727039E+02  0.00000000000E+00 0. -1.
         11    1    4    4    0    0 -0.12798827918E+02  0.78869063312E+01 -0.64354495594E+01  0.16353235119E+02  0.51100000000E-03 0.  1.
        -11    1    4    4    0    0 -0.10817181171E+02  0.14046229011E+02 -0.12985750960E+02  0.21975843241E+02  0.51100000000E-03 0. -1.
         12    1    4    4    0    0  0.28887739181E+00  0.57735518332E+00 -0.94361356475E+01  0.94581946011E+01  0.00000000000E+00 0. -1.
</event>
<event>
 8    1  0.1280823E-010  0.9118800E+02  0.7816164E-02  0.1184000E+00
        -11   -1    0    0    0    0  0.00000000000E+00  0.00000000000E+00  0.45593999997E+02  0.45594000000E+02  0.51100000000E-03 0. -1.
         11   -1    0    0    0    0 -0.00000000000E+00 -0.00000000000E+00 -0.45593999997E+02  0.45594000000E+02  0.51100000000E-03 0.  1.
         23    2    1    2    0    0  0.00000000000E+00  0.00000000000E+00  0.00000000000E+00  0.91188000000E+02  0.91188000000E+02 0.  0.
    9900012    2    3    3    0    0  0.66925043375E+01 -0.39539303722E+02  0.16597504100E+02  0.47787270796E+02  0.19999998866E+02 0.  0.
        -12    1    3    3    0    0 -0.66925043375E+01  0.39539303722E+02 -0.16597504100E+02  0.43400729204E+02  0.00000000000E+00 0.  1.
         11    1    4    4    0    0 -0.39078060496E+01 -0.87764550635E+01  0.71274994617E+01  0.11962372693E+02  0.51100000000E-03 0. -1.
        -11    1    4    4    0    0  0.55536984544E+01 -0.45204013922E+01  0.49917254922E+01  0.87289700950E+01  0.51100000000E-03 0.  1.
         12    1    4    4    0    0  0.50466119327E+01 -0.26242447266E+02  0.44782791465E+01  0.27095928008E+02  0.00000000000E+00 0. -1.
</event>
<event>
 8    1  0.1280823E-010  0.9118800E+02  0.7816164E-02  0.1184000E+00
        -11   -1    0    0    0    0  0.00000000000E+00  0.00000000000E+00  0.45593999997E+02  0.45594000000E+02  0.51100000000E-03 0. -1.
         11   -1    0    0    0    0 -0.00000000000E+00 -0.00000000000E+00 -0.45593999997E+02  0.45594000000E+02  0.51100000000E-03 0.  1.
         23    2    1    2    0    0  0.17763568394E-14  0.00000000000E+00 -0.71054273576E-14  0.91188000000E+02  0.91188000000E+02 0.  0.
    9900012    2    3    3    0    0 -0.15473108888E+02  0.26332095634E+02  0.30835479915E+02  0.47787272118E+02  0.20000004894E+02 0.  0.
        -12    1    3    3    0    0  0.15473108888E+02 -0.26332095634E+02 -0.30835479915E+02  0.43400727882E+02  0.00000000000E+00 0.  1.
         11    1    4    4    0    0 -0.61765316891E+01  0.19558565471E+02  0.20453539683E+02  0.28966089015E+02  0.51100000000E-03 0. -1.
        -11    1    4    4    0    0  0.23016363491E+01  0.44092318792E+00  0.25362426207E+01  0.34531825949E+01  0.51100000000E-03 0.  1.
         12    1    4    4    0    0 -0.11598213548E+02  0.63326069747E+01  0.78456976111E+01  0.15368000508E+02  0.00000000000E+00 0. -1.
</event>
<event>
 8    1  0.1280823E-010  0.9118800E+02  0.7816164E-02  0.1184000E+00
        -11   -1    0    0    0    0  0.00000000000E+00  0.00000000000E+00  0.45593999997E+02  0.45594000000E+02  0.51100000000E-03 0. -1.
         11   -1    0    0    0    0 -0.00000000000E+00 -0.00000000000E+00 -0.45593999997E+02  0.45594000000E+02  0.51100000000E-03 0.  1.
         23    2    1    2    0    0  0.71054273576E-14  0.44408920985E-15  0.00000000000E+00  0.91188000000E+02  0.91188000000E+02 0.  0.
    9900012    2    3    3    0    0 -0.39913278793E+02 -0.10009400176E+01  0.17016214640E+02  0.47787271140E+02  0.20000000437E+02 0.  0.
        -12    1    3    3    0    0  0.39913278793E+02  0.10009400176E+01 -0.17016214640E+02  0.43400728860E+02  0.00000000000E+00 0.  1.
         11    1    4    4    0    0 -0.28196542398E+01  0.27172121762E+01  0.35574868772E+01  0.52905014115E+01  0.51100000000E-03 0. -1.
        -11    1    4    4    0    0 -0.27136985384E+02  0.12409332750E+01  0.31788356237E+01  0.27350701770E+02  0.51100000000E-03 0.  1.
         12    1    4    4    0    0 -0.99566391687E+01 -0.49590854688E+01  0.10279892139E+02  0.15146067959E+02  0.00000000000E+00 0. -1.
</event>
<event>
 8    1  0.1280823E-010  0.9118800E+02  0.7816164E-02  0.1184000E+00
        -11   -1    0    0    0    0  0.00000000000E+00  0.00000000000E+00  0.45593999997E+02  0.45594000000E+02  0.51100000000E-03 0. -1.
         11   -1    0    0    0    0 -0.00000000000E+00 -0.00000000000E+00 -0.45593999997E+02  0.45594000000E+02  0.51100000000E-03 0.  1.
         23    2    1    2    0    0  0.17763568394E-14 -0.44408920985E-15  0.71054273576E-14  0.91188000000E+02  0.91188000000E+02 0.  0.
    9900012    2    3    3    0    0  0.81322519691E+01  0.21479332503E+01  0.42577882125E+02  0.47787272061E+02  0.20000004637E+02 0.  0.
        -12    1    3    3    0    0 -0.81322519691E+01 -0.21479332503E+01 -0.42577882125E+02  0.43400727939E+02  0.00000000000E+00 0.  1.
         11    1    4    4    0    0 -0.21849223605E+00 -0.26114752204E+01  0.12293423975E+02  0.12569638617E+02  0.51100000000E-03 0. -1.
        -11    1    4    4    0    0  0.30821713917E+01 -0.12305299447E+01 -0.55350856396E+00  0.33645737358E+01  0.51100000000E-03 0.  1.
        -12    1    4    4    0    0  0.52685728135E+01  0.59899384154E+01  0.30837966714E+02  0.31853059708E+02  0.00000000000E+00 0.  1.
</event>
<event>
 8    1  0.1758852E-010  0.9118800E+02  0.7816164E-02  0.1184000E+00
        -11   -1    0    0    0    0  0.00000000000E+00  0.00000000000E+00  0.45593999997E+02  0.45594000000E+02  0.51100000000E-03 0. -1.
         11   -1    0    0    0    0 -0.00000000000E+00 -0.00000000000E+00 -0.45593999997E+02  0.45594000000E+02  0.51100000000E-03 0.  1.
         23    2    1    2    0    0  0.00000000000E+00  0.00000000000E+00  0.00000000000E+00  0.91188000000E+02  0.91188000000E+02 0.  0.
    9900012    2    3    3    0    0  0.19593339824E+02 -0.21994148778E+02 -0.31874467082E+02  0.47787271922E+02  0.20000004001E+02 0.  0.
         12    1    3    3    0    0 -0.19593339824E+02  0.21994148778E+02  0.31874467082E+02  0.43400728078E+02  0.00000000000E+00 0. -1.
         11    1    4    4    0    0  0.11196743400E+01 -0.99650371235E+01 -0.34304983072E+01  0.10598299599E+02  0.51100000000E-03 0. -1.
        -11    1    4    4    0    0  0.45298493726E+00  0.18832158743E-01  0.72020018186E+00  0.85102207178E+00  0.51100000000E-03 0.  1.
        -12    1    4    4    0    0  0.18020680546E+02 -0.12047943814E+02 -0.29164168957E+02  0.36337950251E+02  0.00000000000E+00 0.  1.
</event>
<event>
 8    1  0.1280823E-010  0.9118800E+02  0.7816164E-02  0.1184000E+00
        -11   -1    0    0    0    0  0.00000000000E+00  0.00000000000E+00  0.45593999997E+02  0.45594000000E+02  0.51100000000E-03 0. -1.
         11   -1    0    0    0    0 -0.00000000000E+00 -0.00000000000E+00 -0.45593999997E+02  0.45594000000E+02  0.51100000000E-03 0.  1.
         23    2    1    2    0    0  0.00000000000E+00  0.00000000000E+00  0.00000000000E+00  0.91188000000E+02  0.91188000000E+02 0.  0.
    9900012    2    3    3    0    0 -0.29566848657E+02 -0.12451300993E+02 -0.29229947663E+02  0.47787271017E+02  0.19999999874E+02 0.  0.
         12    1    3    3    0    0  0.29566848657E+02  0.12451300993E+02  0.29229947663E+02  0.43400728983E+02  0.00000000000E+00 0. -1.
         11    1    4    4    0    0 -0.20602038108E+01 -0.50508119368E+01 -0.53024172584E+00  0.54805380677E+01  0.51100000000E-03 0. -1.
        -11    1    4    4    0    0 -0.46078467534E+01 -0.60911865139E+01 -0.40823157153E+01  0.86602601988E+01  0.51100000000E-03 0.  1.
         12    1    4    4    0    0 -0.22898798093E+02 -0.13093025425E+01 -0.24617390221E+02  0.33646472750E+02  0.00000000000E+00 0. -1.
</event>
<event>
 8    1  0.1280823E-010  0.9118800E+02  0.7816164E-02  0.1184000E+00
        -11   -1    0    0    0    0  0.00000000000E+00  0.00000000000E+00  0.45593999997E+02  0.45594000000E+02  0.51100000000E-03 0. -1.
         11   -1    0    0    0    0 -0.00000000000E+00 -0.00000000000E+00 -0.45593999997E+02  0.45594000000E+02  0.51100000000E-03 0.  1.
         23    2    1    2    0    0 -0.71054273576E-14  0.35527136788E-14  0.35527136788E-14  0.91188000000E+02  0.91188000000E+02 0.  0.
    9900012    2    3    3    0    0  0.29790996882E+02 -0.23250565255E+02 -0.21343205795E+02  0.47787254459E+02  0.19999924381E+02 0.  0.
         12    1    3    3    0    0 -0.29790996882E+02  0.23250565255E+02  0.21343205795E+02  0.43400745541E+02  0.00000000000E+00 0. -1.
         11    1    4    4    0    0  0.12321839758E+02 -0.16319415662E+02 -0.78760824562E+01  0.21913095119E+02  0.51100000000E-03 0. -1.
        -11    1    4    4    0    0  0.12661915872E+02 -0.89916682999E+01 -0.57676118372E+01  0.16566217399E+02  0.51100000000E-03 0.  1.
        -12    1    4    4    0    0  0.48072412519E+01  0.20605187075E+01 -0.76995115018E+01  0.93079419403E+01  0.00000000000E+00 0.  1.
</event>
<event>
 8    1  0.1280823E-010  0.9118800E+02  0.7816164E-02  0.1184000E+00
        -11   -1    0    0    0    0  0.00000000000E+00  0.00000000000E+00  0.45593999997E+02  0.45594000000E+02  0.51100000000E-03 0. -1.
         11   -1    0    0    0    0 -0.00000000000E+00 -0.00000000000E+00 -0.45593999997E+02  0.45594000000E+02  0.51100000000E-03 0.  1.
         23    2    1    2    0    0  0.00000000000E+00  0.00000000000E+00  0.00000000000E+00  0.91188000000E+02  0.91188000000E+02 0.  0.
    9900012    2    3    3    0    0  0.26246510901E+02  0.18814418634E+02 -0.28995978475E+02  0.47787211404E+02  0.19999728074E+02 0.  0.
         12    1    3    3    0    0 -0.26246510901E+02 -0.18814418634E+02  0.28995978475E+02  0.43400788596E+02  0.00000000000E+00 0. -1.
         11    1    4    4    0    0  0.16225551160E+02  0.59531867477E+01 -0.18248688872E+02  0.25134112053E+02  0.51100000000E-03 0. -1.
        -11    1    4    4    0    0  0.11379057866E+02  0.10397914553E+02 -0.12038268055E+02  0.19558105302E+02  0.51100000000E-03 0.  1.
         12    1    4    4    0    0 -0.13580981246E+01  0.24633173332E+01  0.12909784521E+01  0.30949940491E+01  0.00000000000E+00 0. -1.
</event>
<event>
 8    1  0.1280823E-010  0.9118800E+02  0.7816164E-02  0.1184000E+00
        -11   -1    0    0    0    0  0.00000000000E+00  0.00000000000E+00  0.45593999997E+02  0.45594000000E+02  0.51100000000E-03 0. -1.
         11   -1    0    0    0    0 -0.00000000000E+00 -0.00000000000E+00 -0.45593999997E+02  0.45594000000E+02  0.51100000000E-03 0.  1.
         23    2    1    2    0    0  0.00000000000E+00  0.00000000000E+00 -0.35527136788E-14  0.91188000000E+02  0.91188000000E+02 0.  0.
    9900012    2    3    3    0    0 -0.18146633246E+02 -0.24400304681E+02 -0.30966882794E+02  0.47787274238E+02  0.20000014559E+02 0.  0.
         12    1    3    3    0    0  0.18146633246E+02  0.24400304681E+02  0.30966882794E+02  0.43400725762E+02  0.00000000000E+00 0. -1.
         11    1    4    4    0    0 -0.32317623936E+01 -0.82724698714E+01 -0.13752711065E+02  0.16371166967E+02  0.51100000000E-03 0.  1.
        -11    1    4    4    0    0 -0.12126432507E+02 -0.18799777457E+02 -0.15322911969E+02  0.27115929437E+02  0.51100000000E-03 0. -1.
         12    1    4    4    0    0 -0.27884383457E+01  0.26719426476E+01 -0.18912597601E+01  0.43001778336E+01  0.00000000000E+00 0. -1.
</event>
<event>
 8    1  0.1280823E-010  0.9118800E+02  0.7816164E-02  0.1184000E+00
        -11   -1    0    0    0    0  0.00000000000E+00  0.00000000000E+00  0.45593999997E+02  0.45594000000E+02  0.51100000000E-03 0. -1.
         11   -1    0    0    0    0 -0.00000000000E+00 -0.00000000000E+00 -0.45593999997E+02  0.45594000000E+02  0.51100000000E-03 0.  1.
         23    2    1    2    0    0  0.88817841970E-15  0.00000000000E+00  0.71054273576E-14  0.91188000000E+02  0.91188000000E+02 0.  0.
    9900012    2    3    3    0    0 -0.18178130173E+01 -0.23027512680E+02 -0.36743045266E+02  0.47787283878E+02  0.20000058515E+02 0.  0.
         12    1    3    3    0    0  0.18178130173E+01  0.23027512680E+02  0.36743045266E+02  0.43400716122E+02  0.00000000000E+00 0. -1.
         11    1    4    4    0    0 -0.14176294052E+01 -0.21970315209E+01 -0.10075149036E+01  0.28020897874E+01  0.51100000000E-03 0. -1.
        -11    1    4    4    0    0 -0.70548970057E+01 -0.19210427337E+02 -0.26221137068E+02  0.33261992118E+02  0.51100000000E-03 0.  1.
         12    1    4    4    0    0  0.66547133936E+01 -0.16200538224E+01 -0.95143932944E+01  0.11723201973E+02  0.00000000000E+00 0. -1.
</event>
<event>
 8    1  0.1280823E-010  0.9118800E+02  0.7816164E-02  0.1184000E+00
        -11   -1    0    0    0    0  0.00000000000E+00  0.00000000000E+00  0.45593999997E+02  0.45594000000E+02  0.51100000000E-03 0. -1.
         11   -1    0    0    0    0 -0.00000000000E+00 -0.00000000000E+00 -0.45593999997E+02  0.45594000000E+02  0.51100000000E-03 0.  1.
         23    2    1    2    0    0  0.00000000000E+00  0.17763568394E-14  0.00000000000E+00  0.91188000000E+02  0.91188000000E+02 0.  0.
    9900012    2    3    3    0    0 -0.31368813317E+02 -0.10819833792E+02 -0.27974114675E+02  0.47787281756E+02  0.20000048839E+02 0.  0.
         12    1    3    3    0    0  0.31368813317E+02  0.10819833792E+02  0.27974114675E+02  0.43400718244E+02  0.00000000000E+00 0. -1.
         11    1    4    4    0    0 -0.58644025694E+01 -0.44261485845E+00 -0.66754437212E+01  0.88965540827E+01  0.51100000000E-03 0. -1.
        -11    1    4    4    0    0 -0.80603955278E+01  0.48309804426E+01 -0.60994369771E+01  0.11203190608E+02  0.51100000000E-03 0.  1.
         12    1    4    4    0    0 -0.17444015220E+02 -0.15208199376E+02 -0.15199233977E+02  0.27687537065E+02  0.00000000000E+00 0. -1.
</event>
<event>
 8    1  0.1280823E-010  0.9118800E+02  0.7816164E-02  0.1184000E+00
        -11   -1    0    0    0    0  0.00000000000E+00  0.00000000000E+00  0.45593999997E+02  0.45594000000E+02  0.51100000000E-03 0. -1.
         11   -1    0    0    0    0 -0.00000000000E+00 -0.00000000000E+00 -0.45593999997E+02  0.45594000000E+02  0.51100000000E-03 0.  1.
         23    2    1    2    0    0  0.00000000000E+00  0.00000000000E+00  0.00000000000E+00  0.91188000000E+02  0.91188000000E+02 0.  0.
    9900012    2    3    3    0    0 -0.10344073605E+02 -0.32051224561E+02 -0.27374139432E+02  0.47787258483E+02  0.19999942726E+02 0.  0.
         12    1    3    3    0    0  0.10344073605E+02  0.32051224561E+02  0.27374139432E+02  0.43400741517E+02  0.00000000000E+00 0. -1.
         11    1    4    4    0    0  0.18191725800E+01 -0.46823735738E+01 -0.75060607916E+01  0.90318857405E+01  0.51100000000E-03 0. -1.
        -11    1    4    4    0    0 -0.58526204178E+01 -0.74776551620E+00 -0.30694275140E+01  0.66508423938E+01  0.51100000000E-03 0.  1.
         12    1    4    4    0    0 -0.63106257672E+01 -0.26621085471E+02 -0.16798651127E+02  0.32104530348E+02  0.00000000000E+00 0. -1.
</event>
<event>
 8    1  0.1280823E-010  0.9118800E+02  0.7816164E-02  0.1184000E+00
        -11   -1    0    0    0    0  0.00000000000E+00  0.00000000000E+00  0.45593999997E+02  0.45594000000E+02  0.51100000000E-03 0. -1.
         11   -1    0    0    0    0 -0.00000000000E+00 -0.00000000000E+00 -0.45593999997E+02  0.45594000000E+02  0.51100000000E-03 0.  1.
         23    2    1    2    0    0  0.00000000000E+00  0.71054273576E-14 -0.35527136788E-14  0.91188000000E+02  0.91188000000E+02 0.  0.
    9900012    2    3    3    0    0 -0.90895973627E+01  0.37891842443E+02 -0.19110486047E+02  0.47787272116E+02  0.20000004886E+02 0.  0.
         12    1    3    3    0    0  0.90895973627E+01 -0.37891842443E+02  0.19110486047E+02  0.43400727884E+02  0.00000000000E+00 0. -1.
         11    1    4    4    0    0  0.17717922618E+01  0.70412967607E+00 -0.38032548645E+01  0.42543852958E+01  0.51100000000E-03 0. -1.
        -11    1    4    4    0    0  0.26169138419E+01  0.10918313238E+02 -0.42420407999E+01  0.12002196150E+02  0.51100000000E-03 0.  1.
         12    1    4    4    0    0 -0.13478303466E+02  0.26269399529E+02 -0.11065190382E+02  0.31530690670E+02  0.00000000000E+00 0. -1.
</event>
<event>
 8    1  0.1280823E-010  0.9118800E+02  0.7816164E-02  0.1184000E+00
        -11   -1    0    0    0    0  0.00000000000E+00  0.00000000000E+00  0.45593999997E+02  0.45594000000E+02  0.51100000000E-03 0. -1.
         11   -1    0    0    0    0 -0.00000000000E+00 -0.00000000000E+00 -0.45593999997E+02  0.45594000000E+02  0.51100000000E-03 0.  1.
         23    2    1    2    0    0 -0.88817841970E-15  0.00000000000E+00  0.00000000000E+00  0.91188000000E+02  0.91188000000E+02 0.  0.
    9900012    2    3    3    0    0 -0.12422054607E+01 -0.10882945121E+02  0.41995730537E+02  0.47787274750E+02  0.20000016896E+02 0.  0.
        -12    1    3    3    0    0  0.12422054607E+01  0.10882945121E+02 -0.41995730537E+02  0.43400725250E+02  0.00000000000E+00 0.  1.
         11    1    4    4    0    0  0.32165448836E+01  0.27023045520E-01  0.67325866066E+01  0.74615423278E+01  0.51100000000E-03 0. -1.
        -11    1    4    4    0    0  0.45632649212E+01 -0.56413819070E+01  0.65654148888E+01  0.97853589349E+01  0.51100000000E-03 0.  1.
        -12    1    4    4    0    0 -0.90220152655E+01 -0.52685862593E+01  0.28697729041E+02  0.30540373487E+02  0.00000000000E+00 0.  1.
</event>
<event>
 8    1  0.1280823E-010  0.9118800E+02  0.7816164E-02  0.1184000E+00
        -11   -1    0    0    0    0  0.00000000000E+00  0.00000000000E+00  0.45593999997E+02  0.45594000000E+02  0.51100000000E-03 0. -1.
         11   -1    0    0    0    0 -0.00000000000E+00 -0.00000000000E+00 -0.45593999997E+02  0.45594000000E+02  0.51100000000E-03 0.  1.
         23    2    1    2    0    0  0.00000000000E+00  0.00000000000E+00 -0.35527136788E-14  0.91188000000E+02  0.91188000000E+02 0.  0.
    9900012    2    3    3    0    0  0.15118881105E+02  0.33612033747E+02  0.22918851470E+02  0.47787272688E+02  0.20000007495E+02 0.  0.
        -12    1    3    3    0    0 -0.15118881105E+02 -0.33612033747E+02 -0.22918851470E+02  0.43400727312E+02  0.00000000000E+00 0.  1.
         11    1    4    4    0    0  0.29808855158E+01  0.93434713264E+01  0.94841974149E+01  0.13643171763E+02  0.51100000000E-03 0. -1.
        -11    1    4    4    0    0  0.30798126748E+01  0.49654075275E+00  0.73537581126E+01  0.79880884741E+01  0.51100000000E-03 0.  1.
         12    1    4    4    0    0  0.90581829144E+01  0.23772021668E+02  0.60808959423E+01  0.26156012451E+02  0.00000000000E+00 0. -1.
</event>
<event>
 8    1  0.1280823E-010  0.9118800E+02  0.7816164E-02  0.1184000E+00
        -11   -1    0    0    0    0  0.00000000000E+00  0.00000000000E+00  0.45593999997E+02  0.45594000000E+02  0.51100000000E-03 0. -1.
         11   -1    0    0    0    0 -0.00000000000E+00 -0.00000000000E+00 -0.45593999997E+02  0.45594000000E+02  0.51100000000E-03 0.  1.
         23    2    1    2    0    0  0.00000000000E+00 -0.35527136788E-14  0.00000000000E+00  0.91188000000E+02  0.91188000000E+02 0.  0.
    9900012    2    3    3    0    0  0.10655636470E+02  0.25913900327E+02  0.33144391330E+02  0.47787268492E+02  0.19999988362E+02 0.  0.
        -12    1    3    3    0    0 -0.10655636470E+02 -0.25913900327E+02 -0.33144391330E+02  0.43400731508E+02  0.00000000000E+00 0.  1.
         11    1    4    4    0    0  0.10132793284E+02  0.27523553553E+02  0.28206366184E+02  0.40691750926E+02  0.51100000000E-03 0. -1.
        -11    1    4    4    0    0  0.79941976868E+00  0.10283163513E+01 -0.19564708342E+00  0.13171121924E+01  0.51100000000E-03 0.  1.
         12    1    4    4    0    0 -0.27657658208E+00 -0.26379695765E+01  0.51336722302E+01  0.57784053734E+01  0.00000000000E+00 0. -1.
</event>
<event>
 8    1  0.1280823E-010  0.9118800E+02  0.7816164E-02  0.1184000E+00
        -11   -1    0    0    0    0  0.00000000000E+00  0.00000000000E+00  0.45593999997E+02  0.45594000000E+02  0.51100000000E-03 0. -1.
         11   -1    0    0    0    0 -0.00000000000E+00 -0.00000000000E+00 -0.45593999997E+02  0.45594000000E+02  0.51100000000E-03 0.  1.
         23    2    1    2    0    0  0.13322676296E-14  0.00000000000E+00  0.00000000000E+00  0.91188000000E+02  0.91188000000E+02 0.  0.
    9900012    2    3    3    0    0  0.28953084968E+01  0.40847435506E+02 -0.14378020453E+02  0.47787271079E+02  0.20000000158E+02 0.  0.
         12    1    3    3    0    0 -0.28953084968E+01 -0.40847435506E+02  0.14378020453E+02  0.43400728921E+02  0.00000000000E+00 0. -1.
         11    1    4    4    0    0 -0.11230286864E+01  0.66523835596E+01  0.11959000896E+01  0.68516842995E+01  0.51100000000E-03 0. -1.
        -11    1    4    4    0    0  0.83327563497E+01  0.16737110389E+02 -0.28650269494E+01  0.18914916659E+02  0.51100000000E-03 0.  1.
         12    1    4    4    0    0 -0.43144191665E+01  0.17457941558E+02 -0.12708893593E+02  0.22020670120E+02  0.00000000000E+00 0. -1.
</event>
<event>
 8    1  0.1280823E-010  0.9118800E+02  0.7816164E-02  0.1184000E+00
        -11   -1    0    0    0    0  0.00000000000E+00  0.00000000000E+00  0.45593999997E+02  0.45594000000E+02  0.51100000000E-03 0. -1.
         11   -1    0    0    0    0 -0.00000000000E+00 -0.00000000000E+00 -0.45593999997E+02  0.45594000000E+02  0.51100000000E-03 0.  1.
         23    2    1    2    0    0  0.00000000000E+00  0.00000000000E+00  0.00000000000E+00  0.91188000000E+02  0.91188000000E+02 0.  0.
    9900012    2    3    3    0    0 -0.13923214000E+02 -0.21828708337E+02  0.34832097092E+02  0.47787269781E+02  0.19999994238E+02 0.  0.
        -12    1    3    3    0    0  0.13923214000E+02  0.21828708337E+02 -0.34832097092E+02  0.43400730219E+02  0.00000000000E+00 0.  1.
         11    1    4    4    0    0 -0.50202215276E+01 -0.25809863126E+00  0.69122878280E+01  0.85468685709E+01  0.51100000000E-03 0. -1.
        -11    1    4    4    0    0  0.69287418067E+00 -0.33031603690E+00  0.95058445407E+01  0.95367847835E+01  0.51100000000E-03 0.  1.
         12    1    4    4    0    0 -0.95958666529E+01 -0.21240293669E+02  0.18413964723E+02  0.29703616426E+02  0.00000000000E+00 0. -1.
</event>
<event>
 8    1  0.1280823E-010  0.9118800E+02  0.7816164E-02  0.1184000E+00
        -11   -1    0    0    0    0  0.00000000000E+00  0.00000000000E+00  0.45593999997E+02  0.45594000000E+02  0.51100000000E-03 0. -1.
         11   -1    0    0    0    0 -0.00000000000E+00 -0.00000000000E+00 -0.45593999997E+02  0.45594000000E+02  0.51100000000E-03 0.  1.
         23    2    1    2    0    0  0.00000000000E+00  0.35527136788E-14  0.00000000000E+00  0.91188000000E+02  0.91188000000E+02 0.  0.
    9900012    2    3    3    0    0 -0.29059117622E+02 -0.31612702394E+02  0.63109328848E+01  0.47787272546E+02  0.20000006848E+02 0.  0.
        -12    1    3    3    0    0  0.29059117622E+02  0.31612702394E+02 -0.63109328848E+01  0.43400727454E+02  0.00000000000E+00 0.  1.
         11    1    4    4    0    0 -0.12901793700E+02 -0.14381005333E+02 -0.38801784090E+01  0.19705973201E+02  0.51100000000E-03 0. -1.
        -11    1    4    4    0    0 -0.15143028234E+01  0.12251147270E-01 -0.19006165466E+01  0.24301453968E+01  0.51100000000E-03 0.  1.
         12    1    4    4    0    0 -0.14643021099E+02 -0.17243948208E+02  0.12091727840E+02  0.25651153948E+02  0.00000000000E+00 0. -1.
</event>
<event>
 8    1  0.1280823E-010  0.9118800E+02  0.7816164E-02  0.1184000E+00
        -11   -1    0    0    0    0  0.00000000000E+00  0.00000000000E+00  0.45593999997E+02  0.45594000000E+02  0.51100000000E-03 0.  1.
         11   -1    0    0    0    0 -0.00000000000E+00 -0.00000000000E+00 -0.45593999997E+02  0.45594000000E+02  0.51100000000E-03 0. -1.
         23    2    1    2    0    0  0.35527136788E-14  0.35527136788E-14  0.00000000000E+00  0.91188000000E+02  0.91188000000E+02 0.  0.
    9900012    2    3    3    0    0 -0.26824961186E+02  0.28635444342E+02 -0.18548746879E+02  0.47787271595E+02  0.20000002511E+02 0.  0.
         12    1    3    3    0    0  0.26824961186E+02 -0.28635444342E+02  0.18548746879E+02  0.43400728405E+02  0.00000000000E+00 0. -1.
         11    1    4    4    0    0 -0.21358428233E+02  0.20007287722E+02 -0.18242831324E+02  0.34485865417E+02  0.51100000000E-03 0. -1.
        -11    1    4    4    0    0 -0.40490179197E+01  0.95972619598E+01 -0.23026246736E+01  0.10667898757E+02  0.51100000000E-03 0.  1.
         12    1    4    4    0    0 -0.14175150335E+01 -0.96910534010E+00  0.19967091192E+01  0.26335074212E+01  0.00000000000E+00 0. -1.
</event>
<event>
 8    1  0.1280823E-010  0.9118800E+02  0.7816164E-02  0.1184000E+00
        -11   -1    0    0    0    0  0.00000000000E+00  0.00000000000E+00  0.45593999997E+02  0.45594000000E+02  0.51100000000E-03 0. -1.
         11   -1    0    0    0    0 -0.00000000000E+00 -0.00000000000E+00 -0.45593999997E+02  0.45594000000E+02  0.51100000000E-03 0.  1.
         23    2    1    2    0    0  0.00000000000E+00 -0.35527136788E-14  0.35527136788E-14  0.91188000000E+02  0.91188000000E+02 0.  0.
    9900012    2    3    3    0    0 -0.16416346344E+02 -0.25700633699E+02  0.30880461403E+02  0.47787286915E+02  0.20000072359E+02 0.  0.
        -12    1    3    3    0    0  0.16416346344E+02  0.25700633699E+02 -0.30880461403E+02  0.43400713085E+02  0.00000000000E+00 0.  1.
         11    1    4    4    0    0 -0.59813984886E+01 -0.89773296359E+01  0.21311799111E+02  0.23886447138E+02  0.51100000000E-03 0. -1.
        -11    1    4    4    0    0  0.88993933402E+00 -0.25836701279E+01  0.41919528819E+01  0.50039796735E+01  0.51100000000E-03 0.  1.
        -12    1    4    4    0    0 -0.11324887190E+02 -0.14139633935E+02  0.53767094105E+01  0.18896860103E+02  0.00000000000E+00 0.  1.
</event>
<event>
 8    1  0.1280823E-010  0.9118800E+02  0.7816164E-02  0.1184000E+00
        -11   -1    0    0    0    0  0.00000000000E+00  0.00000000000E+00  0.45593999997E+02  0.45594000000E+02  0.51100000000E-03 0. -1.
         11   -1    0    0    0    0 -0.00000000000E+00 -0.00000000000E+00 -0.45593999997E+02  0.45594000000E+02  0.51100000000E-03 0.  1.
         23    2    1    2    0    0  0.00000000000E+00  0.00000000000E+00  0.00000000000E+00  0.91188000000E+02  0.91188000000E+02 0.  0.
    9900012    2    3    3    0    0 -0.26185873684E+02 -0.24004617407E+02  0.24933942852E+02  0.47787272546E+02  0.20000006845E+02 0.  0.
        -12    1    3    3    0    0  0.26185873684E+02  0.24004617407E+02 -0.24933942852E+02  0.43400727454E+02  0.00000000000E+00 0.  1.
         11    1    4    4    0    0 -0.72667062557E+01 -0.89640531787E+00  0.26751545084E+01  0.77951917363E+01  0.51100000000E-03 0. -1.
        -11    1    4    4    0    0 -0.63211470567E+01 -0.41463818623E+01  0.13745115524E+02  0.15686860224E+02  0.51100000000E-03 0.  1.
        -12    1    4    4    0    0 -0.12598020372E+02 -0.18961830227E+02  0.85136728191E+01  0.24305220585E+02  0.00000000000E+00 0.  1.
</event>
<event>
 8    1  0.1280823E-010  0.9118800E+02  0.7816164E-02  0.1184000E+00
        -11   -1    0    0    0    0  0.00000000000E+00  0.00000000000E+00  0.45593999997E+02  0.45594000000E+02  0.51100000000E-03 0. -1.
         11   -1    0    0    0    0 -0.00000000000E+00 -0.00000000000E+00 -0.45593999997E+02  0.45594000000E+02  0.51100000000E-03 0.  1.
         23    2    1    2    0    0  0.00000000000E+00  0.00000000000E+00 -0.35527136788E-14  0.91188000000E+02  0.91188000000E+02 0.  0.
    9900012    2    3    3    0    0 -0.81669763778E+01  0.36831288116E+02 -0.21456466715E+02  0.47787271304E+02  0.20000001184E+02 0.  0.
         12    1    3    3    0    0  0.81669763778E+01 -0.36831288116E+02  0.21456466715E+02  0.43400728696E+02  0.00000000000E+00 0. -1.
         11    1    4    4    0    0 -0.24300587428E+01  0.17405129190E+02 -0.72221265971E+01  0.19000074222E+02  0.51100000000E-03 0. -1.
        -11    1    4    4    0    0  0.18930999013E+01  0.10881421037E+02 -0.71629025411E+00  0.11068072236E+02  0.51100000000E-03 0.  1.
         12    1    4    4    0    0 -0.76300175363E+01  0.85447378889E+01 -0.13518049864E+02  0.17719124846E+02  0.00000000000E+00 0. -1.
</event>
<event>
 8    1  0.1280823E-010  0.9118800E+02  0.7816164E-02  0.1184000E+00
        -11   -1    0    0    0    0  0.00000000000E+00  0.00000000000E+00  0.45593999997E+02  0.45594000000E+02  0.51100000000E-03 0. -1.
         11   -1    0    0    0    0 -0.00000000000E+00 -0.00000000000E+00 -0.45593999997E+02  0.45594000000E+02  0.51100000000E-03 0.  1.
         23    2    1    2    0    0  0.00000000000E+00  0.35527136788E-14  0.35527136788E-14  0.91188000000E+02  0.91188000000E+02 0.  0.
    9900012    2    3    3    0    0  0.22424015223E+02  0.24694471501E+02 -0.27766311382E+02  0.47787292296E+02  0.20000096895E+02 0.  0.
         12    1    3    3    0    0 -0.22424015223E+02 -0.24694471501E+02  0.27766311382E+02  0.43400707704E+02  0.00000000000E+00 0. -1.
         11    1    4    4    0    0 -0.26738471288E-01  0.18552762716E+00 -0.67797036255E+00  0.70340565814E+00  0.51100000000E-03 0. -1.
        -11    1    4    4    0    0  0.11905382155E+02  0.10989143439E+02 -0.14852117183E+01  0.16269764961E+02  0.51100000000E-03 0.  1.
        -12    1    4    4    0    0  0.10545371539E+02  0.13519800435E+02 -0.25603129301E+02  0.30814121677E+02  0.00000000000E+00 0.  1.
</event>
<event>
 8    1  0.1280823E-010  0.9118800E+02  0.7816164E-02  0.1184000E+00
        -11   -1    0    0    0    0  0.00000000000E+00  0.00000000000E+00  0.45593999997E+02  0.45594000000E+02  0.51100000000E-03 0.  1.
         11   -1    0    0    0    0 -0.00000000000E+00 -0.00000000000E+00 -0.45593999997E+02  0.45594000000E+02  0.51100000000E-03 0. -1.
         23    2    1    2    0    0  0.00000000000E+00  0.00000000000E+00  0.00000000000E+00  0.91188000000E+02  0.91188000000E+02 0.  0.
    9900012    2    3    3    0    0 -0.29212166101E+02  0.31973435389E+02  0.28234721339E+01  0.47787271737E+02  0.20000003156E+02 0.  0.
        -12    1    3    3    0    0  0.29212166101E+02 -0.31973435389E+02 -0.28234721339E+01  0.43400728263E+02  0.00000000000E+00 0.  1.
         11    1    4    4    0    0 -0.11155178404E+02  0.18808479934E+02 -0.69129457125E+00  0.21878638236E+02  0.51100000000E-03 0. -1.
        -11    1    4    4    0    0 -0.18073491893E+02  0.14741069032E+02  0.48748425502E+01  0.23826756295E+02  0.51100000000E-03 0.  1.
         12    1    4    4    0    0  0.16504195377E-01 -0.15761135762E+01 -0.13600758450E+01  0.20818772052E+01  0.00000000000E+00 0. -1.
</event>
<event>
 8    1  0.1280823E-010  0.9118800E+02  0.7816164E-02  0.1184000E+00
        -11   -1    0    0    0    0  0.00000000000E+00  0.00000000000E+00  0.45593999997E+02  0.45594000000E+02  0.51100000000E-03 0.  1.
         11   -1    0    0    0    0 -0.00000000000E+00 -0.00000000000E+00 -0.45593999997E+02  0.45594000000E+02  0.51100000000E-03 0. -1.
         23    2    1    2    0    0  0.00000000000E+00 -0.35527136788E-14 -0.35527136788E-14  0.91188000000E+02  0.91188000000E+02 0.  0.
    9900012    2    3    3    0    0  0.23070321080E+02  0.30355127347E+02  0.20735230284E+02  0.47787271366E+02  0.20000001466E+02 0.  0.
        -12    1    3    3    0    0 -0.23070321080E+02 -0.30355127347E+02 -0.20735230284E+02  0.43400728634E+02  0.00000000000E+00 0.  1.
         11    1    4    4    0    0  0.17066351420E+02  0.16776789746E+02  0.12157415314E+02  0.26842573877E+02  0.51100000000E-03 0. -1.
        -11    1    4    4    0    0  0.38448723948E+01  0.13290653719E+02  0.11008518735E+02  0.17680837226E+02  0.51100000000E-03 0.  1.
        -12    1    4    4    0    0  0.21590972656E+01  0.28768388211E+00 -0.24307037652E+01  0.32638602624E+01  0.00000000000E+00 0.  1.
</event>
<event>
 8    1  0.1414311E-010  0.9118800E+02  0.7816164E-02  0.1184000E+00
        -11   -1    0    0    0    0  0.00000000000E+00  0.00000000000E+00  0.45593999997E+02  0.45594000000E+02  0.51100000000E-03 0. -1.
         11   -1    0    0    0    0 -0.00000000000E+00 -0.00000000000E+00 -0.45593999997E+02  0.45594000000E+02  0.51100000000E-03 0.  1.
         23    2    1    2    0    0 -0.35527136788E-14 -0.35527136788E-14 -0.35527136788E-14  0.91188000000E+02  0.91188000000E+02 0.  0.
    9900012    2    3    3    0    0 -0.25395236786E+02 -0.23262011123E+02 -0.26411822279E+02  0.47787267644E+02  0.19999984498E+02 0.  0.
         12    1    3    3    0    0  0.25395236786E+02  0.23262011123E+02  0.26411822279E+02  0.43400732356E+02  0.00000000000E+00 0. -1.
         11    1    4    4    0    0 -0.95645617236E+00 -0.57733315664E+01 -0.97371812155E+01  0.11360407742E+02  0.51100000000E-03 0. -1.
        -11    1    4    4    0    0 -0.36055807142E+01 -0.45343206964E+01  0.13941707549E+01  0.59585223688E+01  0.51100000000E-03 0.  1.
        -12    1    4    4    0    0 -0.20833199899E+02 -0.12954358860E+02 -0.18068811818E+02  0.30468337533E+02  0.00000000000E+00 0.  1.
</event>
<event>
 8    1  0.1280823E-010  0.9118800E+02  0.7816164E-02  0.1184000E+00
        -11   -1    0    0    0    0  0.00000000000E+00  0.00000000000E+00  0.45593999997E+02  0.45594000000E+02  0.51100000000E-03 0. -1.
         11   -1    0    0    0    0 -0.00000000000E+00 -0.00000000000E+00 -0.45593999997E+02  0.45594000000E+02  0.51100000000E-03 0.  1.
         23    2    1    2    0    0  0.00000000000E+00  0.00000000000E+00  0.00000000000E+00  0.91188000000E+02  0.91188000000E+02 0.  0.
    9900012    2    3    3    0    0 -0.10887589003E+02  0.36737967587E+02  0.20381504697E+02  0.47787267397E+02  0.19999983372E+02 0.  0.
        -12    1    3    3    0    0  0.10887589003E+02 -0.36737967587E+02 -0.20381504697E+02  0.43400732603E+02  0.00000000000E+00 0.  1.
         11    1    4    4    0    0 -0.74733058050E+01  0.66935216474E+01  0.60758122925E+01  0.11728982350E+02  0.51100000000E-03 0. -1.
        -11    1    4    4    0    0  0.10268527076E+01 -0.52518309531E+00  0.29143980295E+01  0.31343196873E+01  0.51100000000E-03 0.  1.
        -12    1    4    4    0    0 -0.44411359058E+01  0.30569629035E+02  0.11391294375E+02  0.32923965360E+02  0.00000000000E+00 0.  1.
</event>
<event>
 8    1  0.1280823E-010  0.9118800E+02  0.7816164E-02  0.1184000E+00
        -11   -1    0    0    0    0  0.00000000000E+00  0.00000000000E+00  0.45593999997E+02  0.45594000000E+02  0.51100000000E-03 0. -1.
         11   -1    0    0    0    0 -0.00000000000E+00 -0.00000000000E+00 -0.45593999997E+02  0.45594000000E+02  0.51100000000E-03 0.  1.
         23    2    1    2    0    0  0.00000000000E+00 -0.88817841970E-15  0.00000000000E+00  0.91188000000E+02  0.91188000000E+02 0.  0.
    9900012    2    3    3    0    0 -0.31408977047E+02 -0.66867556033E+01  0.29195657474E+02  0.47787274718E+02  0.20000016750E+02 0.  0.
        -12    1    3    3    0    0  0.31408977047E+02  0.66867556033E+01 -0.29195657474E+02  0.43400725282E+02  0.00000000000E+00 0.  1.
         11    1    4    4    0    0 -0.22042111681E+01 -0.88028981261E+00  0.68416681095E+00  0.24701298578E+01  0.51100000000E-03 0. -1.
        -11    1    4    4    0    0 -0.66352586019E+01 -0.89351976747E+01  0.39381723381E+01  0.11805660330E+02  0.51100000000E-03 0.  1.
        -12    1    4    4    0    0 -0.22569507277E+02  0.31287318840E+01  0.24573318325E+02  0.33511484531E+02  0.00000000000E+00 0.  1.
</event>
<event>
 8    1  0.1280823E-010  0.9118800E+02  0.7816164E-02  0.1184000E+00
        -11   -1    0    0    0    0  0.00000000000E+00  0.00000000000E+00  0.45593999997E+02  0.45594000000E+02  0.51100000000E-03 0. -1.
         11   -1    0    0    0    0 -0.00000000000E+00 -0.00000000000E+00 -0.45593999997E+02  0.45594000000E+02  0.51100000000E-03 0.  1.
         23    2    1    2    0    0 -0.17763568394E-14  0.17763568394E-14  0.00000000000E+00  0.91188000000E+02  0.91188000000E+02 0.  0.
    9900012    2    3    3    0    0  0.14548983247E+02  0.11516326489E+02  0.39234225731E+02  0.47787272379E+02  0.20000006083E+02 0.  0.
        -12    1    3    3    0    0 -0.14548983247E+02 -0.11516326489E+02 -0.39234225731E+02  0.43400727621E+02  0.00000000000E+00 0.  1.
         11    1    4    4    0    0 -0.93414814514E+00 -0.25484006689E+01  0.41326715859E+01  0.49442849255E+01  0.51100000000E-03 0.  1.
        -11    1    4    4    0    0  0.27079634946E+01  0.38157234120E+01  0.68601820612E+00  0.47289991208E+01  0.51100000000E-03 0. -1.
        -12    1    4    4    0    0  0.12775167898E+02  0.10249003746E+02  0.34415535939E+02  0.38113988332E+02  0.00000000000E+00 0.  1.
</event>
<event>
 8    1  0.1280823E-010  0.9118800E+02  0.7816164E-02  0.1184000E+00
        -11   -1    0    0    0    0  0.00000000000E+00  0.00000000000E+00  0.45593999997E+02  0.45594000000E+02  0.51100000000E-03 0. -1.
         11   -1    0    0    0    0 -0.00000000000E+00 -0.00000000000E+00 -0.45593999997E+02  0.45594000000E+02  0.51100000000E-03 0.  1.
         23    2    1    2    0    0 -0.17763568394E-14  0.88817841970E-15  0.00000000000E+00  0.91188000000E+02  0.91188000000E+02 0.  0.
    9900012    2    3    3    0    0 -0.11239781417E+02 -0.48220370546E+01 -0.41641791082E+02  0.47787268530E+02  0.19999988533E+02 0.  0.
         12    1    3    3    0    0  0.11239781417E+02  0.48220370546E+01  0.41641791082E+02  0.43400731470E+02  0.00000000000E+00 0. -1.
         11    1    4    4    0    0 -0.10615048307E+02 -0.40226846133E+01 -0.39518013379E+02  0.41116111486E+02  0.51100000000E-03 0.  1.
        -11    1    4    4    0    0 -0.30600510131E+01 -0.21455788486E+00 -0.27164456287E+01  0.40974412020E+01  0.51100000000E-03 0. -1.
         12    1    4    4    0    0  0.24353179031E+01 -0.58479455645E+00  0.59266792565E+00  0.25737158415E+01  0.00000000000E+00 0. -1.
</event>
<event>
 8    1  0.2788804E-010  0.9118800E+02  0.7816164E-02  0.1184000E+00
        -11   -1    0    0    0    0  0.00000000000E+00  0.00000000000E+00  0.45593999997E+02  0.45594000000E+02  0.51100000000E-03 0. -1.
         11   -1    0    0    0    0 -0.00000000000E+00 -0.00000000000E+00 -0.45593999997E+02  0.45594000000E+02  0.51100000000E-03 0.  1.
         23    2    1    2    0    0  0.00000000000E+00  0.00000000000E+00  0.00000000000E+00  0.91188000000E+02  0.91188000000E+02 0.  0.
    9900012    2    3    3    0    0 -0.24650048174E+02  0.12697514506E+02 -0.33388195486E+02  0.47787270197E+02  0.19999996138E+02 0.  0.
         12    1    3    3    0    0  0.24650048174E+02 -0.12697514506E+02  0.33388195486E+02  0.43400729803E+02  0.00000000000E+00 0. -1.
         11    1    4    4    0    0 -0.11099725073E+01 -0.48883483143E+00  0.88260061398E+00  0.14999941881E+01  0.51100000000E-03 0. -1.
        -11    1    4    4    0    0 -0.12119599562E+02  0.69276844209E+00 -0.22829708870E+02  0.25856531651E+02  0.51100000000E-03 0.  1.
        -12    1    4    4    0    0 -0.11420476104E+02  0.12493580896E+02 -0.11441087230E+02  0.20430744359E+02  0.00000000000E+00 0.  1.
</event>
<event>
 8    1  0.1280823E-010  0.9118800E+02  0.7816164E-02  0.1184000E+00
        -11   -1    0    0    0    0  0.00000000000E+00  0.00000000000E+00  0.45593999997E+02  0.45594000000E+02  0.51100000000E-03 0. -1.
         11   -1    0    0    0    0 -0.00000000000E+00 -0.00000000000E+00 -0.45593999997E+02  0.45594000000E+02  0.51100000000E-03 0.  1.
         23    2    1    2    0    0 -0.17763568394E-14  0.17763568394E-14  0.00000000000E+00  0.91188000000E+02  0.91188000000E+02 0.  0.
    9900012    2    3    3    0    0 -0.13478556059E+02  0.11953198726E+02 -0.39485096677E+02  0.47787270827E+02  0.19999999007E+02 0.  0.
         12    1    3    3    0    0  0.13478556059E+02 -0.11953198726E+02  0.39485096677E+02  0.43400729173E+02  0.00000000000E+00 0. -1.
         11    1    4    4    0    0 -0.67572081748E+01  0.12860395786E+02 -0.19002528584E+02  0.23919568034E+02  0.51100000000E-03 0. -1.
        -11    1    4    4    0    0 -0.76442559140E+01  0.21967765915E+01 -0.93579732012E+01  0.12281373643E+02  0.51100000000E-03 0.  1.
         12    1    4    4    0    0  0.92290802960E+00 -0.31039736517E+01 -0.11124594891E+02  0.11586329149E+02  0.00000000000E+00 0. -1.
</event>
<event>
 8    1  0.1280823E-010  0.9118800E+02  0.7816164E-02  0.1184000E+00
        -11   -1    0    0    0    0  0.00000000000E+00  0.00000000000E+00  0.45593999997E+02  0.45594000000E+02  0.51100000000E-03 0. -1.
         11   -1    0    0    0    0 -0.00000000000E+00 -0.00000000000E+00 -0.45593999997E+02  0.45594000000E+02  0.51100000000E-03 0.  1.
         23    2    1    2    0    0  0.00000000000E+00 -0.35527136788E-14  0.35527136788E-14  0.91188000000E+02  0.91188000000E+02 0.  0.
    9900012    2    3    3    0    0 -0.40786947684E+01  0.31054052100E+02 -0.30043859816E+02  0.47787269413E+02  0.19999992561E+02 0.  0.
         12    1    3    3    0    0  0.40786947684E+01 -0.31054052100E+02  0.30043859816E+02  0.43400730587E+02  0.00000000000E+00 0. -1.
         11    1    4    4    0    0 -0.12203220278E+01  0.74317772960E+01 -0.24457140258E+01  0.79184605186E+01  0.51100000000E-03 0. -1.
        -11    1    4    4    0    0 -0.28885077902E+01  0.95131754108E+01 -0.13023731560E+01  0.10026971614E+02  0.51100000000E-03 0.  1.
        -12    1    4    4    0    0  0.30135049589E-01  0.14109099393E+02 -0.26295772635E+02  0.29841837280E+02  0.00000000000E+00 0.  1.
</event>
<event>
 8    1  0.1280823E-010  0.9118800E+02  0.7816164E-02  0.1184000E+00
        -11   -1    0    0    0    0  0.00000000000E+00  0.00000000000E+00  0.45593999997E+02  0.45594000000E+02  0.51100000000E-03 0. -1.
         11   -1    0    0    0    0 -0.00000000000E+00 -0.00000000000E+00 -0.45593999997E+02  0.45594000000E+02  0.51100000000E-03 0.  1.
         23    2    1    2    0    0  0.88817841970E-15 -0.35527136788E-14  0.00000000000E+00  0.91188000000E+02  0.91188000000E+02 0.  0.
    9900012    2    3    3    0    0 -0.78046562258E+01  0.30008051159E+02 -0.30368214631E+02  0.47787259764E+02  0.19999948569E+02 0.  0.
         12    1    3    3    0    0  0.78046562258E+01 -0.30008051159E+02  0.30368214631E+02  0.43400740236E+02  0.00000000000E+00 0. -1.
         11    1    4    4    0    0 -0.55442217973E+00  0.25129599349E+01 -0.68796740257E+01  0.73452206603E+01  0.51100000000E-03 0. -1.
        -11    1    4    4    0    0 -0.62965178051E+01  0.19439325873E+02 -0.24897049838E+02  0.32208641973E+02  0.51100000000E-03 0.  1.
         12    1    4    4    0    0 -0.95371624097E+00  0.80557653511E+01  0.14085092326E+01  0.82333971311E+01  0.00000000000E+00 0. -1.
</event>
<event>
 8    1  0.1280823E-010  0.9118800E+02  0.7816164E-02  0.1184000E+00
        -11   -1    0    0    0    0  0.00000000000E+00  0.00000000000E+00  0.45593999997E+02  0.45594000000E+02  0.51100000000E-03 0. -1.
         11   -1    0    0    0    0 -0.00000000000E+00 -0.00000000000E+00 -0.45593999997E+02  0.45594000000E+02  0.51100000000E-03 0.  1.
         23    2    1    2    0    0  0.00000000000E+00  0.00000000000E+00  0.35527136788E-14  0.91188000000E+02  0.91188000000E+02 0.  0.
    9900012    2    3    3    0    0 -0.34173302945E+02  0.42708685785E+01  0.26411520851E+02  0.47787269750E+02  0.19999994098E+02 0.  0.
        -12    1    3    3    0    0  0.34173302945E+02 -0.42708685785E+01 -0.26411520851E+02  0.43400730250E+02  0.00000000000E+00 0.  1.
         11    1    4    4    0    0 -0.22086023415E+02  0.32578121796E+01  0.12465524857E+02  0.25569416902E+02  0.51100000000E-03 0. -1.
        -11    1    4    4    0    0 -0.58357323407E+01  0.16846959251E+01 -0.85765172445E+00  0.61342920581E+01  0.51100000000E-03 0.  1.
        -12    1    4    4    0    0 -0.62515471888E+01 -0.67163952615E+00  0.14803647719E+02  0.16083560790E+02  0.00000000000E+00 0.  1.
</event>
<event>
 8    1  0.1280823E-010  0.9118800E+02  0.7816164E-02  0.1184000E+00
        -11   -1    0    0    0    0  0.00000000000E+00  0.00000000000E+00  0.45593999997E+02  0.45594000000E+02  0.51100000000E-03 0. -1.
         11   -1    0    0    0    0 -0.00000000000E+00 -0.00000000000E+00 -0.45593999997E+02  0.45594000000E+02  0.51100000000E-03 0.  1.
         23    2    1    2    0    0  0.00000000000E+00  0.35527136788E-14 -0.17763568394E-14  0.91188000000E+02  0.91188000000E+02 0.  0.
    9900012    2    3    3    0    0  0.33748392046E+02  0.24917601327E+02 -0.11125759232E+02  0.47787270282E+02  0.19999996524E+02 0.  0.
         12    1    3    3    0    0 -0.33748392046E+02 -0.24917601327E+02  0.11125759232E+02  0.43400729718E+02  0.00000000000E+00 0. -1.
         11    1    4    4    0    0  0.12963790378E+02  0.71488291590E+01 -0.13853594430E+01  0.14868921964E+02  0.51100000000E-03 0. -1.
        -11    1    4    4    0    0  0.17454657023E+02  0.18069588306E+02 -0.28814879522E+01  0.25287903163E+02  0.51100000000E-03 0.  1.
        -12    1    4    4    0    0  0.33299446449E+01 -0.30081613730E+00 -0.68589118364E+01  0.76304451551E+01  0.00000000000E+00 0.  1.
</event>
<event>
 8    1  0.1280823E-010  0.9118800E+02  0.7816164E-02  0.1184000E+00
        -11   -1    0    0    0    0  0.00000000000E+00  0.00000000000E+00  0.45593999997E+02  0.45594000000E+02  0.51100000000E-03 0. -1.
         11   -1    0    0    0    0 -0.00000000000E+00 -0.00000000000E+00 -0.45593999997E+02  0.45594000000E+02  0.51100000000E-03 0.  1.
         23    2    1    2    0    0  0.35527136788E-14  0.00000000000E+00 -0.35527136788E-14  0.91188000000E+02  0.91188000000E+02 0.  0.
    9900012    2    3    3    0    0 -0.22766540124E+02 -0.27290576956E+02  0.24910482275E+02  0.47787273428E+02  0.20000010868E+02 0.  0.
        -12    1    3    3    0    0  0.22766540124E+02  0.27290576956E+02 -0.24910482275E+02  0.43400726572E+02  0.00000000000E+00 0.  1.
         11    1    4    4    0    0 -0.16074874554E+02 -0.12252678990E+02  0.10783374858E+02  0.22908751776E+02  0.51100000000E-03 0. -1.
        -11    1    4    4    0    0 -0.41142988491E+01  0.91262007796E+00  0.19353061862E+01  0.46374282444E+01  0.51100000000E-03 0.  1.
        -12    1    4    4    0    0 -0.25773667210E+01 -0.15950518044E+02  0.12191801230E+02  0.20241093407E+02  0.00000000000E+00 0.  1.
</event>
<event>
 8    1  0.1280823E-010  0.9118800E+02  0.7816164E-02  0.1184000E+00
        -11   -1    0    0    0    0  0.00000000000E+00  0.00000000000E+00  0.45593999997E+02  0.45594000000E+02  0.51100000000E-03 0. -1.
         11   -1    0    0    0    0 -0.00000000000E+00 -0.00000000000E+00 -0.45593999997E+02  0.45594000000E+02  0.51100000000E-03 0.  1.
         23    2    1    2    0    0  0.00000000000E+00  0.00000000000E+00  0.00000000000E+00  0.91188000000E+02  0.91188000000E+02 0.  0.
    9900012    2    3    3    0    0 -0.17876445166E+02  0.10348115773E+02 -0.38170311273E+02  0.47787268963E+02  0.19999990511E+02 0.  0.
         12    1    3    3    0    0  0.17876445166E+02 -0.10348115773E+02  0.38170311273E+02  0.43400731037E+02  0.00000000000E+00 0. -1.
         11    1    4    4    0    0 -0.19485215540E+01  0.10372312890E+02 -0.98113463325E+01  0.14409862180E+02  0.51100000000E-03 0. -1.
        -11    1    4    4    0    0 -0.31417801896E+01  0.19306578930E+01 -0.24739668704E+01  0.44405782278E+01  0.51100000000E-03 0.  1.
        -12    1    4    4    0    0 -0.12786143423E+02 -0.19548550105E+01 -0.25884998070E+02  0.28936828555E+02  0.00000000000E+00 0.  1.
</event>
<event>
 8    1  0.1280823E-010  0.9118800E+02  0.7816164E-02  0.1184000E+00
        -11   -1    0    0    0    0  0.00000000000E+00  0.00000000000E+00  0.45593999997E+02  0.45594000000E+02  0.51100000000E-03 0.  1.
         11   -1    0    0    0    0 -0.00000000000E+00 -0.00000000000E+00 -0.45593999997E+02  0.45594000000E+02  0.51100000000E-03 0. -1.
         23    2    1    2    0    0  0.00000000000E+00  0.00000000000E+00  0.17763568394E-14  0.91188000000E+02  0.91188000000E+02 0.  0.
    9900012    2    3    3    0    0 -0.37927338504E+02  0.20243851346E+02 -0.59436019659E+01  0.47787275034E+02  0.20000018188E+02 0.  0.
         12    1    3    3    0    0  0.37927338504E+02 -0.20243851346E+02  0.59436019659E+01  0.43400724966E+02  0.00000000000E+00 0. -1.
         11    1    4    4    0    0 -0.11920780790E+02  0.16591795220E+01 -0.48123712889E+01  0.12962129802E+02  0.51100000000E-03 0. -1.
        -11    1    4    4    0    0 -0.55192819437E+01  0.89550219418E+01 -0.53441197555E+01  0.11798919755E+02  0.51100000000E-03 0.  1.
        -12    1    4    4    0    0 -0.20487275770E+02  0.96296498819E+01  0.42128890785E+01  0.23026225477E+02  0.00000000000E+00 0.  1.
</event>
<event>
 8    1  0.1280823E-010  0.9118800E+02  0.7816164E-02  0.1184000E+00
        -11   -1    0    0    0    0  0.00000000000E+00  0.00000000000E+00  0.45593999997E+02  0.45594000000E+02  0.51100000000E-03 0. -1.
         11   -1    0    0    0    0 -0.00000000000E+00 -0.00000000000E+00 -0.45593999997E+02  0.45594000000E+02  0.51100000000E-03 0.  1.
         23    2    1    2    0    0  0.00000000000E+00  0.00000000000E+00  0.00000000000E+00  0.91188000000E+02  0.91188000000E+02 0.  0.
    9900012    2    3    3    0    0  0.30093780924E+01  0.27264545012E+02 -0.33633488626E+02  0.47787270417E+02  0.19999997138E+02 0.  0.
         12    1    3    3    0    0 -0.30093780924E+01 -0.27264545012E+02  0.33633488626E+02  0.43400729583E+02  0.00000000000E+00 0. -1.
         11    1    4    4    0    0 -0.34077799054E+01  0.12493114513E+02 -0.13268008415E+02  0.18539981707E+02  0.51100000000E-03 0. -1.
        -11    1    4    4    0    0 -0.37066557272E+01  0.75270253696E+01 -0.65009701652E+01  0.10614048283E+02  0.51100000000E-03 0.  1.
         12    1    4    4    0    0  0.10123813725E+02  0.72444051290E+01 -0.13864510046E+02  0.18633240427E+02  0.00000000000E+00 0. -1.
</event>
<event>
 8    1  0.1280823E-010  0.9118800E+02  0.7816164E-02  0.1184000E+00
        -11   -1    0    0    0    0  0.00000000000E+00  0.00000000000E+00  0.45593999997E+02  0.45594000000E+02  0.51100000000E-03 0.  1.
         11   -1    0    0    0    0 -0.00000000000E+00 -0.00000000000E+00 -0.45593999997E+02  0.45594000000E+02  0.51100000000E-03 0. -1.
         23    2    1    2    0    0  0.00000000000E+00  0.17763568394E-14  0.11102230246E-15  0.91188000000E+02  0.91188000000E+02 0.  0.
    9900012    2    3    3    0    0  0.40403825137E+02  0.15825457051E+02  0.84203890347E+00  0.47787271825E+02  0.20000003561E+02 0.  0.
        -12    1    3    3    0    0 -0.40403825137E+02 -0.15825457051E+02 -0.84203890347E+00  0.43400728175E+02  0.00000000000E+00 0.  1.
         11    1    4    4    0    0  0.18898261432E+02  0.31199922454E+01  0.59981616516E+01  0.20071287458E+02  0.51100000000E-03 0.  1.
        -11    1    4    4    0    0  0.10075884310E+02  0.54103765775E-02 -0.28779805164E+01  0.10478847552E+02  0.51100000000E-03 0. -1.
        -12    1    4    4    0    0  0.11429679395E+02  0.12700054429E+02 -0.22781422317E+01  0.17237136816E+02  0.00000000000E+00 0.  1.
</event>
<event>
 8    1  0.1280823E-010  0.9118800E+02  0.7816164E-02  0.1184000E+00
        -11   -1    0    0    0    0  0.00000000000E+00  0.00000000000E+00  0.45593999997E+02  0.45594000000E+02  0.51100000000E-03 0. -1.
         11   -1    0    0    0    0 -0.00000000000E+00 -0.00000000000E+00 -0.45593999997E+02  0.45594000000E+02  0.51100000000E-03 0.  1.
         23    2    1    2    0    0  0.00000000000E+00  0.00000000000E+00  0.00000000000E+00  0.91188000000E+02  0.91188000000E+02 0.  0.
    9900012    2    3    3    0    0  0.95867585770E+00 -0.23819278378E+02 -0.36267710238E+02  0.47787263972E+02  0.19999967756E+02 0.  0.
         12    1    3    3    0    0 -0.95867585770E+00  0.23819278378E+02  0.36267710238E+02  0.43400736028E+02  0.00000000000E+00 0. -1.
         11    1    4    4    0    0  0.91950408855E+00 -0.52171810659E+01 -0.38135026168E+01  0.65274243398E+01  0.51100000000E-03 0.  1.
        -11    1    4    4    0    0 -0.85680240230E+01 -0.72965534042E+01 -0.13657711400E+02  0.17696999977E+02  0.51100000000E-03 0. -1.
         12    1    4    4    0    0  0.86071957921E+01 -0.11305543908E+02 -0.18796496221E+02  0.23562839655E+02  0.00000000000E+00 0. -1.
</event>
<event>
 8    1  0.1280823E-010  0.9118800E+02  0.7816164E-02  0.1184000E+00
        -11   -1    0    0    0    0  0.00000000000E+00  0.00000000000E+00  0.45593999997E+02  0.45594000000E+02  0.51100000000E-03 0. -1.
         11   -1    0    0    0    0 -0.00000000000E+00 -0.00000000000E+00 -0.45593999997E+02  0.45594000000E+02  0.51100000000E-03 0.  1.
         23    2    1    2    0    0  0.35527136788E-14  0.00000000000E+00 -0.35527136788E-14  0.91188000000E+02  0.91188000000E+02 0.  0.
    9900012    2    3    3    0    0 -0.27572959804E+02 -0.27177830889E+02 -0.19614294910E+02  0.47787272252E+02  0.20000005508E+02 0.  0.
         12    1    3    3    0    0  0.27572959804E+02  0.27177830889E+02  0.19614294910E+02  0.43400727748E+02  0.00000000000E+00 0. -1.
         11    1    4    4    0    0 -0.27070529747E+01  0.45836348893E+00 -0.50478918442E+01  0.57462548871E+01  0.51100000000E-03 0. -1.
        -11    1    4    4    0    0 -0.12387385169E+02 -0.15898644212E+02 -0.14637938965E+02  0.24909505345E+02  0.51100000000E-03 0.  1.
        -12    1    4    4    0    0 -0.12478521660E+02 -0.11737550166E+02  0.71535899381E-01  0.17131512020E+02  0.00000000000E+00 0.  1.
</event>
<event>
 8    1  0.1280823E-010  0.9118800E+02  0.7816164E-02  0.1184000E+00
        -11   -1    0    0    0    0  0.00000000000E+00  0.00000000000E+00  0.45593999997E+02  0.45594000000E+02  0.51100000000E-03 0. -1.
         11   -1    0    0    0    0 -0.00000000000E+00 -0.00000000000E+00 -0.45593999997E+02  0.45594000000E+02  0.51100000000E-03 0.  1.
         23    2    1    2    0    0  0.00000000000E+00  0.00000000000E+00  0.00000000000E+00  0.91188000000E+02  0.91188000000E+02 0.  0.
    9900012    2    3    3    0    0 -0.16763110243E+02 -0.38167086612E+02 -0.12078706521E+02  0.47787268247E+02  0.19999987244E+02 0.  0.
         12    1    3    3    0    0  0.16763110243E+02  0.38167086612E+02  0.12078706521E+02  0.43400731753E+02  0.00000000000E+00 0. -1.
         11    1    4    4    0    0 -0.77619797773E+01 -0.18902987780E+02 -0.31190021195E+01  0.20671222788E+02  0.51100000000E-03 0. -1.
        -11    1    4    4    0    0 -0.39916255310E+01 -0.19921920911E+02 -0.85609972543E+01  0.22047827136E+02  0.51100000000E-03 0.  1.
         12    1    4    4    0    0 -0.50095049346E+01  0.65782207868E+00 -0.39870714745E+00  0.50682183226E+01  0.00000000000E+00 0. -1.
</event>
<event>
 8    1  0.1280823E-010  0.9118800E+02  0.7816164E-02  0.1184000E+00
        -11   -1    0    0    0    0  0.00000000000E+00  0.00000000000E+00  0.45593999997E+02  0.45594000000E+02  0.51100000000E-03 0. -1.
         11   -1    0    0    0    0 -0.00000000000E+00 -0.00000000000E+00 -0.45593999997E+02  0.45594000000E+02  0.51100000000E-03 0.  1.
         23    2    1    2    0    0  0.00000000000E+00  0.00000000000E+00  0.00000000000E+00  0.91188000000E+02  0.91188000000E+02 0.  0.
    9900012    2    3    3    0    0 -0.94322479920E+01  0.28643205610E+02  0.31212541941E+02  0.47787270695E+02  0.19999998405E+02 0.  0.
        -12    1    3    3    0    0  0.94322479920E+01 -0.28643205610E+02 -0.31212541941E+02  0.43400729305E+02  0.00000000000E+00 0.  1.
         11    1    4    4    0    0 -0.63374075132E+01  0.21710863212E+02  0.22240772958E+02  0.31720282115E+02  0.51100000000E-03 0. -1.
        -11    1    4    4    0    0 -0.70943701010E+01  0.56262431147E+01  0.53606773313E+01  0.10522431298E+02  0.51100000000E-03 0.  1.
        -12    1    4    4    0    0  0.39995296222E+01  0.13060992842E+01  0.36110916511E+01  0.55445572819E+01  0.00000000000E+00 0.  1.
</event>
<event>
 8    1  0.1280823E-010  0.9118800E+02  0.7816164E-02  0.1184000E+00
        -11   -1    0    0    0    0  0.00000000000E+00  0.00000000000E+00  0.45593999997E+02  0.45594000000E+02  0.51100000000E-03 0. -1.
         11   -1    0    0    0    0 -0.00000000000E+00 -0.00000000000E+00 -0.45593999997E+02  0.45594000000E+02  0.51100000000E-03 0.  1.
         23    2    1    2    0    0  0.00000000000E+00  0.00000000000E+00  0.00000000000E+00  0.91188000000E+02  0.91188000000E+02 0.  0.
    9900012    2    3    3    0    0  0.32246477131E+02  0.22644153806E+02  0.18194265202E+02  0.47787259509E+02  0.19999947405E+02 0.  0.
        -12    1    3    3    0    0 -0.32246477131E+02 -0.22644153806E+02 -0.18194265202E+02  0.43400740491E+02  0.00000000000E+00 0.  1.
         11    1    4    4    0    0  0.30431664391E+02  0.23873086605E+02  0.13078408917E+02  0.40829587822E+02  0.51100000000E-03 0. -1.
        -11    1    4    4    0    0  0.27178277846E+01 -0.18750762904E+01  0.25832197246E+01  0.41923171836E+01  0.51100000000E-03 0.  1.
        -12    1    4    4    0    0 -0.90301504483E+00  0.64614349162E+00  0.25326365600E+01  0.27653545031E+01  0.00000000000E+00 0.  1.
</event>
<event>
 8    1  0.1280823E-010  0.9118800E+02  0.7816164E-02  0.1184000E+00
        -11   -1    0    0    0    0  0.00000000000E+00  0.00000000000E+00  0.45593999997E+02  0.45594000000E+02  0.51100000000E-03 0. -1.
         11   -1    0    0    0    0 -0.00000000000E+00 -0.00000000000E+00 -0.45593999997E+02  0.45594000000E+02  0.51100000000E-03 0.  1.
         23    2    1    2    0    0  0.00000000000E+00  0.00000000000E+00  0.00000000000E+00  0.91188000000E+02  0.91188000000E+02 0.  0.
    9900012    2    3    3    0    0  0.71955410379E+01 -0.18143455639E+02  0.38764195967E+02  0.47787266338E+02  0.19999978543E+02 0.  0.
        -12    1    3    3    0    0 -0.71955410379E+01  0.18143455639E+02 -0.38764195967E+02  0.43400733662E+02  0.00000000000E+00 0.  1.
         11    1    4    4    0    0  0.53844435430E+01 -0.38506507685E+01  0.22126041671E+02  0.23095052801E+02  0.51100000000E-03 0. -1.
        -11    1    4    4    0    0  0.65272181068E+01 -0.85466804693E+01  0.88681993746E+01  0.13938984313E+02  0.51100000000E-03 0.  1.
         12    1    4    4    0    0 -0.47161206119E+01 -0.57461244016E+01  0.77699549217E+01  0.10753229224E+02  0.00000000000E+00 0. -1.
</event>
<event>
 8    1  0.1280823E-010  0.9118800E+02  0.7816164E-02  0.1184000E+00
        -11   -1    0    0    0    0  0.00000000000E+00  0.00000000000E+00  0.45593999997E+02  0.45594000000E+02  0.51100000000E-03 0. -1.
         11   -1    0    0    0    0 -0.00000000000E+00 -0.00000000000E+00 -0.45593999997E+02  0.45594000000E+02  0.51100000000E-03 0.  1.
         23    2    1    2    0    0  0.14432899320E-14 -0.35527136788E-14  0.00000000000E+00  0.91188000000E+02  0.91188000000E+02 0.  0.
    9900012    2    3    3    0    0  0.75250722291E+00  0.19975260040E+02 -0.38523316938E+02  0.47787271565E+02  0.20000002375E+02 0.  0.
         12    1    3    3    0    0 -0.75250722291E+00 -0.19975260040E+02  0.38523316938E+02  0.43400728435E+02  0.00000000000E+00 0. -1.
         11    1    4    4    0    0 -0.12778924545E+01  0.49645902218E+01 -0.11792155313E+02  0.12858269416E+02  0.51100000000E-03 0. -1.
        -11    1    4    4    0    0 -0.28651810324E+01  0.16211728438E+02 -0.15469126984E+02  0.22590336234E+02  0.51100000000E-03 0.  1.
         12    1    4    4    0    0  0.48955807098E+01 -0.12010586200E+01 -0.11262034641E+02  0.12338665915E+02  0.00000000000E+00 0. -1.
</event>
<event>
 8    1  0.1280823E-010  0.9118800E+02  0.7816164E-02  0.1184000E+00
        -11   -1    0    0    0    0  0.00000000000E+00  0.00000000000E+00  0.45593999997E+02  0.45594000000E+02  0.51100000000E-03 0. -1.
         11   -1    0    0    0    0 -0.00000000000E+00 -0.00000000000E+00 -0.45593999997E+02  0.45594000000E+02  0.51100000000E-03 0.  1.
         23    2    1    2    0    0  0.00000000000E+00  0.00000000000E+00  0.00000000000E+00  0.91188000000E+02  0.91188000000E+02 0.  0.
    9900012    2    3    3    0    0 -0.69197540784E+01  0.16508654648E+02  0.39537380437E+02  0.47787272741E+02  0.20000007736E+02 0.  0.
        -12    1    3    3    0    0  0.69197540784E+01 -0.16508654648E+02 -0.39537380437E+02  0.43400727259E+02  0.00000000000E+00 0.  1.
         11    1    4    4    0    0  0.70228758518E+00  0.57629480921E+01  0.84360019173E+01  0.10240649744E+02  0.51100000000E-03 0. -1.
        -11    1    4    4    0    0 -0.11939999708E+01 -0.32748530897E+01  0.84650582842E+00  0.35870421057E+01  0.51100000000E-03 0.  1.
        -12    1    4    4    0    0 -0.64280416928E+01  0.14020559645E+02  0.30254872691E+02  0.33959580892E+02  0.00000000000E+00 0.  1.
</event>
<event>
 8    1  0.1280823E-010  0.9118800E+02  0.7816164E-02  0.1184000E+00
        -11   -1    0    0    0    0  0.00000000000E+00  0.00000000000E+00  0.45593999997E+02  0.45594000000E+02  0.51100000000E-03 0. -1.
         11   -1    0    0    0    0 -0.00000000000E+00 -0.00000000000E+00 -0.45593999997E+02  0.45594000000E+02  0.51100000000E-03 0.  1.
         23    2    1    2    0    0  0.66613381478E-15  0.00000000000E+00  0.00000000000E+00  0.91188000000E+02  0.91188000000E+02 0.  0.
    9900012    2    3    3    0    0  0.17386215230E+01 -0.26579449488E+01  0.43284365023E+02  0.47787265771E+02  0.19999975957E+02 0.  0.
        -12    1    3    3    0    0 -0.17386215230E+01  0.26579449488E+01 -0.43284365023E+02  0.43400734229E+02  0.00000000000E+00 0.  1.
         11    1    4    4    0    0 -0.46150212625E+01 -0.29960431315E+01  0.99604219727E+01  0.11379134494E+02  0.51100000000E-03 0. -1.
        -11    1    4    4    0    0 -0.16528839057E+01  0.42415359583E+01  0.52186032741E+01  0.69250612188E+01  0.51100000000E-03 0.  1.
         12    1    4    4    0    0  0.80065266912E+01 -0.39034377755E+01  0.28105339776E+02  0.29483070058E+02  0.00000000000E+00 0. -1.
</event>
<event>
 8    1  0.1280823E-010  0.9118800E+02  0.7816164E-02  0.1184000E+00
        -11   -1    0    0    0    0  0.00000000000E+00  0.00000000000E+00  0.45593999997E+02  0.45594000000E+02  0.51100000000E-03 0.  1.
         11   -1    0    0    0    0 -0.00000000000E+00 -0.00000000000E+00 -0.45593999997E+02  0.45594000000E+02  0.51100000000E-03 0. -1.
         23    2    1    2    0    0  0.71054273576E-14  0.00000000000E+00  0.00000000000E+00  0.91188000000E+02  0.91188000000E+02 0.  0.
    9900012    2    3    3    0    0  0.37739420362E+02  0.18092425739E+02  0.11490169234E+02  0.47787266050E+02  0.19999977229E+02 0.  0.
        -12    1    3    3    0    0 -0.37739420362E+02 -0.18092425739E+02 -0.11490169234E+02  0.43400733950E+02  0.00000000000E+00 0.  1.
         11    1    4    4    0    0  0.14020932432E+02  0.16331542768E+01  0.52089455086E+01  0.15046157408E+02  0.51100000000E-03 0. -1.
        -11    1    4    4    0    0  0.48557827904E+00 -0.21381521954E+01  0.13524057765E+01  0.25761371705E+01  0.51100000000E-03 0.  1.
        -12    1    4    4    0    0  0.23232909650E+02  0.18597423658E+02  0.49288179491E+01  0.30164971472E+02  0.00000000000E+00 0.  1.
</event>
<event>
 8    1  0.1280823E-010  0.9118800E+02  0.7816164E-02  0.1184000E+00
        -11   -1    0    0    0    0  0.00000000000E+00  0.00000000000E+00  0.45593999997E+02  0.45594000000E+02  0.51100000000E-03 0. -1.
         11   -1    0    0    0    0 -0.00000000000E+00 -0.00000000000E+00 -0.45593999997E+02  0.45594000000E+02  0.51100000000E-03 0.  1.
         23    2    1    2    0    0 -0.44408920985E-15  0.00000000000E+00  0.35527136788E-14  0.91188000000E+02  0.91188000000E+02 0.  0.
    9900012    2    3    3    0    0  0.20278287900E+01 -0.35953178819E+02 -0.24225615966E+02  0.47787266991E+02  0.19999981517E+02 0.  0.
         12    1    3    3    0    0 -0.20278287900E+01  0.35953178819E+02  0.24225615966E+02  0.43400733009E+02  0.00000000000E+00 0. -1.
         11    1    4    4    0    0 -0.15745310757E+01 -0.12206710619E+02 -0.39363825262E+01  0.12921998294E+02  0.51100000000E-03 0. -1.
        -11    1    4    4    0    0 -0.32874226083E+01 -0.19308391686E+02 -0.17328351405E+02  0.26151346038E+02  0.51100000000E-03 0.  1.
         12    1    4    4    0    0  0.68897824739E+01 -0.44380765141E+01 -0.29608820347E+01  0.87139226590E+01  0.00000000000E+00 0. -1.
</event>
<event>
 8    1  0.1280823E-010  0.9118800E+02  0.7816164E-02  0.1184000E+00
        -11   -1    0    0    0    0  0.00000000000E+00  0.00000000000E+00  0.45593999997E+02  0.45594000000E+02  0.51100000000E-03 0. -1.
         11   -1    0    0    0    0 -0.00000000000E+00 -0.00000000000E+00 -0.45593999997E+02  0.45594000000E+02  0.51100000000E-03 0.  1.
         23    2    1    2    0    0  0.35527136788E-14 -0.38857805862E-15  0.71054273576E-14  0.91188000000E+02  0.91188000000E+02 0.  0.
    9900012    2    3    3    0    0  0.24148969021E+02  0.30677958292E+00  0.36060473559E+02  0.47787256092E+02  0.19999931826E+02 0.  0.
        -12    1    3    3    0    0 -0.24148969021E+02 -0.30677958292E+00 -0.36060473559E+02  0.43400743908E+02  0.00000000000E+00 0.  1.
         11    1    4    4    0    0  0.19709051758E+01  0.19296735016E+01  0.63168731540E+01  0.68928218996E+01  0.51100000000E-03 0. -1.
        -11    1    4    4    0    0  0.14301923397E+02 -0.78268705100E+01  0.24892546620E+02  0.29756407584E+02  0.51100000000E-03 0.  1.
         12    1    4    4    0    0  0.78761404484E+01  0.62039765913E+01  0.48510537850E+01  0.11138026609E+02  0.00000000000E+00 0. -1.
</event>
<event>
 8    1  0.1280823E-010  0.9118800E+02  0.7816164E-02  0.1184000E+00
        -11   -1    0    0    0    0  0.00000000000E+00  0.00000000000E+00  0.45593999997E+02  0.45594000000E+02  0.51100000000E-03 0. -1.
         11   -1    0    0    0    0 -0.00000000000E+00 -0.00000000000E+00 -0.45593999997E+02  0.45594000000E+02  0.51100000000E-03 0.  1.
         23    2    1    2    0    0  0.00000000000E+00 -0.71054273576E-14 -0.10824674490E-14  0.91188000000E+02  0.91188000000E+02 0.  0.
    9900012    2    3    3    0    0 -0.14932432465E+02 -0.40750536397E+02 -0.19859307595E+00  0.47787271951E+02  0.20000004132E+02 0.  0.
        -12    1    3    3    0    0  0.14932432465E+02  0.40750536397E+02  0.19859307595E+00  0.43400728049E+02  0.00000000000E+00 0.  1.
         11    1    4    4    0    0 -0.39114331876E+01 -0.52600918922E+01  0.12649600491E+01  0.66759269380E+01  0.51100000000E-03 0. -1.
        -11    1    4    4    0    0  0.47556742764E+00 -0.22913845193E+01  0.48779964765E+01  0.54103102757E+01  0.51100000000E-03 0.  1.
         12    1    4    4    0    0 -0.11496566705E+02 -0.33199059986E+02 -0.63415496015E+01  0.35701034737E+02  0.00000000000E+00 0. -1.
</event>
<event>
 8    1  0.1280823E-010  0.9118800E+02  0.7816164E-02  0.1184000E+00
        -11   -1    0    0    0    0  0.00000000000E+00  0.00000000000E+00  0.45593999997E+02  0.45594000000E+02  0.51100000000E-03 0. -1.
         11   -1    0    0    0    0 -0.00000000000E+00 -0.00000000000E+00 -0.45593999997E+02  0.45594000000E+02  0.51100000000E-03 0.  1.
         23    2    1    2    0    0  0.00000000000E+00  0.35527136788E-14  0.00000000000E+00  0.91188000000E+02  0.91188000000E+02 0.  0.
    9900012    2    3    3    0    0  0.15956690371E+02 -0.21281186610E+02  0.34294581840E+02  0.47787271726E+02  0.20000003109E+02 0.  0.
        -12    1    3    3    0    0 -0.15956690371E+02  0.21281186610E+02 -0.34294581840E+02  0.43400728274E+02  0.00000000000E+00 0.  1.
         11    1    4    4    0    0  0.12880965690E+02 -0.23964026535E+01  0.18187132563E+02  0.22415035443E+02  0.51100000000E-03 0. -1.
        -11    1    4    4    0    0  0.65248573910E+00 -0.11852477345E+02  0.11983194340E+02  0.16867243512E+02  0.51100000000E-03 0.  1.
        -12    1    4    4    0    0  0.24232389414E+01 -0.70323066119E+01  0.41242549363E+01  0.85049927708E+01  0.00000000000E+00 0.  1.
</event>
<event>
 8    1  0.1280823E-010  0.9118800E+02  0.7816164E-02  0.1184000E+00
        -11   -1    0    0    0    0  0.00000000000E+00  0.00000000000E+00  0.45593999997E+02  0.45594000000E+02  0.51100000000E-03 0. -1.
         11   -1    0    0    0    0 -0.00000000000E+00 -0.00000000000E+00 -0.45593999997E+02  0.45594000000E+02  0.51100000000E-03 0.  1.
         23    2    1    2    0    0  0.88817841970E-15  0.00000000000E+00  0.00000000000E+00  0.91188000000E+02  0.91188000000E+02 0.  0.
    9900012    2    3    3    0    0  0.67121681093E+01  0.24864112421E+02  0.34933450733E+02  0.47787271120E+02  0.20000000343E+02 0.  0.
        -12    1    3    3    0    0 -0.67121681093E+01 -0.24864112421E+02 -0.34933450733E+02  0.43400728880E+02  0.00000000000E+00 0.  1.
         11    1    4    4    0    0  0.66872757565E+00  0.63906469640E+01  0.45809270545E+01  0.78912900167E+01  0.51100000000E-03 0. -1.
        -11    1    4    4    0    0 -0.55692048634E+01  0.91809061016E+01  0.98838736447E+01  0.14594383788E+02  0.51100000000E-03 0.  1.
         12    1    4    4    0    0  0.11612645397E+02  0.92925593558E+01  0.20468650034E+02  0.25301597315E+02  0.00000000000E+00 0. -1.
</event>
<event>
 8    1  0.1280823E-010  0.9118800E+02  0.7816164E-02  0.1184000E+00
        -11   -1    0    0    0    0  0.00000000000E+00  0.00000000000E+00  0.45593999997E+02  0.45594000000E+02  0.51100000000E-03 0.  1.
         11   -1    0    0    0    0 -0.00000000000E+00 -0.00000000000E+00 -0.45593999997E+02  0.45594000000E+02  0.51100000000E-03 0. -1.
         23    2    1    2    0    0 -0.71054273576E-14  0.35527136788E-14  0.00000000000E+00  0.91188000000E+02  0.91188000000E+02 0.  0.
    9900012    2    3    3    0    0 -0.32459642542E+02  0.22529235152E+02 -0.17956294347E+02  0.47787270315E+02  0.19999996673E+02 0.  0.
         12    1    3    3    0    0  0.32459642542E+02 -0.22529235152E+02  0.17956294347E+02  0.43400729685E+02  0.00000000000E+00 0. -1.
         11    1    4    4    0    0  0.89436603780E+00  0.41849891031E+01 -0.42742067543E+00  0.43007805219E+01  0.51100000000E-03 0. -1.
        -11    1    4    4    0    0 -0.17006938149E+02  0.13130701764E+02 -0.45253661482E+01  0.21957463721E+02  0.51100000000E-03 0.  1.
         12    1    4    4    0    0 -0.16347070431E+02  0.52135442853E+01 -0.13003507524E+02  0.21529026072E+02  0.00000000000E+00 0. -1.
</event>
<event>
 8    1  0.1280823E-010  0.9118800E+02  0.7816164E-02  0.1184000E+00
        -11   -1    0    0    0    0  0.00000000000E+00  0.00000000000E+00  0.45593999997E+02  0.45594000000E+02  0.51100000000E-03 0.  1.
         11   -1    0    0    0    0 -0.00000000000E+00 -0.00000000000E+00 -0.45593999997E+02  0.45594000000E+02  0.51100000000E-03 0. -1.
         23    2    1    2    0    0  0.00000000000E+00 -0.35527136788E-14  0.22204460493E-15  0.91188000000E+02  0.91188000000E+02 0.  0.
    9900012    2    3    3    0    0  0.34434615960E+02  0.26365831095E+02 -0.16511254321E+01  0.47787239167E+02  0.19999854659E+02 0.  0.
         12    1    3    3    0    0 -0.34434615960E+02 -0.26365831095E+02  0.16511254321E+01  0.43400760833E+02  0.00000000000E+00 0. -1.
         11    1    4    4    0    0  0.11351587851E+01  0.34890916741E+01  0.69650091115E+00  0.37346298288E+01  0.51100000000E-03 0. -1.
        -11    1    4    4    0    0  0.29538273509E+02  0.21073271463E+02 -0.78733595000E+01  0.37129262881E+02  0.51100000000E-03 0.  1.
        -12    1    4    4    0    0  0.37611836667E+01  0.18034679577E+01  0.55257331567E+01  0.69233464573E+01  0.00000000000E+00 0.  1.
</event>
<event>
 8    1  0.1280823E-010  0.9118800E+02  0.7816164E-02  0.1184000E+00
        -11   -1    0    0    0    0  0.00000000000E+00  0.00000000000E+00  0.45593999997E+02  0.45594000000E+02  0.51100000000E-03 0. -1.
         11   -1    0    0    0    0 -0.00000000000E+00 -0.00000000000E+00 -0.45593999997E+02  0.45594000000E+02  0.51100000000E-03 0.  1.
         23    2    1    2    0    0  0.00000000000E+00  0.00000000000E+00  0.00000000000E+00  0.91188000000E+02  0.91188000000E+02 0.  0.
    9900012    2    3    3    0    0  0.21596653594E+02  0.36131390519E+02 -0.10570256181E+02  0.47787272552E+02  0.20000006872E+02 0.  0.
         12    1    3    3    0    0 -0.21596653594E+02 -0.36131390519E+02  0.10570256181E+02  0.43400727448E+02  0.00000000000E+00 0. -1.
         11    1    4    4    0    0  0.21683527698E+01  0.53169418350E+01  0.30307314017E+00  0.57500850254E+01  0.51100000000E-03 0. -1.
        -11    1    4    4    0    0  0.45559896218E+01  0.19433707744E+02  0.78781700499E+00  0.19976153133E+02  0.51100000000E-03 0.  1.
         12    1    4    4    0    0  0.14872311202E+02  0.11380740940E+02 -0.11661146326E+02  0.22061034393E+02  0.00000000000E+00 0. -1.
</event>
<event>
 8    1  0.1280823E-010  0.9118800E+02  0.7816164E-02  0.1184000E+00
        -11   -1    0    0    0    0  0.00000000000E+00  0.00000000000E+00  0.45593999997E+02  0.45594000000E+02  0.51100000000E-03 0. -1.
         11   -1    0    0    0    0 -0.00000000000E+00 -0.00000000000E+00 -0.45593999997E+02  0.45594000000E+02  0.51100000000E-03 0.  1.
         23    2    1    2    0    0  0.00000000000E+00  0.00000000000E+00  0.71054273576E-14  0.91188000000E+02  0.91188000000E+02 0.  0.
    9900012    2    3    3    0    0  0.15045193661E+02  0.77831281108E+01 -0.39958581618E+02  0.47787272121E+02  0.20000004909E+02 0.  0.
         12    1    3    3    0    0 -0.15045193661E+02 -0.77831281108E+01  0.39958581618E+02  0.43400727879E+02  0.00000000000E+00 0. -1.
         11    1    4    4    0    0  0.19278427593E+00  0.32842545533E+01  0.10476555659E+01  0.34526911524E+01  0.51100000000E-03 0. -1.
        -11    1    4    4    0    0 -0.26452491625E+00 -0.46265639053E+00 -0.42411013575E+01  0.42744549772E+01  0.51100000000E-03 0.  1.
        -12    1    4    4    0    0  0.15116934301E+02  0.49615299480E+01 -0.36765135827E+02  0.40060125991E+02  0.00000000000E+00 0.  1.
</event>
<event>
 8    1  0.1280823E-010  0.9118800E+02  0.7816164E-02  0.1184000E+00
        -11   -1    0    0    0    0  0.00000000000E+00  0.00000000000E+00  0.45593999997E+02  0.45594000000E+02  0.51100000000E-03 0. -1.
         11   -1    0    0    0    0 -0.00000000000E+00 -0.00000000000E+00 -0.45593999997E+02  0.45594000000E+02  0.51100000000E-03 0.  1.
         23    2    1    2    0    0 -0.35527136788E-14  0.00000000000E+00  0.00000000000E+00  0.91188000000E+02  0.91188000000E+02 0.  0.
    9900012    2    3    3    0    0  0.18750199840E+02  0.24219209437E+02  0.30748712485E+02  0.47787269370E+02  0.19999992364E+02 0.  0.
        -12    1    3    3    0    0 -0.18750199840E+02 -0.24219209437E+02 -0.30748712485E+02  0.43400730630E+02  0.00000000000E+00 0.  1.
         11    1    4    4    0    0  0.43131790319E-01  0.96070758686E+01  0.13085935620E+02  0.16233899051E+02  0.51100000000E-03 0. -1.
        -11    1    4    4    0    0  0.40655992734E+00  0.89017175615E+00 -0.14475009974E+01  0.17472710518E+01  0.51100000000E-03 0.  1.
         12    1    4    4    0    0  0.18300508123E+02  0.13721961812E+02  0.19110277863E+02  0.29806099267E+02  0.00000000000E+00 0. -1.
</event>
<event>
 8    1  0.1280823E-010  0.9118800E+02  0.7816164E-02  0.1184000E+00
        -11   -1    0    0    0    0  0.00000000000E+00  0.00000000000E+00  0.45593999997E+02  0.45594000000E+02  0.51100000000E-03 0. -1.
         11   -1    0    0    0    0 -0.00000000000E+00 -0.00000000000E+00 -0.45593999997E+02  0.45594000000E+02  0.51100000000E-03 0.  1.
         23    2    1    2    0    0  0.00000000000E+00  0.00000000000E+00  0.99920072216E-15  0.91188000000E+02  0.91188000000E+02 0.  0.
    9900012    2    3    3    0    0  0.43394776293E+02  0.66649814866E+00  0.27687966231E+00  0.47787222453E+02  0.19999778453E+02 0.  0.
         12    1    3    3    0    0 -0.43394776293E+02 -0.66649814866E+00 -0.27687966231E+00  0.43400777547E+02  0.00000000000E+00 0. -1.
         11    1    4    4    0    0  0.92306329731E+01 -0.11162555757E+01 -0.25100159475E+01  0.96307212561E+01  0.51100000000E-03 0. -1.
        -11    1    4    4    0    0  0.16370151207E+02  0.43377516421E+01 -0.62308260669E+01  0.18044975301E+02  0.51100000000E-03 0.  1.
         12    1    4    4    0    0  0.17793992112E+02 -0.25549979177E+01  0.90177216767E+01  0.20111525897E+02  0.00000000000E+00 0. -1.
</event>
<event>
 8    1  0.1280823E-010  0.9118800E+02  0.7816164E-02  0.1184000E+00
        -11   -1    0    0    0    0  0.00000000000E+00  0.00000000000E+00  0.45593999997E+02  0.45594000000E+02  0.51100000000E-03 0. -1.
         11   -1    0    0    0    0 -0.00000000000E+00 -0.00000000000E+00 -0.45593999997E+02  0.45594000000E+02  0.51100000000E-03 0.  1.
         23    2    1    2    0    0 -0.35527136788E-14  0.00000000000E+00 -0.71054273576E-14  0.91188000000E+02  0.91188000000E+02 0.  0.
    9900012    2    3    3    0    0  0.22296537960E+02 -0.16748184021E+02  0.33256368257E+02  0.47787270713E+02  0.19999998487E+02 0.  0.
        -12    1    3    3    0    0 -0.22296537960E+02  0.16748184021E+02 -0.33256368257E+02  0.43400729287E+02  0.00000000000E+00 0.  1.
         11    1    4    4    0    0 -0.83929739393E+00 -0.77472836885E+01  0.10258677663E+02  0.12882751737E+02  0.51100000000E-03 0. -1.
        -11    1    4    4    0    0  0.15385719774E+01 -0.25856292245E+00 -0.66520643769E+00  0.16960419749E+01  0.51100000000E-03 0.  1.
         12    1    4    4    0    0  0.21597263377E+02 -0.87423374104E+01  0.23662897032E+02  0.33208477001E+02  0.00000000000E+00 0. -1.
</event>
<event>
 8    1  0.1280823E-010  0.9118800E+02  0.7816164E-02  0.1184000E+00
        -11   -1    0    0    0    0  0.00000000000E+00  0.00000000000E+00  0.45593999997E+02  0.45594000000E+02  0.51100000000E-03 0. -1.
         11   -1    0    0    0    0 -0.00000000000E+00 -0.00000000000E+00 -0.45593999997E+02  0.45594000000E+02  0.51100000000E-03 0.  1.
         23    2    1    2    0    0  0.35527136788E-14  0.00000000000E+00  0.00000000000E+00  0.91188000000E+02  0.91188000000E+02 0.  0.
    9900012    2    3    3    0    0  0.28687768919E+02  0.20279856127E+01 -0.32504190257E+02  0.47787271948E+02  0.20000004118E+02 0.  0.
         12    1    3    3    0    0 -0.28687768919E+02 -0.20279856127E+01  0.32504190257E+02  0.43400728052E+02  0.00000000000E+00 0. -1.
         11    1    4    4    0    0  0.13210853162E+02  0.84774347064E+00 -0.11028792285E+02  0.17230193550E+02  0.51100000000E-03 0.  1.
        -11    1    4    4    0    0  0.71198590014E+01 -0.68106838423E+01 -0.12519773892E+02  0.15931809225E+02  0.51100000000E-03 0. -1.
        -12    1    4    4    0    0  0.83570567553E+01  0.79909259843E+01 -0.89556240802E+01  0.14625269172E+02  0.00000000000E+00 0.  1.
</event>
<event>
 8    1  0.1280823E-010  0.9118800E+02  0.7816164E-02  0.1184000E+00
        -11   -1    0    0    0    0  0.00000000000E+00  0.00000000000E+00  0.45593999997E+02  0.45594000000E+02  0.51100000000E-03 0. -1.
         11   -1    0    0    0    0 -0.00000000000E+00 -0.00000000000E+00 -0.45593999997E+02  0.45594000000E+02  0.51100000000E-03 0.  1.
         23    2    1    2    0    0  0.00000000000E+00  0.00000000000E+00  0.00000000000E+00  0.91188000000E+02  0.91188000000E+02 0.  0.
    9900012    2    3    3    0    0  0.30909477128E+02  0.19799716156E+02  0.23155963166E+02  0.47787272283E+02  0.20000005648E+02 0.  0.
        -12    1    3    3    0    0 -0.30909477128E+02 -0.19799716156E+02 -0.23155963166E+02  0.43400727717E+02  0.00000000000E+00 0.  1.
         11    1    4    4    0    0  0.98798861827E+01  0.10038148064E+02  0.17869198375E+02  0.22752688157E+02  0.51100000000E-03 0. -1.
        -11    1    4    4    0    0 -0.52881066739E+00 -0.25662009651E+00 -0.22869347703E+00  0.63071036414E+00  0.51100000000E-03 0.  1.
        -12    1    4    4    0    0  0.21558401613E+02  0.10018188189E+02  0.55154582673E+01  0.24403873762E+02  0.00000000000E+00 0.  1.
</event>
<event>
 8    1  0.1280823E-010  0.9118800E+02  0.7816164E-02  0.1184000E+00
        -11   -1    0    0    0    0  0.00000000000E+00  0.00000000000E+00  0.45593999997E+02  0.45594000000E+02  0.51100000000E-03 0. -1.
         11   -1    0    0    0    0 -0.00000000000E+00 -0.00000000000E+00 -0.45593999997E+02  0.45594000000E+02  0.51100000000E-03 0.  1.
         23    2    1    2    0    0  0.00000000000E+00  0.00000000000E+00 -0.71054273576E-14  0.91188000000E+02  0.91188000000E+02 0.  0.
    9900012    2    3    3    0    0 -0.51626977802E+01 -0.28628248625E+02 -0.32208589152E+02  0.47787270941E+02  0.19999999528E+02 0.  0.
         12    1    3    3    0    0  0.51626977802E+01  0.28628248625E+02  0.32208589152E+02  0.43400729059E+02  0.00000000000E+00 0. -1.
         11    1    4    4    0    0  0.12717228151E+01  0.15994587526E+01 -0.72987199838E+01  0.75793707445E+01  0.51100000000E-03 0. -1.
        -11    1    4    4    0    0 -0.22961052709E+01 -0.49842873975E+01 -0.73828003207E+01  0.91989652196E+01  0.51100000000E-03 0.  1.
        -12    1    4    4    0    0 -0.41383153244E+01 -0.25243419980E+02 -0.17527068847E+02  0.31008934977E+02  0.00000000000E+00 0.  1.
</event>
<event>
 8    1  0.1280823E-010  0.9118800E+02  0.7816164E-02  0.1184000E+00
        -11   -1    0    0    0    0  0.00000000000E+00  0.00000000000E+00  0.45593999997E+02  0.45594000000E+02  0.51100000000E-03 0. -1.
         11   -1    0    0    0    0 -0.00000000000E+00 -0.00000000000E+00 -0.45593999997E+02  0.45594000000E+02  0.51100000000E-03 0.  1.
         23    2    1    2    0    0  0.00000000000E+00  0.88817841970E-15  0.00000000000E+00  0.91188000000E+02  0.91188000000E+02 0.  0.
    9900012    2    3    3    0    0  0.25634704036E+02  0.55748424922E+01  0.34574647589E+02  0.47787272175E+02  0.20000005153E+02 0.  0.
        -12    1    3    3    0    0 -0.25634704036E+02 -0.55748424922E+01 -0.34574647589E+02  0.43400727825E+02  0.00000000000E+00 0.  1.
         11    1    4    4    0    0  0.33197278874E+01 -0.12421334944E+01  0.22676958915E+01  0.42078419388E+01  0.51100000000E-03 0. -1.
        -11    1    4    4    0    0 -0.12930480742E+01 -0.21395318858E+01  0.85583490249E+01  0.89159917175E+01  0.51100000000E-03 0.  1.
        -12    1    4    4    0    0  0.23608024223E+02  0.89565078725E+01  0.23748602673E+02  0.34663438518E+02  0.00000000000E+00 0.  1.
</event>
<event>
 8    1  0.1280823E-010  0.9118800E+02  0.7816164E-02  0.1184000E+00
        -11   -1    0    0    0    0  0.00000000000E+00  0.00000000000E+00  0.45593999997E+02  0.45594000000E+02  0.51100000000E-03 0. -1.
         11   -1    0    0    0    0 -0.00000000000E+00 -0.00000000000E+00 -0.45593999997E+02  0.45594000000E+02  0.51100000000E-03 0.  1.
         23    2    1    2    0    0  0.17763568394E-14  0.35527136788E-14  0.71054273576E-14  0.91188000000E+02  0.91188000000E+02 0.  0.
    9900012    2    3    3    0    0 -0.14750970126E+02 -0.21155904856E+02  0.34906443488E+02  0.47787271585E+02  0.20000002466E+02 0.  0.
        -12    1    3    3    0    0  0.14750970126E+02  0.21155904856E+02 -0.34906443488E+02  0.43400728415E+02  0.00000000000E+00 0.  1.
         11    1    4    4    0    0 -0.11497621061E+02 -0.11310025062E+02  0.26034709226E+02  0.30625447616E+02  0.51100000000E-03 0. -1.
        -11    1    4    4    0    0 -0.49832819939E+01 -0.40244332476E+01 -0.62531469780E-02  0.64054041058E+01  0.51100000000E-03 0.  1.
        -12    1    4    4    0    0  0.17299329292E+01 -0.58214465460E+01  0.88779874096E+01  0.10756419863E+02  0.00000000000E+00 0.  1.
</event>
<event>
 8    1  0.1280823E-010  0.9118800E+02  0.7816164E-02  0.1184000E+00
        -11   -1    0    0    0    0  0.00000000000E+00  0.00000000000E+00  0.45593999997E+02  0.45594000000E+02  0.51100000000E-03 0. -1.
         11   -1    0    0    0    0 -0.00000000000E+00 -0.00000000000E+00 -0.45593999997E+02  0.45594000000E+02  0.51100000000E-03 0.  1.
         23    2    1    2    0    0  0.88817841970E-15  0.00000000000E+00  0.00000000000E+00  0.91188000000E+02  0.91188000000E+02 0.  0.
    9900012    2    3    3    0    0  0.60561356786E+01  0.42665431949E+02 -0.51581865569E+01  0.47787277065E+02  0.20000027448E+02 0.  0.
         12    1    3    3    0    0 -0.60561356786E+01 -0.42665431949E+02  0.51581865569E+01  0.43400722935E+02  0.00000000000E+00 0. -1.
         11    1    4    4    0    0 -0.41659176295E+00  0.15969552512E+02  0.90623031331E+00  0.16000669041E+02  0.51100000000E-03 0. -1.
        -11    1    4    4    0    0  0.19703206503E+01  0.14101250643E+02  0.42914665912E+01  0.14870915201E+02  0.51100000000E-03 0.  1.
         12    1    4    4    0    0  0.45024067913E+01  0.12594628794E+02 -0.10355883461E+02  0.16915692822E+02  0.00000000000E+00 0. -1.
</event>
<event>
 8    1  0.1280823E-010  0.9118800E+02  0.7816164E-02  0.1184000E+00
        -11   -1    0    0    0    0  0.00000000000E+00  0.00000000000E+00  0.45593999997E+02  0.45594000000E+02  0.51100000000E-03 0. -1.
         11   -1    0    0    0    0 -0.00000000000E+00 -0.00000000000E+00 -0.45593999997E+02  0.45594000000E+02  0.51100000000E-03 0.  1.
         23    2    1    2    0    0 -0.13322676296E-14  0.00000000000E+00  0.00000000000E+00  0.91188000000E+02  0.91188000000E+02 0.  0.
    9900012    2    3    3    0    0 -0.14474248887E+01 -0.16945701296E+02  0.39929581590E+02  0.47787270545E+02  0.19999997725E+02 0.  0.
        -12    1    3    3    0    0  0.14474248887E+01  0.16945701296E+02 -0.39929581590E+02  0.43400729455E+02  0.00000000000E+00 0.  1.
         11    1    4    4    0    0 -0.35536077319E+01 -0.42291537495E+01  0.11326370136E+02  0.12601608233E+02  0.51100000000E-03 0. -1.
        -11    1    4    4    0    0 -0.68658463044E+01 -0.38291222596E+01  0.10802276360E+02  0.13360059789E+02  0.51100000000E-03 0.  1.
        -12    1    4    4    0    0  0.89720291476E+01 -0.88874252868E+01  0.17800935095E+02  0.21825602523E+02  0.00000000000E+00 0.  1.
</event>
<event>
 8    1  0.1280823E-010  0.9118800E+02  0.7816164E-02  0.1184000E+00
        -11   -1    0    0    0    0  0.00000000000E+00  0.00000000000E+00  0.45593999997E+02  0.45594000000E+02  0.51100000000E-03 0. -1.
         11   -1    0    0    0    0 -0.00000000000E+00 -0.00000000000E+00 -0.45593999997E+02  0.45594000000E+02  0.51100000000E-03 0.  1.
         23    2    1    2    0    0  0.71054273576E-14  0.00000000000E+00 -0.17763568394E-14  0.91188000000E+02  0.91188000000E+02 0.  0.
    9900012    2    3    3    0    0 -0.41485006574E+02  0.59162377251E+01  0.11296710252E+02  0.47787270723E+02  0.19999998534E+02 0.  0.
        -12    1    3    3    0    0  0.41485006574E+02 -0.59162377251E+01 -0.11296710252E+02  0.43400729277E+02  0.00000000000E+00 0.  1.
         11    1    4    4    0    0 -0.18724207712E+02 -0.14496834445E+01  0.67850359291E+01  0.19968331161E+02  0.51100000000E-03 0. -1.
        -11    1    4    4    0    0 -0.57862511618E+01 -0.39594358949E+01  0.55654774442E+00  0.70333193278E+01  0.51100000000E-03 0.  1.
         12    1    4    4    0    0 -0.16974547701E+02  0.11325357064E+02  0.39551265786E+01  0.20785620234E+02  0.00000000000E+00 0. -1.
</event>
<event>
 8    1  0.1280823E-010  0.9118800E+02  0.7816164E-02  0.1184000E+00
        -11   -1    0    0    0    0  0.00000000000E+00  0.00000000000E+00  0.45593999997E+02  0.45594000000E+02  0.51100000000E-03 0. -1.
         11   -1    0    0    0    0 -0.00000000000E+00 -0.00000000000E+00 -0.45593999997E+02  0.45594000000E+02  0.51100000000E-03 0.  1.
         23    2    1    2    0    0  0.00000000000E+00  0.00000000000E+00  0.00000000000E+00  0.91188000000E+02  0.91188000000E+02 0.  0.
    9900012    2    3    3    0    0  0.78288742622E+01 -0.13617245727E+02 -0.40458653020E+02  0.47787271232E+02  0.20000000853E+02 0.  0.
         12    1    3    3    0    0 -0.78288742622E+01  0.13617245727E+02  0.40458653020E+02  0.43400728768E+02  0.00000000000E+00 0. -1.
         11    1    4    4    0    0 -0.51187616856E+01 -0.41480590678E+01 -0.74101199437E+01  0.99155430040E+01  0.51100000000E-03 0. -1.
        -11    1    4    4    0    0  0.14783649278E+00 -0.28113347788E+01 -0.12181366026E+02  0.12502445256E+02  0.51100000000E-03 0.  1.
        -12    1    4    4    0    0  0.12799799455E+02 -0.66578518806E+01 -0.20867167051E+02  0.25369282972E+02  0.00000000000E+00 0.  1.
</event>
<event>
 8    1  0.1280823E-010  0.9118800E+02  0.7816164E-02  0.1184000E+00
        -11   -1    0    0    0    0  0.00000000000E+00  0.00000000000E+00  0.45593999997E+02  0.45594000000E+02  0.51100000000E-03 0. -1.
         11   -1    0    0    0    0 -0.00000000000E+00 -0.00000000000E+00 -0.45593999997E+02  0.45594000000E+02  0.51100000000E-03 0.  1.
         23    2    1    2    0    0 -0.17763568394E-14 -0.88817841970E-15 -0.71054273576E-14  0.91188000000E+02  0.91188000000E+02 0.  0.
    9900012    2    3    3    0    0 -0.96304766131E+01 -0.72293304520E+01 -0.41696674263E+02  0.47787286375E+02  0.20000069899E+02 0.  0.
         12    1    3    3    0    0  0.96304766131E+01  0.72293304520E+01  0.41696674263E+02  0.43400713625E+02  0.00000000000E+00 0. -1.
         11    1    4    4    0    0 -0.56863268818E+01 -0.17161549092E+01 -0.76713985093E+01  0.97020542376E+01  0.51100000000E-03 0. -1.
        -11    1    4    4    0    0 -0.43269106691E+01 -0.71628066809E+01 -0.67334494270E+01  0.10740916950E+02  0.51100000000E-03 0.  1.
         12    1    4    4    0    0  0.38276093778E+00  0.16496311382E+01 -0.27291826326E+02  0.27344315187E+02  0.00000000000E+00 0. -1.
</event>
<event>
 8    1  0.1280823E-010  0.9118800E+02  0.7816164E-02  0.1184000E+00
        -11   -1    0    0    0    0  0.00000000000E+00  0.00000000000E+00  0.45593999997E+02  0.45594000000E+02  0.51100000000E-03 0. -1.
         11   -1    0    0    0    0 -0.00000000000E+00 -0.00000000000E+00 -0.45593999997E+02  0.45594000000E+02  0.51100000000E-03 0.  1.
         23    2    1    2    0    0 -0.17763568394E-14  0.00000000000E+00  0.00000000000E+00  0.91188000000E+02  0.91188000000E+02 0.  0.
    9900012    2    3    3    0    0  0.64259017275E+01  0.21282931716E+02  0.37274226728E+02  0.47787269896E+02  0.19999994763E+02 0.  0.
        -12    1    3    3    0    0 -0.64259017275E+01 -0.21282931716E+02 -0.37274226728E+02  0.43400730104E+02  0.00000000000E+00 0.  1.
         11    1    4    4    0    0 -0.40224624848E+01  0.10755600726E+02  0.15565242809E+02  0.19342697211E+02  0.51100000000E-03 0. -1.
        -11    1    4    4    0    0 -0.12919070353E+00 -0.14886073504E+01  0.53553285478E+01  0.55598728580E+01  0.51100000000E-03 0.  1.
        -12    1    4    4    0    0  0.10577554916E+02  0.12015938341E+02  0.16353655371E+02  0.22884699827E+02  0.00000000000E+00 0.  1.
</event>
<event>
 8    1  0.1280823E-010  0.9118800E+02  0.7816164E-02  0.1184000E+00
        -11   -1    0    0    0    0  0.00000000000E+00  0.00000000000E+00  0.45593999997E+02  0.45594000000E+02  0.51100000000E-03 0. -1.
         11   -1    0    0    0    0 -0.00000000000E+00 -0.00000000000E+00 -0.45593999997E+02  0.45594000000E+02  0.51100000000E-03 0.  1.
         23    2    1    2    0    0 -0.71054273576E-14  0.00000000000E+00  0.00000000000E+00  0.91188000000E+02  0.91188000000E+02 0.  0.
    9900012    2    3    3    0    0  0.39096828586E+02  0.18257016725E+02  0.46630011395E+01  0.47787259858E+02  0.19999948999E+02 0.  0.
        -12    1    3    3    0    0 -0.39096828586E+02 -0.18257016725E+02 -0.46630011395E+01  0.43400740142E+02  0.00000000000E+00 0.  1.
         11    1    4    4    0    0  0.16736913659E+02  0.14830191122E+02 -0.16986198270E+00  0.22362640741E+02  0.51100000000E-03 0. -1.
        -11    1    4    4    0    0  0.83733674754E+01  0.39674742205E+01 -0.25358254132E+01  0.96064845472E+01  0.51100000000E-03 0.  1.
        -12    1    4    4    0    0  0.13986547452E+02 -0.54064861795E+00  0.73686885353E+01  0.15818134570E+02  0.00000000000E+00 0.  1.
</event>
<event>
 8    1  0.1280823E-010  0.9118800E+02  0.7816164E-02  0.1184000E+00
        -11   -1    0    0    0    0  0.00000000000E+00  0.00000000000E+00  0.45593999997E+02  0.45594000000E+02  0.51100000000E-03 0. -1.
         11   -1    0    0    0    0 -0.00000000000E+00 -0.00000000000E+00 -0.45593999997E+02  0.45594000000E+02  0.51100000000E-03 0.  1.
         23    2    1    2    0    0  0.00000000000E+00  0.00000000000E+00  0.00000000000E+00  0.91188000000E+02  0.91188000000E+02 0.  0.
    9900012    2    3    3    0    0  0.33476695086E+02 -0.12840421130E+02 -0.24455216528E+02  0.47787272540E+02  0.20000006817E+02 0.  0.
         12    1    3    3    0    0 -0.33476695086E+02  0.12840421130E+02  0.24455216528E+02  0.43400727460E+02  0.00000000000E+00 0. -1.
         11    1    4    4    0    0  0.21704261959E+00  0.17004622062E+01 -0.16691993147E+01  0.23926775435E+01  0.51100000000E-03 0. -1.
        -11    1    4    4    0    0  0.12994933479E+02 -0.23314380856E+00 -0.13937130520E+02  0.19056921566E+02  0.51100000000E-03 0.  1.
         12    1    4    4    0    0  0.20264718987E+02 -0.14307739528E+02 -0.88488866929E+01  0.26337673430E+02  0.00000000000E+00 0. -1.
</event>
<event>
 8    1  0.1692402E-010  0.9118800E+02  0.7816164E-02  0.1184000E+00
        -11   -1    0    0    0    0  0.00000000000E+00  0.00000000000E+00  0.45593999997E+02  0.45594000000E+02  0.51100000000E-03 0. -1.
         11   -1    0    0    0    0 -0.00000000000E+00 -0.00000000000E+00 -0.45593999997E+02  0.45594000000E+02  0.51100000000E-03 0.  1.
         23    2    1    2    0    0  0.00000000000E+00  0.00000000000E+00  0.71054273576E-14  0.91188000000E+02  0.91188000000E+02 0.  0.
    9900012    2    3    3    0    0 -0.18410198687E+02  0.69651934657E+01 -0.38680402455E+02  0.47787275699E+02  0.20000021223E+02 0.  0.
         12    1    3    3    0    0  0.18410198687E+02 -0.69651934657E+01  0.38680402455E+02  0.43400724301E+02  0.00000000000E+00 0. -1.
         11    1    4    4    0    0 -0.19968715978E+01  0.47768165634E+01 -0.16819406407E+02  0.17598235844E+02  0.51100000000E-03 0. -1.
        -11    1    4    4    0    0  0.39583637774E+00  0.19978360935E+01  0.61001362200E+00  0.21260649977E+01  0.51100000000E-03 0.  1.
        -12    1    4    4    0    0 -0.16809163467E+02  0.19054080888E+00 -0.22471009670E+02  0.28062974858E+02  0.00000000000E+00 0.  1.
</event>
<event>
 8    1  0.1280823E-010  0.9118800E+02  0.7816164E-02  0.1184000E+00
        -11   -1    0    0    0    0  0.00000000000E+00  0.00000000000E+00  0.45593999997E+02  0.45594000000E+02  0.51100000000E-03 0. -1.
         11   -1    0    0    0    0 -0.00000000000E+00 -0.00000000000E+00 -0.45593999997E+02  0.45594000000E+02  0.51100000000E-03 0.  1.
         23    2    1    2    0    0  0.35527136788E-14  0.00000000000E+00  0.35527136788E-14  0.91188000000E+02  0.91188000000E+02 0.  0.
    9900012    2    3    3    0    0  0.10411833887E+02 -0.38200306453E+02  0.17775081829E+02  0.47787271526E+02  0.20000002198E+02 0.  0.
        -12    1    3    3    0    0 -0.10411833887E+02  0.38200306453E+02 -0.17775081829E+02  0.43400728474E+02  0.00000000000E+00 0.  1.
         11    1    4    4    0    0  0.10201018109E+02 -0.22255677883E+02  0.17151295233E+02  0.29892187891E+02  0.51100000000E-03 0. -1.
        -11    1    4    4    0    0  0.65691953993E+00 -0.21474168186E+01  0.31428521151E+01  0.38627013803E+01  0.51100000000E-03 0.  1.
        -12    1    4    4    0    0 -0.44610376138E+00 -0.13797211751E+02 -0.25190655182E+01  0.14032382255E+02  0.00000000000E+00 0.  1.
</event>
<event>
 8    1  0.1280823E-010  0.9118800E+02  0.7816164E-02  0.1184000E+00
        -11   -1    0    0    0    0  0.00000000000E+00  0.00000000000E+00  0.45593999997E+02  0.45594000000E+02  0.51100000000E-03 0. -1.
         11   -1    0    0    0    0 -0.00000000000E+00 -0.00000000000E+00 -0.45593999997E+02  0.45594000000E+02  0.51100000000E-03 0.  1.
         23    2    1    2    0    0 -0.17763568394E-14 -0.88817841970E-15  0.71054273576E-14  0.91188000000E+02  0.91188000000E+02 0.  0.
    9900012    2    3    3    0    0 -0.97582970681E+01 -0.45210260192E+01  0.42047106917E+02  0.47787271457E+02  0.20000001882E+02 0.  0.
        -12    1    3    3    0    0  0.97582970681E+01  0.45210260192E+01 -0.42047106917E+02  0.43400728543E+02  0.00000000000E+00 0.  1.
         11    1    4    4    0    0 -0.72665824753E+01  0.33331058608E+01  0.18776578834E+02  0.20407663475E+02  0.51100000000E-03 0. -1.
        -11    1    4    4    0    0  0.42390780085E+01 -0.18876780155E+01  0.12580128117E+02  0.13408681306E+02  0.51100000000E-03 0.  1.
        -12    1    4    4    0    0 -0.67307926013E+01 -0.59664538644E+01  0.10690399966E+02  0.13970926676E+02  0.00000000000E+00 0.  1.
</event>
<event>
 8    1  0.1280823E-010  0.9118800E+02  0.7816164E-02  0.1184000E+00
        -11   -1    0    0    0    0  0.00000000000E+00  0.00000000000E+00  0.45593999997E+02  0.45594000000E+02  0.51100000000E-03 0. -1.
         11   -1    0    0    0    0 -0.00000000000E+00 -0.00000000000E+00 -0.45593999997E+02  0.45594000000E+02  0.51100000000E-03 0.  1.
         23    2    1    2    0    0  0.71054273576E-14  0.00000000000E+00  0.00000000000E+00  0.91188000000E+02  0.91188000000E+02 0.  0.
    9900012    2    3    3    0    0  0.36267530726E+02 -0.10831838901E+02 -0.21235832485E+02  0.47787273044E+02  0.20000009119E+02 0.  0.
         12    1    3    3    0    0 -0.36267530726E+02  0.10831838901E+02  0.21235832485E+02  0.43400726956E+02  0.00000000000E+00 0. -1.
         11    1    4    4    0    0  0.10795043708E+02 -0.10851697657E+02 -0.10274923377E+02  0.18435464772E+02  0.51100000000E-03 0. -1.
        -11    1    4    4    0    0  0.14347130966E+02 -0.38518414381E+01 -0.30581732590E+01  0.15166715972E+02  0.51100000000E-03 0.  1.
         12    1    4    4    0    0  0.11125356051E+02  0.38717001943E+01 -0.79027358493E+01  0.14185092300E+02  0.00000000000E+00 0. -1.
</event>
<event>
 8    1  0.1280823E-010  0.9118800E+02  0.7816164E-02  0.1184000E+00
        -11   -1    0    0    0    0  0.00000000000E+00  0.00000000000E+00  0.45593999997E+02  0.45594000000E+02  0.51100000000E-03 0. -1.
         11   -1    0    0    0    0 -0.00000000000E+00 -0.00000000000E+00 -0.45593999997E+02  0.45594000000E+02  0.51100000000E-03 0.  1.
         23    2    1    2    0    0 -0.35527136788E-14  0.00000000000E+00  0.00000000000E+00  0.91188000000E+02  0.91188000000E+02 0.  0.
    9900012    2    3    3    0    0 -0.27891165072E+02  0.32949424641E+02 -0.44767607952E+01  0.47787273503E+02  0.20000011209E+02 0.  0.
         12    1    3    3    0    0  0.27891165072E+02 -0.32949424641E+02  0.44767607952E+01  0.43400726497E+02  0.00000000000E+00 0. -1.
         11    1    4    4    0    0 -0.26867311990E+01  0.15529929690E+01  0.38743908845E+01  0.49639920110E+01  0.51100000000E-03 0. -1.
        -11    1    4    4    0    0 -0.62963683403E+00 -0.43323535317E+00 -0.19629417067E+01  0.21064842319E+01  0.51100000000E-03 0.  1.
        -12    1    4    4    0    0 -0.24574797039E+02  0.31829667025E+02 -0.63882099730E+01  0.40716797260E+02  0.00000000000E+00 0.  1.
</event>
<event>
 8    1  0.1280823E-010  0.9118800E+02  0.7816164E-02  0.1184000E+00
        -11   -1    0    0    0    0  0.00000000000E+00  0.00000000000E+00  0.45593999997E+02  0.45594000000E+02  0.51100000000E-03 0. -1.
         11   -1    0    0    0    0 -0.00000000000E+00 -0.00000000000E+00 -0.45593999997E+02  0.45594000000E+02  0.51100000000E-03 0.  1.
         23    2    1    2    0    0  0.35527136788E-14  0.10658141036E-13  0.71054273576E-14  0.91188000000E+02  0.91188000000E+02 0.  0.
    9900012    2    3    3    0    0  0.22493389292E+02  0.21583541619E+02  0.30196386464E+02  0.47787267447E+02  0.19999983597E+02 0.  0.
        -12    1    3    3    0    0 -0.22493389292E+02 -0.21583541619E+02 -0.30196386464E+02  0.43400732553E+02  0.00000000000E+00 0.  1.
         11    1    4    4    0    0  0.13680051815E+02  0.17067314370E+02  0.11646903871E+02  0.24780787063E+02  0.51100000000E-03 0. -1.
        -11    1    4    4    0    0  0.43222628183E-01  0.47762221398E+01  0.55396326375E+01  0.73144853643E+01  0.51100000000E-03 0.  1.
        -12    1    4    4    0    0  0.87701148490E+01 -0.25999489057E+00  0.13009849956E+02  0.15691995019E+02  0.00000000000E+00 0.  1.
</event>
<event>
 8    1  0.1280823E-010  0.9118800E+02  0.7816164E-02  0.1184000E+00
        -11   -1    0    0    0    0  0.00000000000E+00  0.00000000000E+00  0.45593999997E+02  0.45594000000E+02  0.51100000000E-03 0. -1.
         11   -1    0    0    0    0 -0.00000000000E+00 -0.00000000000E+00 -0.45593999997E+02  0.45594000000E+02  0.51100000000E-03 0.  1.
         23    2    1    2    0    0 -0.35527136788E-14  0.00000000000E+00  0.00000000000E+00  0.91188000000E+02  0.91188000000E+02 0.  0.
    9900012    2    3    3    0    0 -0.24552273928E+02 -0.32749586377E+02  0.14431692584E+02  0.47787270585E+02  0.19999997906E+02 0.  0.
        -12    1    3    3    0    0  0.24552273928E+02  0.32749586377E+02 -0.14431692584E+02  0.43400729415E+02  0.00000000000E+00 0.  1.
         11    1    4    4    0    0 -0.15977245075E+02 -0.11206518116E+02  0.72590538283E+01  0.20821918048E+02  0.51100000000E-03 0. -1.
        -11    1    4    4    0    0 -0.46127818980E+01 -0.99113535792E+00  0.30917519332E+01  0.56408364994E+01  0.51100000000E-03 0.  1.
         12    1    4    4    0    0 -0.39622469553E+01 -0.20551932903E+02  0.40808868225E+01  0.21324516038E+02  0.00000000000E+00 0. -1.
</event>
<event>
 8    1  0.1280823E-010  0.9118800E+02  0.7816164E-02  0.1184000E+00
        -11   -1    0    0    0    0  0.00000000000E+00  0.00000000000E+00  0.45593999997E+02  0.45594000000E+02  0.51100000000E-03 0.  1.
         11   -1    0    0    0    0 -0.00000000000E+00 -0.00000000000E+00 -0.45593999997E+02  0.45594000000E+02  0.51100000000E-03 0. -1.
         23    2    1    2    0    0 -0.88817841970E-15  0.00000000000E+00  0.00000000000E+00  0.91188000000E+02  0.91188000000E+02 0.  0.
    9900012    2    3    3    0    0  0.36400874549E+01  0.42248825971E+02 -0.92417400951E+01  0.47787270829E+02  0.19999999017E+02 0.  0.
         12    1    3    3    0    0 -0.36400874549E+01 -0.42248825971E+02  0.92417400951E+01  0.43400729171E+02  0.00000000000E+00 0. -1.
         11    1    4    4    0    0 -0.38313328888E+01  0.20962637159E+02 -0.24574523139E+01  0.21451115134E+02  0.51100000000E-03 0. -1.
        -11    1    4    4    0    0 -0.31658785614E+01  0.37240868481E+01 -0.83045259810E+00  0.49579493438E+01  0.51100000000E-03 0.  1.
        -12    1    4    4    0    0  0.10637298905E+02  0.17562101964E+02 -0.59538351831E+01  0.21378206351E+02  0.00000000000E+00 0.  1.
</event>
<event>
 8    1  0.1280823E-010  0.9118800E+02  0.7816164E-02  0.1184000E+00
        -11   -1    0    0    0    0  0.00000000000E+00  0.00000000000E+00  0.45593999997E+02  0.45594000000E+02  0.51100000000E-03 0. -1.
         11   -1    0    0    0    0 -0.00000000000E+00 -0.00000000000E+00 -0.45593999997E+02  0.45594000000E+02  0.51100000000E-03 0.  1.
         23    2    1    2    0    0  0.00000000000E+00  0.00000000000E+00  0.00000000000E+00  0.91188000000E+02  0.91188000000E+02 0.  0.
    9900012    2    3    3    0    0  0.57134715273E+01 -0.37133412967E+02 -0.21727655152E+02  0.47787249847E+02  0.19999903351E+02 0.  0.
         12    1    3    3    0    0 -0.57134715273E+01  0.37133412967E+02  0.21727655152E+02  0.43400750153E+02  0.00000000000E+00 0. -1.
         11    1    4    4    0    0 -0.78839799493E+00  0.12649903222E+01  0.28160909488E+00  0.15169297470E+01  0.51100000000E-03 0.  1.
        -11    1    4    4    0    0 -0.93582311940E+00 -0.12808023811E+01  0.10892314928E+01  0.19242258590E+01  0.51100000000E-03 0. -1.
        -12    1    4    4    0    0  0.74376926416E+01 -0.37117600908E+02 -0.23098495739E+02  0.44346094241E+02  0.00000000000E+00 0.  1.
</event>
<event>
 8    1  0.1280823E-010  0.9118800E+02  0.7816164E-02  0.1184000E+00
        -11   -1    0    0    0    0  0.00000000000E+00  0.00000000000E+00  0.45593999997E+02  0.45594000000E+02  0.51100000000E-03 0.  1.
         11   -1    0    0    0    0 -0.00000000000E+00 -0.00000000000E+00 -0.45593999997E+02  0.45594000000E+02  0.51100000000E-03 0. -1.
         23    2    1    2    0    0 -0.17763568394E-14  0.00000000000E+00  0.00000000000E+00  0.91188000000E+02  0.91188000000E+02 0.  0.
    9900012    2    3    3    0    0  0.84407219048E+01 -0.37928188565E+02 -0.19334684293E+02  0.47787270849E+02  0.19999999108E+02 0.  0.
         12    1    3    3    0    0 -0.84407219048E+01  0.37928188565E+02  0.19334684293E+02  0.43400729151E+02  0.00000000000E+00 0. -1.
         11    1    4    4    0    0 -0.35323871773E+00 -0.77465766613E+01 -0.41896042787E+01  0.88140235894E+01  0.51100000000E-03 0. -1.
        -11    1    4    4    0    0 -0.35934193089E+01 -0.18612430438E+02 -0.82970176764E+01  0.20692407587E+02  0.51100000000E-03 0.  1.
         12    1    4    4    0    0  0.12387379931E+02 -0.11569181466E+02 -0.68480623383E+01  0.18280839673E+02  0.00000000000E+00 0. -1.
</event>
<event>
 8    1  0.1280823E-010  0.9118800E+02  0.7816164E-02  0.1184000E+00
        -11   -1    0    0    0    0  0.00000000000E+00  0.00000000000E+00  0.45593999997E+02  0.45594000000E+02  0.51100000000E-03 0. -1.
         11   -1    0    0    0    0 -0.00000000000E+00 -0.00000000000E+00 -0.45593999997E+02  0.45594000000E+02  0.51100000000E-03 0.  1.
         23    2    1    2    0    0 -0.17763568394E-14 -0.17763568394E-14  0.71054273576E-14  0.91188000000E+02  0.91188000000E+02 0.  0.
    9900012    2    3    3    0    0  0.84761991881E+01  0.99490280353E+01 -0.41385910647E+02  0.47787277522E+02  0.20000029535E+02 0.  0.
         12    1    3    3    0    0 -0.84761991881E+01 -0.99490280353E+01  0.41385910647E+02  0.43400722478E+02  0.00000000000E+00 0. -1.
         11    1    4    4    0    0  0.11446269084E+02  0.51120507958E+01 -0.11517156667E+02  0.17023367388E+02  0.51100000000E-03 0. -1.
        -11    1    4    4    0    0 -0.13501644740E+00  0.52076962435E+00 -0.15256852185E+02  0.15266334507E+02  0.51100000000E-03 0.  1.
         12    1    4    4    0    0 -0.28350534488E+01  0.43162076152E+01 -0.14611901795E+02  0.15497575627E+02  0.00000000000E+00 0. -1.
</event>
<event>
 8    1  0.1280823E-010  0.9118800E+02  0.7816164E-02  0.1184000E+00
        -11   -1    0    0    0    0  0.00000000000E+00  0.00000000000E+00  0.45593999997E+02  0.45594000000E+02  0.51100000000E-03 0. -1.
         11   -1    0    0    0    0 -0.00000000000E+00 -0.00000000000E+00 -0.45593999997E+02  0.45594000000E+02  0.51100000000E-03 0.  1.
         23    2    1    2    0    0 -0.44408920985E-15 -0.71054273576E-14  0.00000000000E+00  0.91188000000E+02  0.91188000000E+02 0.  0.
    9900012    2    3    3    0    0 -0.23876047680E+01  0.36500772511E+02  0.23358427916E+02  0.47787271836E+02  0.20000003611E+02 0.  0.
        -12    1    3    3    0    0  0.23876047680E+01 -0.36500772511E+02 -0.23358427916E+02  0.43400728164E+02  0.00000000000E+00 0.  1.
         11    1    4    4    0    0 -0.29676558377E+01  0.32263227940E+02  0.16979529553E+02  0.36579055242E+02  0.51100000000E-03 0. -1.
        -11    1    4    4    0    0 -0.25563108815E+01  0.26267467290E+01 -0.27737364844E+00  0.36757938058E+01  0.51100000000E-03 0.  1.
         12    1    4    4    0    0  0.31363619512E+01  0.16107978417E+01  0.66562720117E+01  0.75324227888E+01  0.00000000000E+00 0. -1.
</event>
<event>
 8    1  0.1280823E-010  0.9118800E+02  0.7816164E-02  0.1184000E+00
        -11   -1    0    0    0    0  0.00000000000E+00  0.00000000000E+00  0.45593999997E+02  0.45594000000E+02  0.51100000000E-03 0. -1.
         11   -1    0    0    0    0 -0.00000000000E+00 -0.00000000000E+00 -0.45593999997E+02  0.45594000000E+02  0.51100000000E-03 0.  1.
         23    2    1    2    0    0 -0.17763568394E-14  0.00000000000E+00  0.00000000000E+00  0.91188000000E+02  0.91188000000E+02 0.  0.
    9900012    2    3    3    0    0  0.42411186120E+01  0.17832493099E+02 -0.39340031489E+02  0.47787274490E+02  0.20000015711E+02 0.  0.
         12    1    3    3    0    0 -0.42411186120E+01 -0.17832493099E+02  0.39340031489E+02  0.43400725510E+02  0.00000000000E+00 0. -1.
         11    1    4    4    0    0  0.19901633323E+01  0.12095928019E+02 -0.16233668569E+02  0.20342178354E+02  0.51100000000E-03 0. -1.
        -11    1    4    4    0    0  0.60245494649E+01  0.68518693252E+01 -0.90599245410E+01  0.12857898057E+02  0.51100000000E-03 0.  1.
         12    1    4    4    0    0 -0.37735941853E+01 -0.11153042455E+01 -0.14046438379E+02  0.14587198079E+02  0.00000000000E+00 0. -1.
</event>
<event>
 8    1  0.1280823E-010  0.9118800E+02  0.7816164E-02  0.1184000E+00
        -11   -1    0    0    0    0  0.00000000000E+00  0.00000000000E+00  0.45593999997E+02  0.45594000000E+02  0.51100000000E-03 0. -1.
         11   -1    0    0    0    0 -0.00000000000E+00 -0.00000000000E+00 -0.45593999997E+02  0.45594000000E+02  0.51100000000E-03 0.  1.
         23    2    1    2    0    0 -0.35527136788E-14  0.00000000000E+00  0.00000000000E+00  0.91188000000E+02  0.91188000000E+02 0.  0.
    9900012    2    3    3    0    0  0.28441762616E+02 -0.12780373964E+01 -0.32757533604E+02  0.47787271341E+02  0.20000001351E+02 0.  0.
         12    1    3    3    0    0 -0.28441762616E+02  0.12780373964E+01  0.32757533604E+02  0.43400728659E+02  0.00000000000E+00 0. -1.
         11    1    4    4    0    0  0.12310584741E+02 -0.81141184451E+00 -0.17292658019E+02  0.21242525921E+02  0.51100000000E-03 0. -1.
        -11    1    4    4    0    0  0.16797338948E+02  0.63870783648E+00 -0.17416359136E+02  0.24205125681E+02  0.51100000000E-03 0.  1.
         12    1    4    4    0    0 -0.66616107283E+00 -0.11053333884E+01  0.19514835508E+01  0.23396197390E+01  0.00000000000E+00 0. -1.
</event>
<event>
 8    1  0.1280823E-010  0.9118800E+02  0.7816164E-02  0.1184000E+00
        -11   -1    0    0    0    0  0.00000000000E+00  0.00000000000E+00  0.45593999997E+02  0.45594000000E+02  0.51100000000E-03 0.  1.
         11   -1    0    0    0    0 -0.00000000000E+00 -0.00000000000E+00 -0.45593999997E+02  0.45594000000E+02  0.51100000000E-03 0. -1.
         23    2    1    2    0    0  0.00000000000E+00  0.00000000000E+00  0.44408920985E-15  0.91188000000E+02  0.91188000000E+02 0.  0.
    9900012    2    3    3    0    0 -0.39001033446E+02 -0.18739649134E+02  0.33718244333E+01  0.47787259689E+02  0.19999948228E+02 0.  0.
        -12    1    3    3    0    0  0.39001033446E+02  0.18739649134E+02 -0.33718244333E+01  0.43400740311E+02  0.00000000000E+00 0.  1.
         11    1    4    4    0    0 -0.18729561047E+02 -0.50486988002E+01  0.46324384205E+01  0.19943552908E+02  0.51100000000E-03 0. -1.
        -11    1    4    4    0    0 -0.22196636816E+02 -0.12954393090E+02 -0.16200773985E+01  0.25751342437E+02  0.51100000000E-03 0.  1.
        -12    1    4    4    0    0  0.19251644175E+01 -0.73655724395E+00  0.35946341126E+00  0.20923643450E+01  0.00000000000E+00 0.  1.
</event>
<event>
 8    1  0.1280823E-010  0.9118800E+02  0.7816164E-02  0.1184000E+00
        -11   -1    0    0    0    0  0.00000000000E+00  0.00000000000E+00  0.45593999997E+02  0.45594000000E+02  0.51100000000E-03 0. -1.
         11   -1    0    0    0    0 -0.00000000000E+00 -0.00000000000E+00 -0.45593999997E+02  0.45594000000E+02  0.51100000000E-03 0.  1.
         23    2    1    2    0    0  0.00000000000E+00  0.00000000000E+00  0.00000000000E+00  0.91188000000E+02  0.91188000000E+02 0.  0.
    9900012    2    3    3    0    0  0.12003020689E+02  0.34985875543E+02  0.22705491223E+02  0.47787270457E+02  0.19999997320E+02 0.  0.
        -12    1    3    3    0    0 -0.12003020689E+02 -0.34985875543E+02 -0.22705491223E+02  0.43400729543E+02  0.00000000000E+00 0.  1.
         11    1    4    4    0    0  0.16526807963E+00  0.13956545570E+02  0.11639766413E+02  0.18174065043E+02  0.51100000000E-03 0. -1.
        -11    1    4    4    0    0 -0.14803630656E+00  0.10914512443E+02  0.96381526120E+00  0.10957985068E+02  0.51100000000E-03 0.  1.
         12    1    4    4    0    0  0.11985788916E+02  0.10114817531E+02  0.10101909549E+02  0.18655220346E+02  0.00000000000E+00 0. -1.
</event>
<event>
 8    1  0.1280823E-010  0.9118800E+02  0.7816164E-02  0.1184000E+00
        -11   -1    0    0    0    0  0.00000000000E+00  0.00000000000E+00  0.45593999997E+02  0.45594000000E+02  0.51100000000E-03 0. -1.
         11   -1    0    0    0    0 -0.00000000000E+00 -0.00000000000E+00 -0.45593999997E+02  0.45594000000E+02  0.51100000000E-03 0.  1.
         23    2    1    2    0    0 -0.17763568394E-14  0.00000000000E+00  0.00000000000E+00  0.91188000000E+02  0.91188000000E+02 0.  0.
    9900012    2    3    3    0    0 -0.10846810427E+02 -0.24500953593E+02  0.34141959508E+02  0.47787269333E+02  0.19999992196E+02 0.  0.
        -12    1    3    3    0    0  0.10846810427E+02  0.24500953593E+02 -0.34141959508E+02  0.43400730667E+02  0.00000000000E+00 0.  1.
         11    1    4    4    0    0 -0.52394512198E+01 -0.57720651153E+00  0.23587341663E+01  0.57748284451E+01  0.51100000000E-03 0. -1.
        -11    1    4    4    0    0 -0.89701902475E+01 -0.14739343190E+02  0.16542491816E+02  0.23903275644E+02  0.51100000000E-03 0.  1.
        -12    1    4    4    0    0  0.33628310399E+01 -0.91844038917E+01  0.15240733525E+02  0.18109165244E+02  0.00000000000E+00 0.  1.
</event>
<event>
 8    1  0.1280823E-010  0.9118800E+02  0.7816164E-02  0.1184000E+00
        -11   -1    0    0    0    0  0.00000000000E+00  0.00000000000E+00  0.45593999997E+02  0.45594000000E+02  0.51100000000E-03 0. -1.
         11   -1    0    0    0    0 -0.00000000000E+00 -0.00000000000E+00 -0.45593999997E+02  0.45594000000E+02  0.51100000000E-03 0.  1.
         23    2    1    2    0    0  0.00000000000E+00  0.00000000000E+00  0.00000000000E+00  0.91188000000E+02  0.91188000000E+02 0.  0.
    9900012    2    3    3    0    0  0.32928870699E+02  0.16389935074E+02  0.23036555055E+02  0.47787269983E+02  0.19999995160E+02 0.  0.
        -12    1    3    3    0    0 -0.32928870699E+02 -0.16389935074E+02 -0.23036555055E+02  0.43400730017E+02  0.00000000000E+00 0.  1.
         11    1    4    4    0    0  0.86191231791E+01  0.72500363551E+01  0.24873351454E+01  0.11534259747E+02  0.51100000000E-03 0. -1.
        -11    1    4    4    0    0  0.30810832699E+01 -0.36734124903E+01  0.16310506656E+01  0.50643222622E+01  0.51100000000E-03 0.  1.
        -12    1    4    4    0    0  0.21228664250E+02  0.12813311210E+02  0.18918169244E+02  0.31188687974E+02  0.00000000000E+00 0.  1.
</event>
<event>
 8    1  0.1280823E-010  0.9118800E+02  0.7816164E-02  0.1184000E+00
        -11   -1    0    0    0    0  0.00000000000E+00  0.00000000000E+00  0.45593999997E+02  0.45594000000E+02  0.51100000000E-03 0. -1.
         11   -1    0    0    0    0 -0.00000000000E+00 -0.00000000000E+00 -0.45593999997E+02  0.45594000000E+02  0.51100000000E-03 0.  1.
         23    2    1    2    0    0 -0.35527136788E-14  0.00000000000E+00 -0.17763568394E-14  0.91188000000E+02  0.91188000000E+02 0.  0.
    9900012    2    3    3    0    0 -0.30647196804E+02  0.27174122025E+02 -0.14350570805E+02  0.47787280396E+02  0.20000042635E+02 0.  0.
         12    1    3    3    0    0  0.30647196804E+02 -0.27174122025E+02  0.14350570805E+02  0.43400719604E+02  0.00000000000E+00 0. -1.
         11    1    4    4    0    0 -0.39093320575E+01  0.32121119735E+01  0.14852748724E+01  0.52731946839E+01  0.51100000000E-03 0. -1.
        -11    1    4    4    0    0 -0.51302781277E+00  0.81570451474E+01 -0.66786162166E+01  0.10554832917E+02  0.51100000000E-03 0.  1.
        -12    1    4    4    0    0 -0.26224836933E+02  0.15804964904E+02 -0.91572294605E+01  0.31959252795E+02  0.00000000000E+00 0.  1.
</event>
<event>
 8    1  0.1280823E-010  0.9118800E+02  0.7816164E-02  0.1184000E+00
        -11   -1    0    0    0    0  0.00000000000E+00  0.00000000000E+00  0.45593999997E+02  0.45594000000E+02  0.51100000000E-03 0. -1.
         11   -1    0    0    0    0 -0.00000000000E+00 -0.00000000000E+00 -0.45593999997E+02  0.45594000000E+02  0.51100000000E-03 0.  1.
         23    2    1    2    0    0  0.00000000000E+00  0.35527136788E-14  0.00000000000E+00  0.91188000000E+02  0.91188000000E+02 0.  0.
    9900012    2    3    3    0    0 -0.17351243941E+02 -0.19404905776E+02 -0.34727591447E+02  0.47787289842E+02  0.20000085706E+02 0.  0.
         12    1    3    3    0    0  0.17351243941E+02  0.19404905776E+02  0.34727591447E+02  0.43400710158E+02  0.00000000000E+00 0. -1.
         11    1    4    4    0    0 -0.11103418052E+01  0.10418212074E+01 -0.85697242343E+01  0.87039315292E+01  0.51100000000E-03 0. -1.
        -11    1    4    4    0    0 -0.14758273735E+02 -0.10856721201E+02 -0.21712574904E+02  0.28409698135E+02  0.51100000000E-03 0.  1.
        -12    1    4    4    0    0 -0.14826284004E+01 -0.95900057829E+01 -0.44452923089E+01  0.10673660178E+02  0.00000000000E+00 0.  1.
</event>
<event>
 8    1  0.1280823E-010  0.9118800E+02  0.7816164E-02  0.1184000E+00
        -11   -1    0    0    0    0  0.00000000000E+00  0.00000000000E+00  0.45593999997E+02  0.45594000000E+02  0.51100000000E-03 0. -1.
         11   -1    0    0    0    0 -0.00000000000E+00 -0.00000000000E+00 -0.45593999997E+02  0.45594000000E+02  0.51100000000E-03 0.  1.
         23    2    1    2    0    0  0.00000000000E+00  0.00000000000E+00  0.00000000000E+00  0.91188000000E+02  0.91188000000E+02 0.  0.
    9900012    2    3    3    0    0 -0.18105668605E+02 -0.16324535002E+02 -0.35907073119E+02  0.47787267533E+02  0.19999983992E+02 0.  0.
         12    1    3    3    0    0  0.18105668605E+02  0.16324535002E+02  0.35907073119E+02  0.43400732467E+02  0.00000000000E+00 0. -1.
         11    1    4    4    0    0 -0.34684597184E+01 -0.48158022961E+01 -0.13966234783E+02  0.15174909517E+02  0.51100000000E-03 0. -1.
        -11    1    4    4    0    0 -0.34583547402E+01 -0.40205882822E+01 -0.17741518821E+02  0.18517203838E+02  0.51100000000E-03 0.  1.
         12    1    4    4    0    0 -0.11178854146E+02 -0.74881444234E+01 -0.41993195158E+01  0.14095154179E+02  0.00000000000E+00 0. -1.
</event>
<event>
 8    1  0.1280823E-010  0.9118800E+02  0.7816164E-02  0.1184000E+00
        -11   -1    0    0    0    0  0.00000000000E+00  0.00000000000E+00  0.45593999997E+02  0.45594000000E+02  0.51100000000E-03 0.  1.
         11   -1    0    0    0    0 -0.00000000000E+00 -0.00000000000E+00 -0.45593999997E+02  0.45594000000E+02  0.51100000000E-03 0. -1.
         23    2    1    2    0    0  0.00000000000E+00 -0.35527136788E-14  0.00000000000E+00  0.91188000000E+02  0.91188000000E+02 0.  0.
    9900012    2    3    3    0    0 -0.33454646926E+02 -0.27049749388E+02 -0.57202276472E+01  0.47787270199E+02  0.19999996144E+02 0.  0.
         12    1    3    3    0    0  0.33454646926E+02  0.27049749388E+02  0.57202276472E+01  0.43400729801E+02  0.00000000000E+00 0. -1.
         11    1    4    4    0    0 -0.44406796156E+01 -0.33353825024E+01  0.35676841038E+01  0.66009682632E+01  0.51100000000E-03 0. -1.
        -11    1    4    4    0    0 -0.17262459727E+02 -0.21561830713E+02 -0.32833255376E+01  0.27815198837E+02  0.51100000000E-03 0.  1.
         12    1    4    4    0    0 -0.11751507584E+02 -0.21525361734E+01 -0.60045862134E+01  0.13371103099E+02  0.00000000000E+00 0. -1.
</event>
<event>
 8    1  0.1280823E-010  0.9118800E+02  0.7816164E-02  0.1184000E+00
        -11   -1    0    0    0    0  0.00000000000E+00  0.00000000000E+00  0.45593999997E+02  0.45594000000E+02  0.51100000000E-03 0. -1.
         11   -1    0    0    0    0 -0.00000000000E+00 -0.00000000000E+00 -0.45593999997E+02  0.45594000000E+02  0.51100000000E-03 0.  1.
         23    2    1    2    0    0  0.88817841970E-15 -0.35527136788E-14 -0.71054273576E-14  0.91188000000E+02  0.91188000000E+02 0.  0.
    9900012    2    3    3    0    0  0.41911398772E+01 -0.26558653987E+02 -0.34068983216E+02  0.47787269909E+02  0.19999994824E+02 0.  0.
         12    1    3    3    0    0 -0.41911398772E+01  0.26558653987E+02  0.34068983216E+02  0.43400730091E+02  0.00000000000E+00 0. -1.
         11    1    4    4    0    0 -0.23973536912E+01  0.18435299009E+01 -0.18958049322E+00  0.30301564714E+01  0.51100000000E-03 0. -1.
        -11    1    4    4    0    0  0.14491299556E+01 -0.69227946516E+01 -0.67781174012E+01  0.97963227378E+01  0.51100000000E-03 0.  1.
         12    1    4    4    0    0  0.51393636128E+01 -0.21479389236E+02 -0.27101285321E+02  0.34960790700E+02  0.00000000000E+00 0. -1.
</event>
<event>
 8    1  0.1280823E-010  0.9118800E+02  0.7816164E-02  0.1184000E+00
        -11   -1    0    0    0    0  0.00000000000E+00  0.00000000000E+00  0.45593999997E+02  0.45594000000E+02  0.51100000000E-03 0. -1.
         11   -1    0    0    0    0 -0.00000000000E+00 -0.00000000000E+00 -0.45593999997E+02  0.45594000000E+02  0.51100000000E-03 0.  1.
         23    2    1    2    0    0  0.00000000000E+00  0.00000000000E+00  0.00000000000E+00  0.91188000000E+02  0.91188000000E+02 0.  0.
    9900012    2    3    3    0    0 -0.59945865952E+01 -0.80485768528E+01  0.42224502239E+02  0.47787271353E+02  0.20000001405E+02 0.  0.
        -12    1    3    3    0    0  0.59945865952E+01  0.80485768528E+01 -0.42224502239E+02  0.43400728647E+02  0.00000000000E+00 0.  1.
         11    1    4    4    0    0  0.57686714060E+01 -0.56715983009E+01  0.21527354327E+02  0.22997208128E+02  0.51100000000E-03 0.  1.
        -11    1    4    4    0    0 -0.43088574512E+01 -0.35117189287E+01  0.12339282949E+02  0.13533526012E+02  0.51100000000E-03 0. -1.
        -12    1    4    4    0    0 -0.74544005500E+01  0.11347403768E+01  0.83578649626E+01  0.11256537212E+02  0.00000000000E+00 0.  1.
</event>
<event>
 8    1  0.1280823E-010  0.9118800E+02  0.7816164E-02  0.1184000E+00
        -11   -1    0    0    0    0  0.00000000000E+00  0.00000000000E+00  0.45593999997E+02  0.45594000000E+02  0.51100000000E-03 0. -1.
         11   -1    0    0    0    0 -0.00000000000E+00 -0.00000000000E+00 -0.45593999997E+02  0.45594000000E+02  0.51100000000E-03 0.  1.
         23    2    1    2    0    0 -0.88817841970E-15  0.88817841970E-15 -0.71054273576E-14  0.91188000000E+02  0.91188000000E+02 0.  0.
    9900012    2    3    3    0    0 -0.41572038354E+01 -0.64795609591E+01  0.42712497007E+02  0.47787257442E+02  0.19999937982E+02 0.  0.
        -12    1    3    3    0    0  0.41572038354E+01  0.64795609591E+01 -0.42712497007E+02  0.43400742558E+02  0.00000000000E+00 0.  1.
         11    1    4    4    0    0 -0.96899553446E+01 -0.88319186609E+01  0.21954305925E+02  0.25571264551E+02  0.51100000000E-03 0. -1.
        -11    1    4    4    0    0  0.18961477413E+01  0.34394541987E+00  0.13127541771E+01  0.23317372278E+01  0.51100000000E-03 0.  1.
         12    1    4    4    0    0  0.36366037679E+01  0.20084122820E+01  0.19445436905E+02  0.19884255664E+02  0.00000000000E+00 0. -1.
</event>
<event>
 8    1  0.1280823E-010  0.9118800E+02  0.7816164E-02  0.1184000E+00
        -11   -1    0    0    0    0  0.00000000000E+00  0.00000000000E+00  0.45593999997E+02  0.45594000000E+02  0.51100000000E-03 0. -1.
         11   -1    0    0    0    0 -0.00000000000E+00 -0.00000000000E+00 -0.45593999997E+02  0.45594000000E+02  0.51100000000E-03 0.  1.
         23    2    1    2    0    0  0.00000000000E+00 -0.35527136788E-14  0.00000000000E+00  0.91188000000E+02  0.91188000000E+02 0.  0.
    9900012    2    3    3    0    0 -0.20824116092E+02 -0.26198040250E+02  0.27634077565E+02  0.47787269974E+02  0.19999995119E+02 0.  0.
        -12    1    3    3    0    0  0.20824116092E+02  0.26198040250E+02 -0.27634077565E+02  0.43400730026E+02  0.00000000000E+00 0.  1.
         11    1    4    4    0    0 -0.11313232430E+02 -0.18649783482E+02  0.21101365283E+02  0.30349155985E+02  0.51100000000E-03 0. -1.
        -11    1    4    4    0    0  0.15990897219E+01 -0.38815840947E+01  0.31838915245E+01  0.52688659618E+01  0.51100000000E-03 0.  1.
         12    1    4    4    0    0 -0.11109973383E+02 -0.36666726729E+01  0.33488207576E+01  0.12169248027E+02  0.00000000000E+00 0. -1.
</event>
<event>
 8    1  0.1280823E-010  0.9118800E+02  0.7816164E-02  0.1184000E+00
        -11   -1    0    0    0    0  0.00000000000E+00  0.00000000000E+00  0.45593999997E+02  0.45594000000E+02  0.51100000000E-03 0. -1.
         11   -1    0    0    0    0 -0.00000000000E+00 -0.00000000000E+00 -0.45593999997E+02  0.45594000000E+02  0.51100000000E-03 0.  1.
         23    2    1    2    0    0  0.35527136788E-14 -0.35527136788E-14  0.17763568394E-14  0.91188000000E+02  0.91188000000E+02 0.  0.
    9900012    2    3    3    0    0 -0.29232232002E+02  0.30441456242E+02 -0.10120085201E+02  0.47787288365E+02  0.20000078971E+02 0.  0.
         12    1    3    3    0    0  0.29232232002E+02 -0.30441456242E+02  0.10120085201E+02  0.43400711635E+02  0.00000000000E+00 0. -1.
         11    1    4    4    0    0 -0.14054814117E+02  0.18039808713E+02 -0.14761626064E+02  0.27219076079E+02  0.51100000000E-03 0. -1.
        -11    1    4    4    0    0 -0.74972585396E+01  0.72071277716E+01  0.49502946243E+00  0.10411370263E+02  0.51100000000E-03 0.  1.
        -12    1    4    4    0    0 -0.76801593456E+01  0.51945197573E+01  0.41465114008E+01  0.10156842023E+02  0.00000000000E+00 0.  1.
</event>
<event>
 8    1  0.1280823E-010  0.9118800E+02  0.7816164E-02  0.1184000E+00
        -11   -1    0    0    0    0  0.00000000000E+00  0.00000000000E+00  0.45593999997E+02  0.45594000000E+02  0.51100000000E-03 0. -1.
         11   -1    0    0    0    0 -0.00000000000E+00 -0.00000000000E+00 -0.45593999997E+02  0.45594000000E+02  0.51100000000E-03 0.  1.
         23    2    1    2    0    0  0.00000000000E+00  0.00000000000E+00  0.00000000000E+00  0.91188000000E+02  0.91188000000E+02 0.  0.
    9900012    2    3    3    0    0 -0.95842936417E+01 -0.13306581754E+02 -0.40183323132E+02  0.47787271198E+02  0.20000000701E+02 0.  0.
         12    1    3    3    0    0  0.95842936417E+01  0.13306581754E+02  0.40183323132E+02  0.43400728802E+02  0.00000000000E+00 0. -1.
         11    1    4    4    0    0 -0.56786790075E+01 -0.32882721689E+01 -0.31834727071E+01  0.72934647367E+01  0.51100000000E-03 0. -1.
        -11    1    4    4    0    0 -0.19233751490E+01 -0.38835028784E+01 -0.17738406971E+01  0.46826784697E+01  0.51100000000E-03 0.  1.
        -12    1    4    4    0    0 -0.19822394852E+01 -0.61348067063E+01 -0.35226009728E+02  0.35811127992E+02  0.00000000000E+00 0.  1.
</event>
<event>
 8    1  0.1280823E-010  0.9118800E+02  0.7816164E-02  0.1184000E+00
        -11   -1    0    0    0    0  0.00000000000E+00  0.00000000000E+00  0.45593999997E+02  0.45594000000E+02  0.51100000000E-03 0. -1.
         11   -1    0    0    0    0 -0.00000000000E+00 -0.00000000000E+00 -0.45593999997E+02  0.45594000000E+02  0.51100000000E-03 0.  1.
         23    2    1    2    0    0 -0.17763568394E-14  0.00000000000E+00  0.71054273576E-14  0.91188000000E+02  0.91188000000E+02 0.  0.
    9900012    2    3    3    0    0 -0.14936373786E+02  0.83346600325E+01  0.39888111603E+02  0.47787271124E+02  0.20000000363E+02 0.  0.
        -12    1    3    3    0    0  0.14936373786E+02 -0.83346600325E+01 -0.39888111603E+02  0.43400728876E+02  0.00000000000E+00 0.  1.
         11    1    4    4    0    0  0.31195210800E+01  0.47559469491E+01  0.10207598860E+02  0.11685269269E+02  0.51100000000E-03 0.  1.
        -11    1    4    4    0    0 -0.63025293665E+01  0.14952026543E+01  0.19038634212E+02  0.20110372953E+02  0.51100000000E-03 0. -1.
        -12    1    4    4    0    0 -0.11753365500E+02  0.20835104290E+01  0.10641878531E+02  0.15991628902E+02  0.00000000000E+00 0.  1.
</event>
<event>
 8    1  0.1280823E-010  0.9118800E+02  0.7816164E-02  0.1184000E+00
        -11   -1    0    0    0    0  0.00000000000E+00  0.00000000000E+00  0.45593999997E+02  0.45594000000E+02  0.51100000000E-03 0. -1.
         11   -1    0    0    0    0 -0.00000000000E+00 -0.00000000000E+00 -0.45593999997E+02  0.45594000000E+02  0.51100000000E-03 0.  1.
         23    2    1    2    0    0  0.88817841970E-15  0.88817841970E-15  0.00000000000E+00  0.91188000000E+02  0.91188000000E+02 0.  0.
    9900012    2    3    3    0    0 -0.26853815616E+01 -0.74334269469E+01 -0.42675011992E+02  0.47787265458E+02  0.19999974528E+02 0.  0.
         12    1    3    3    0    0  0.26853815616E+01  0.74334269469E+01  0.42675011992E+02  0.43400734542E+02  0.00000000000E+00 0. -1.
         11    1    4    4    0    0  0.70444254504E+00  0.20649305962E+01 -0.41073426433E+01  0.46508538481E+01  0.51100000000E-03 0. -1.
        -11    1    4    4    0    0 -0.10033440586E+02 -0.67921592905E+01 -0.25384062616E+02  0.28127459768E+02  0.51100000000E-03 0.  1.
        -12    1    4    4    0    0  0.66436164798E+01 -0.27061982525E+01 -0.13183606733E+02  0.15008951842E+02  0.00000000000E+00 0.  1.
</event>
<event>
 8    1  0.1339534E-010  0.9118800E+02  0.7816164E-02  0.1184000E+00
        -11   -1    0    0    0    0  0.00000000000E+00  0.00000000000E+00  0.45593999997E+02  0.45594000000E+02  0.51100000000E-03 0. -1.
         11   -1    0    0    0    0 -0.00000000000E+00 -0.00000000000E+00 -0.45593999997E+02  0.45594000000E+02  0.51100000000E-03 0.  1.
         23    2    1    2    0    0  0.00000000000E+00  0.00000000000E+00 -0.35527136788E-14  0.91188000000E+02  0.91188000000E+02 0.  0.
    9900012    2    3    3    0    0  0.26459634488E+02  0.13060730437E+02 -0.31826532841E+02  0.47787272708E+02  0.20000007587E+02 0.  0.
         12    1    3    3    0    0 -0.26459634488E+02 -0.13060730437E+02  0.31826532841E+02  0.43400727292E+02  0.00000000000E+00 0. -1.
         11    1    4    4    0    0  0.79021601922E+01  0.61811720097E+01 -0.38466223007E+01  0.10744651065E+02  0.51100000000E-03 0. -1.
        -11    1    4    4    0    0  0.34328827382E+01  0.83798721559E+01 -0.11189029995E+02  0.14394489700E+02  0.51100000000E-03 0.  1.
        -12    1    4    4    0    0  0.15124591557E+02 -0.15003137281E+01 -0.16790880545E+02  0.22648131944E+02  0.00000000000E+00 0.  1.
</event>
<event>
 8    1  0.1280823E-010  0.9118800E+02  0.7816164E-02  0.1184000E+00
        -11   -1    0    0    0    0  0.00000000000E+00  0.00000000000E+00  0.45593999997E+02  0.45594000000E+02  0.51100000000E-03 0. -1.
         11   -1    0    0    0    0 -0.00000000000E+00 -0.00000000000E+00 -0.45593999997E+02  0.45594000000E+02  0.51100000000E-03 0.  1.
         23    2    1    2    0    0  0.00000000000E+00  0.35527136788E-14  0.00000000000E+00  0.91188000000E+02  0.91188000000E+02 0.  0.
    9900012    2    3    3    0    0 -0.45553828168E+01  0.23986277579E+02 -0.35882172665E+02  0.47787270284E+02  0.19999996533E+02 0.  0.
         12    1    3    3    0    0  0.45553828168E+01 -0.23986277579E+02  0.35882172665E+02  0.43400729716E+02  0.00000000000E+00 0. -1.
         11    1    4    4    0    0 -0.23505730976E+01 -0.42891005863E+00 -0.41102025760E+01  0.47542531698E+01  0.51100000000E-03 0. -1.
        -11    1    4    4    0    0 -0.67961719478E+01  0.71967580027E+01 -0.17882809281E+02  0.20439573061E+02  0.51100000000E-03 0.  1.
         12    1    4    4    0    0  0.45913622286E+01  0.17218429635E+02 -0.13889160808E+02  0.22593444053E+02  0.00000000000E+00 0. -1.
</event>
<event>
 8    1  0.1280823E-010  0.9118800E+02  0.7816164E-02  0.1184000E+00
        -11   -1    0    0    0    0  0.00000000000E+00  0.00000000000E+00  0.45593999997E+02  0.45594000000E+02  0.51100000000E-03 0. -1.
         11   -1    0    0    0    0 -0.00000000000E+00 -0.00000000000E+00 -0.45593999997E+02  0.45594000000E+02  0.51100000000E-03 0.  1.
         23    2    1    2    0    0  0.35527136788E-14 -0.53290705182E-14 -0.35527136788E-14  0.91188000000E+02  0.91188000000E+02 0.  0.
    9900012    2    3    3    0    0  0.25255832916E+02 -0.15264468512E+02 -0.31823922981E+02  0.47787272251E+02  0.20000005502E+02 0.  0.
         12    1    3    3    0    0 -0.25255832916E+02  0.15264468512E+02  0.31823922981E+02  0.43400727749E+02  0.00000000000E+00 0. -1.
         11    1    4    4    0    0  0.11413114163E+02 -0.10822305600E+02 -0.10632650253E+02  0.18985118516E+02  0.51100000000E-03 0. -1.
        -11    1    4    4    0    0  0.72289585983E+01 -0.58752282476E+01 -0.36573153486E+01  0.10007602370E+02  0.51100000000E-03 0.  1.
         12    1    4    4    0    0  0.66137601541E+01  0.14330653356E+01 -0.17533957379E+02  0.18794551365E+02  0.00000000000E+00 0. -1.
</event>
<event>
 8    1  0.1280823E-010  0.9118800E+02  0.7816164E-02  0.1184000E+00
        -11   -1    0    0    0    0  0.00000000000E+00  0.00000000000E+00  0.45593999997E+02  0.45594000000E+02  0.51100000000E-03 0.  1.
         11   -1    0    0    0    0 -0.00000000000E+00 -0.00000000000E+00 -0.45593999997E+02  0.45594000000E+02  0.51100000000E-03 0. -1.
         23    2    1    2    0    0  0.71054273576E-14  0.00000000000E+00  0.00000000000E+00  0.91188000000E+02  0.91188000000E+02 0.  0.
    9900012    2    3    3    0    0 -0.39390952088E+02 -0.18161265814E+02  0.14644120071E+01  0.47787272070E+02  0.20000004676E+02 0.  0.
         12    1    3    3    0    0  0.39390952088E+02  0.18161265814E+02 -0.14644120071E+01  0.43400727930E+02  0.00000000000E+00 0. -1.
         11    1    4    4    0    0 -0.19942697504E+02 -0.18840817283E+02 -0.60108368767E+00  0.27441736124E+02  0.51100000000E-03 0. -1.
        -11    1    4    4    0    0  0.27278341123E+00  0.30608305717E+00  0.36304014679E+00  0.54762764415E+00  0.51100000000E-03 0.  1.
        -12    1    4    4    0    0 -0.19721037994E+02  0.37346841182E+00  0.17024555480E+01  0.19797908302E+02  0.00000000000E+00 0.  1.
</event>
<event>
 8    1  0.1280823E-010  0.9118800E+02  0.7816164E-02  0.1184000E+00
        -11   -1    0    0    0    0  0.00000000000E+00  0.00000000000E+00  0.45593999997E+02  0.45594000000E+02  0.51100000000E-03 0. -1.
         11   -1    0    0    0    0 -0.00000000000E+00 -0.00000000000E+00 -0.45593999997E+02  0.45594000000E+02  0.51100000000E-03 0.  1.
         23    2    1    2    0    0  0.88817841970E-15  0.33306690739E-15 -0.71054273576E-14  0.91188000000E+02  0.91188000000E+02 0.  0.
    9900012    2    3    3    0    0 -0.59078134458E+01  0.38894706871E+00  0.42994988212E+02  0.47787279374E+02  0.20000037977E+02 0.  0.
        -12    1    3    3    0    0  0.59078134458E+01 -0.38894706871E+00 -0.42994988212E+02  0.43400720626E+02  0.00000000000E+00 0.  1.
         11    1    4    4    0    0  0.55631628696E+00 -0.56859736406E+01  0.13489392998E+02  0.14649351786E+02  0.51100000000E-03 0. -1.
        -11    1    4    4    0    0  0.26933074761E+01 -0.56609563295E+00  0.11879774942E+02  0.12194401271E+02  0.51100000000E-03 0.  1.
         12    1    4    4    0    0 -0.91574372089E+01  0.66410163423E+01  0.17625820272E+02  0.20943526316E+02  0.00000000000E+00 0. -1.
</event>
<event>
 8    1  0.1280823E-010  0.9118800E+02  0.7816164E-02  0.1184000E+00
        -11   -1    0    0    0    0  0.00000000000E+00  0.00000000000E+00  0.45593999997E+02  0.45594000000E+02  0.51100000000E-03 0.  1.
         11   -1    0    0    0    0 -0.00000000000E+00 -0.00000000000E+00 -0.45593999997E+02  0.45594000000E+02  0.51100000000E-03 0. -1.
         23    2    1    2    0    0  0.00000000000E+00  0.00000000000E+00  0.00000000000E+00  0.91188000000E+02  0.91188000000E+02 0.  0.
    9900012    2    3    3    0    0  0.14931694025E+02  0.25757343041E+02  0.31578900674E+02  0.47787272187E+02  0.20000005207E+02 0.  0.
        -12    1    3    3    0    0 -0.14931694025E+02 -0.25757343041E+02 -0.31578900674E+02  0.43400727813E+02  0.00000000000E+00 0.  1.
         11    1    4    4    0    0  0.92877305414E+00  0.96964631479E+01  0.20112808851E+01  0.99463193205E+01  0.51100000000E-03 0. -1.
        -11    1    4    4    0    0  0.24699294757E+01  0.10355403376E+02  0.11645828275E+02  0.15778474171E+02  0.51100000000E-03 0.  1.
        -12    1    4    4    0    0  0.11532991495E+02  0.57054765170E+01  0.17921791514E+02  0.22062478695E+02  0.00000000000E+00 0.  1.
</event>
<event>
 8    1  0.1280823E-010  0.9118800E+02  0.7816164E-02  0.1184000E+00
        -11   -1    0    0    0    0  0.00000000000E+00  0.00000000000E+00  0.45593999997E+02  0.45594000000E+02  0.51100000000E-03 0. -1.
         11   -1    0    0    0    0 -0.00000000000E+00 -0.00000000000E+00 -0.45593999997E+02  0.45594000000E+02  0.51100000000E-03 0.  1.
         23    2    1    2    0    0  0.00000000000E+00  0.00000000000E+00  0.00000000000E+00  0.91188000000E+02  0.91188000000E+02 0.  0.
    9900012    2    3    3    0    0  0.12679699305E+02 -0.10161774662E+02  0.40244090686E+02  0.47787271044E+02  0.19999999998E+02 0.  0.
        -12    1    3    3    0    0 -0.12679699305E+02  0.10161774662E+02 -0.40244090686E+02  0.43400728956E+02  0.00000000000E+00 0.  1.
         11    1    4    4    0    0 -0.13766544783E+01 -0.55214979887E+01  0.15465600876E+02  0.16479287858E+02  0.51100000000E-03 0. -1.
        -11    1    4    4    0    0 -0.16777562857E+01 -0.27279392898E+01  0.53388677635E+01  0.62257552297E+01  0.51100000000E-03 0.  1.
         12    1    4    4    0    0  0.15734110069E+02 -0.19123373836E+01  0.19439622047E+02  0.25082227956E+02  0.00000000000E+00 0. -1.
</event>
<event>
 8    1  0.1280823E-010  0.9118800E+02  0.7816164E-02  0.1184000E+00
        -11   -1    0    0    0    0  0.00000000000E+00  0.00000000000E+00  0.45593999997E+02  0.45594000000E+02  0.51100000000E-03 0. -1.
         11   -1    0    0    0    0 -0.00000000000E+00 -0.00000000000E+00 -0.45593999997E+02  0.45594000000E+02  0.51100000000E-03 0.  1.
         23    2    1    2    0    0 -0.44408920985E-15  0.00000000000E+00  0.71054273576E-14  0.91188000000E+02  0.91188000000E+02 0.  0.
    9900012    2    3    3    0    0 -0.16389502057E+01  0.91402801854E+01 -0.42395663340E+02  0.47787272475E+02  0.20000006523E+02 0.  0.
         12    1    3    3    0    0  0.16389502057E+01 -0.91402801854E+01  0.42395663340E+02  0.43400727525E+02  0.00000000000E+00 0. -1.
         11    1    4    4    0    0 -0.39348432915E+01  0.33921906233E+01 -0.60288762879E+01  0.79584733781E+01  0.51100000000E-03 0. -1.
        -11    1    4    4    0    0 -0.56775747045E+01 -0.10335865103E+01 -0.12543016333E+02  0.13806897356E+02  0.51100000000E-03 0.  1.
        -12    1    4    4    0    0  0.79734677903E+01  0.67816760724E+01 -0.23823770719E+02  0.26021901741E+02  0.00000000000E+00 0.  1.
</event>
<event>
 8    1  0.1280823E-010  0.9118800E+02  0.7816164E-02  0.1184000E+00
        -11   -1    0    0    0    0  0.00000000000E+00  0.00000000000E+00  0.45593999997E+02  0.45594000000E+02  0.51100000000E-03 0. -1.
         11   -1    0    0    0    0 -0.00000000000E+00 -0.00000000000E+00 -0.45593999997E+02  0.45594000000E+02  0.51100000000E-03 0.  1.
         23    2    1    2    0    0 -0.35527136788E-14  0.00000000000E+00  0.00000000000E+00  0.91188000000E+02  0.91188000000E+02 0.  0.
    9900012    2    3    3    0    0 -0.30521312238E+02 -0.22118904828E+02  0.21513438729E+02  0.47787256948E+02  0.19999935729E+02 0.  0.
        -12    1    3    3    0    0  0.30521312238E+02  0.22118904828E+02 -0.21513438729E+02  0.43400743052E+02  0.00000000000E+00 0.  1.
         11    1    4    4    0    0 -0.78093161495E+01 -0.45403290978E+01  0.15688418772E+02  0.18103217694E+02  0.51100000000E-03 0.  1.
        -11    1    4    4    0    0 -0.11780349491E+01 -0.38368803363E+00  0.12317988293E+01  0.17470865650E+01  0.51100000000E-03 0. -1.
        -12    1    4    4    0    0 -0.21533961140E+02 -0.17194887696E+02  0.45932211276E+01  0.27936952690E+02  0.00000000000E+00 0.  1.
</event>
<event>
 8    1  0.1280823E-010  0.9118800E+02  0.7816164E-02  0.1184000E+00
        -11   -1    0    0    0    0  0.00000000000E+00  0.00000000000E+00  0.45593999997E+02  0.45594000000E+02  0.51100000000E-03 0. -1.
         11   -1    0    0    0    0 -0.00000000000E+00 -0.00000000000E+00 -0.45593999997E+02  0.45594000000E+02  0.51100000000E-03 0.  1.
         23    2    1    2    0    0  0.35527136788E-14 -0.35527136788E-14  0.00000000000E+00  0.91188000000E+02  0.91188000000E+02 0.  0.
    9900012    2    3    3    0    0 -0.16223270128E+02  0.23400427660E+02  0.32754371132E+02  0.47787270322E+02  0.19999996706E+02 0.  0.
        -12    1    3    3    0    0  0.16223270128E+02 -0.23400427660E+02 -0.32754371132E+02  0.43400729678E+02  0.00000000000E+00 0.  1.
         11    1    4    4    0    0 -0.26452671688E+01  0.87786154122E+01  0.10557448087E+02  0.13982890879E+02  0.51100000000E-03 0. -1.
        -11    1    4    4    0    0 -0.85193029337E+01  0.10068343481E+02  0.23430279353E+02  0.26887321431E+02  0.51100000000E-03 0.  1.
        -12    1    4    4    0    0 -0.50587000253E+01  0.45534687672E+01 -0.12333563080E+01  0.69170580120E+01  0.00000000000E+00 0.  1.
</event>
<event>
 8    1  0.1280823E-010  0.9118800E+02  0.7816164E-02  0.1184000E+00
        -11   -1    0    0    0    0  0.00000000000E+00  0.00000000000E+00  0.45593999997E+02  0.45594000000E+02  0.51100000000E-03 0. -1.
         11   -1    0    0    0    0 -0.00000000000E+00 -0.00000000000E+00 -0.45593999997E+02  0.45594000000E+02  0.51100000000E-03 0.  1.
         23    2    1    2    0    0  0.35527136788E-14  0.00000000000E+00 -0.35527136788E-14  0.91188000000E+02  0.91188000000E+02 0.  0.
    9900012    2    3    3    0    0  0.30244324197E+02 -0.11698136052E+02 -0.28845407069E+02  0.47787273713E+02  0.20000012169E+02 0.  0.
         12    1    3    3    0    0 -0.30244324197E+02  0.11698136052E+02  0.28845407069E+02  0.43400726287E+02  0.00000000000E+00 0. -1.
         11    1    4    4    0    0  0.82725217626E+01 -0.87853776704E+01 -0.61422082565E+01  0.13540465267E+02  0.51100000000E-03 0. -1.
        -11    1    4    4    0    0  0.20668237013E+02  0.75681927724E-01 -0.14028407690E+02  0.24979551068E+02  0.51100000000E-03 0.  1.
         12    1    4    4    0    0  0.13035654211E+01 -0.29884403095E+01 -0.86747911229E+01  0.92672573783E+01  0.00000000000E+00 0. -1.
</event>
<event>
 8    1  0.1280823E-010  0.9118800E+02  0.7816164E-02  0.1184000E+00
        -11   -1    0    0    0    0  0.00000000000E+00  0.00000000000E+00  0.45593999997E+02  0.45594000000E+02  0.51100000000E-03 0. -1.
         11   -1    0    0    0    0 -0.00000000000E+00 -0.00000000000E+00 -0.45593999997E+02  0.45594000000E+02  0.51100000000E-03 0.  1.
         23    2    1    2    0    0  0.00000000000E+00  0.00000000000E+00  0.00000000000E+00  0.91188000000E+02  0.91188000000E+02 0.  0.
    9900012    2    3    3    0    0 -0.13774907137E+02 -0.22489354026E+02  0.34468878290E+02  0.47787277867E+02  0.20000031106E+02 0.  0.
        -12    1    3    3    0    0  0.13774907137E+02  0.22489354026E+02 -0.34468878290E+02  0.43400722133E+02  0.00000000000E+00 0.  1.
         11    1    4    4    0    0 -0.49123160200E+01 -0.10276499948E+02  0.22331484509E+02  0.25068556012E+02  0.51100000000E-03 0. -1.
        -11    1    4    4    0    0  0.22355153542E+01 -0.25233377143E+01  0.57403688046E+01  0.66570711573E+01  0.51100000000E-03 0.  1.
         12    1    4    4    0    0 -0.11098106471E+02 -0.96895163634E+01  0.63970249759E+01  0.16061650698E+02  0.00000000000E+00 0. -1.
</event>
<event>
 8    1  0.1280823E-010  0.9118800E+02  0.7816164E-02  0.1184000E+00
        -11   -1    0    0    0    0  0.00000000000E+00  0.00000000000E+00  0.45593999997E+02  0.45594000000E+02  0.51100000000E-03 0.  1.
         11   -1    0    0    0    0 -0.00000000000E+00 -0.00000000000E+00 -0.45593999997E+02  0.45594000000E+02  0.51100000000E-03 0. -1.
         23    2    1    2    0    0 -0.17763568394E-14  0.71054273576E-14  0.00000000000E+00  0.91188000000E+02  0.91188000000E+02 0.  0.
    9900012    2    3    3    0    0 -0.11952299047E+02  0.32427802970E+02 -0.26252684442E+02  0.47787270762E+02  0.19999998713E+02 0.  0.
         12    1    3    3    0    0  0.11952299047E+02 -0.32427802970E+02  0.26252684442E+02  0.43400729238E+02  0.00000000000E+00 0. -1.
         11    1    4    4    0    0 -0.22482441472E+01 -0.91449903900E+00  0.33572395405E+00  0.24502287796E+01  0.51100000000E-03 0. -1.
        -11    1    4    4    0    0 -0.50968263206E+01  0.94752319690E+01 -0.14864682645E+02  0.18349835144E+02  0.51100000000E-03 0.  1.
        -12    1    4    4    0    0 -0.46072285792E+01  0.23867070040E+02 -0.11723725751E+02  0.26987206839E+02  0.00000000000E+00 0.  1.
</event>
<event>
 8    1  0.1280823E-010  0.9118800E+02  0.7816164E-02  0.1184000E+00
        -11   -1    0    0    0    0  0.00000000000E+00  0.00000000000E+00  0.45593999997E+02  0.45594000000E+02  0.51100000000E-03 0. -1.
         11   -1    0    0    0    0 -0.00000000000E+00 -0.00000000000E+00 -0.45593999997E+02  0.45594000000E+02  0.51100000000E-03 0.  1.
         23    2    1    2    0    0  0.00000000000E+00 -0.35527136788E-14  0.71054273576E-14  0.91188000000E+02  0.91188000000E+02 0.  0.
    9900012    2    3    3    0    0 -0.47968590845E+01  0.20878407360E+02 -0.37745272447E+02  0.47787270248E+02  0.19999996367E+02 0.  0.
         12    1    3    3    0    0  0.47968590845E+01 -0.20878407360E+02  0.37745272447E+02  0.43400729752E+02  0.00000000000E+00 0. -1.
         11    1    4    4    0    0 -0.38151056532E+01  0.55066625724E+01 -0.38917753928E+01  0.77475337883E+01  0.51100000000E-03 0. -1.
        -11    1    4    4    0    0 -0.55533411113E+00  0.18250786242E+02 -0.27006694863E+02  0.32600017824E+02  0.51100000000E-03 0.  1.
        -12    1    4    4    0    0 -0.42641932017E+00 -0.28790414545E+01 -0.68468021911E+01  0.74397186357E+01  0.00000000000E+00 0.  1.
</event>
<event>
 8    1  0.1280823E-010  0.9118800E+02  0.7816164E-02  0.1184000E+00
        -11   -1    0    0    0    0  0.00000000000E+00  0.00000000000E+00  0.45593999997E+02  0.45594000000E+02  0.51100000000E-03 0. -1.
         11   -1    0    0    0    0 -0.00000000000E+00 -0.00000000000E+00 -0.45593999997E+02  0.45594000000E+02  0.51100000000E-03 0.  1.
         23    2    1    2    0    0  0.00000000000E+00  0.00000000000E+00  0.00000000000E+00  0.91188000000E+02  0.91188000000E+02 0.  0.
    9900012    2    3    3    0    0  0.13072703098E+02 -0.25573044694E+02  0.32538389524E+02  0.47787274499E+02  0.20000015750E+02 0.  0.
        -12    1    3    3    0    0 -0.13072703098E+02  0.25573044694E+02 -0.32538389524E+02  0.43400725501E+02  0.00000000000E+00 0.  1.
         11    1    4    4    0    0 -0.23661312251E+01 -0.32036479760E+01  0.17368435684E+01  0.43449468547E+01  0.51100000000E-03 0. -1.
        -11    1    4    4    0    0  0.32279395201E+00 -0.15964275319E+01 -0.14696674628E+01  0.21937865694E+01  0.51100000000E-03 0.  1.
         12    1    4    4    0    0  0.15116040371E+02 -0.20772969186E+02  0.32271213418E+02  0.41248541075E+02  0.00000000000E+00 0. -1.
</event>
<event>
 8    1  0.1280823E-010  0.9118800E+02  0.7816164E-02  0.1184000E+00
        -11   -1    0    0    0    0  0.00000000000E+00  0.00000000000E+00  0.45593999997E+02  0.45594000000E+02  0.51100000000E-03 0. -1.
         11   -1    0    0    0    0 -0.00000000000E+00 -0.00000000000E+00 -0.45593999997E+02  0.45594000000E+02  0.51100000000E-03 0.  1.
         23    2    1    2    0    0  0.35527136788E-14  0.00000000000E+00  0.00000000000E+00  0.91188000000E+02  0.91188000000E+02 0.  0.
    9900012    2    3    3    0    0  0.18487094038E+02  0.29984643539E+02  0.25352949018E+02  0.47787268231E+02  0.19999987173E+02 0.  0.
        -12    1    3    3    0    0 -0.18487094038E+02 -0.29984643539E+02 -0.25352949018E+02  0.43400731769E+02  0.00000000000E+00 0.  1.
         11    1    4    4    0    0 -0.15967327047E+01  0.36251715162E+01  0.63765701451E+01  0.75068016443E+01  0.51100000000E-03 0. -1.
        -11    1    4    4    0    0  0.29322747402E+01  0.12920505237E+02  0.39972816393E+01  0.13838928842E+02  0.51100000000E-03 0.  1.
         12    1    4    4    0    0  0.17151552002E+02  0.13438966786E+02  0.14979097234E+02  0.26441537745E+02  0.00000000000E+00 0. -1.
</event>
<event>
 8    1  0.1280823E-010  0.9118800E+02  0.7816164E-02  0.1184000E+00
        -11   -1    0    0    0    0  0.00000000000E+00  0.00000000000E+00  0.45593999997E+02  0.45594000000E+02  0.51100000000E-03 0. -1.
         11   -1    0    0    0    0 -0.00000000000E+00 -0.00000000000E+00 -0.45593999997E+02  0.45594000000E+02  0.51100000000E-03 0.  1.
         23    2    1    2    0    0  0.00000000000E+00  0.00000000000E+00  0.00000000000E+00  0.91188000000E+02  0.91188000000E+02 0.  0.
    9900012    2    3    3    0    0 -0.93256151673E+01 -0.19140927022E+02  0.37819057610E+02  0.47787270697E+02  0.19999998417E+02 0.  0.
        -12    1    3    3    0    0  0.93256151673E+01  0.19140927022E+02 -0.37819057610E+02  0.43400729303E+02  0.00000000000E+00 0.  1.
         11    1    4    4    0    0  0.29194553164E+00 -0.25309098392E+00  0.56401206029E+01  0.56533395366E+01  0.51100000000E-03 0. -1.
        -11    1    4    4    0    0 -0.92227929347E+01 -0.11375259285E+02  0.77412702745E+01  0.16564531356E+02  0.51100000000E-03 0.  1.
        -12    1    4    4    0    0 -0.39476776429E+00 -0.75125767534E+01  0.24437666732E+02  0.25569399805E+02  0.00000000000E+00 0.  1.
</event>
<event>
 8    1  0.1280823E-010  0.9118800E+02  0.7816164E-02  0.1184000E+00
        -11   -1    0    0    0    0  0.00000000000E+00  0.00000000000E+00  0.45593999997E+02  0.45594000000E+02  0.51100000000E-03 0. -1.
         11   -1    0    0    0    0 -0.00000000000E+00 -0.00000000000E+00 -0.45593999997E+02  0.45594000000E+02  0.51100000000E-03 0.  1.
         23    2    1    2    0    0  0.35527136788E-14  0.00000000000E+00 -0.44408920985E-15  0.91188000000E+02  0.91188000000E+02 0.  0.
    9900012    2    3    3    0    0 -0.30716990025E+02 -0.30658924406E+02 -0.34732653407E+00  0.47787265471E+02  0.19999974588E+02 0.  0.
         12    1    3    3    0    0  0.30716990025E+02  0.30658924406E+02  0.34732653407E+00  0.43400734529E+02  0.00000000000E+00 0. -1.
         11    1    4    4    0    0 -0.12744895813E+02 -0.10232325973E+02 -0.36207104659E+01  0.16740442307E+02  0.51100000000E-03 0. -1.
        -11    1    4    4    0    0 -0.13388679120E+02 -0.51687483838E+01  0.45724650115E+01  0.15062540456E+02  0.51100000000E-03 0.  1.
        -12    1    4    4    0    0 -0.45834150920E+01 -0.15257850050E+02 -0.12990810797E+01  0.15984282708E+02  0.00000000000E+00 0.  1.
</event>
<event>
 8    1  0.1280823E-010  0.9118800E+02  0.7816164E-02  0.1184000E+00
        -11   -1    0    0    0    0  0.00000000000E+00  0.00000000000E+00  0.45593999997E+02  0.45594000000E+02  0.51100000000E-03 0. -1.
         11   -1    0    0    0    0 -0.00000000000E+00 -0.00000000000E+00 -0.45593999997E+02  0.45594000000E+02  0.51100000000E-03 0.  1.
         23    2    1    2    0    0  0.00000000000E+00  0.17763568394E-14  0.00000000000E+00  0.91188000000E+02  0.91188000000E+02 0.  0.
    9900012    2    3    3    0    0 -0.14225171101E+02 -0.15161706917E+02 -0.38097118510E+02  0.47787270879E+02  0.19999999245E+02 0.  0.
         12    1    3    3    0    0  0.14225171101E+02  0.15161706917E+02  0.38097118510E+02  0.43400729121E+02  0.00000000000E+00 0. -1.
         11    1    4    4    0    0 -0.58995662926E+01 -0.15325030466E+02 -0.15608048462E+02  0.22655520702E+02  0.51100000000E-03 0. -1.
        -11    1    4    4    0    0 -0.29562479778E+01 -0.28379742100E+01 -0.14386514069E+02  0.14958786282E+02  0.51100000000E-03 0.  1.
        -12    1    4    4    0    0 -0.53693568301E+01  0.30012977588E+01 -0.81025559787E+01  0.10172963894E+02  0.00000000000E+00 0.  1.
</event>
<event>
 8    1  0.1280823E-010  0.9118800E+02  0.7816164E-02  0.1184000E+00
        -11   -1    0    0    0    0  0.00000000000E+00  0.00000000000E+00  0.45593999997E+02  0.45594000000E+02  0.51100000000E-03 0.  1.
         11   -1    0    0    0    0 -0.00000000000E+00 -0.00000000000E+00 -0.45593999997E+02  0.45594000000E+02  0.51100000000E-03 0. -1.
         23    2    1    2    0    0  0.00000000000E+00  0.35527136788E-14  0.00000000000E+00  0.91188000000E+02  0.91188000000E+02 0.  0.
    9900012    2    3    3    0    0  0.31634592628E+02 -0.24326475054E+02 -0.17061550967E+02  0.47787293085E+02  0.20000100493E+02 0.  0.
         12    1    3    3    0    0 -0.31634592628E+02  0.24326475054E+02  0.17061550967E+02  0.43400706915E+02  0.00000000000E+00 0. -1.
         11    1    4    4    0    0  0.14233571237E+02 -0.11382995474E+02  0.15860434222E+00  0.18226143084E+02  0.51100000000E-03 0.  1.
        -11    1    4    4    0    0  0.90599145031E-01 -0.10954269636E+01  0.12124097513E+01  0.16364920115E+01  0.51100000000E-03 0. -1.
         12    1    4    4    0    0  0.17310422246E+02 -0.11848052617E+02 -0.18432565061E+02  0.27924657990E+02  0.00000000000E+00 0. -1.
</event>
<event>
 8    1  0.1280823E-010  0.9118800E+02  0.7816164E-02  0.1184000E+00
        -11   -1    0    0    0    0  0.00000000000E+00  0.00000000000E+00  0.45593999997E+02  0.45594000000E+02  0.51100000000E-03 0. -1.
         11   -1    0    0    0    0 -0.00000000000E+00 -0.00000000000E+00 -0.45593999997E+02  0.45594000000E+02  0.51100000000E-03 0.  1.
         23    2    1    2    0    0 -0.44408920985E-15  0.88817841970E-15  0.00000000000E+00  0.91188000000E+02  0.91188000000E+02 0.  0.
    9900012    2    3    3    0    0  0.19196871296E+01  0.43199191939E+01  0.43142492356E+02  0.47787290936E+02  0.20000090696E+02 0.  0.
        -12    1    3    3    0    0 -0.19196871296E+01 -0.43199191939E+01 -0.43142492356E+02  0.43400709064E+02  0.00000000000E+00 0.  1.
         11    1    4    4    0    0 -0.84592735816E+00  0.33340794895E+01  0.14306393214E+02  0.14714094134E+02  0.51100000000E-03 0. -1.
        -11    1    4    4    0    0  0.90477490226E+01 -0.62484812802E+00  0.21176281481E+02  0.23036646787E+02  0.51100000000E-03 0.  1.
         12    1    4    4    0    0 -0.62821345349E+01  0.16106878324E+01  0.76598176610E+01  0.10036550015E+02  0.00000000000E+00 0. -1.
</event>
<event>
 8    1  0.1280823E-010  0.9118800E+02  0.7816164E-02  0.1184000E+00
        -11   -1    0    0    0    0  0.00000000000E+00  0.00000000000E+00  0.45593999997E+02  0.45594000000E+02  0.51100000000E-03 0. -1.
         11   -1    0    0    0    0 -0.00000000000E+00 -0.00000000000E+00 -0.45593999997E+02  0.45594000000E+02  0.51100000000E-03 0.  1.
         23    2    1    2    0    0  0.00000000000E+00  0.00000000000E+00  0.00000000000E+00  0.91188000000E+02  0.91188000000E+02 0.  0.
    9900012    2    3    3    0    0  0.17194564918E+02  0.29946980161E+02 -0.26289709884E+02  0.47787268103E+02  0.19999986587E+02 0.  0.
         12    1    3    3    0    0 -0.17194564918E+02 -0.29946980161E+02  0.26289709884E+02  0.43400731897E+02  0.00000000000E+00 0. -1.
         11    1    4    4    0    0  0.13968989407E+02  0.13906790201E+02 -0.15385774729E+02  0.25005070346E+02  0.51100000000E-03 0. -1.
        -11    1    4    4    0    0  0.71920822805E+01  0.71614949780E+01 -0.68601737465E+01  0.12250511905E+02  0.51100000000E-03 0.  1.
        -12    1    4    4    0    0 -0.39665067698E+01  0.88786949820E+01 -0.40437614079E+01  0.10531685851E+02  0.00000000000E+00 0.  1.
</event>
<event>
 8    1  0.1280823E-010  0.9118800E+02  0.7816164E-02  0.1184000E+00
        -11   -1    0    0    0    0  0.00000000000E+00  0.00000000000E+00  0.45593999997E+02  0.45594000000E+02  0.51100000000E-03 0. -1.
         11   -1    0    0    0    0 -0.00000000000E+00 -0.00000000000E+00 -0.45593999997E+02  0.45594000000E+02  0.51100000000E-03 0.  1.
         23    2    1    2    0    0  0.00000000000E+00  0.00000000000E+00  0.00000000000E+00  0.91188000000E+02  0.91188000000E+02 0.  0.
    9900012    2    3    3    0    0 -0.81447782052E+01 -0.46923464698E+01 -0.42370578398E+02  0.47787292158E+02  0.20000096266E+02 0.  0.
         12    1    3    3    0    0  0.81447782052E+01  0.46923464698E+01  0.42370578398E+02  0.43400707842E+02  0.00000000000E+00 0. -1.
         11    1    4    4    0    0 -0.85345048060E+01 -0.16521257706E+01 -0.10981815158E+02  0.14005982874E+02  0.51100000000E-03 0. -1.
        -11    1    4    4    0    0 -0.48951473224E+01 -0.36455830936E+01 -0.97868754365E+01  0.11534109175E+02  0.51100000000E-03 0.  1.
        -12    1    4    4    0    0  0.52848739231E+01  0.60536239447E+00 -0.21601887804E+02  0.22247200109E+02  0.00000000000E+00 0.  1.
</event>
<event>
 8    1  0.1280823E-010  0.9118800E+02  0.7816164E-02  0.1184000E+00
        -11   -1    0    0    0    0  0.00000000000E+00  0.00000000000E+00  0.45593999997E+02  0.45594000000E+02  0.51100000000E-03 0. -1.
         11   -1    0    0    0    0 -0.00000000000E+00 -0.00000000000E+00 -0.45593999997E+02  0.45594000000E+02  0.51100000000E-03 0.  1.
         23    2    1    2    0    0  0.00000000000E+00  0.00000000000E+00  0.00000000000E+00  0.91188000000E+02  0.91188000000E+02 0.  0.
    9900012    2    3    3    0    0 -0.48357516405E+01  0.13331376704E+02  0.41018450121E+02  0.47787270178E+02  0.19999996048E+02 0.  0.
        -12    1    3    3    0    0  0.48357516405E+01 -0.13331376704E+02 -0.41018450121E+02  0.43400729822E+02  0.00000000000E+00 0.  1.
         11    1    4    4    0    0 -0.54687663317E+01  0.12308117495E+02  0.24188929445E+02  0.27685762937E+02  0.51100000000E-03 0. -1.
        -11    1    4    4    0    0 -0.80595865351E-01  0.58801253643E+01  0.11059646602E+02  0.12525899297E+02  0.51100000000E-03 0.  1.
         12    1    4    4    0    0  0.71361055648E+00 -0.48568661550E+01  0.57698740752E+01  0.75756079437E+01  0.00000000000E+00 0. -1.
</event>
<event>
 8    1  0.1280823E-010  0.9118800E+02  0.7816164E-02  0.1184000E+00
        -11   -1    0    0    0    0  0.00000000000E+00  0.00000000000E+00  0.45593999997E+02  0.45594000000E+02  0.51100000000E-03 0.  1.
         11   -1    0    0    0    0 -0.00000000000E+00 -0.00000000000E+00 -0.45593999997E+02  0.45594000000E+02  0.51100000000E-03 0. -1.
         23    2    1    2    0    0  0.00000000000E+00 -0.35527136788E-14  0.71054273576E-14  0.91188000000E+02  0.91188000000E+02 0.  0.
    9900012    2    3    3    0    0  0.23124520529E+02 -0.17845085874E+02  0.32100351162E+02  0.47787273229E+02  0.20000009958E+02 0.  0.
        -12    1    3    3    0    0 -0.23124520529E+02  0.17845085874E+02 -0.32100351162E+02  0.43400726771E+02  0.00000000000E+00 0.  1.
         11    1    4    4    0    0  0.13725189661E+02 -0.21044703374E+02  0.24085117147E+02  0.34804500277E+02  0.51100000000E-03 0. -1.
        -11    1    4    4    0    0  0.17623497294E+01  0.83626215029E+00  0.50716215176E+00  0.20155457479E+01  0.51100000000E-03 0.  1.
         12    1    4    4    0    0  0.76369811386E+01  0.23633553492E+01  0.75080718638E+01  0.10967227203E+02  0.00000000000E+00 0. -1.
</event>
<event>
 8    1  0.1280823E-010  0.9118800E+02  0.7816164E-02  0.1184000E+00
        -11   -1    0    0    0    0  0.00000000000E+00  0.00000000000E+00  0.45593999997E+02  0.45594000000E+02  0.51100000000E-03 0. -1.
         11   -1    0    0    0    0 -0.00000000000E+00 -0.00000000000E+00 -0.45593999997E+02  0.45594000000E+02  0.51100000000E-03 0.  1.
         23    2    1    2    0    0  0.00000000000E+00  0.00000000000E+00 -0.35527136788E-14  0.91188000000E+02  0.91188000000E+02 0.  0.
    9900012    2    3    3    0    0  0.15001097033E+02  0.33372322372E+02  0.23342626196E+02  0.47787274079E+02  0.20000013838E+02 0.  0.
        -12    1    3    3    0    0 -0.15001097033E+02 -0.33372322372E+02 -0.23342626196E+02  0.43400725921E+02  0.00000000000E+00 0.  1.
         11    1    4    4    0    0  0.15737380043E+02  0.23256753364E+02  0.12107740452E+02  0.30580043931E+02  0.51100000000E-03 0. -1.
        -11    1    4    4    0    0  0.27337025405E+01  0.26420105253E+01  0.69452069318E+01  0.79176542475E+01  0.51100000000E-03 0.  1.
        -12    1    4    4    0    0 -0.34699855511E+01  0.74735584823E+01  0.42896788126E+01  0.92895759014E+01  0.00000000000E+00 0.  1.
</event>
<event>
 8    1  0.1280823E-010  0.9118800E+02  0.7816164E-02  0.1184000E+00
        -11   -1    0    0    0    0  0.00000000000E+00  0.00000000000E+00  0.45593999997E+02  0.45594000000E+02  0.51100000000E-03 0. -1.
         11   -1    0    0    0    0 -0.00000000000E+00 -0.00000000000E+00 -0.45593999997E+02  0.45594000000E+02  0.51100000000E-03 0.  1.
         23    2    1    2    0    0  0.00000000000E+00  0.00000000000E+00 -0.17763568394E-14  0.91188000000E+02  0.91188000000E+02 0.  0.
    9900012    2    3    3    0    0 -0.42294254824E+02 -0.52043550159E+01 -0.82300624588E+01  0.47787271547E+02  0.20000002290E+02 0.  0.
         12    1    3    3    0    0  0.42294254824E+02  0.52043550159E+01  0.82300624588E+01  0.43400728453E+02  0.00000000000E+00 0. -1.
         11    1    4    4    0    0 -0.89091505939E+01 -0.63067737320E+00 -0.16408124264E+01  0.90809131663E+01  0.51100000000E-03 0. -1.
        -11    1    4    4    0    0 -0.23477987317E+02 -0.11184648405E+01  0.39506028204E+01  0.23834305422E+02  0.51100000000E-03 0.  1.
         12    1    4    4    0    0 -0.99071169128E+01 -0.34552128023E+01 -0.10539852853E+02  0.14872052958E+02  0.00000000000E+00 0. -1.
</event>
<event>
 8    1  0.1280823E-010  0.9118800E+02  0.7816164E-02  0.1184000E+00
        -11   -1    0    0    0    0  0.00000000000E+00  0.00000000000E+00  0.45593999997E+02  0.45594000000E+02  0.51100000000E-03 0. -1.
         11   -1    0    0    0    0 -0.00000000000E+00 -0.00000000000E+00 -0.45593999997E+02  0.45594000000E+02  0.51100000000E-03 0.  1.
         23    2    1    2    0    0  0.00000000000E+00  0.00000000000E+00  0.00000000000E+00  0.91188000000E+02  0.91188000000E+02 0.  0.
    9900012    2    3    3    0    0 -0.12844566192E+02  0.12623532550E+01  0.41437263283E+02  0.47787271841E+02  0.20000003631E+02 0.  0.
        -12    1    3    3    0    0  0.12844566192E+02 -0.12623532550E+01 -0.41437263283E+02  0.43400728159E+02  0.00000000000E+00 0.  1.
         11    1    4    4    0    0 -0.33984929413E+00 -0.21610064351E+01  0.14246269265E+01  0.26105571237E+01  0.51100000000E-03 0. -1.
        -11    1    4    4    0    0 -0.65008337788E+01 -0.58404501668E+01  0.10463997571E+02  0.13633302732E+02  0.51100000000E-03 0.  1.
         12    1    4    4    0    0 -0.60038831191E+01  0.92638098568E+01  0.29548638786E+02  0.31543411985E+02  0.00000000000E+00 0. -1.
</event>
<event>
 8    1  0.1280823E-010  0.9118800E+02  0.7816164E-02  0.1184000E+00
        -11   -1    0    0    0    0  0.00000000000E+00  0.00000000000E+00  0.45593999997E+02  0.45594000000E+02  0.51100000000E-03 0. -1.
         11   -1    0    0    0    0 -0.00000000000E+00 -0.00000000000E+00 -0.45593999997E+02  0.45594000000E+02  0.51100000000E-03 0.  1.
         23    2    1    2    0    0  0.35527136788E-14  0.00000000000E+00  0.00000000000E+00  0.91188000000E+02  0.91188000000E+02 0.  0.
    9900012    2    3    3    0    0  0.18680157663E+02 -0.21164396640E+02  0.32965791586E+02  0.47787269702E+02  0.19999993880E+02 0.  0.
        -12    1    3    3    0    0 -0.18680157663E+02  0.21164396640E+02 -0.32965791586E+02  0.43400730298E+02  0.00000000000E+00 0.  1.
         11    1    4    4    0    0  0.11829932859E+02 -0.68638996085E+01  0.13156699142E+02  0.18977859780E+02  0.51100000000E-03 0. -1.
        -11    1    4    4    0    0  0.69195037264E+01 -0.77489418135E+00  0.96196314610E+01  0.11875070632E+02  0.51100000000E-03 0.  1.
        -12    1    4    4    0    0 -0.69278921801E-01 -0.13525602850E+02  0.10189460984E+02  0.16934339290E+02  0.00000000000E+00 0.  1.
</event>
<event>
 8    1  0.1280823E-010  0.9118800E+02  0.7816164E-02  0.1184000E+00
        -11   -1    0    0    0    0  0.00000000000E+00  0.00000000000E+00  0.45593999997E+02  0.45594000000E+02  0.51100000000E-03 0. -1.
         11   -1    0    0    0    0 -0.00000000000E+00 -0.00000000000E+00 -0.45593999997E+02  0.45594000000E+02  0.51100000000E-03 0.  1.
         23    2    1    2    0    0  0.00000000000E+00  0.00000000000E+00 -0.71054273576E-14  0.91188000000E+02  0.91188000000E+02 0.  0.
    9900012    2    3    3    0    0  0.97016602454E+01  0.19056584525E+02  0.37767022310E+02  0.47787267293E+02  0.19999982898E+02 0.  0.
        -12    1    3    3    0    0 -0.97016602454E+01 -0.19056584525E+02 -0.37767022310E+02  0.43400732707E+02  0.00000000000E+00 0.  1.
         11    1    4    4    0    0 -0.57244051651E+01  0.60808391978E+01  0.12957417417E+02  0.15415579335E+02  0.51100000000E-03 0.  1.
        -11    1    4    4    0    0  0.29538922469E+01  0.35391282630E+01  0.28772210638E+01  0.54340877413E+01  0.51100000000E-03 0. -1.
         12    1    4    4    0    0  0.12472173164E+02  0.94366170644E+01  0.21932383829E+02  0.26937600218E+02  0.00000000000E+00 0. -1.
</event>
<event>
 8    1  0.1280823E-010  0.9118800E+02  0.7816164E-02  0.1184000E+00
        -11   -1    0    0    0    0  0.00000000000E+00  0.00000000000E+00  0.45593999997E+02  0.45594000000E+02  0.51100000000E-03 0. -1.
         11   -1    0    0    0    0 -0.00000000000E+00 -0.00000000000E+00 -0.45593999997E+02  0.45594000000E+02  0.51100000000E-03 0.  1.
         23    2    1    2    0    0 -0.17763568394E-14  0.17763568394E-14  0.00000000000E+00  0.91188000000E+02  0.91188000000E+02 0.  0.
    9900012    2    3    3    0    0  0.86344945906E+01  0.15224296975E+02  0.39715109687E+02  0.47787266680E+02  0.19999980102E+02 0.  0.
        -12    1    3    3    0    0 -0.86344945906E+01 -0.15224296975E+02 -0.39715109687E+02  0.43400733320E+02  0.00000000000E+00 0.  1.
         11    1    4    4    0    0  0.12089672051E+02  0.10754025468E+02  0.28805562614E+02  0.33038911481E+02  0.51100000000E-03 0. -1.
        -11    1    4    4    0    0  0.18658787347E+01  0.16477226576E+01  0.73312035514E+01  0.77422890143E+01  0.51100000000E-03 0.  1.
        -12    1    4    4    0    0 -0.53210561946E+01  0.28225488494E+01  0.35783435219E+01  0.70060661854E+01  0.00000000000E+00 0.  1.
</event>
<event>
 8    1  0.1280823E-010  0.9118800E+02  0.7816164E-02  0.1184000E+00
        -11   -1    0    0    0    0  0.00000000000E+00  0.00000000000E+00  0.45593999997E+02  0.45594000000E+02  0.51100000000E-03 0. -1.
         11   -1    0    0    0    0 -0.00000000000E+00 -0.00000000000E+00 -0.45593999997E+02  0.45594000000E+02  0.51100000000E-03 0.  1.
         23    2    1    2    0    0 -0.71054273576E-14  0.00000000000E+00  0.00000000000E+00  0.91188000000E+02  0.91188000000E+02 0.  0.
    9900012    2    3    3    0    0 -0.36007008453E+02  0.12538177923E+02 -0.20734328960E+02  0.47787274651E+02  0.20000016444E+02 0.  0.
         12    1    3    3    0    0  0.36007008453E+02 -0.12538177923E+02  0.20734328960E+02  0.43400725349E+02  0.00000000000E+00 0. -1.
         11    1    4    4    0    0 -0.22825755659E+00  0.38828276964E+01 -0.67621064229E+00  0.39478745581E+01  0.51100000000E-03 0. -1.
        -11    1    4    4    0    0 -0.14446987889E+01  0.31187217189E+01 -0.46973234988E+01  0.58205178519E+01  0.51100000000E-03 0.  1.
        -12    1    4    4    0    0 -0.34334052108E+02  0.55366285076E+01 -0.15360794819E+02  0.38018882241E+02  0.00000000000E+00 0.  1.
</event>
<event>
 8    1  0.1280823E-010  0.9118800E+02  0.7816164E-02  0.1184000E+00
        -11   -1    0    0    0    0  0.00000000000E+00  0.00000000000E+00  0.45593999997E+02  0.45594000000E+02  0.51100000000E-03 0. -1.
         11   -1    0    0    0    0 -0.00000000000E+00 -0.00000000000E+00 -0.45593999997E+02  0.45594000000E+02  0.51100000000E-03 0.  1.
         23    2    1    2    0    0  0.00000000000E+00  0.00000000000E+00  0.00000000000E+00  0.91188000000E+02  0.91188000000E+02 0.  0.
    9900012    2    3    3    0    0 -0.17684658252E+02 -0.17637117073E+02  0.35493789165E+02  0.47787261465E+02  0.19999956323E+02 0.  0.
        -12    1    3    3    0    0  0.17684658252E+02  0.17637117073E+02 -0.35493789165E+02  0.43400738535E+02  0.00000000000E+00 0.  1.
         11    1    4    4    0    0 -0.11040455936E+01 -0.38705885874E+00  0.11453562433E+02  0.11513158728E+02  0.51100000000E-03 0. -1.
        -11    1    4    4    0    0  0.43356806947E+00  0.15299297259E+01  0.27497753235E+01  0.31764651466E+01  0.51100000000E-03 0.  1.
        -12    1    4    4    0    0 -0.17014180728E+02 -0.18779987940E+02  0.21290451408E+02  0.33097637590E+02  0.00000000000E+00 0.  1.
</event>
<event>
 8    1  0.1280823E-010  0.9118800E+02  0.7816164E-02  0.1184000E+00
        -11   -1    0    0    0    0  0.00000000000E+00  0.00000000000E+00  0.45593999997E+02  0.45594000000E+02  0.51100000000E-03 0. -1.
         11   -1    0    0    0    0 -0.00000000000E+00 -0.00000000000E+00 -0.45593999997E+02  0.45594000000E+02  0.51100000000E-03 0.  1.
         23    2    1    2    0    0  0.00000000000E+00 -0.17763568394E-14  0.00000000000E+00  0.91188000000E+02  0.91188000000E+02 0.  0.
    9900012    2    3    3    0    0 -0.22793079107E+02 -0.14223680592E+02  0.34084979181E+02  0.47787270162E+02  0.19999995975E+02 0.  0.
        -12    1    3    3    0    0  0.22793079107E+02  0.14223680592E+02 -0.34084979181E+02  0.43400729838E+02  0.00000000000E+00 0.  1.
         11    1    4    4    0    0  0.15065333530E+01 -0.11000631244E+01  0.34409111561E+00  0.18968870758E+01  0.51100000000E-03 0. -1.
        -11    1    4    4    0    0  0.92053025293E+00 -0.14267920892E+01  0.74013194545E+01  0.75935921369E+01  0.51100000000E-03 0.  1.
         12    1    4    4    0    0 -0.25220142713E+02 -0.11696825379E+02  0.26339568611E+02  0.38296790949E+02  0.00000000000E+00 0. -1.
</event>
<event>
 8    1  0.1280823E-010  0.9118800E+02  0.7816164E-02  0.1184000E+00
        -11   -1    0    0    0    0  0.00000000000E+00  0.00000000000E+00  0.45593999997E+02  0.45594000000E+02  0.51100000000E-03 0.  1.
         11   -1    0    0    0    0 -0.00000000000E+00 -0.00000000000E+00 -0.45593999997E+02  0.45594000000E+02  0.51100000000E-03 0. -1.
         23    2    1    2    0    0  0.00000000000E+00 -0.88817841970E-15  0.00000000000E+00  0.91188000000E+02  0.91188000000E+02 0.  0.
    9900012    2    3    3    0    0 -0.35606923899E+02 -0.50327136825E+01 -0.24299013101E+02  0.47787271040E+02  0.19999999981E+02 0.  0.
         12    1    3    3    0    0  0.35606923899E+02  0.50327136825E+01  0.24299013101E+02  0.43400728960E+02  0.00000000000E+00 0. -1.
         11    1    4    4    0    0 -0.15658542565E+01  0.32476796444E+01  0.33761683938E+00  0.36212301800E+01  0.51100000000E-03 0. -1.
        -11    1    4    4    0    0  0.76503469638E+00 -0.24665441551E+00 -0.11942762489E+01  0.14395876171E+01  0.51100000000E-03 0.  1.
        -12    1    4    4    0    0 -0.34806104339E+02 -0.80337389113E+01 -0.23442353691E+02  0.42726453243E+02  0.00000000000E+00 0.  1.
</event>
<event>
 8    1  0.1280823E-010  0.9118800E+02  0.7816164E-02  0.1184000E+00
        -11   -1    0    0    0    0  0.00000000000E+00  0.00000000000E+00  0.45593999997E+02  0.45594000000E+02  0.51100000000E-03 0. -1.
         11   -1    0    0    0    0 -0.00000000000E+00 -0.00000000000E+00 -0.45593999997E+02  0.45594000000E+02  0.51100000000E-03 0.  1.
         23    2    1    2    0    0 -0.17763568394E-14  0.35527136788E-14  0.00000000000E+00  0.91188000000E+02  0.91188000000E+02 0.  0.
    9900012    2    3    3    0    0  0.11644819877E+02 -0.12694424860E+02  0.39835590022E+02  0.47787257093E+02  0.19999936391E+02 0.  0.
        -12    1    3    3    0    0 -0.11644819877E+02  0.12694424860E+02 -0.39835590022E+02  0.43400742907E+02  0.00000000000E+00 0.  1.
         11    1    4    4    0    0  0.72528677660E+01 -0.70589237275E+01  0.16107673090E+02  0.19023396849E+02  0.51100000000E-03 0. -1.
        -11    1    4    4    0    0  0.29134466743E+01 -0.45040630980E+01  0.25580817236E+02  0.26137195079E+02  0.51100000000E-03 0.  1.
        -12    1    4    4    0    0  0.14785054368E+01 -0.11314380344E+01 -0.18529003042E+01  0.26266651651E+01  0.00000000000E+00 0.  1.
</event>
<event>
 8    1  0.1280823E-010  0.9118800E+02  0.7816164E-02  0.1184000E+00
        -11   -1    0    0    0    0  0.00000000000E+00  0.00000000000E+00  0.45593999997E+02  0.45594000000E+02  0.51100000000E-03 0. -1.
         11   -1    0    0    0    0 -0.00000000000E+00 -0.00000000000E+00 -0.45593999997E+02  0.45594000000E+02  0.51100000000E-03 0.  1.
         23    2    1    2    0    0  0.00000000000E+00  0.00000000000E+00  0.00000000000E+00  0.91188000000E+02  0.91188000000E+02 0.  0.
    9900012    2    3    3    0    0  0.17730020666E+02 -0.20375453672E+02 -0.33972201886E+02  0.47787271363E+02  0.20000001454E+02 0.  0.
         12    1    3    3    0    0 -0.17730020666E+02  0.20375453672E+02  0.33972201886E+02  0.43400728637E+02  0.00000000000E+00 0. -1.
         11    1    4    4    0    0  0.32671230127E+00  0.49695584862E+00 -0.59505501221E+00  0.84130658618E+00  0.51100000000E-03 0. -1.
        -11    1    4    4    0    0  0.51816410977E+01 -0.26953005088E+01  0.12496450278E+01  0.59729107020E+01  0.51100000000E-03 0.  1.
        -12    1    4    4    0    0  0.12221667268E+02 -0.18177109012E+02 -0.34626791902E+02  0.40973054075E+02  0.00000000000E+00 0.  1.
</event>
<event>
 8    1  0.1280823E-010  0.9118800E+02  0.7816164E-02  0.1184000E+00
        -11   -1    0    0    0    0  0.00000000000E+00  0.00000000000E+00  0.45593999997E+02  0.45594000000E+02  0.51100000000E-03 0. -1.
         11   -1    0    0    0    0 -0.00000000000E+00 -0.00000000000E+00 -0.45593999997E+02  0.45594000000E+02  0.51100000000E-03 0.  1.
         23    2    1    2    0    0  0.00000000000E+00  0.00000000000E+00  0.00000000000E+00  0.91188000000E+02  0.91188000000E+02 0.  0.
    9900012    2    3    3    0    0 -0.94928270913E+01 -0.34260974091E+02 -0.24893664956E+02  0.47787278038E+02  0.20000031889E+02 0.  0.
         12    1    3    3    0    0  0.94928270913E+01  0.34260974091E+02  0.24893664956E+02  0.43400721962E+02  0.00000000000E+00 0. -1.
         11    1    4    4    0    0  0.20379771669E+01 -0.63664179479E+01 -0.24094243216E+01  0.71056283496E+01  0.51100000000E-03 0. -1.
        -11    1    4    4    0    0 -0.83415131397E+01 -0.29231613531E+02 -0.19513484790E+02  0.36122626704E+02  0.51100000000E-03 0.  1.
         12    1    4    4    0    0 -0.31892911185E+01  0.13370573873E+01 -0.29707558439E+01  0.45590229851E+01  0.00000000000E+00 0. -1.
</event>
<event>
 8    1  0.1280823E-010  0.9118800E+02  0.7816164E-02  0.1184000E+00
        -11   -1    0    0    0    0  0.00000000000E+00  0.00000000000E+00  0.45593999997E+02  0.45594000000E+02  0.51100000000E-03 0. -1.
         11   -1    0    0    0    0 -0.00000000000E+00 -0.00000000000E+00 -0.45593999997E+02  0.45594000000E+02  0.51100000000E-03 0.  1.
         23    2    1    2    0    0  0.35527136788E-14 -0.44408920985E-15  0.71054273576E-14  0.91188000000E+02  0.91188000000E+02 0.  0.
    9900012    2    3    3    0    0  0.16701564595E+02  0.87629650425E+00  0.40048879096E+02  0.47787275670E+02  0.20000021091E+02 0.  0.
        -12    1    3    3    0    0 -0.16701564595E+02 -0.87629650425E+00 -0.40048879096E+02  0.43400724330E+02  0.00000000000E+00 0.  1.
         11    1    4    4    0    0  0.20422517150E+01 -0.29079121136E+01  0.12007044249E+02  0.12521815236E+02  0.51100000000E-03 0. -1.
        -11    1    4    4    0    0 -0.27782823257E+01  0.20450914281E+01  0.23806621627E+01  0.41915157431E+01  0.51100000000E-03 0.  1.
         12    1    4    4    0    0  0.17437595206E+02  0.17391171897E+01  0.25661172684E+02  0.31073944691E+02  0.00000000000E+00 0. -1.
</event>
<event>
 8    1  0.1280823E-010  0.9118800E+02  0.7816164E-02  0.1184000E+00
        -11   -1    0    0    0    0  0.00000000000E+00  0.00000000000E+00  0.45593999997E+02  0.45594000000E+02  0.51100000000E-03 0. -1.
         11   -1    0    0    0    0 -0.00000000000E+00 -0.00000000000E+00 -0.45593999997E+02  0.45594000000E+02  0.51100000000E-03 0.  1.
         23    2    1    2    0    0  0.00000000000E+00  0.00000000000E+00  0.00000000000E+00  0.91188000000E+02  0.91188000000E+02 0.  0.
    9900012    2    3    3    0    0  0.90172344584E+01  0.36980044900E+02  0.20851650763E+02  0.47787244505E+02  0.19999878994E+02 0.  0.
        -12    1    3    3    0    0 -0.90172344584E+01 -0.36980044900E+02 -0.20851650763E+02  0.43400755495E+02  0.00000000000E+00 0.  1.
         11    1    4    4    0    0  0.28805022063E+01  0.22986541822E+02  0.19828254510E+02  0.30493246384E+02  0.51100000000E-03 0. -1.
        -11    1    4    4    0    0 -0.15178061800E+00  0.89538785412E+01  0.20015406233E+01  0.91761181016E+01  0.51100000000E-03 0.  1.
        -12    1    4    4    0    0  0.62885128701E+01  0.50396245367E+01 -0.97814437069E+00  0.81178800187E+01  0.00000000000E+00 0.  1.
</event>
<event>
 8    1  0.1280823E-010  0.9118800E+02  0.7816164E-02  0.1184000E+00
        -11   -1    0    0    0    0  0.00000000000E+00  0.00000000000E+00  0.45593999997E+02  0.45594000000E+02  0.51100000000E-03 0. -1.
         11   -1    0    0    0    0 -0.00000000000E+00 -0.00000000000E+00 -0.45593999997E+02  0.45594000000E+02  0.51100000000E-03 0.  1.
         23    2    1    2    0    0 -0.17763568394E-14  0.00000000000E+00  0.00000000000E+00  0.91188000000E+02  0.91188000000E+02 0.  0.
    9900012    2    3    3    0    0  0.13389968241E+02 -0.24594268013E+02  0.33157996422E+02  0.47787285774E+02  0.20000067160E+02 0.  0.
        -12    1    3    3    0    0 -0.13389968241E+02  0.24594268013E+02 -0.33157996422E+02  0.43400714226E+02  0.00000000000E+00 0.  1.
         11    1    4    4    0    0  0.10091874589E+02 -0.13256183354E+02  0.13581268224E+02  0.21494724392E+02  0.51100000000E-03 0. -1.
        -11    1    4    4    0    0 -0.37938509000E+01 -0.93870794358E+01  0.12494706868E+02  0.16081923547E+02  0.51100000000E-03 0.  1.
        -12    1    4    4    0    0  0.70919445521E+01 -0.19510052234E+01  0.70820213290E+01  0.10210637836E+02  0.00000000000E+00 0.  1.
</event>
<event>
 8    1  0.1280823E-010  0.9118800E+02  0.7816164E-02  0.1184000E+00
        -11   -1    0    0    0    0  0.00000000000E+00  0.00000000000E+00  0.45593999997E+02  0.45594000000E+02  0.51100000000E-03 0. -1.
         11   -1    0    0    0    0 -0.00000000000E+00 -0.00000000000E+00 -0.45593999997E+02  0.45594000000E+02  0.51100000000E-03 0.  1.
         23    2    1    2    0    0 -0.35527136788E-14 -0.88817841970E-15 -0.71054273576E-14  0.91188000000E+02  0.91188000000E+02 0.  0.
    9900012    2    3    3    0    0 -0.21268041914E+02  0.44834039806E+01 -0.37565835730E+02  0.47787279589E+02  0.20000038960E+02 0.  0.
         12    1    3    3    0    0  0.21268041914E+02 -0.44834039806E+01  0.37565835730E+02  0.43400720411E+02  0.00000000000E+00 0. -1.
         11    1    4    4    0    0 -0.18438747352E+02  0.10918068999E+02 -0.30979372185E+02  0.37668463412E+02  0.51100000000E-03 0.  1.
        -11    1    4    4    0    0 -0.15170756174E+01 -0.92257293561E+00 -0.59542556392E+00  0.18727496132E+01  0.51100000000E-03 0. -1.
        -12    1    4    4    0    0 -0.13122189440E+01 -0.55120920832E+01 -0.59910379804E+01  0.82460665637E+01  0.00000000000E+00 0.  1.
</event>
<event>
 8    1  0.1280823E-010  0.9118800E+02  0.7816164E-02  0.1184000E+00
        -11   -1    0    0    0    0  0.00000000000E+00  0.00000000000E+00  0.45593999997E+02  0.45594000000E+02  0.51100000000E-03 0. -1.
         11   -1    0    0    0    0 -0.00000000000E+00 -0.00000000000E+00 -0.45593999997E+02  0.45594000000E+02  0.51100000000E-03 0.  1.
         23    2    1    2    0    0 -0.35527136788E-14 -0.35527136788E-14  0.00000000000E+00  0.91188000000E+02  0.91188000000E+02 0.  0.
    9900012    2    3    3    0    0  0.25242374617E+02 -0.30870224195E+02  0.17131103849E+02  0.47787274923E+02  0.20000017683E+02 0.  0.
         12    1    3    3    0    0 -0.25242374617E+02  0.30870224195E+02 -0.17131103849E+02  0.43400725077E+02  0.00000000000E+00 0. -1.
         11    1    4    4    0    0  0.75262634204E+01 -0.16976427421E+01 -0.56930438909E+00  0.77363259821E+01  0.51100000000E-03 0. -1.
        -11    1    4    4    0    0  0.15874502817E+02 -0.18626080302E+02  0.84156402839E+01  0.25879600243E+02  0.51100000000E-03 0.  1.
         12    1    4    4    0    0  0.18416083797E+01 -0.10546501151E+02  0.92847679542E+01  0.14171348698E+02  0.00000000000E+00 0. -1.
</event>
<event>
 8    1  0.1280823E-010  0.9118800E+02  0.7816164E-02  0.1184000E+00
        -11   -1    0    0    0    0  0.00000000000E+00  0.00000000000E+00  0.45593999997E+02  0.45594000000E+02  0.51100000000E-03 0. -1.
         11   -1    0    0    0    0 -0.00000000000E+00 -0.00000000000E+00 -0.45593999997E+02  0.45594000000E+02  0.51100000000E-03 0.  1.
         23    2    1    2    0    0  0.88817841970E-15  0.35527136788E-14  0.00000000000E+00  0.91188000000E+02  0.91188000000E+02 0.  0.
    9900012    2    3    3    0    0  0.79836688235E+01  0.24283584892E+02  0.35074157030E+02  0.47787217121E+02  0.19999754141E+02 0.  0.
        -12    1    3    3    0    0 -0.79836688235E+01 -0.24283584892E+02 -0.35074157030E+02  0.43400782879E+02  0.00000000000E+00 0.  1.
         11    1    4    4    0    0  0.54876811241E+01  0.48792842098E+01  0.57246271199E+01  0.93109298378E+01  0.51100000000E-03 0. -1.
        -11    1    4    4    0    0  0.43427989338E+01  0.10917016331E+02  0.27049609308E+02  0.29491058172E+02  0.51100000000E-03 0.  1.
         12    1    4    4    0    0 -0.18468112344E+01  0.84872843519E+01  0.22999206028E+01  0.89852291114E+01  0.00000000000E+00 0. -1.
</event>
<event>
 8    1  0.1280823E-010  0.9118800E+02  0.7816164E-02  0.1184000E+00
        -11   -1    0    0    0    0  0.00000000000E+00  0.00000000000E+00  0.45593999997E+02  0.45594000000E+02  0.51100000000E-03 0. -1.
         11   -1    0    0    0    0 -0.00000000000E+00 -0.00000000000E+00 -0.45593999997E+02  0.45594000000E+02  0.51100000000E-03 0.  1.
         23    2    1    2    0    0  0.00000000000E+00 -0.17763568394E-14  0.00000000000E+00  0.91188000000E+02  0.91188000000E+02 0.  0.
    9900012    2    3    3    0    0 -0.10572825651E+02 -0.44835630317E+01  0.41853753668E+02  0.47787266414E+02  0.19999978889E+02 0.  0.
        -12    1    3    3    0    0  0.10572825651E+02  0.44835630317E+01 -0.41853753668E+02  0.43400733586E+02  0.00000000000E+00 0.  1.
         11    1    4    4    0    0 -0.24683386653E+01  0.25493612147E+01  0.24663060037E+02  0.24917031706E+02  0.51100000000E-03 0. -1.
        -11    1    4    4    0    0  0.27504873867E+00  0.23212142073E+01  0.15199205291E+01  0.27881617386E+01  0.51100000000E-03 0.  1.
         12    1    4    4    0    0 -0.83795357244E+01 -0.93541384537E+01  0.15670773102E+02  0.20082072970E+02  0.00000000000E+00 0. -1.
</event>
<event>
 8    1  0.1280823E-010  0.9118800E+02  0.7816164E-02  0.1184000E+00
        -11   -1    0    0    0    0  0.00000000000E+00  0.00000000000E+00  0.45593999997E+02  0.45594000000E+02  0.51100000000E-03 0. -1.
         11   -1    0    0    0    0 -0.00000000000E+00 -0.00000000000E+00 -0.45593999997E+02  0.45594000000E+02  0.51100000000E-03 0.  1.
         23    2    1    2    0    0  0.00000000000E+00  0.00000000000E+00  0.00000000000E+00  0.91188000000E+02  0.91188000000E+02 0.  0.
    9900012    2    3    3    0    0  0.19088509695E+02  0.16060236141E+02 -0.35515080427E+02  0.47787270456E+02  0.19999997315E+02 0.  0.
         12    1    3    3    0    0 -0.19088509695E+02 -0.16060236141E+02  0.35515080427E+02  0.43400729544E+02  0.00000000000E+00 0. -1.
         11    1    4    4    0    0  0.14673205513E+02  0.38142274870E+01 -0.18322034556E+02  0.23781258207E+02  0.51100000000E-03 0. -1.
        -11    1    4    4    0    0  0.62319811017E+01  0.65934760948E+01 -0.47998794145E+01  0.10264032254E+02  0.51100000000E-03 0.  1.
         12    1    4    4    0    0 -0.18166769202E+01  0.56525325595E+01 -0.12393166456E+02  0.13741979994E+02  0.00000000000E+00 0. -1.
</event>
<event>
 8    1  0.1280823E-010  0.9118800E+02  0.7816164E-02  0.1184000E+00
        -11   -1    0    0    0    0  0.00000000000E+00  0.00000000000E+00  0.45593999997E+02  0.45594000000E+02  0.51100000000E-03 0.  1.
         11   -1    0    0    0    0 -0.00000000000E+00 -0.00000000000E+00 -0.45593999997E+02  0.45594000000E+02  0.51100000000E-03 0. -1.
         23    2    1    2    0    0  0.00000000000E+00  0.00000000000E+00  0.00000000000E+00  0.91188000000E+02  0.91188000000E+02 0.  0.
    9900012    2    3    3    0    0 -0.22923163024E+02  0.16230287661E+02  0.33086701816E+02  0.47787268697E+02  0.19999989298E+02 0.  0.
        -12    1    3    3    0    0  0.22923163024E+02 -0.16230287661E+02 -0.33086701816E+02  0.43400731303E+02  0.00000000000E+00 0.  1.
         11    1    4    4    0    0 -0.19639493940E+02  0.84188829229E+01  0.23537366164E+02  0.31789855584E+02  0.51100000000E-03 0. -1.
        -11    1    4    4    0    0  0.82118179402E+00 -0.12772425214E+01  0.46395062655E+01  0.48816704770E+01  0.51100000000E-03 0.  1.
        -12    1    4    4    0    0 -0.41048508779E+01  0.90886472598E+01  0.49098293866E+01  0.11115742636E+02  0.00000000000E+00 0.  1.
</event>
<event>
 8    1  0.1280823E-010  0.9118800E+02  0.7816164E-02  0.1184000E+00
        -11   -1    0    0    0    0  0.00000000000E+00  0.00000000000E+00  0.45593999997E+02  0.45594000000E+02  0.51100000000E-03 0. -1.
         11   -1    0    0    0    0 -0.00000000000E+00 -0.00000000000E+00 -0.45593999997E+02  0.45594000000E+02  0.51100000000E-03 0.  1.
         23    2    1    2    0    0  0.17763568394E-14  0.88817841970E-15  0.00000000000E+00  0.91188000000E+02  0.91188000000E+02 0.  0.
    9900012    2    3    3    0    0  0.10577801009E+02 -0.51450735773E+01 -0.41776328802E+02  0.47787270692E+02  0.19999998394E+02 0.  0.
         12    1    3    3    0    0 -0.10577801009E+02  0.51450735773E+01  0.41776328802E+02  0.43400729308E+02  0.00000000000E+00 0. -1.
         11    1    4    4    0    0  0.36228747028E+01 -0.30385730470E+01 -0.26036338201E+02  0.26462219379E+02  0.51100000000E-03 0. -1.
        -11    1    4    4    0    0  0.29538506037E+01  0.45341171703E+01 -0.10943742019E+02  0.12208560175E+02  0.51100000000E-03 0.  1.
         12    1    4    4    0    0  0.40010757021E+01 -0.66406177006E+01 -0.47962485818E+01  0.91164911385E+01  0.00000000000E+00 0. -1.
</event>
<event>
 8    1  0.1280823E-010  0.9118800E+02  0.7816164E-02  0.1184000E+00
        -11   -1    0    0    0    0  0.00000000000E+00  0.00000000000E+00  0.45593999997E+02  0.45594000000E+02  0.51100000000E-03 0. -1.
         11   -1    0    0    0    0 -0.00000000000E+00 -0.00000000000E+00 -0.45593999997E+02  0.45594000000E+02  0.51100000000E-03 0.  1.
         23    2    1    2    0    0 -0.17763568394E-14  0.00000000000E+00  0.00000000000E+00  0.91188000000E+02  0.91188000000E+02 0.  0.
    9900012    2    3    3    0    0 -0.53803231251E+01 -0.21655423771E+02  0.37225230513E+02  0.47787273711E+02  0.20000012159E+02 0.  0.
        -12    1    3    3    0    0  0.53803231251E+01  0.21655423771E+02 -0.37225230513E+02  0.43400726289E+02  0.00000000000E+00 0.  1.
         11    1    4    4    0    0  0.17666983888E+01 -0.84910377655E+01  0.90608213578E+01  0.12542624505E+02  0.51100000000E-03 0. -1.
        -11    1    4    4    0    0  0.43282119623E+01 -0.37515085360E+01  0.12018211971E+02  0.13313326193E+02  0.51100000000E-03 0.  1.
        -12    1    4    4    0    0 -0.11475233476E+02 -0.94128774699E+01  0.16146197184E+02  0.21931323013E+02  0.00000000000E+00 0.  1.
</event>
<event>
 8    1  0.1280823E-010  0.9118800E+02  0.7816164E-02  0.1184000E+00
        -11   -1    0    0    0    0  0.00000000000E+00  0.00000000000E+00  0.45593999997E+02  0.45594000000E+02  0.51100000000E-03 0. -1.
         11   -1    0    0    0    0 -0.00000000000E+00 -0.00000000000E+00 -0.45593999997E+02  0.45594000000E+02  0.51100000000E-03 0.  1.
         23    2    1    2    0    0  0.71054273576E-14  0.00000000000E+00 -0.17763568394E-14  0.91188000000E+02  0.91188000000E+02 0.  0.
    9900012    2    3    3    0    0 -0.38686435713E+02  0.14501223215E+02  0.13292760207E+02  0.47787271241E+02  0.20000000896E+02 0.  0.
        -12    1    3    3    0    0  0.38686435713E+02 -0.14501223215E+02 -0.13292760207E+02  0.43400728759E+02  0.00000000000E+00 0.  1.
         11    1    4    4    0    0 -0.26423245639E+02  0.74697737123E+01  0.10261302597E+02  0.29313474046E+02  0.51100000000E-03 0. -1.
        -11    1    4    4    0    0 -0.11848022244E+02  0.74435671553E+00  0.13189007321E+01  0.11944421183E+02  0.51100000000E-03 0.  1.
         12    1    4    4    0    0 -0.41516783045E+00  0.62870927869E+01  0.17125568772E+01  0.65293760113E+01  0.00000000000E+00 0. -1.
</event>
<event>
 8    1  0.1280823E-010  0.9118800E+02  0.7816164E-02  0.1184000E+00
        -11   -1    0    0    0    0  0.00000000000E+00  0.00000000000E+00  0.45593999997E+02  0.45594000000E+02  0.51100000000E-03 0. -1.
         11   -1    0    0    0    0 -0.00000000000E+00 -0.00000000000E+00 -0.45593999997E+02  0.45594000000E+02  0.51100000000E-03 0.  1.
         23    2    1    2    0    0 -0.44408920985E-15 -0.44408920985E-15  0.00000000000E+00  0.91188000000E+02  0.91188000000E+02 0.  0.
    9900012    2    3    3    0    0  0.38626188032E+01  0.17912595409E+01  0.43191382588E+02  0.47787263087E+02  0.19999963719E+02 0.  0.
        -12    1    3    3    0    0 -0.38626188032E+01 -0.17912595409E+01 -0.43191382588E+02  0.43400736913E+02  0.00000000000E+00 0.  1.
         11    1    4    4    0    0 -0.54275118882E+01 -0.49456353428E+01  0.11860579320E+02  0.13949571187E+02  0.51100000000E-03 0. -1.
        -11    1    4    4    0    0  0.20972412127E+00 -0.84467141642E+00  0.33043006626E+01  0.34169953379E+01  0.51100000000E-03 0.  1.
        -12    1    4    4    0    0  0.90804065702E+01  0.75815663002E+01  0.28026502605E+02  0.30420696562E+02  0.00000000000E+00 0.  1.
</event>
<event>
 8    1  0.1280823E-010  0.9118800E+02  0.7816164E-02  0.1184000E+00
        -11   -1    0    0    0    0  0.00000000000E+00  0.00000000000E+00  0.45593999997E+02  0.45594000000E+02  0.51100000000E-03 0. -1.
         11   -1    0    0    0    0 -0.00000000000E+00 -0.00000000000E+00 -0.45593999997E+02  0.45594000000E+02  0.51100000000E-03 0.  1.
         23    2    1    2    0    0 -0.71054273576E-14  0.00000000000E+00  0.35527136788E-14  0.91188000000E+02  0.91188000000E+02 0.  0.
    9900012    2    3    3    0    0 -0.33305611061E+02 -0.99906585541E+01 -0.25972020124E+02  0.47787276321E+02  0.20000024059E+02 0.  0.
         12    1    3    3    0    0  0.33305611061E+02  0.99906585541E+01  0.25972020124E+02  0.43400723679E+02  0.00000000000E+00 0. -1.
         11    1    4    4    0    0 -0.15363556913E+02 -0.65551103339E+01 -0.12699734752E+02  0.20983126925E+02  0.51100000000E-03 0. -1.
        -11    1    4    4    0    0 -0.20241040422E+02 -0.29554455253E+01 -0.13396964841E+02  0.24452260485E+02  0.51100000000E-03 0.  1.
         12    1    4    4    0    0  0.22989862733E+01 -0.48010269495E+00  0.12467946903E+00  0.23518889116E+01  0.00000000000E+00 0. -1.
</event>
<event>
 8    1  0.1280823E-010  0.9118800E+02  0.7816164E-02  0.1184000E+00
        -11   -1    0    0    0    0  0.00000000000E+00  0.00000000000E+00  0.45593999997E+02  0.45594000000E+02  0.51100000000E-03 0. -1.
         11   -1    0    0    0    0 -0.00000000000E+00 -0.00000000000E+00 -0.45593999997E+02  0.45594000000E+02  0.51100000000E-03 0.  1.
         23    2    1    2    0    0 -0.44408920985E-15  0.00000000000E+00  0.00000000000E+00  0.91188000000E+02  0.91188000000E+02 0.  0.
    9900012    2    3    3    0    0  0.26732257350E+01  0.11994530793E+02  0.41624607976E+02  0.47787275422E+02  0.20000019958E+02 0.  0.
        -12    1    3    3    0    0 -0.26732257350E+01 -0.11994530793E+02 -0.41624607976E+02  0.43400724578E+02  0.00000000000E+00 0.  1.
         11    1    4    4    0    0 -0.18313712258E+01  0.54821257564E+01  0.38656679807E+01  0.69534892374E+01  0.51100000000E-03 0. -1.
        -11    1    4    4    0    0  0.21234421889E+01 -0.39607666432E+01  0.15165687155E+02  0.15817545520E+02  0.51100000000E-03 0.  1.
         12    1    4    4    0    0  0.23811547719E+01  0.10473171680E+02  0.22593252840E+02  0.25016240665E+02  0.00000000000E+00 0. -1.
</event>
<event>
 8    1  0.1280823E-010  0.9118800E+02  0.7816164E-02  0.1184000E+00
        -11   -1    0    0    0    0  0.00000000000E+00  0.00000000000E+00  0.45593999997E+02  0.45594000000E+02  0.51100000000E-03 0.  1.
         11   -1    0    0    0    0 -0.00000000000E+00 -0.00000000000E+00 -0.45593999997E+02  0.45594000000E+02  0.51100000000E-03 0. -1.
         23    2    1    2    0    0  0.00000000000E+00  0.00000000000E+00  0.00000000000E+00  0.91188000000E+02  0.91188000000E+02 0.  0.
    9900012    2    3    3    0    0 -0.51715837409E+01 -0.42756566263E+02 -0.53622839356E+01  0.47787270444E+02  0.19999997264E+02 0.  0.
         12    1    3    3    0    0  0.51715837409E+01  0.42756566263E+02  0.53622839356E+01  0.43400729556E+02  0.00000000000E+00 0. -1.
         11    1    4    4    0    0  0.65419292450E+01 -0.14562747769E+02  0.42462784985E+00  0.15970309010E+02  0.51100000000E-03 0. -1.
        -11    1    4    4    0    0 -0.26681903005E+01 -0.10459158847E+02  0.86029942398E+00  0.10828359000E+02  0.51100000000E-03 0.  1.
         12    1    4    4    0    0 -0.90453226854E+01 -0.17734659647E+02 -0.66472112095E+01  0.20988602434E+02  0.00000000000E+00 0. -1.
</event>
<event>
 8    1  0.1280823E-010  0.9118800E+02  0.7816164E-02  0.1184000E+00
        -11   -1    0    0    0    0  0.00000000000E+00  0.00000000000E+00  0.45593999997E+02  0.45594000000E+02  0.51100000000E-03 0.  1.
         11   -1    0    0    0    0 -0.00000000000E+00 -0.00000000000E+00 -0.45593999997E+02  0.45594000000E+02  0.51100000000E-03 0. -1.
         23    2    1    2    0    0  0.35527136788E-14  0.00000000000E+00  0.00000000000E+00  0.91188000000E+02  0.91188000000E+02 0.  0.
    9900012    2    3    3    0    0  0.16533856231E+02 -0.36818237046E+02 -0.15958303720E+02  0.47787326749E+02  0.20000253977E+02 0.  0.
        -12    1    3    3    0    0 -0.16533856231E+02  0.36818237046E+02  0.15958303720E+02  0.43400673251E+02  0.00000000000E+00 0.  1.
         11    1    4    4    0    0  0.91207487602E+01 -0.62081417898E+01 -0.19042974715E+01  0.11196223986E+02  0.51100000000E-03 0. -1.
        -11    1    4    4    0    0  0.48232271187E+01 -0.38613749833E+01  0.17864810352E+00  0.61810720759E+01  0.51100000000E-03 0.  1.
        -12    1    4    4    0    0  0.25898803521E+01 -0.26748720273E+02 -0.14232654352E+02  0.30410030687E+02  0.00000000000E+00 0.  1.
</event>
<event>
 8    1  0.1280823E-010  0.9118800E+02  0.7816164E-02  0.1184000E+00
        -11   -1    0    0    0    0  0.00000000000E+00  0.00000000000E+00  0.45593999997E+02  0.45594000000E+02  0.51100000000E-03 0.  1.
         11   -1    0    0    0    0 -0.00000000000E+00 -0.00000000000E+00 -0.45593999997E+02  0.45594000000E+02  0.51100000000E-03 0. -1.
         23    2    1    2    0    0  0.00000000000E+00  0.00000000000E+00  0.00000000000E+00  0.91188000000E+02  0.91188000000E+02 0.  0.
    9900012    2    3    3    0    0 -0.22177344998E+02  0.37260255981E+02 -0.18607721167E+01  0.47787265216E+02  0.19999973427E+02 0.  0.
         12    1    3    3    0    0  0.22177344998E+02 -0.37260255981E+02  0.18607721167E+01  0.43400734784E+02  0.00000000000E+00 0. -1.
         11    1    4    4    0    0  0.66638173470E+00  0.16589659843E+02  0.15575851367E+01  0.16675939255E+02  0.51100000000E-03 0. -1.
        -11    1    4    4    0    0 -0.39839468720E+01  0.38203460003E+01 -0.16398103498E+01  0.57581120591E+01  0.51100000000E-03 0.  1.
         12    1    4    4    0    0 -0.18859779861E+02  0.16850250138E+02 -0.17785469035E+01  0.25353213902E+02  0.00000000000E+00 0. -1.
</event>
<event>
 8    1  0.1280823E-010  0.9118800E+02  0.7816164E-02  0.1184000E+00
        -11   -1    0    0    0    0  0.00000000000E+00  0.00000000000E+00  0.45593999997E+02  0.45594000000E+02  0.51100000000E-03 0. -1.
         11   -1    0    0    0    0 -0.00000000000E+00 -0.00000000000E+00 -0.45593999997E+02  0.45594000000E+02  0.51100000000E-03 0.  1.
         23    2    1    2    0    0  0.17763568394E-14  0.88817841970E-15  0.00000000000E+00  0.91188000000E+02  0.91188000000E+02 0.  0.
    9900012    2    3    3    0    0 -0.15607977397E+02  0.21390878612E+01  0.40440552268E+02  0.47787275086E+02  0.20000018426E+02 0.  0.
        -12    1    3    3    0    0  0.15607977397E+02 -0.21390878612E+01 -0.40440552268E+02  0.43400724914E+02  0.00000000000E+00 0.  1.
         11    1    4    4    0    0 -0.38108985055E+01  0.25282370498E+01  0.16603352109E+02  0.17221679115E+02  0.51100000000E-03 0. -1.
        -11    1    4    4    0    0  0.11259461082E+01  0.49980892330E+01  0.60000480666E+01  0.78898179752E+01  0.51100000000E-03 0.  1.
        -12    1    4    4    0    0 -0.12923025000E+02 -0.53872384216E+01  0.17837152092E+02  0.22675777996E+02  0.00000000000E+00 0.  1.
</event>
<event>
 8    1  0.1280823E-010  0.9118800E+02  0.7816164E-02  0.1184000E+00
        -11   -1    0    0    0    0  0.00000000000E+00  0.00000000000E+00  0.45593999997E+02  0.45594000000E+02  0.51100000000E-03 0. -1.
         11   -1    0    0    0    0 -0.00000000000E+00 -0.00000000000E+00 -0.45593999997E+02  0.45594000000E+02  0.51100000000E-03 0.  1.
         23    2    1    2    0    0  0.00000000000E+00  0.00000000000E+00  0.00000000000E+00  0.91188000000E+02  0.91188000000E+02 0.  0.
    9900012    2    3    3    0    0 -0.11272499835E+02  0.35138163144E+02  0.22844333411E+02  0.47787270390E+02  0.19999997017E+02 0.  0.
        -12    1    3    3    0    0  0.11272499835E+02 -0.35138163144E+02 -0.22844333411E+02  0.43400729610E+02  0.00000000000E+00 0.  1.
         11    1    4    4    0    0 -0.94828603468E+01  0.11095921954E+02  0.98139940921E+01  0.17588593027E+02  0.51100000000E-03 0. -1.
        -11    1    4    4    0    0 -0.16042442031E+00 -0.86569895998E+00  0.32877026919E+01  0.34035510773E+01  0.51100000000E-03 0.  1.
         12    1    4    4    0    0 -0.16292150683E+01  0.24907940150E+02  0.97426366273E+01  0.26795126286E+02  0.00000000000E+00 0. -1.
</event>
<event>
 8    1  0.1280823E-010  0.9118800E+02  0.7816164E-02  0.1184000E+00
        -11   -1    0    0    0    0  0.00000000000E+00  0.00000000000E+00  0.45593999997E+02  0.45594000000E+02  0.51100000000E-03 0.  1.
         11   -1    0    0    0    0 -0.00000000000E+00 -0.00000000000E+00 -0.45593999997E+02  0.45594000000E+02  0.51100000000E-03 0. -1.
         23    2    1    2    0    0  0.00000000000E+00  0.00000000000E+00  0.00000000000E+00  0.91188000000E+02  0.91188000000E+02 0.  0.
    9900012    2    3    3    0    0 -0.12877051558E+02  0.37520706285E+02 -0.17606781687E+02  0.47787301638E+02  0.20000139489E+02 0.  0.
        -12    1    3    3    0    0  0.12877051558E+02 -0.37520706285E+02  0.17606781687E+02  0.43400698362E+02  0.00000000000E+00 0.  1.
         11    1    4    4    0    0 -0.14911255114E+02  0.22717673141E+02 -0.80441747932E+01  0.28339847395E+02  0.51100000000E-03 0. -1.
        -11    1    4    4    0    0 -0.13993529362E+01  0.12778377475E+02 -0.64038324925E+01  0.14361552506E+02  0.51100000000E-03 0.  1.
         12    1    4    4    0    0  0.34335564923E+01  0.20246556686E+01 -0.31587744013E+01  0.50859017372E+01  0.00000000000E+00 0. -1.
</event>
<event>
 8    1  0.1280823E-010  0.9118800E+02  0.7816164E-02  0.1184000E+00
        -11   -1    0    0    0    0  0.00000000000E+00  0.00000000000E+00  0.45593999997E+02  0.45594000000E+02  0.51100000000E-03 0.  1.
         11   -1    0    0    0    0 -0.00000000000E+00 -0.00000000000E+00 -0.45593999997E+02  0.45594000000E+02  0.51100000000E-03 0. -1.
         23    2    1    2    0    0  0.71054273576E-14  0.00000000000E+00 -0.17763568394E-14  0.91188000000E+02  0.91188000000E+02 0.  0.
    9900012    2    3    3    0    0 -0.38444263124E+02  0.16384757150E+02  0.11713393900E+02  0.47787248501E+02  0.19999897215E+02 0.  0.
         12    1    3    3    0    0  0.38444263124E+02 -0.16384757150E+02 -0.11713393900E+02  0.43400751499E+02  0.00000000000E+00 0. -1.
         11    1    4    4    0    0 -0.27371563883E+01  0.23663553301E-01  0.40445068482E+01  0.48837097543E+01  0.51100000000E-03 0. -1.
        -11    1    4    4    0    0 -0.21813748915E+01  0.67677141014E+01  0.30137540836E+01  0.77228922375E+01  0.51100000000E-03 0.  1.
         12    1    4    4    0    0 -0.33525731844E+02  0.95933794952E+01  0.46551329685E+01  0.35180646509E+02  0.00000000000E+00 0. -1.
</event>
<event>
 8    1  0.1280823E-010  0.9118800E+02  0.7816164E-02  0.1184000E+00
        -11   -1    0    0    0    0  0.00000000000E+00  0.00000000000E+00  0.45593999997E+02  0.45594000000E+02  0.51100000000E-03 0. -1.
         11   -1    0    0    0    0 -0.00000000000E+00 -0.00000000000E+00 -0.45593999997E+02  0.45594000000E+02  0.51100000000E-03 0.  1.
         23    2    1    2    0    0 -0.35527136788E-14  0.00000000000E+00  0.00000000000E+00  0.91188000000E+02  0.91188000000E+02 0.  0.
    9900012    2    3    3    0    0 -0.18149677859E+02 -0.14819431231E+02  0.36532144947E+02  0.47787263108E+02  0.19999963813E+02 0.  0.
        -12    1    3    3    0    0  0.18149677859E+02  0.14819431231E+02 -0.36532144947E+02  0.43400736892E+02  0.00000000000E+00 0.  1.
         11    1    4    4    0    0 -0.11204522404E+02 -0.45180209792E+01  0.19090595833E+02  0.22592137690E+02  0.51100000000E-03 0. -1.
        -11    1    4    4    0    0 -0.92208954263E+01 -0.27014225918E+01  0.12795224150E+02  0.16001261132E+02  0.51100000000E-03 0.  1.
         12    1    4    4    0    0  0.22757399713E+01 -0.75999876598E+01  0.46463249632E+01  0.91938642861E+01  0.00000000000E+00 0. -1.
</event>
<event>
 8    1  0.1280823E-010  0.9118800E+02  0.7816164E-02  0.1184000E+00
        -11   -1    0    0    0    0  0.00000000000E+00  0.00000000000E+00  0.45593999997E+02  0.45594000000E+02  0.51100000000E-03 0. -1.
         11   -1    0    0    0    0 -0.00000000000E+00 -0.00000000000E+00 -0.45593999997E+02  0.45594000000E+02  0.51100000000E-03 0.  1.
         23    2    1    2    0    0  0.00000000000E+00  0.00000000000E+00  0.17763568394E-14  0.91188000000E+02  0.91188000000E+02 0.  0.
    9900012    2    3    3    0    0  0.86906553474E+01  0.40738003705E+02 -0.12186500463E+02  0.47787271553E+02  0.20000002317E+02 0.  0.
         12    1    3    3    0    0 -0.86906553474E+01 -0.40738003705E+02  0.12186500463E+02  0.43400728447E+02  0.00000000000E+00 0. -1.
         11    1    4    4    0    0  0.14705012077E+01 -0.12335366017E+00 -0.61523528073E+00  0.15987822363E+01  0.51100000000E-03 0. -1.
        -11    1    4    4    0    0  0.90277894521E+01  0.32833416443E+02 -0.15081353244E+02  0.37242199635E+02  0.51100000000E-03 0.  1.
        -12    1    4    4    0    0 -0.18076353124E+01  0.80279409222E+01  0.35100880610E+01  0.89462896817E+01  0.00000000000E+00 0.  1.
</event>
<event>
 8    1  0.1280823E-010  0.9118800E+02  0.7816164E-02  0.1184000E+00
        -11   -1    0    0    0    0  0.00000000000E+00  0.00000000000E+00  0.45593999997E+02  0.45594000000E+02  0.51100000000E-03 0. -1.
         11   -1    0    0    0    0 -0.00000000000E+00 -0.00000000000E+00 -0.45593999997E+02  0.45594000000E+02  0.51100000000E-03 0.  1.
         23    2    1    2    0    0 -0.17763568394E-14  0.17763568394E-14  0.00000000000E+00  0.91188000000E+02  0.91188000000E+02 0.  0.
    9900012    2    3    3    0    0  0.14402617571E+02  0.83945084270E+01  0.40071436214E+02  0.47787272300E+02  0.20000005725E+02 0.  0.
        -12    1    3    3    0    0 -0.14402617571E+02 -0.83945084270E+01 -0.40071436214E+02  0.43400727700E+02  0.00000000000E+00 0.  1.
         11    1    4    4    0    0  0.46068422150E+01  0.20833636751E+01  0.11944642649E+02  0.12970654866E+02  0.51100000000E-03 0. -1.
        -11    1    4    4    0    0  0.26486071943E+01  0.10865043400E+02  0.10891769165E+02  0.15610731052E+02  0.51100000000E-03 0.  1.
         12    1    4    4    0    0  0.71471681623E+01 -0.45538986484E+01  0.17235024400E+02  0.19205886382E+02  0.00000000000E+00 0. -1.
</event>
<event>
 8    1  0.1280823E-010  0.9118800E+02  0.7816164E-02  0.1184000E+00
        -11   -1    0    0    0    0  0.00000000000E+00  0.00000000000E+00  0.45593999997E+02  0.45594000000E+02  0.51100000000E-03 0.  1.
         11   -1    0    0    0    0 -0.00000000000E+00 -0.00000000000E+00 -0.45593999997E+02  0.45594000000E+02  0.51100000000E-03 0. -1.
         23    2    1    2    0    0  0.00000000000E+00 -0.35527136788E-14  0.00000000000E+00  0.91188000000E+02  0.91188000000E+02 0.  0.
    9900012    2    3    3    0    0 -0.30200079777E+02 -0.28660536596E+02  0.12253656976E+02  0.47787270907E+02  0.19999999375E+02 0.  0.
        -12    1    3    3    0    0  0.30200079777E+02  0.28660536596E+02 -0.12253656976E+02  0.43400729093E+02  0.00000000000E+00 0.  1.
         11    1    4    4    0    0 -0.18845691197E+02 -0.89809238987E+01  0.13233412852E+02  0.24717206289E+02  0.51100000000E-03 0.  1.
        -11    1    4    4    0    0 -0.62849804541E+01 -0.71886463528E+01  0.67956765224E-01  0.95489388980E+01  0.51100000000E-03 0. -1.
        -12    1    4    4    0    0 -0.50694081252E+01 -0.12490966345E+02 -0.10477126411E+01  0.13521125720E+02  0.00000000000E+00 0.  1.
</event>
<event>
 8    1  0.1280823E-010  0.9118800E+02  0.7816164E-02  0.1184000E+00
        -11   -1    0    0    0    0  0.00000000000E+00  0.00000000000E+00  0.45593999997E+02  0.45594000000E+02  0.51100000000E-03 0. -1.
         11   -1    0    0    0    0 -0.00000000000E+00 -0.00000000000E+00 -0.45593999997E+02  0.45594000000E+02  0.51100000000E-03 0.  1.
         23    2    1    2    0    0  0.00000000000E+00  0.00000000000E+00  0.00000000000E+00  0.91188000000E+02  0.91188000000E+02 0.  0.
    9900012    2    3    3    0    0 -0.17205363303E+02  0.18607390459E+02  0.35232994311E+02  0.47787269658E+02  0.19999993680E+02 0.  0.
        -12    1    3    3    0    0  0.17205363303E+02 -0.18607390459E+02 -0.35232994311E+02  0.43400730342E+02  0.00000000000E+00 0.  1.
         11    1    4    4    0    0  0.17701746320E+01  0.13511207252E+00  0.51889225676E+01  0.54842220208E+01  0.51100000000E-03 0. -1.
        -11    1    4    4    0    0 -0.53976691746E+01  0.29402966483E+01  0.36390015204E+00  0.61573208849E+01  0.51100000000E-03 0.  1.
         12    1    4    4    0    0 -0.13577868760E+02  0.15531981738E+02  0.29680171592E+02  0.36145726753E+02  0.00000000000E+00 0. -1.
</event>
<event>
 8    1  0.1280823E-010  0.9118800E+02  0.7816164E-02  0.1184000E+00
        -11   -1    0    0    0    0  0.00000000000E+00  0.00000000000E+00  0.45593999997E+02  0.45594000000E+02  0.51100000000E-03 0. -1.
         11   -1    0    0    0    0 -0.00000000000E+00 -0.00000000000E+00 -0.45593999997E+02  0.45594000000E+02  0.51100000000E-03 0.  1.
         23    2    1    2    0    0  0.00000000000E+00  0.00000000000E+00  0.00000000000E+00  0.91188000000E+02  0.91188000000E+02 0.  0.
    9900012    2    3    3    0    0 -0.26607852090E+02 -0.34259854374E+02  0.13811811344E+01  0.47787273325E+02  0.20000010398E+02 0.  0.
        -12    1    3    3    0    0  0.26607852090E+02  0.34259854374E+02 -0.13811811344E+01  0.43400726675E+02  0.00000000000E+00 0.  1.
         11    1    4    4    0    0 -0.10560326455E+02 -0.51468223199E+01 -0.21851118788E+01  0.11949267300E+02  0.51100000000E-03 0. -1.
        -11    1    4    4    0    0 -0.10307727059E+02 -0.16648097773E+02 -0.42618866359E+01  0.20039263323E+02  0.51100000000E-03 0.  1.
         12    1    4    4    0    0 -0.57397985763E+01 -0.12464934281E+02  0.78281796491E+01  0.15798742702E+02  0.00000000000E+00 0. -1.
</event>
<event>
 8    1  0.1280823E-010  0.9118800E+02  0.7816164E-02  0.1184000E+00
        -11   -1    0    0    0    0  0.00000000000E+00  0.00000000000E+00  0.45593999997E+02  0.45594000000E+02  0.51100000000E-03 0. -1.
         11   -1    0    0    0    0 -0.00000000000E+00 -0.00000000000E+00 -0.45593999997E+02  0.45594000000E+02  0.51100000000E-03 0.  1.
         23    2    1    2    0    0  0.00000000000E+00  0.00000000000E+00 -0.71054273576E-14  0.91188000000E+02  0.91188000000E+02 0.  0.
    9900012    2    3    3    0    0 -0.34704776748E+00  0.18343901826E+02  0.39331973956E+02  0.47787270149E+02  0.19999995915E+02 0.  0.
        -12    1    3    3    0    0  0.34704776748E+00 -0.18343901826E+02 -0.39331973956E+02  0.43400729851E+02  0.00000000000E+00 0.  1.
         11    1    4    4    0    0  0.51264092812E-02  0.67272275950E+01  0.99569455600E+01  0.12016504589E+02  0.51100000000E-03 0. -1.
        -11    1    4    4    0    0  0.12829757042E+01 -0.12342092815E+01 -0.14745391296E+01  0.23116152607E+01  0.51100000000E-03 0.  1.
        -12    1    4    4    0    0 -0.16351498809E+01  0.12850883513E+02  0.30849567526E+02  0.33459150299E+02  0.00000000000E+00 0.  1.
</event>
<event>
 8    1  0.1280823E-010  0.9118800E+02  0.7816164E-02  0.1184000E+00
        -11   -1    0    0    0    0  0.00000000000E+00  0.00000000000E+00  0.45593999997E+02  0.45594000000E+02  0.51100000000E-03 0. -1.
         11   -1    0    0    0    0 -0.00000000000E+00 -0.00000000000E+00 -0.45593999997E+02  0.45594000000E+02  0.51100000000E-03 0.  1.
         23    2    1    2    0    0  0.00000000000E+00  0.00000000000E+00  0.00000000000E+00  0.91188000000E+02  0.91188000000E+02 0.  0.
    9900012    2    3    3    0    0  0.17231939762E+01 -0.25433981814E+02  0.35125013818E+02  0.47787269313E+02  0.19999992107E+02 0.  0.
        -12    1    3    3    0    0 -0.17231939762E+01  0.25433981814E+02 -0.35125013818E+02  0.43400730687E+02  0.00000000000E+00 0.  1.
         11    1    4    4    0    0  0.39400751752E+01  0.57871276526E+00  0.11310869667E+02  0.11991450026E+02  0.51100000000E-03 0.  1.
        -11    1    4    4    0    0 -0.65307250378E+00 -0.97797712820E+01  0.12778772814E+02  0.16104889472E+02  0.51100000000E-03 0. -1.
        -12    1    4    4    0    0 -0.15638086952E+01 -0.16232923297E+02  0.11035371338E+02  0.19690929815E+02  0.00000000000E+00 0.  1.
</event>
<event>
 8    1  0.1280823E-010  0.9118800E+02  0.7816164E-02  0.1184000E+00
        -11   -1    0    0    0    0  0.00000000000E+00  0.00000000000E+00  0.45593999997E+02  0.45594000000E+02  0.51100000000E-03 0. -1.
         11   -1    0    0    0    0 -0.00000000000E+00 -0.00000000000E+00 -0.45593999997E+02  0.45594000000E+02  0.51100000000E-03 0.  1.
         23    2    1    2    0    0  0.00000000000E+00 -0.44408920985E-15  0.00000000000E+00  0.91188000000E+02  0.91188000000E+02 0.  0.
    9900012    2    3    3    0    0 -0.24225043198E+02  0.25494344187E+01  0.35920336151E+02  0.47787275547E+02  0.20000020531E+02 0.  0.
        -12    1    3    3    0    0  0.24225043198E+02 -0.25494344187E+01 -0.35920336151E+02  0.43400724453E+02  0.00000000000E+00 0.  1.
         11    1    4    4    0    0 -0.14845708348E+02  0.51594701191E+01  0.13898494851E+02  0.20980546886E+02  0.51100000000E-03 0. -1.
        -11    1    4    4    0    0 -0.42164720077E+01  0.43829809753E+01  0.12579533032E+02  0.13972609276E+02  0.51100000000E-03 0.  1.
         12    1    4    4    0    0 -0.51628628426E+01 -0.69930166757E+01  0.94423082685E+01  0.12834119385E+02  0.00000000000E+00 0. -1.
</event>
<event>
 8    1  0.1280823E-010  0.9118800E+02  0.7816164E-02  0.1184000E+00
        -11   -1    0    0    0    0  0.00000000000E+00  0.00000000000E+00  0.45593999997E+02  0.45594000000E+02  0.51100000000E-03 0. -1.
         11   -1    0    0    0    0 -0.00000000000E+00 -0.00000000000E+00 -0.45593999997E+02  0.45594000000E+02  0.51100000000E-03 0.  1.
         23    2    1    2    0    0 -0.88817841970E-15 -0.44408920985E-15  0.71054273576E-14  0.91188000000E+02  0.91188000000E+02 0.  0.
    9900012    2    3    3    0    0  0.40860614942E+01  0.24833572959E+01 -0.43136531337E+02  0.47787270769E+02  0.19999998743E+02 0.  0.
         12    1    3    3    0    0 -0.40860614942E+01 -0.24833572959E+01  0.43136531337E+02  0.43400729231E+02  0.00000000000E+00 0. -1.
         11    1    4    4    0    0 -0.25618907501E+01  0.34967330666E+00 -0.37672930596E-01  0.25859186274E+01  0.51100000000E-03 0. -1.
        -11    1    4    4    0    0  0.91193456078E+01  0.35550352299E+01 -0.24458629837E+02  0.26344360185E+02  0.51100000000E-03 0.  1.
         12    1    4    4    0    0 -0.24713933635E+01 -0.14213512407E+01 -0.18640228570E+02  0.18856991956E+02  0.00000000000E+00 0. -1.
</event>
<event>
 8    1  0.1280823E-010  0.9118800E+02  0.7816164E-02  0.1184000E+00
        -11   -1    0    0    0    0  0.00000000000E+00  0.00000000000E+00  0.45593999997E+02  0.45594000000E+02  0.51100000000E-03 0. -1.
         11   -1    0    0    0    0 -0.00000000000E+00 -0.00000000000E+00 -0.45593999997E+02  0.45594000000E+02  0.51100000000E-03 0.  1.
         23    2    1    2    0    0  0.88817841970E-15  0.71054273576E-14  0.00000000000E+00  0.91188000000E+02  0.91188000000E+02 0.  0.
    9900012    2    3    3    0    0 -0.40032163552E+01 -0.42412182289E+02  0.82945162184E+01  0.47787332413E+02  0.20000279803E+02 0.  0.
        -12    1    3    3    0    0  0.40032163552E+01  0.42412182289E+02 -0.82945162184E+01  0.43400667587E+02  0.00000000000E+00 0.  1.
         11    1    4    4    0    0 -0.10018088993E+02 -0.23335650026E+02  0.72332806453E+01  0.26405208167E+02  0.51100000000E-03 0. -1.
        -11    1    4    4    0    0 -0.57588495274E+00 -0.81452915302E+01  0.24928992982E+01  0.85376791204E+01  0.51100000000E-03 0.  1.
        -12    1    4    4    0    0  0.65907575901E+01 -0.10931240732E+02 -0.14316637251E+01  0.12844445125E+02  0.00000000000E+00 0.  1.
</event>
<event>
 8    1  0.1280823E-010  0.9118800E+02  0.7816164E-02  0.1184000E+00
        -11   -1    0    0    0    0  0.00000000000E+00  0.00000000000E+00  0.45593999997E+02  0.45594000000E+02  0.51100000000E-03 0. -1.
         11   -1    0    0    0    0 -0.00000000000E+00 -0.00000000000E+00 -0.45593999997E+02  0.45594000000E+02  0.51100000000E-03 0.  1.
         23    2    1    2    0    0  0.00000000000E+00  0.88817841970E-15  0.00000000000E+00  0.91188000000E+02  0.91188000000E+02 0.  0.
    9900012    2    3    3    0    0  0.62929650066E+01  0.52145247866E+01 -0.42624295006E+02  0.47787271871E+02  0.20000003769E+02 0.  0.
         12    1    3    3    0    0 -0.62929650066E+01 -0.52145247866E+01  0.42624295006E+02  0.43400728129E+02  0.00000000000E+00 0. -1.
         11    1    4    4    0    0  0.48823762474E+01 -0.54848530601E+01 -0.15001978579E+02  0.16702711530E+02  0.51100000000E-03 0. -1.
        -11    1    4    4    0    0  0.20069140595E+00  0.13457308611E+01 -0.16264342086E+02  0.16321154749E+02  0.51100000000E-03 0.  1.
        -12    1    4    4    0    0  0.12098973532E+01  0.93536469856E+01 -0.11357974342E+02  0.14763405593E+02  0.00000000000E+00 0.  1.
</event>
<event>
 8    1  0.1280823E-010  0.9118800E+02  0.7816164E-02  0.1184000E+00
        -11   -1    0    0    0    0  0.00000000000E+00  0.00000000000E+00  0.45593999997E+02  0.45594000000E+02  0.51100000000E-03 0. -1.
         11   -1    0    0    0    0 -0.00000000000E+00 -0.00000000000E+00 -0.45593999997E+02  0.45594000000E+02  0.51100000000E-03 0.  1.
         23    2    1    2    0    0 -0.88817841970E-15 -0.17763568394E-14 -0.71054273576E-14  0.91188000000E+02  0.91188000000E+02 0.  0.
    9900012    2    3    3    0    0 -0.21661104138E+01 -0.10507104493E+02 -0.42053926042E+02  0.47787262970E+02  0.19999963187E+02 0.  0.
         12    1    3    3    0    0  0.21661104138E+01  0.10507104493E+02  0.42053926042E+02  0.43400737030E+02  0.00000000000E+00 0. -1.
         11    1    4    4    0    0 -0.10182397881E+02 -0.61744291827E+01 -0.26582196233E+02  0.29127615062E+02  0.51100000000E-03 0. -1.
        -11    1    4    4    0    0  0.11834051972E+01  0.13179525455E+00 -0.61732495646E+01  0.62870365275E+01  0.51100000000E-03 0.  1.
         12    1    4    4    0    0  0.68328822698E+01 -0.44644705649E+01 -0.92984802442E+01  0.12372611381E+02  0.00000000000E+00 0. -1.
</event>
<event>
 8    1  0.1280823E-010  0.9118800E+02  0.7816164E-02  0.1184000E+00
        -11   -1    0    0    0    0  0.00000000000E+00  0.00000000000E+00  0.45593999997E+02  0.45594000000E+02  0.51100000000E-03 0. -1.
         11   -1    0    0    0    0 -0.00000000000E+00 -0.00000000000E+00 -0.45593999997E+02  0.45594000000E+02  0.51100000000E-03 0.  1.
         23    2    1    2    0    0  0.00000000000E+00  0.00000000000E+00  0.00000000000E+00  0.91188000000E+02  0.91188000000E+02 0.  0.
    9900012    2    3    3    0    0 -0.17643089227E+02  0.86858895202E+00  0.39643290063E+02  0.47787268540E+02  0.19999988581E+02 0.  0.
        -12    1    3    3    0    0  0.17643089227E+02 -0.86858895202E+00 -0.39643290063E+02  0.43400731460E+02  0.00000000000E+00 0.  1.
         11    1    4    4    0    0 -0.38717411157E+01 -0.22317789227E+01  0.60288472985E+01  0.75045463845E+01  0.51100000000E-03 0. -1.
        -11    1    4    4    0    0  0.49127311214E+00  0.46350403868E+01  0.11656698960E+01  0.48045535927E+01  0.51100000000E-03 0.  1.
        -12    1    4    4    0    0 -0.14262621224E+02 -0.15346725120E+01  0.32448772869E+02  0.35478168563E+02  0.00000000000E+00 0.  1.
</event>
<event>
 8    1  0.1280823E-010  0.9118800E+02  0.7816164E-02  0.1184000E+00
        -11   -1    0    0    0    0  0.00000000000E+00  0.00000000000E+00  0.45593999997E+02  0.45594000000E+02  0.51100000000E-03 0.  1.
         11   -1    0    0    0    0 -0.00000000000E+00 -0.00000000000E+00 -0.45593999997E+02  0.45594000000E+02  0.51100000000E-03 0. -1.
         23    2    1    2    0    0  0.00000000000E+00  0.00000000000E+00  0.00000000000E+00  0.91188000000E+02  0.91188000000E+02 0.  0.
    9900012    2    3    3    0    0 -0.30278832683E+02  0.29161612695E+02  0.10789620421E+02  0.47787271061E+02  0.20000000076E+02 0.  0.
        -12    1    3    3    0    0  0.30278832683E+02 -0.29161612695E+02 -0.10789620421E+02  0.43400728939E+02  0.00000000000E+00 0.  1.
         11    1    4    4    0    0 -0.10416840583E+02  0.10725232180E+02  0.44282891694E+01  0.15593297223E+02  0.51100000000E-03 0. -1.
        -11    1    4    4    0    0 -0.21435479976E+01 -0.19630480587E+01 -0.24207283596E+01  0.37826289470E+01  0.51100000000E-03 0.  1.
        -12    1    4    4    0    0 -0.17718444102E+02  0.20399428573E+02  0.87820596108E+01  0.28411344891E+02  0.00000000000E+00 0.  1.
</event>
<event>
 8    1  0.1280823E-010  0.9118800E+02  0.7816164E-02  0.1184000E+00
        -11   -1    0    0    0    0  0.00000000000E+00  0.00000000000E+00  0.45593999997E+02  0.45594000000E+02  0.51100000000E-03 0. -1.
         11   -1    0    0    0    0 -0.00000000000E+00 -0.00000000000E+00 -0.45593999997E+02  0.45594000000E+02  0.51100000000E-03 0.  1.
         23    2    1    2    0    0  0.00000000000E+00  0.17763568394E-14  0.00000000000E+00  0.91188000000E+02  0.91188000000E+02 0.  0.
    9900012    2    3    3    0    0  0.84941406677E+01 -0.15958606958E+02  0.39456250265E+02  0.47787271357E+02  0.20000001427E+02 0.  0.
        -12    1    3    3    0    0 -0.84941406677E+01  0.15958606958E+02 -0.39456250265E+02  0.43400728643E+02  0.00000000000E+00 0.  1.
         11    1    4    4    0    0  0.32646900548E+01 -0.29541045342E+01  0.29540298113E+02  0.29866605894E+02  0.51100000000E-03 0. -1.
        -11    1    4    4    0    0  0.16293800129E+01 -0.27889882057E+00  0.66800763738E+00  0.17829465060E+01  0.51100000000E-03 0.  1.
         12    1    4    4    0    0  0.36000706000E+01 -0.12725603604E+02  0.92479445144E+01  0.16137718957E+02  0.00000000000E+00 0. -1.
</event>
<event>
 8    1  0.1797384E-010  0.9118800E+02  0.7816164E-02  0.1184000E+00
        -11   -1    0    0    0    0  0.00000000000E+00  0.00000000000E+00  0.45593999997E+02  0.45594000000E+02  0.51100000000E-03 0. -1.
         11   -1    0    0    0    0 -0.00000000000E+00 -0.00000000000E+00 -0.45593999997E+02  0.45594000000E+02  0.51100000000E-03 0.  1.
         23    2    1    2    0    0 -0.22204460493E-15  0.00000000000E+00  0.00000000000E+00  0.91188000000E+02  0.91188000000E+02 0.  0.
    9900012    2    3    3    0    0  0.18055263684E+01  0.21146274136E+02 -0.37857608461E+02  0.47787270124E+02  0.19999995805E+02 0.  0.
         12    1    3    3    0    0 -0.18055263684E+01 -0.21146274136E+02  0.37857608461E+02  0.43400729876E+02  0.00000000000E+00 0. -1.
         11    1    4    4    0    0  0.34147365329E+01  0.82986610158E+01 -0.65774068454E+01  0.11126117082E+02  0.51100000000E-03 0.  1.
        -11    1    4    4    0    0  0.32104195529E+01  0.15354358314E+00 -0.82817124721E+00  0.33190717397E+01  0.51100000000E-03 0. -1.
        -12    1    4    4    0    0 -0.48196297174E+01  0.12694069537E+02 -0.30452030369E+02  0.33342081303E+02  0.00000000000E+00 0.  1.
</event>
<event>
 8    1  0.1280823E-010  0.9118800E+02  0.7816164E-02  0.1184000E+00
        -11   -1    0    0    0    0  0.00000000000E+00  0.00000000000E+00  0.45593999997E+02  0.45594000000E+02  0.51100000000E-03 0. -1.
         11   -1    0    0    0    0 -0.00000000000E+00 -0.00000000000E+00 -0.45593999997E+02  0.45594000000E+02  0.51100000000E-03 0.  1.
         23    2    1    2    0    0  0.00000000000E+00  0.00000000000E+00  0.00000000000E+00  0.91188000000E+02  0.91188000000E+02 0.  0.
    9900012    2    3    3    0    0  0.15720231028E+02 -0.64837721249E+01  0.39930666804E+02  0.47787272864E+02  0.20000008296E+02 0.  0.
        -12    1    3    3    0    0 -0.15720231028E+02  0.64837721249E+01 -0.39930666804E+02  0.43400727136E+02  0.00000000000E+00 0.  1.
         11    1    4    4    0    0 -0.21442983177E+01  0.26946306966E+01  0.51472271111E+01  0.61929796593E+01  0.51100000000E-03 0. -1.
        -11    1    4    4    0    0  0.38890993168E+01  0.21969305493E+00  0.15545253142E+02  0.16025862038E+02  0.51100000000E-03 0.  1.
         12    1    4    4    0    0  0.13975430029E+02 -0.93980958764E+01  0.19238186550E+02  0.25568431167E+02  0.00000000000E+00 0. -1.
</event>
<event>
 8    1  0.1790965E-010  0.9118800E+02  0.7816164E-02  0.1184000E+00
        -11   -1    0    0    0    0  0.00000000000E+00  0.00000000000E+00  0.45593999997E+02  0.45594000000E+02  0.51100000000E-03 0. -1.
         11   -1    0    0    0    0 -0.00000000000E+00 -0.00000000000E+00 -0.45593999997E+02  0.45594000000E+02  0.51100000000E-03 0.  1.
         23    2    1    2    0    0  0.00000000000E+00  0.00000000000E+00  0.00000000000E+00  0.91188000000E+02  0.91188000000E+02 0.  0.
    9900012    2    3    3    0    0 -0.10847850439E+02  0.20325534706E+02 -0.36780704928E+02  0.47787268724E+02  0.19999989421E+02 0.  0.
         12    1    3    3    0    0  0.10847850439E+02 -0.20325534706E+02  0.36780704928E+02  0.43400731276E+02  0.00000000000E+00 0. -1.
         11    1    4    4    0    0 -0.71529272440E+00  0.26931695531E+01  0.48763962489E+00  0.28288864573E+01  0.51100000000E-03 0.  1.
        -11    1    4    4    0    0  0.30662171814E+01  0.48369811368E+00 -0.24125023338E+01  0.39313889963E+01  0.51100000000E-03 0. -1.
        -12    1    4    4    0    0 -0.13198774896E+02  0.17148667040E+02 -0.34855842220E+02  0.41026993271E+02  0.00000000000E+00 0.  1.
</event>
<event>
 8    1  0.1280823E-010  0.9118800E+02  0.7816164E-02  0.1184000E+00
        -11   -1    0    0    0    0  0.00000000000E+00  0.00000000000E+00  0.45593999997E+02  0.45594000000E+02  0.51100000000E-03 0. -1.
         11   -1    0    0    0    0 -0.00000000000E+00 -0.00000000000E+00 -0.45593999997E+02  0.45594000000E+02  0.51100000000E-03 0.  1.
         23    2    1    2    0    0 -0.35527136788E-14  0.00000000000E+00  0.17763568394E-14  0.91188000000E+02  0.91188000000E+02 0.  0.
    9900012    2    3    3    0    0  0.18598693541E+02  0.38825609795E+02  0.55030794618E+01  0.47787271194E+02  0.20000000680E+02 0.  0.
        -12    1    3    3    0    0 -0.18598693541E+02 -0.38825609795E+02 -0.55030794618E+01  0.43400728806E+02  0.00000000000E+00 0.  1.
         11    1    4    4    0    0  0.94248433652E+01  0.14132359614E+02  0.50315700933E+01  0.17716318991E+02  0.51100000000E-03 0. -1.
        -11    1    4    4    0    0  0.50058377263E+01  0.20330053001E+01  0.40526555101E+01  0.67539276600E+01  0.51100000000E-03 0.  1.
         12    1    4    4    0    0  0.41680124490E+01  0.22660244881E+02 -0.35811461415E+01  0.23317024543E+02  0.00000000000E+00 0. -1.
</event>
<event>
 8    1  0.1280823E-010  0.9118800E+02  0.7816164E-02  0.1184000E+00
        -11   -1    0    0    0    0  0.00000000000E+00  0.00000000000E+00  0.45593999997E+02  0.45594000000E+02  0.51100000000E-03 0. -1.
         11   -1    0    0    0    0 -0.00000000000E+00 -0.00000000000E+00 -0.45593999997E+02  0.45594000000E+02  0.51100000000E-03 0.  1.
         23    2    1    2    0    0  0.00000000000E+00  0.00000000000E+00  0.00000000000E+00  0.91188000000E+02  0.91188000000E+02 0.  0.
    9900012    2    3    3    0    0  0.10872143409E+02 -0.21097864233E+02 -0.36335930900E+02  0.47787271297E+02  0.20000001153E+02 0.  0.
         12    1    3    3    0    0 -0.10872143409E+02  0.21097864233E+02  0.36335930900E+02  0.43400728703E+02  0.00000000000E+00 0. -1.
         11    1    4    4    0    0 -0.30293130060E+01 -0.26105448089E+01 -0.90405670746E+01  0.98855214723E+01  0.51100000000E-03 0. -1.
        -11    1    4    4    0    0  0.49214356803E+01 -0.16337560850E+02 -0.17733999424E+02  0.24609574550E+02  0.51100000000E-03 0.  1.
        -12    1    4    4    0    0  0.89800207351E+01 -0.21497585749E+01 -0.95613644015E+01  0.13292175275E+02  0.00000000000E+00 0.  1.
</event>
<event>
 8    1  0.1280823E-010  0.9118800E+02  0.7816164E-02  0.1184000E+00
        -11   -1    0    0    0    0  0.00000000000E+00  0.00000000000E+00  0.45593999997E+02  0.45594000000E+02  0.51100000000E-03 0. -1.
         11   -1    0    0    0    0 -0.00000000000E+00 -0.00000000000E+00 -0.45593999997E+02  0.45594000000E+02  0.51100000000E-03 0.  1.
         23    2    1    2    0    0  0.00000000000E+00  0.35527136788E-14  0.71054273576E-14  0.91188000000E+02  0.91188000000E+02 0.  0.
    9900012    2    3    3    0    0 -0.19195196827E+02  0.19805729072E+02  0.33509710862E+02  0.47787271810E+02  0.20000003492E+02 0.  0.
        -12    1    3    3    0    0  0.19195196827E+02 -0.19805729072E+02 -0.33509710862E+02  0.43400728190E+02  0.00000000000E+00 0.  1.
         11    1    4    4    0    0 -0.72594500752E+01  0.10164971696E+02  0.18008331249E+02  0.21916346858E+02  0.51100000000E-03 0. -1.
        -11    1    4    4    0    0 -0.10408947211E+02  0.14519534618E+01  0.13837989831E+02  0.17376544930E+02  0.51100000000E-03 0.  1.
        -12    1    4    4    0    0 -0.15267995409E+01  0.81888039146E+01  0.16633897824E+01  0.84943800220E+01  0.00000000000E+00 0.  1.
</event>
<event>
 8    1  0.1280823E-010  0.9118800E+02  0.7816164E-02  0.1184000E+00
        -11   -1    0    0    0    0  0.00000000000E+00  0.00000000000E+00  0.45593999997E+02  0.45594000000E+02  0.51100000000E-03 0. -1.
         11   -1    0    0    0    0 -0.00000000000E+00 -0.00000000000E+00 -0.45593999997E+02  0.45594000000E+02  0.51100000000E-03 0.  1.
         23    2    1    2    0    0 -0.71054273576E-14  0.00000000000E+00 -0.17763568394E-14  0.91188000000E+02  0.91188000000E+02 0.  0.
    9900012    2    3    3    0    0  0.33388621244E+02 -0.24198433567E+02  0.13537331891E+02  0.47787267629E+02  0.19999984426E+02 0.  0.
        -12    1    3    3    0    0 -0.33388621244E+02  0.24198433567E+02 -0.13537331891E+02  0.43400732371E+02  0.00000000000E+00 0.  1.
         11    1    4    4    0    0  0.10370617350E+02 -0.12224997799E+01  0.34767585141E+01  0.11006001089E+02  0.51100000000E-03 0. -1.
        -11    1    4    4    0    0  0.13714400478E+02 -0.60725887643E+01  0.89250969415E+01  0.17453322619E+02  0.51100000000E-03 0.  1.
        -12    1    4    4    0    0  0.93036034159E+01 -0.16903345023E+02  0.11354764349E+01  0.19327943921E+02  0.00000000000E+00 0.  1.
</event>
<event>
 8    1  0.1280823E-010  0.9118800E+02  0.7816164E-02  0.1184000E+00
        -11   -1    0    0    0    0  0.00000000000E+00  0.00000000000E+00  0.45593999997E+02  0.45594000000E+02  0.51100000000E-03 0. -1.
         11   -1    0    0    0    0 -0.00000000000E+00 -0.00000000000E+00 -0.45593999997E+02  0.45594000000E+02  0.51100000000E-03 0.  1.
         23    2    1    2    0    0  0.00000000000E+00 -0.44408920985E-15  0.00000000000E+00  0.91188000000E+02  0.91188000000E+02 0.  0.
    9900012    2    3    3    0    0 -0.20061993260E+02 -0.94060693394E+00  0.38474104998E+02  0.47787250348E+02  0.19999905637E+02 0.  0.
        -12    1    3    3    0    0  0.20061993260E+02  0.94060693394E+00 -0.38474104998E+02  0.43400749652E+02  0.00000000000E+00 0.  1.
         11    1    4    4    0    0  0.42656991156E+00 -0.13165034305E+00 -0.78638052721E-02  0.44649278027E+00  0.51100000000E-03 0.  1.
        -11    1    4    4    0    0 -0.23516757028E+01 -0.25225130504E+01  0.23506047949E+02  0.23757688043E+02  0.51100000000E-03 0. -1.
         12    1    4    4    0    0 -0.18136887468E+02  0.17135564595E+01  0.14975920854E+02  0.23583069525E+02  0.00000000000E+00 0. -1.
</event>
<event>
 8    1  0.1323350E-010  0.9118800E+02  0.7816164E-02  0.1184000E+00
        -11   -1    0    0    0    0  0.00000000000E+00  0.00000000000E+00  0.45593999997E+02  0.45594000000E+02  0.51100000000E-03 0. -1.
         11   -1    0    0    0    0 -0.00000000000E+00 -0.00000000000E+00 -0.45593999997E+02  0.45594000000E+02  0.51100000000E-03 0.  1.
         23    2    1    2    0    0 -0.88817841970E-15 -0.35527136788E-14 -0.35527136788E-14  0.91188000000E+02  0.91188000000E+02 0.  0.
    9900012    2    3    3    0    0 -0.64824494886E+01 -0.31541811236E+02 -0.29098371081E+02  0.47787271815E+02  0.20000003514E+02 0.  0.
         12    1    3    3    0    0  0.64824494886E+01  0.31541811236E+02  0.29098371081E+02  0.43400728185E+02  0.00000000000E+00 0. -1.
         11    1    4    4    0    0 -0.22092793531E+01  0.11945491543E+01 -0.70075502117E+01  0.74440327224E+01  0.51100000000E-03 0. -1.
        -11    1    4    4    0    0 -0.53675367827E+01 -0.16564156891E+02 -0.96280478473E+01  0.19896759792E+02  0.51100000000E-03 0.  1.
        -12    1    4    4    0    0  0.10943666472E+01 -0.16172203499E+02 -0.12462773022E+02  0.20446479300E+02  0.00000000000E+00 0.  1.
</event>
<event>
 8    1  0.1280823E-010  0.9118800E+02  0.7816164E-02  0.1184000E+00
        -11   -1    0    0    0    0  0.00000000000E+00  0.00000000000E+00  0.45593999997E+02  0.45594000000E+02  0.51100000000E-03 0. -1.
         11   -1    0    0    0    0 -0.00000000000E+00 -0.00000000000E+00 -0.45593999997E+02  0.45594000000E+02  0.51100000000E-03 0.  1.
         23    2    1    2    0    0  0.17763568394E-14 -0.35527136788E-14  0.00000000000E+00  0.91188000000E+02  0.91188000000E+02 0.  0.
    9900012    2    3    3    0    0  0.13198961826E+02 -0.17831062970E+02 -0.37302316888E+02  0.47787282896E+02  0.20000054035E+02 0.  0.
         12    1    3    3    0    0 -0.13198961826E+02  0.17831062970E+02  0.37302316888E+02  0.43400717104E+02  0.00000000000E+00 0. -1.
         11    1    4    4    0    0  0.33412598716E+01 -0.18327355588E+01 -0.18609242356E+02  0.18995442571E+02  0.51100000000E-03 0. -1.
        -11    1    4    4    0    0  0.28807271046E+01  0.12546553986E+01 -0.39631427168E+01  0.50575932295E+01  0.51100000000E-03 0.  1.
         12    1    4    4    0    0  0.69769748500E+01 -0.17252982809E+02 -0.14729931816E+02  0.23734247095E+02  0.00000000000E+00 0. -1.
</event>
<event>
 8    1  0.1280823E-010  0.9118800E+02  0.7816164E-02  0.1184000E+00
        -11   -1    0    0    0    0  0.00000000000E+00  0.00000000000E+00  0.45593999997E+02  0.45594000000E+02  0.51100000000E-03 0. -1.
         11   -1    0    0    0    0 -0.00000000000E+00 -0.00000000000E+00 -0.45593999997E+02  0.45594000000E+02  0.51100000000E-03 0.  1.
         23    2    1    2    0    0  0.00000000000E+00  0.00000000000E+00 -0.71054273576E-14  0.91188000000E+02  0.91188000000E+02 0.  0.
    9900012    2    3    3    0    0  0.18106167156E+02 -0.16110540431E+02  0.36003361201E+02  0.47787253235E+02  0.19999918798E+02 0.  0.
        -12    1    3    3    0    0 -0.18106167156E+02  0.16110540431E+02 -0.36003361201E+02  0.43400746765E+02  0.00000000000E+00 0.  1.
         11    1    4    4    0    0 -0.15768179370E+01  0.19778781620E+01  0.59121537122E+01  0.64305457473E+01  0.51100000000E-03 0. -1.
        -11    1    4    4    0    0  0.24336274260E+01 -0.68488743561E+01  0.46494477360E+01  0.86282667382E+01  0.51100000000E-03 0.  1.
         12    1    4    4    0    0  0.17249357667E+02 -0.11239544237E+02  0.25441759752E+02  0.32728440749E+02  0.00000000000E+00 0. -1.
</event>
<event>
 8    1  0.1280823E-010  0.9118800E+02  0.7816164E-02  0.1184000E+00
        -11   -1    0    0    0    0  0.00000000000E+00  0.00000000000E+00  0.45593999997E+02  0.45594000000E+02  0.51100000000E-03 0. -1.
         11   -1    0    0    0    0 -0.00000000000E+00 -0.00000000000E+00 -0.45593999997E+02  0.45594000000E+02  0.51100000000E-03 0.  1.
         23    2    1    2    0    0  0.00000000000E+00 -0.17763568394E-14  0.71054273576E-14  0.91188000000E+02  0.91188000000E+02 0.  0.
    9900012    2    3    3    0    0 -0.71321203950E+01 -0.82683834343E+01  0.42004650197E+02  0.47787263323E+02  0.19999964794E+02 0.  0.
        -12    1    3    3    0    0  0.71321203950E+01  0.82683834343E+01 -0.42004650197E+02  0.43400736677E+02  0.00000000000E+00 0.  1.
         11    1    4    4    0    0 -0.25475865831E+01  0.85449601594E+00  0.19796347782E+02  0.19977881434E+02  0.51100000000E-03 0. -1.
        -11    1    4    4    0    0 -0.78794983019E+01 -0.44339772717E+01  0.19451118148E+02  0.21449770288E+02  0.51100000000E-03 0.  1.
        -12    1    4    4    0    0  0.32949644900E+01 -0.46889021786E+01  0.27571842673E+01  0.63596116009E+01  0.00000000000E+00 0.  1.
</event>
<event>
 8    1  0.1280823E-010  0.9118800E+02  0.7816164E-02  0.1184000E+00
        -11   -1    0    0    0    0  0.00000000000E+00  0.00000000000E+00  0.45593999997E+02  0.45594000000E+02  0.51100000000E-03 0. -1.
         11   -1    0    0    0    0 -0.00000000000E+00 -0.00000000000E+00 -0.45593999997E+02  0.45594000000E+02  0.51100000000E-03 0.  1.
         23    2    1    2    0    0  0.00000000000E+00  0.00000000000E+00  0.00000000000E+00  0.91188000000E+02  0.91188000000E+02 0.  0.
    9900012    2    3    3    0    0 -0.11043901966E+02  0.36616567787E+02  0.20515439228E+02  0.47787262058E+02  0.19999959028E+02 0.  0.
        -12    1    3    3    0    0  0.11043901966E+02 -0.36616567787E+02 -0.20515439228E+02  0.43400737942E+02  0.00000000000E+00 0.  1.
         11    1    4    4    0    0 -0.51023060656E+01  0.30202686512E+02  0.14499240137E+02  0.33888991790E+02  0.51100000000E-03 0. -1.
        -11    1    4    4    0    0 -0.67380397148E+01  0.79756916148E+01  0.61877002982E+01  0.12136740550E+02  0.51100000000E-03 0.  1.
        -12    1    4    4    0    0  0.79644381433E+00 -0.15618103391E+01 -0.17150120715E+00  0.17615297184E+01  0.00000000000E+00 0.  1.
</event>
<event>
 8    1  0.1280823E-010  0.9118800E+02  0.7816164E-02  0.1184000E+00
        -11   -1    0    0    0    0  0.00000000000E+00  0.00000000000E+00  0.45593999997E+02  0.45594000000E+02  0.51100000000E-03 0. -1.
         11   -1    0    0    0    0 -0.00000000000E+00 -0.00000000000E+00 -0.45593999997E+02  0.45594000000E+02  0.51100000000E-03 0.  1.
         23    2    1    2    0    0  0.00000000000E+00  0.00000000000E+00  0.00000000000E+00  0.91188000000E+02  0.91188000000E+02 0.  0.
    9900012    2    3    3    0    0 -0.28932362320E+02  0.76544865317E+01  0.31431674318E+02  0.47787275307E+02  0.20000019435E+02 0.  0.
        -12    1    3    3    0    0  0.28932362320E+02 -0.76544865317E+01 -0.31431674318E+02  0.43400724693E+02  0.00000000000E+00 0.  1.
         11    1    4    4    0    0 -0.70805981798E+01  0.11296759512E+02  0.10692407435E+02  0.17090325423E+02  0.51100000000E-03 0. -1.
        -11    1    4    4    0    0 -0.13454821015E+01 -0.92958440263E-01  0.47071615523E-01  0.13495107836E+01  0.51100000000E-03 0.  1.
         12    1    4    4    0    0 -0.20506282038E+02 -0.35493145405E+01  0.20692195268E+02  0.29347439100E+02  0.00000000000E+00 0. -1.
</event>
<event>
 8    1  0.1280823E-010  0.9118800E+02  0.7816164E-02  0.1184000E+00
        -11   -1    0    0    0    0  0.00000000000E+00  0.00000000000E+00  0.45593999997E+02  0.45594000000E+02  0.51100000000E-03 0. -1.
         11   -1    0    0    0    0 -0.00000000000E+00 -0.00000000000E+00 -0.45593999997E+02  0.45594000000E+02  0.51100000000E-03 0.  1.
         23    2    1    2    0    0  0.00000000000E+00  0.00000000000E+00  0.00000000000E+00  0.91188000000E+02  0.91188000000E+02 0.  0.
    9900012    2    3    3    0    0 -0.31585900467E+02  0.24107601619E+02  0.17457882967E+02  0.47787271413E+02  0.20000001681E+02 0.  0.
        -12    1    3    3    0    0  0.31585900467E+02 -0.24107601619E+02 -0.17457882967E+02  0.43400728587E+02  0.00000000000E+00 0.  1.
         11    1    4    4    0    0 -0.20164389187E+01  0.21800710694E+01  0.72983026597E+00  0.30580039664E+01  0.51100000000E-03 0. -1.
        -11    1    4    4    0    0 -0.20028916251E+02  0.10979301051E+02  0.35433619925E+00  0.22843556907E+02  0.51100000000E-03 0.  1.
         12    1    4    4    0    0 -0.95405452976E+01  0.10948229499E+02  0.16373716502E+02  0.21885710540E+02  0.00000000000E+00 0. -1.
</event>
<event>
 8    1  0.1280823E-010  0.9118800E+02  0.7816164E-02  0.1184000E+00
        -11   -1    0    0    0    0  0.00000000000E+00  0.00000000000E+00  0.45593999997E+02  0.45594000000E+02  0.51100000000E-03 0. -1.
         11   -1    0    0    0    0 -0.00000000000E+00 -0.00000000000E+00 -0.45593999997E+02  0.45594000000E+02  0.51100000000E-03 0.  1.
         23    2    1    2    0    0 -0.11102230246E-15 -0.35527136788E-14  0.00000000000E+00  0.91188000000E+02  0.91188000000E+02 0.  0.
    9900012    2    3    3    0    0 -0.47792231023E+00  0.17459313453E+02  0.39731198175E+02  0.47787261015E+02  0.19999954274E+02 0.  0.
        -12    1    3    3    0    0  0.47792231023E+00 -0.17459313453E+02 -0.39731198175E+02  0.43400738985E+02  0.00000000000E+00 0.  1.
         11    1    4    4    0    0  0.57999504227E+00  0.79977252900E+01  0.31080699349E+02  0.32098440404E+02  0.51100000000E-03 0. -1.
        -11    1    4    4    0    0 -0.31614521987E+00  0.93323382476E+01  0.10283624533E+02  0.13890479429E+02  0.51100000000E-03 0.  1.
        -12    1    4    4    0    0 -0.74177213263E+00  0.12924991513E+00 -0.16331257066E+01  0.17983411831E+01  0.00000000000E+00 0.  1.
</event>
<event>
 8    1  0.1280823E-010  0.9118800E+02  0.7816164E-02  0.1184000E+00
        -11   -1    0    0    0    0  0.00000000000E+00  0.00000000000E+00  0.45593999997E+02  0.45594000000E+02  0.51100000000E-03 0. -1.
         11   -1    0    0    0    0 -0.00000000000E+00 -0.00000000000E+00 -0.45593999997E+02  0.45594000000E+02  0.51100000000E-03 0.  1.
         23    2    1    2    0    0  0.00000000000E+00  0.00000000000E+00  0.35527136788E-14  0.91188000000E+02  0.91188000000E+02 0.  0.
    9900012    2    3    3    0    0 -0.90723116413E+01  0.34597373652E+02 -0.24583250415E+02  0.47787293749E+02  0.20000103518E+02 0.  0.
         12    1    3    3    0    0  0.90723116413E+01 -0.34597373652E+02  0.24583250415E+02  0.43400706251E+02  0.00000000000E+00 0. -1.
         11    1    4    4    0    0 -0.10858093484E+01  0.10309961597E+02 -0.12614399826E+02  0.16327809813E+02  0.51100000000E-03 0. -1.
        -11    1    4    4    0    0 -0.24459334553E+01 -0.13980747733E+01 -0.11909376870E+01  0.30586821304E+01  0.51100000000E-03 0.  1.
        -12    1    4    4    0    0 -0.55405688376E+01  0.25685486828E+02 -0.10777912902E+02  0.28400801805E+02  0.00000000000E+00 0.  1.
</event>
<event>
 8    1  0.1280823E-010  0.9118800E+02  0.7816164E-02  0.1184000E+00
        -11   -1    0    0    0    0  0.00000000000E+00  0.00000000000E+00  0.45593999997E+02  0.45594000000E+02  0.51100000000E-03 0. -1.
         11   -1    0    0    0    0 -0.00000000000E+00 -0.00000000000E+00 -0.45593999997E+02  0.45594000000E+02  0.51100000000E-03 0.  1.
         23    2    1    2    0    0  0.00000000000E+00  0.00000000000E+00  0.00000000000E+00  0.91188000000E+02  0.91188000000E+02 0.  0.
    9900012    2    3    3    0    0  0.48305874613E+01  0.78935042421E+01  0.42402612811E+02  0.47787267776E+02  0.19999985096E+02 0.  0.
        -12    1    3    3    0    0 -0.48305874613E+01 -0.78935042421E+01 -0.42402612811E+02  0.43400732224E+02  0.00000000000E+00 0.  1.
         11    1    4    4    0    0  0.18025782384E+01 -0.31726318283E+01  0.12044013268E+02  0.12584638926E+02  0.51100000000E-03 0. -1.
        -11    1    4    4    0    0  0.18008301498E+01  0.69226354089E+00 -0.98349944997E+00  0.21655229086E+01  0.51100000000E-03 0.  1.
         12    1    4    4    0    0  0.12271790731E+01  0.10373872530E+02  0.31342098992E+02  0.33037105941E+02  0.00000000000E+00 0. -1.
</event>
<event>
 8    1  0.1280823E-010  0.9118800E+02  0.7816164E-02  0.1184000E+00
        -11   -1    0    0    0    0  0.00000000000E+00  0.00000000000E+00  0.45593999997E+02  0.45594000000E+02  0.51100000000E-03 0. -1.
         11   -1    0    0    0    0 -0.00000000000E+00 -0.00000000000E+00 -0.45593999997E+02  0.45594000000E+02  0.51100000000E-03 0.  1.
         23    2    1    2    0    0 -0.88817841970E-15  0.00000000000E+00  0.00000000000E+00  0.91188000000E+02  0.91188000000E+02 0.  0.
    9900012    2    3    3    0    0 -0.64905510197E+01 -0.10218803325E+02  0.41678198593E+02  0.47787269224E+02  0.19999991698E+02 0.  0.
        -12    1    3    3    0    0  0.64905510197E+01  0.10218803325E+02 -0.41678198593E+02  0.43400730776E+02  0.00000000000E+00 0.  1.
         11    1    4    4    0    0 -0.43348352072E+01  0.28926965293E+00  0.22925815188E+02  0.23333826851E+02  0.51100000000E-03 0. -1.
        -11    1    4    4    0    0  0.17700025907E+01  0.17483126311E+01  0.14172476625E+01  0.28632319894E+01  0.51100000000E-03 0.  1.
        -12    1    4    4    0    0 -0.39257184032E+01 -0.12256385609E+02  0.17335135742E+02  0.21590210383E+02  0.00000000000E+00 0.  1.
</event>
<event>
 8    1  0.1280823E-010  0.9118800E+02  0.7816164E-02  0.1184000E+00
        -11   -1    0    0    0    0  0.00000000000E+00  0.00000000000E+00  0.45593999997E+02  0.45594000000E+02  0.51100000000E-03 0. -1.
         11   -1    0    0    0    0 -0.00000000000E+00 -0.00000000000E+00 -0.45593999997E+02  0.45594000000E+02  0.51100000000E-03 0.  1.
         23    2    1    2    0    0  0.00000000000E+00  0.00000000000E+00  0.00000000000E+00  0.91188000000E+02  0.91188000000E+02 0.  0.
    9900012    2    3    3    0    0 -0.11429953655E+02 -0.83803992860E+01 -0.41021320361E+02  0.47787266631E+02  0.19999979879E+02 0.  0.
         12    1    3    3    0    0  0.11429953655E+02  0.83803992860E+01  0.41021320361E+02  0.43400733369E+02  0.00000000000E+00 0. -1.
         11    1    4    4    0    0 -0.52795363909E+01 -0.77003345091E+01 -0.47709232840E+01  0.10484768252E+02  0.51100000000E-03 0. -1.
        -11    1    4    4    0    0  0.83026394099E+00  0.75825768842E+00 -0.11248115392E+02  0.11304175913E+02  0.51100000000E-03 0.  1.
         12    1    4    4    0    0 -0.69806812048E+01 -0.14383224653E+01 -0.25002281686E+02  0.25998322467E+02  0.00000000000E+00 0. -1.
</event>
<event>
 8    1  0.1280823E-010  0.9118800E+02  0.7816164E-02  0.1184000E+00
        -11   -1    0    0    0    0  0.00000000000E+00  0.00000000000E+00  0.45593999997E+02  0.45594000000E+02  0.51100000000E-03 0. -1.
         11   -1    0    0    0    0 -0.00000000000E+00 -0.00000000000E+00 -0.45593999997E+02  0.45594000000E+02  0.51100000000E-03 0.  1.
         23    2    1    2    0    0  0.35527136788E-14 -0.35527136788E-14  0.35527136788E-14  0.91188000000E+02  0.91188000000E+02 0.  0.
    9900012    2    3    3    0    0  0.22201602661E+02  0.28484953561E+02  0.24069067409E+02  0.47787265605E+02  0.19999975200E+02 0.  0.
        -12    1    3    3    0    0 -0.22201602661E+02 -0.28484953561E+02 -0.24069067409E+02  0.43400734395E+02  0.00000000000E+00 0.  1.
         11    1    4    4    0    0  0.18253048166E+02  0.17142766609E+02  0.25285171109E+02  0.35586346998E+02  0.51100000000E-03 0. -1.
        -11    1    4    4    0    0  0.10417817672E+01  0.12363743411E+01 -0.31180254615E+00  0.16465575759E+01  0.51100000000E-03 0.  1.
         12    1    4    4    0    0  0.29067727273E+01  0.10105812611E+02 -0.90430115378E+00  0.10554361032E+02  0.00000000000E+00 0. -1.
</event>
<event>
 8    1  0.1280823E-010  0.9118800E+02  0.7816164E-02  0.1184000E+00
        -11   -1    0    0    0    0  0.00000000000E+00  0.00000000000E+00  0.45593999997E+02  0.45594000000E+02  0.51100000000E-03 0. -1.
         11   -1    0    0    0    0 -0.00000000000E+00 -0.00000000000E+00 -0.45593999997E+02  0.45594000000E+02  0.51100000000E-03 0.  1.
         23    2    1    2    0    0  0.10658141036E-13  0.00000000000E+00  0.00000000000E+00  0.91188000000E+02  0.91188000000E+02 0.  0.
    9900012    2    3    3    0    0  0.30247930296E+02 -0.24269952563E+02 -0.19484747983E+02  0.47787270875E+02  0.19999999227E+02 0.  0.
         12    1    3    3    0    0 -0.30247930296E+02  0.24269952563E+02  0.19484747983E+02  0.43400729125E+02  0.00000000000E+00 0. -1.
         11    1    4    4    0    0  0.98936295124E+01 -0.75673670217E+01 -0.23340158843E+01  0.12672670554E+02  0.51100000000E-03 0. -1.
        -11    1    4    4    0    0  0.22091172818E+02 -0.16076505146E+02 -0.18350973148E+02  0.32912492308E+02  0.51100000000E-03 0.  1.
         12    1    4    4    0    0 -0.17368720335E+01 -0.62608039546E+00  0.12002410497E+01  0.22021080128E+01  0.00000000000E+00 0. -1.
</event>
<event>
 8    1  0.1280823E-010  0.9118800E+02  0.7816164E-02  0.1184000E+00
        -11   -1    0    0    0    0  0.00000000000E+00  0.00000000000E+00  0.45593999997E+02  0.45594000000E+02  0.51100000000E-03 0. -1.
         11   -1    0    0    0    0 -0.00000000000E+00 -0.00000000000E+00 -0.45593999997E+02  0.45594000000E+02  0.51100000000E-03 0.  1.
         23    2    1    2    0    0  0.17763568394E-14  0.00000000000E+00  0.00000000000E+00  0.91188000000E+02  0.91188000000E+02 0.  0.
    9900012    2    3    3    0    0  0.10950775440E+02 -0.41454092236E+02 -0.67276928043E+01  0.47787273090E+02  0.20000009327E+02 0.  0.
        -12    1    3    3    0    0 -0.10950775440E+02  0.41454092236E+02  0.67276928043E+01  0.43400726910E+02  0.00000000000E+00 0.  1.
         11    1    4    4    0    0  0.11215361392E+01 -0.74008136525E+01 -0.11413350053E+01  0.75718248716E+01  0.51100000000E-03 0. -1.
        -11    1    4    4    0    0  0.13184780232E+02 -0.30013336885E+02 -0.32748466121E+00  0.32783319954E+02  0.51100000000E-03 0.  1.
         12    1    4    4    0    0 -0.33555409308E+01 -0.40399416988E+01 -0.52588731378E+01  0.74321282650E+01  0.00000000000E+00 0. -1.
</event>
<event>
 8    1  0.1280823E-010  0.9118800E+02  0.7816164E-02  0.1184000E+00
        -11   -1    0    0    0    0  0.00000000000E+00  0.00000000000E+00  0.45593999997E+02  0.45594000000E+02  0.51100000000E-03 0. -1.
         11   -1    0    0    0    0 -0.00000000000E+00 -0.00000000000E+00 -0.45593999997E+02  0.45594000000E+02  0.51100000000E-03 0.  1.
         23    2    1    2    0    0  0.00000000000E+00 -0.35527136788E-14  0.35527136788E-14  0.91188000000E+02  0.91188000000E+02 0.  0.
    9900012    2    3    3    0    0 -0.26064775689E+02  0.16753509388E+02 -0.30390235620E+02  0.47787319941E+02  0.20000222939E+02 0.  0.
         12    1    3    3    0    0  0.26064775689E+02 -0.16753509388E+02  0.30390235620E+02  0.43400680059E+02  0.00000000000E+00 0. -1.
         11    1    4    4    0    0 -0.12655692031E+01  0.37279113796E+01 -0.36566688396E+01  0.53731011460E+01  0.51100000000E-03 0. -1.
        -11    1    4    4    0    0 -0.19810975645E+02  0.11452022541E+02 -0.28805442551E+02  0.36788273907E+02  0.51100000000E-03 0.  1.
         12    1    4    4    0    0 -0.49882308411E+01  0.15735754674E+01  0.20718757704E+01  0.56259448881E+01  0.00000000000E+00 0. -1.
</event>
<event>
 8    1  0.1280823E-010  0.9118800E+02  0.7816164E-02  0.1184000E+00
        -11   -1    0    0    0    0  0.00000000000E+00  0.00000000000E+00  0.45593999997E+02  0.45594000000E+02  0.51100000000E-03 0. -1.
         11   -1    0    0    0    0 -0.00000000000E+00 -0.00000000000E+00 -0.45593999997E+02  0.45594000000E+02  0.51100000000E-03 0.  1.
         23    2    1    2    0    0  0.88817841970E-15  0.00000000000E+00  0.00000000000E+00  0.91188000000E+02  0.91188000000E+02 0.  0.
    9900012    2    3    3    0    0 -0.60511718013E+01 -0.56298175979E+01 -0.42606474491E+02  0.47787271954E+02  0.20000004149E+02 0.  0.
         12    1    3    3    0    0  0.60511718013E+01  0.56298175979E+01  0.42606474491E+02  0.43400728046E+02  0.00000000000E+00 0. -1.
         11    1    4    4    0    0  0.17564527855E+01 -0.69621320729E+00 -0.62921727371E+01  0.65697242889E+01  0.51100000000E-03 0. -1.
        -11    1    4    4    0    0 -0.63433220253E+01 -0.58985396267E+01 -0.53023501690E+01  0.10156053447E+02  0.51100000000E-03 0.  1.
        -12    1    4    4    0    0 -0.14643025615E+01  0.96493523611E+00 -0.31011951585E+02  0.31061494218E+02  0.00000000000E+00 0.  1.
</event>
<event>
 8    1  0.1280823E-010  0.9118800E+02  0.7816164E-02  0.1184000E+00
        -11   -1    0    0    0    0  0.00000000000E+00  0.00000000000E+00  0.45593999997E+02  0.45594000000E+02  0.51100000000E-03 0. -1.
         11   -1    0    0    0    0 -0.00000000000E+00 -0.00000000000E+00 -0.45593999997E+02  0.45594000000E+02  0.51100000000E-03 0.  1.
         23    2    1    2    0    0  0.00000000000E+00  0.00000000000E+00 -0.35527136788E-14  0.91188000000E+02  0.91188000000E+02 0.  0.
    9900012    2    3    3    0    0 -0.13749052494E+02  0.32927872551E+02 -0.24705100617E+02  0.47787271531E+02  0.20000002216E+02 0.  0.
         12    1    3    3    0    0  0.13749052494E+02 -0.32927872551E+02  0.24705100617E+02  0.43400728469E+02  0.00000000000E+00 0. -1.
         11    1    4    4    0    0  0.17088960306E+01  0.17231960352E+01 -0.52241761599E+01  0.57603599740E+01  0.51100000000E-03 0. -1.
        -11    1    4    4    0    0 -0.48541222669E+01  0.21661084242E+02 -0.15938303059E+02  0.27327542483E+02  0.51100000000E-03 0.  1.
         12    1    4    4    0    0 -0.10603826258E+02  0.95435922736E+01 -0.35426213985E+01  0.14699369074E+02  0.00000000000E+00 0. -1.
</event>
<event>
 8    1  0.1280823E-010  0.9118800E+02  0.7816164E-02  0.1184000E+00
        -11   -1    0    0    0    0  0.00000000000E+00  0.00000000000E+00  0.45593999997E+02  0.45594000000E+02  0.51100000000E-03 0. -1.
         11   -1    0    0    0    0 -0.00000000000E+00 -0.00000000000E+00 -0.45593999997E+02  0.45594000000E+02  0.51100000000E-03 0.  1.
         23    2    1    2    0    0  0.00000000000E+00 -0.44408920985E-15  0.00000000000E+00  0.91188000000E+02  0.91188000000E+02 0.  0.
    9900012    2    3    3    0    0  0.59847519548E+01 -0.32118009546E+01 -0.42865960312E+02  0.47787268730E+02  0.19999989446E+02 0.  0.
         12    1    3    3    0    0 -0.59847519548E+01  0.32118009546E+01  0.42865960312E+02  0.43400731270E+02  0.00000000000E+00 0. -1.
         11    1    4    4    0    0 -0.18640442409E+01  0.13010434071E+01 -0.12719746350E+02  0.12921274022E+02  0.51100000000E-03 0.  1.
        -11    1    4    4    0    0  0.24708222198E+01  0.30591824603E+01 -0.70561037945E+00  0.39951778479E+01  0.51100000000E-03 0. -1.
        -12    1    4    4    0    0  0.53779739759E+01 -0.75720268221E+01 -0.29440603583E+02  0.30870816860E+02  0.00000000000E+00 0.  1.
</event>
<event>
 8    1  0.1280823E-010  0.9118800E+02  0.7816164E-02  0.1184000E+00
        -11   -1    0    0    0    0  0.00000000000E+00  0.00000000000E+00  0.45593999997E+02  0.45594000000E+02  0.51100000000E-03 0. -1.
         11   -1    0    0    0    0 -0.00000000000E+00 -0.00000000000E+00 -0.45593999997E+02  0.45594000000E+02  0.51100000000E-03 0.  1.
         23    2    1    2    0    0  0.00000000000E+00  0.35527136788E-14 -0.35527136788E-14  0.91188000000E+02  0.91188000000E+02 0.  0.
    9900012    2    3    3    0    0  0.11645145952E+02 -0.27466439899E+02  0.31521559832E+02  0.47787268679E+02  0.19999989215E+02 0.  0.
        -12    1    3    3    0    0 -0.11645145952E+02  0.27466439899E+02 -0.31521559832E+02  0.43400731321E+02  0.00000000000E+00 0.  1.
         11    1    4    4    0    0  0.51012155113E+01 -0.15598336502E+02  0.15713981683E+02  0.22721349474E+02  0.51100000000E-03 0. -1.
        -11    1    4    4    0    0  0.35948239710E+01 -0.96682771660E+01  0.16598905028E+01  0.10447659043E+02  0.51100000000E-03 0.  1.
         12    1    4    4    0    0  0.29491064695E+01 -0.21998262308E+01  0.14147687647E+02  0.14618260162E+02  0.00000000000E+00 0. -1.
</event>
<event>
 8    1  0.1280823E-010  0.9118800E+02  0.7816164E-02  0.1184000E+00
        -11   -1    0    0    0    0  0.00000000000E+00  0.00000000000E+00  0.45593999997E+02  0.45594000000E+02  0.51100000000E-03 0.  1.
         11   -1    0    0    0    0 -0.00000000000E+00 -0.00000000000E+00 -0.45593999997E+02  0.45594000000E+02  0.51100000000E-03 0. -1.
         23    2    1    2    0    0  0.00000000000E+00  0.00000000000E+00  0.00000000000E+00  0.91188000000E+02  0.91188000000E+02 0.  0.
    9900012    2    3    3    0    0  0.29653396773E+02 -0.24772106106E+02 -0.19764668210E+02  0.47787270852E+02  0.19999999124E+02 0.  0.
         12    1    3    3    0    0 -0.29653396773E+02  0.24772106106E+02  0.19764668210E+02  0.43400729148E+02  0.00000000000E+00 0. -1.
         11    1    4    4    0    0  0.11122113879E+01  0.19925095786E+00  0.19272492866E+01  0.22340557714E+01  0.51100000000E-03 0. -1.
        -11    1    4    4    0    0  0.89471476946E+01 -0.14267021560E+02 -0.46658553790E+01  0.17474826544E+02  0.51100000000E-03 0.  1.
        -12    1    4    4    0    0  0.19594037691E+02 -0.10704335503E+02 -0.17026062117E+02  0.28078388537E+02  0.00000000000E+00 0.  1.
</event>
<event>
 8    1  0.1280823E-010  0.9118800E+02  0.7816164E-02  0.1184000E+00
        -11   -1    0    0    0    0  0.00000000000E+00  0.00000000000E+00  0.45593999997E+02  0.45594000000E+02  0.51100000000E-03 0. -1.
         11   -1    0    0    0    0 -0.00000000000E+00 -0.00000000000E+00 -0.45593999997E+02  0.45594000000E+02  0.51100000000E-03 0.  1.
         23    2    1    2    0    0  0.00000000000E+00  0.35527136788E-14  0.71054273576E-14  0.91188000000E+02  0.91188000000E+02 0.  0.
    9900012    2    3    3    0    0  0.21830969042E+02  0.38169053295E+01  0.37315723109E+02  0.47787272279E+02  0.20000005628E+02 0.  0.
        -12    1    3    3    0    0 -0.21830969042E+02 -0.38169053295E+01 -0.37315723109E+02  0.43400727721E+02  0.00000000000E+00 0.  1.
         11    1    4    4    0    0  0.12249609520E+02  0.11309234513E+02  0.27383789456E+02  0.32059688768E+02  0.51100000000E-03 0. -1.
        -11    1    4    4    0    0  0.17032189334E+01 -0.10623750718E+01  0.13266247659E+01  0.24061440229E+01  0.51100000000E-03 0.  1.
         12    1    4    4    0    0  0.78781405879E+01 -0.64299541112E+01  0.86053088874E+01  0.13321439488E+02  0.00000000000E+00 0. -1.
</event>
<event>
 8    1  0.1280823E-010  0.9118800E+02  0.7816164E-02  0.1184000E+00
        -11   -1    0    0    0    0  0.00000000000E+00  0.00000000000E+00  0.45593999997E+02  0.45594000000E+02  0.51100000000E-03 0. -1.
         11   -1    0    0    0    0 -0.00000000000E+00 -0.00000000000E+00 -0.45593999997E+02  0.45594000000E+02  0.51100000000E-03 0.  1.
         23    2    1    2    0    0  0.22204460493E-15 -0.71054273576E-14  0.35527136788E-14  0.91188000000E+02  0.91188000000E+02 0.  0.
    9900012    2    3    3    0    0 -0.68391773679E+00 -0.35418111593E+02  0.25074148005E+02  0.47787271084E+02  0.20000000178E+02 0.  0.
        -12    1    3    3    0    0  0.68391773679E+00  0.35418111593E+02 -0.25074148005E+02  0.43400728916E+02  0.00000000000E+00 0.  1.
         11    1    4    4    0    0  0.25983397478E+01 -0.22156929116E+01 -0.28032690657E+00  0.34262585950E+01  0.51100000000E-03 0. -1.
        -11    1    4    4    0    0  0.72971236929E+00 -0.15163483487E+02  0.32063596301E+01  0.15515941929E+02  0.51100000000E-03 0.  1.
         12    1    4    4    0    0 -0.40119698539E+01 -0.18038935194E+02  0.22148115282E+02  0.28845070560E+02  0.00000000000E+00 0. -1.
</event>
<event>
 8    1  0.1280823E-010  0.9118800E+02  0.7816164E-02  0.1184000E+00
        -11   -1    0    0    0    0  0.00000000000E+00  0.00000000000E+00  0.45593999997E+02  0.45594000000E+02  0.51100000000E-03 0. -1.
         11   -1    0    0    0    0 -0.00000000000E+00 -0.00000000000E+00 -0.45593999997E+02  0.45594000000E+02  0.51100000000E-03 0.  1.
         23    2    1    2    0    0  0.00000000000E+00  0.00000000000E+00  0.00000000000E+00  0.91188000000E+02  0.91188000000E+02 0.  0.
    9900012    2    3    3    0    0  0.10937554707E+02 -0.27502121296E+02 -0.31743133847E+02  0.47787270454E+02  0.19999997307E+02 0.  0.
         12    1    3    3    0    0 -0.10937554707E+02  0.27502121296E+02  0.31743133847E+02  0.43400729546E+02  0.00000000000E+00 0. -1.
         11    1    4    4    0    0  0.75199463140E+00 -0.62704845050E+01 -0.68255980271E+01  0.92990999856E+01  0.51100000000E-03 0. -1.
        -11    1    4    4    0    0  0.25745689937E+01 -0.21097093269E+02 -0.21190520418E+02  0.30012562466E+02  0.51100000000E-03 0.  1.
         12    1    4    4    0    0  0.76109910818E+01 -0.13454352150E+00 -0.37270154014E+01  0.84756080022E+01  0.00000000000E+00 0. -1.
</event>
<event>
 8    1  0.1280823E-010  0.9118800E+02  0.7816164E-02  0.1184000E+00
        -11   -1    0    0    0    0  0.00000000000E+00  0.00000000000E+00  0.45593999997E+02  0.45594000000E+02  0.51100000000E-03 0. -1.
         11   -1    0    0    0    0 -0.00000000000E+00 -0.00000000000E+00 -0.45593999997E+02  0.45594000000E+02  0.51100000000E-03 0.  1.
         23    2    1    2    0    0  0.00000000000E+00  0.00000000000E+00  0.00000000000E+00  0.91188000000E+02  0.91188000000E+02 0.  0.
    9900012    2    3    3    0    0  0.28843783089E+02  0.11217406569E+02  0.30427444249E+02  0.47787269631E+02  0.19999993555E+02 0.  0.
        -12    1    3    3    0    0 -0.28843783089E+02 -0.11217406569E+02 -0.30427444249E+02  0.43400730369E+02  0.00000000000E+00 0.  1.
         11    1    4    4    0    0  0.17676746207E+02  0.11592256363E+02  0.27111385658E+02  0.34378408873E+02  0.51100000000E-03 0. -1.
        -11    1    4    4    0    0  0.73787423476E+01  0.27132046532E+01  0.77381433044E+00  0.78997536039E+01  0.51100000000E-03 0.  1.
         12    1    4    4    0    0  0.37882945349E+01 -0.30880544476E+01  0.25422442605E+01  0.55091071540E+01  0.00000000000E+00 0. -1.
</event>
<event>
 8    1  0.1280823E-010  0.9118800E+02  0.7816164E-02  0.1184000E+00
        -11   -1    0    0    0    0  0.00000000000E+00  0.00000000000E+00  0.45593999997E+02  0.45594000000E+02  0.51100000000E-03 0.  1.
         11   -1    0    0    0    0 -0.00000000000E+00 -0.00000000000E+00 -0.45593999997E+02  0.45594000000E+02  0.51100000000E-03 0. -1.
         23    2    1    2    0    0 -0.35527136788E-14  0.00000000000E+00  0.17763568394E-14  0.91188000000E+02  0.91188000000E+02 0.  0.
    9900012    2    3    3    0    0 -0.25180357698E+02 -0.31983348038E+02  0.15054599093E+02  0.47787240567E+02  0.19999861040E+02 0.  0.
        -12    1    3    3    0    0  0.25180357698E+02  0.31983348038E+02 -0.15054599093E+02  0.43400759433E+02  0.00000000000E+00 0.  1.
         11    1    4    4    0    0 -0.42089872985E+00 -0.25093648900E+01 -0.24274573714E-02  0.25444201787E+01  0.51100000000E-03 0. -1.
        -11    1    4    4    0    0 -0.53399784761E+01 -0.12238120953E+02  0.13866853270E+02  0.19250366087E+02  0.51100000000E-03 0.  1.
        -12    1    4    4    0    0 -0.19419480492E+02 -0.17235862195E+02  0.11901732800E+01  0.25992454301E+02  0.00000000000E+00 0.  1.
</event>
<event>
 8    1  0.1280823E-010  0.9118800E+02  0.7816164E-02  0.1184000E+00
        -11   -1    0    0    0    0  0.00000000000E+00  0.00000000000E+00  0.45593999997E+02  0.45594000000E+02  0.51100000000E-03 0. -1.
         11   -1    0    0    0    0 -0.00000000000E+00 -0.00000000000E+00 -0.45593999997E+02  0.45594000000E+02  0.51100000000E-03 0.  1.
         23    2    1    2    0    0  0.00000000000E+00  0.00000000000E+00 -0.35527136788E-14  0.91188000000E+02  0.91188000000E+02 0.  0.
    9900012    2    3    3    0    0 -0.28733307014E+02  0.18466523334E+02 -0.26776995510E+02  0.47787275299E+02  0.20000019398E+02 0.  0.
         12    1    3    3    0    0  0.28733307014E+02 -0.18466523334E+02  0.26776995510E+02  0.43400724701E+02  0.00000000000E+00 0. -1.
         11    1    4    4    0    0 -0.10750878966E+02  0.87479100412E+01 -0.18035760159E+02  0.22746339780E+02  0.51100000000E-03 0. -1.
        -11    1    4    4    0    0 -0.73090376116E+01  0.66891965130E+01 -0.97493354754E+01  0.13900249036E+02  0.51100000000E-03 0.  1.
         12    1    4    4    0    0 -0.10673390437E+02  0.30294167803E+01  0.10081001238E+01  0.11140686483E+02  0.00000000000E+00 0. -1.
</event>
<event>
 8    1  0.1280823E-010  0.9118800E+02  0.7816164E-02  0.1184000E+00
        -11   -1    0    0    0    0  0.00000000000E+00  0.00000000000E+00  0.45593999997E+02  0.45594000000E+02  0.51100000000E-03 0. -1.
         11   -1    0    0    0    0 -0.00000000000E+00 -0.00000000000E+00 -0.45593999997E+02  0.45594000000E+02  0.51100000000E-03 0.  1.
         23    2    1    2    0    0  0.00000000000E+00  0.00000000000E+00  0.00000000000E+00  0.91188000000E+02  0.91188000000E+02 0.  0.
    9900012    2    3    3    0    0  0.31887124768E+01  0.26933783256E+02  0.33882543125E+02  0.47787270786E+02  0.19999998820E+02 0.  0.
        -12    1    3    3    0    0 -0.31887124768E+01 -0.26933783256E+02 -0.33882543125E+02  0.43400729214E+02  0.00000000000E+00 0.  1.
         11    1    4    4    0    0 -0.15778533146E+00  0.19527093120E+02  0.19944295738E+02  0.27912491732E+02  0.51100000000E-03 0. -1.
        -11    1    4    4    0    0  0.17109414367E+01  0.10368550942E+02  0.87193133952E+01  0.13655057510E+02  0.51100000000E-03 0.  1.
        -12    1    4    4    0    0  0.16355563715E+01 -0.29618608063E+01  0.52189339909E+01  0.62197215438E+01  0.00000000000E+00 0.  1.
</event>
<event>
 8    1  0.1280823E-010  0.9118800E+02  0.7816164E-02  0.1184000E+00
        -11   -1    0    0    0    0  0.00000000000E+00  0.00000000000E+00  0.45593999997E+02  0.45594000000E+02  0.51100000000E-03 0.  1.
         11   -1    0    0    0    0 -0.00000000000E+00 -0.00000000000E+00 -0.45593999997E+02  0.45594000000E+02  0.51100000000E-03 0. -1.
         23    2    1    2    0    0  0.00000000000E+00 -0.35527136788E-14 -0.88817841970E-15  0.91188000000E+02  0.91188000000E+02 0.  0.
    9900012    2    3    3    0    0 -0.29979169916E+02  0.31153793605E+02 -0.37833735852E+01  0.47787269585E+02  0.19999993348E+02 0.  0.
         12    1    3    3    0    0  0.29979169916E+02 -0.31153793605E+02  0.37833735852E+01  0.43400730415E+02  0.00000000000E+00 0. -1.
         11    1    4    4    0    0 -0.16736402288E+02  0.14852448564E+02 -0.22027275253E+01  0.22484536880E+02  0.51100000000E-03 0. -1.
        -11    1    4    4    0    0 -0.79536213726E+01  0.12877838405E+02  0.52400569859E+01  0.16017397179E+02  0.51100000000E-03 0.  1.
         12    1    4    4    0    0 -0.52891462560E+01  0.34235066361E+01 -0.68207030458E+01  0.92853355267E+01  0.00000000000E+00 0. -1.
</event>
<event>
 8    1  0.1280823E-010  0.9118800E+02  0.7816164E-02  0.1184000E+00
        -11   -1    0    0    0    0  0.00000000000E+00  0.00000000000E+00  0.45593999997E+02  0.45594000000E+02  0.51100000000E-03 0. -1.
         11   -1    0    0    0    0 -0.00000000000E+00 -0.00000000000E+00 -0.45593999997E+02  0.45594000000E+02  0.51100000000E-03 0.  1.
         23    2    1    2    0    0 -0.17763568394E-14 -0.44408920985E-15  0.00000000000E+00  0.91188000000E+02  0.91188000000E+02 0.  0.
    9900012    2    3    3    0    0  0.14124190735E+02 -0.39546874781E+01  0.40847168255E+02  0.47787268769E+02  0.19999989625E+02 0.  0.
        -12    1    3    3    0    0 -0.14124190735E+02  0.39546874781E+01 -0.40847168255E+02  0.43400731231E+02  0.00000000000E+00 0.  1.
         11    1    4    4    0    0  0.10971973336E+02 -0.14583663111E+01  0.21727144136E+02  0.24384007541E+02  0.51100000000E-03 0. -1.
        -11    1    4    4    0    0  0.76926490472E+01 -0.79760147335E+00  0.15601379644E+02  0.17413100371E+02  0.51100000000E-03 0.  1.
        -12    1    4    4    0    0 -0.45404316484E+01 -0.16987196936E+01  0.35186444748E+01  0.59901608569E+01  0.00000000000E+00 0.  1.
</event>
<event>
 8    1  0.1280823E-010  0.9118800E+02  0.7816164E-02  0.1184000E+00
        -11   -1    0    0    0    0  0.00000000000E+00  0.00000000000E+00  0.45593999997E+02  0.45594000000E+02  0.51100000000E-03 0. -1.
         11   -1    0    0    0    0 -0.00000000000E+00 -0.00000000000E+00 -0.45593999997E+02  0.45594000000E+02  0.51100000000E-03 0.  1.
         23    2    1    2    0    0 -0.17763568394E-14 -0.35527136788E-14 -0.71054273576E-14  0.91188000000E+02  0.91188000000E+02 0.  0.
    9900012    2    3    3    0    0 -0.88599528881E+01 -0.27802053587E+02 -0.32127366504E+02  0.47787301535E+02  0.20000139017E+02 0.  0.
         12    1    3    3    0    0  0.88599528881E+01  0.27802053587E+02  0.32127366504E+02  0.43400698465E+02  0.00000000000E+00 0. -1.
         11    1    4    4    0    0 -0.20406235566E+01 -0.13102392982E+01 -0.81471334689E+01  0.85003914933E+01  0.51100000000E-03 0. -1.
        -11    1    4    4    0    0  0.21157132642E+01 -0.13058149037E+02 -0.17412712127E+02  0.21867648314E+02  0.51100000000E-03 0.  1.
        -12    1    4    4    0    0 -0.89350425958E+01 -0.13433665251E+02 -0.65675209077E+01  0.17419261728E+02  0.00000000000E+00 0.  1.
</event>
<event>
 8    1  0.1280823E-010  0.9118800E+02  0.7816164E-02  0.1184000E+00
        -11   -1    0    0    0    0  0.00000000000E+00  0.00000000000E+00  0.45593999997E+02  0.45594000000E+02  0.51100000000E-03 0. -1.
         11   -1    0    0    0    0 -0.00000000000E+00 -0.00000000000E+00 -0.45593999997E+02  0.45594000000E+02  0.51100000000E-03 0.  1.
         23    2    1    2    0    0  0.00000000000E+00  0.00000000000E+00  0.35527136788E-14  0.91188000000E+02  0.91188000000E+02 0.  0.
    9900012    2    3    3    0    0 -0.17106118542E+02 -0.34586404346E+02  0.19869186671E+02  0.47787271480E+02  0.20000001985E+02 0.  0.
        -12    1    3    3    0    0  0.17106118542E+02  0.34586404346E+02 -0.19869186671E+02  0.43400728520E+02  0.00000000000E+00 0.  1.
         11    1    4    4    0    0 -0.95064202987E+01 -0.23494373871E+02  0.16546589835E+02  0.30267924704E+02  0.51100000000E-03 0. -1.
        -11    1    4    4    0    0 -0.12043901257E+00 -0.68232482533E+01  0.53508964111E+01  0.86719844871E+01  0.51100000000E-03 0.  1.
         12    1    4    4    0    0 -0.74792592309E+01 -0.42687822213E+01 -0.20282995751E+01  0.88473622884E+01  0.00000000000E+00 0. -1.
</event>
<event>
 8    1  0.1280823E-010  0.9118800E+02  0.7816164E-02  0.1184000E+00
        -11   -1    0    0    0    0  0.00000000000E+00  0.00000000000E+00  0.45593999997E+02  0.45594000000E+02  0.51100000000E-03 0. -1.
         11   -1    0    0    0    0 -0.00000000000E+00 -0.00000000000E+00 -0.45593999997E+02  0.45594000000E+02  0.51100000000E-03 0.  1.
         23    2    1    2    0    0  0.00000000000E+00  0.00000000000E+00 -0.35527136788E-14  0.91188000000E+02  0.91188000000E+02 0.  0.
    9900012    2    3    3    0    0 -0.23513948699E+01  0.36835287542E+02  0.22831028907E+02  0.47787270201E+02  0.19999996156E+02 0.  0.
        -12    1    3    3    0    0  0.23513948699E+01 -0.36835287542E+02 -0.22831028907E+02  0.43400729799E+02  0.00000000000E+00 0.  1.
         11    1    4    4    0    0 -0.48288364864E+00  0.12738674830E+02  0.80540786488E+01  0.15078965355E+02  0.51100000000E-03 0. -1.
        -11    1    4    4    0    0 -0.84603857345E+00  0.23809418666E+02  0.17646851297E+02  0.29648196563E+02  0.51100000000E-03 0.  1.
        -12    1    4    4    0    0 -0.10224726478E+01  0.28719404574E+00 -0.28699010384E+01  0.30601082833E+01  0.00000000000E+00 0.  1.
</event>
<event>
 8    1  0.1280823E-010  0.9118800E+02  0.7816164E-02  0.1184000E+00
        -11   -1    0    0    0    0  0.00000000000E+00  0.00000000000E+00  0.45593999997E+02  0.45594000000E+02  0.51100000000E-03 0. -1.
         11   -1    0    0    0    0 -0.00000000000E+00 -0.00000000000E+00 -0.45593999997E+02  0.45594000000E+02  0.51100000000E-03 0.  1.
         23    2    1    2    0    0  0.22204460493E-15  0.00000000000E+00  0.00000000000E+00  0.91188000000E+02  0.91188000000E+02 0.  0.
    9900012    2    3    3    0    0 -0.55865412736E+00  0.22526049902E+02 -0.37092957716E+02  0.47787279606E+02  0.20000039033E+02 0.  0.
         12    1    3    3    0    0  0.55865412736E+00 -0.22526049902E+02  0.37092957716E+02  0.43400720394E+02  0.00000000000E+00 0. -1.
         11    1    4    4    0    0  0.15886154390E+01 -0.10257590787E+01 -0.12523684739E+01  0.22681066457E+01  0.51100000000E-03 0. -1.
        -11    1    4    4    0    0  0.92100450977E-01  0.98372534961E+00 -0.13995813543E+02  0.14030644855E+02  0.51100000000E-03 0.  1.
        -12    1    4    4    0    0 -0.22393700174E+01  0.22568083631E+02 -0.21844775699E+02  0.31488528105E+02  0.00000000000E+00 0.  1.
</event>
<event>
 8    1  0.1280823E-010  0.9118800E+02  0.7816164E-02  0.1184000E+00
        -11   -1    0    0    0    0  0.00000000000E+00  0.00000000000E+00  0.45593999997E+02  0.45594000000E+02  0.51100000000E-03 0. -1.
         11   -1    0    0    0    0 -0.00000000000E+00 -0.00000000000E+00 -0.45593999997E+02  0.45594000000E+02  0.51100000000E-03 0.  1.
         23    2    1    2    0    0 -0.44408920985E-15  0.00000000000E+00 -0.35527136788E-14  0.91188000000E+02  0.91188000000E+02 0.  0.
    9900012    2    3    3    0    0 -0.18514822193E+01  0.35090141032E+02 -0.25473073772E+02  0.47787268768E+02  0.19999989619E+02 0.  0.
         12    1    3    3    0    0  0.18514822193E+01 -0.35090141032E+02  0.25473073772E+02  0.43400731232E+02  0.00000000000E+00 0. -1.
         11    1    4    4    0    0  0.11642692576E+01  0.59184135133E+01 -0.94363299220E+01  0.11199440347E+02  0.51100000000E-03 0. -1.
        -11    1    4    4    0    0  0.52043810288E+01  0.18957691578E+02 -0.11113815056E+02  0.22583102913E+02  0.51100000000E-03 0.  1.
         12    1    4    4    0    0 -0.82201325058E+01  0.10214035942E+02 -0.49229287945E+01  0.14004725508E+02  0.00000000000E+00 0. -1.
</event>
<event>
 8    1  0.1280823E-010  0.9118800E+02  0.7816164E-02  0.1184000E+00
        -11   -1    0    0    0    0  0.00000000000E+00  0.00000000000E+00  0.45593999997E+02  0.45594000000E+02  0.51100000000E-03 0.  1.
         11   -1    0    0    0    0 -0.00000000000E+00 -0.00000000000E+00 -0.45593999997E+02  0.45594000000E+02  0.51100000000E-03 0. -1.
         23    2    1    2    0    0 -0.17763568394E-14  0.00000000000E+00  0.88817841970E-15  0.91188000000E+02  0.91188000000E+02 0.  0.
    9900012    2    3    3    0    0  0.12939267180E+02  0.41068662286E+02  0.54372380410E+01  0.47787271727E+02  0.20000003110E+02 0.  0.
         12    1    3    3    0    0 -0.12939267180E+02 -0.41068662286E+02 -0.54372380410E+01  0.43400728273E+02  0.00000000000E+00 0. -1.
         11    1    4    4    0    0  0.43952980550E+01  0.12111829935E+02 -0.23254075109E+01  0.13092844982E+02  0.51100000000E-03 0. -1.
        -11    1    4    4    0    0  0.15813739438E+01  0.53236570645E+01 -0.45242157401E+01  0.71631415185E+01  0.51100000000E-03 0.  1.
        -12    1    4    4    0    0  0.69625951816E+01  0.23633175287E+02  0.12286861292E+02  0.27531285226E+02  0.00000000000E+00 0.  1.
</event>
<event>
 8    1  0.1280823E-010  0.9118800E+02  0.7816164E-02  0.1184000E+00
        -11   -1    0    0    0    0  0.00000000000E+00  0.00000000000E+00  0.45593999997E+02  0.45594000000E+02  0.51100000000E-03 0. -1.
         11   -1    0    0    0    0 -0.00000000000E+00 -0.00000000000E+00 -0.45593999997E+02  0.45594000000E+02  0.51100000000E-03 0.  1.
         23    2    1    2    0    0  0.17763568394E-14  0.00000000000E+00 -0.71054273576E-14  0.91188000000E+02  0.91188000000E+02 0.  0.
    9900012    2    3    3    0    0  0.15190527590E+02 -0.18120785188E+02  0.36393794539E+02  0.47787271144E+02  0.20000000455E+02 0.  0.
        -12    1    3    3    0    0 -0.15190527590E+02  0.18120785188E+02 -0.36393794539E+02  0.43400728856E+02  0.00000000000E+00 0.  1.
         11    1    4    4    0    0 -0.27056628385E+00 -0.33295212917E+01  0.35936063288E+01  0.49064167020E+01  0.51100000000E-03 0. -1.
        -11    1    4    4    0    0 -0.18195119205E+00 -0.98711222026E+00 -0.20389743295E+01  0.22726445717E+01  0.51100000000E-03 0.  1.
        -12    1    4    4    0    0  0.15643045066E+02 -0.13804151676E+02  0.34839162540E+02  0.40608209870E+02  0.00000000000E+00 0.  1.
</event>
<event>
 8    1  0.1280823E-010  0.9118800E+02  0.7816164E-02  0.1184000E+00
        -11   -1    0    0    0    0  0.00000000000E+00  0.00000000000E+00  0.45593999997E+02  0.45594000000E+02  0.51100000000E-03 0. -1.
         11   -1    0    0    0    0 -0.00000000000E+00 -0.00000000000E+00 -0.45593999997E+02  0.45594000000E+02  0.51100000000E-03 0.  1.
         23    2    1    2    0    0  0.00000000000E+00 -0.88817841970E-15  0.00000000000E+00  0.91188000000E+02  0.91188000000E+02 0.  0.
    9900012    2    3    3    0    0  0.35452912648E+02  0.22347964402E+01 -0.24934311248E+02  0.47787271806E+02  0.20000003473E+02 0.  0.
         12    1    3    3    0    0 -0.35452912648E+02 -0.22347964402E+01  0.24934311248E+02  0.43400728194E+02  0.00000000000E+00 0. -1.
         11    1    4    4    0    0  0.47328682148E+01 -0.15738852767E+01 -0.70022551226E+01  0.85970188708E+01  0.51100000000E-03 0.  1.
        -11    1    4    4    0    0  0.12368401102E+02  0.95308059812E+01 -0.75833075834E+01  0.17358576054E+02  0.51100000000E-03 0. -1.
         12    1    4    4    0    0  0.18351643331E+02 -0.57221242643E+01 -0.10348748542E+02  0.21831676881E+02  0.00000000000E+00 0. -1.
</event>
<event>
 8    1  0.1280823E-010  0.9118800E+02  0.7816164E-02  0.1184000E+00
        -11   -1    0    0    0    0  0.00000000000E+00  0.00000000000E+00  0.45593999997E+02  0.45594000000E+02  0.51100000000E-03 0. -1.
         11   -1    0    0    0    0 -0.00000000000E+00 -0.00000000000E+00 -0.45593999997E+02  0.45594000000E+02  0.51100000000E-03 0.  1.
         23    2    1    2    0    0 -0.44408920985E-15  0.13322676296E-14 -0.71054273576E-14  0.91188000000E+02  0.91188000000E+02 0.  0.
    9900012    2    3    3    0    0  0.25551424777E+01 -0.34246081776E+01  0.43189890130E+02  0.47787270701E+02  0.19999998434E+02 0.  0.
        -12    1    3    3    0    0 -0.25551424777E+01  0.34246081776E+01 -0.43189890130E+02  0.43400729299E+02  0.00000000000E+00 0.  1.
         11    1    4    4    0    0 -0.96251262577E+00 -0.78144268604E-01  0.45743408514E+01  0.46751611274E+01  0.51100000000E-03 0. -1.
        -11    1    4    4    0    0 -0.31895203183E+00  0.57878023737E+01  0.38407174708E+01  0.69535241186E+01  0.51100000000E-03 0.  1.
         12    1    4    4    0    0  0.38366071353E+01 -0.91342662827E+01  0.34774831808E+02  0.36158585455E+02  0.00000000000E+00 0. -1.
</event>
<event>
 8    1  0.1280823E-010  0.9118800E+02  0.7816164E-02  0.1184000E+00
        -11   -1    0    0    0    0  0.00000000000E+00  0.00000000000E+00  0.45593999997E+02  0.45594000000E+02  0.51100000000E-03 0. -1.
         11   -1    0    0    0    0 -0.00000000000E+00 -0.00000000000E+00 -0.45593999997E+02  0.45594000000E+02  0.51100000000E-03 0.  1.
         23    2    1    2    0    0 -0.35527136788E-14  0.00000000000E+00 -0.71054273576E-14  0.91188000000E+02  0.91188000000E+02 0.  0.
    9900012    2    3    3    0    0  0.26708314824E+02 -0.99861662469E+01  0.32719498911E+02  0.47787271826E+02  0.20000003564E+02 0.  0.
        -12    1    3    3    0    0 -0.26708314824E+02  0.99861662469E+01 -0.32719498911E+02  0.43400728174E+02  0.00000000000E+00 0.  1.
         11    1    4    4    0    0 -0.11657962479E+01  0.11384534819E+01  0.95047998872E+01  0.96434629869E+01  0.51100000000E-03 0.  1.
        -11    1    4    4    0    0  0.54912523756E+00 -0.97090046616E+00  0.85379100511E+00  0.14046870054E+01  0.51100000000E-03 0. -1.
        -12    1    4    4    0    0  0.27324985834E+02 -0.10153719263E+02  0.22360908019E+02  0.36739121834E+02  0.00000000000E+00 0.  1.
</event>
<event>
 8    1  0.1280823E-010  0.9118800E+02  0.7816164E-02  0.1184000E+00
        -11   -1    0    0    0    0  0.00000000000E+00  0.00000000000E+00  0.45593999997E+02  0.45594000000E+02  0.51100000000E-03 0. -1.
         11   -1    0    0    0    0 -0.00000000000E+00 -0.00000000000E+00 -0.45593999997E+02  0.45594000000E+02  0.51100000000E-03 0.  1.
         23    2    1    2    0    0  0.00000000000E+00  0.88817841970E-15  0.71054273576E-14  0.91188000000E+02  0.91188000000E+02 0.  0.
    9900012    2    3    3    0    0 -0.11756683439E+02  0.73729797567E+01  0.41122295648E+02  0.47787266881E+02  0.19999981015E+02 0.  0.
        -12    1    3    3    0    0  0.11756683439E+02 -0.73729797567E+01 -0.41122295648E+02  0.43400733119E+02  0.00000000000E+00 0.  1.
         11    1    4    4    0    0 -0.47579041527E+01  0.23601156129E+01  0.73181898985E+01  0.90423283110E+01  0.51100000000E-03 0. -1.
        -11    1    4    4    0    0 -0.23627978339E+01  0.19809243455E+01 -0.11975048826E+01  0.33077020832E+01  0.51100000000E-03 0.  1.
         12    1    4    4    0    0 -0.46359814523E+01  0.30319397983E+01  0.35001610632E+02  0.35437236486E+02  0.00000000000E+00 0. -1.
</event>
<event>
 8    1  0.1280823E-010  0.9118800E+02  0.7816164E-02  0.1184000E+00
        -11   -1    0    0    0    0  0.00000000000E+00  0.00000000000E+00  0.45593999997E+02  0.45594000000E+02  0.51100000000E-03 0. -1.
         11   -1    0    0    0    0 -0.00000000000E+00 -0.00000000000E+00 -0.45593999997E+02  0.45594000000E+02  0.51100000000E-03 0.  1.
         23    2    1    2    0    0  0.17763568394E-14  0.00000000000E+00  0.00000000000E+00  0.91188000000E+02  0.91188000000E+02 0.  0.
    9900012    2    3    3    0    0  0.11382283122E+02 -0.17972711589E+02  0.37829202473E+02  0.47787270851E+02  0.19999999119E+02 0.  0.
        -12    1    3    3    0    0 -0.11382283122E+02  0.17972711589E+02 -0.37829202473E+02  0.43400729149E+02  0.00000000000E+00 0.  1.
         11    1    4    4    0    0  0.81976615409E+01 -0.43521685283E+01  0.20670905132E+02  0.22658979343E+02  0.51100000000E-03 0. -1.
        -11    1    4    4    0    0  0.15954523287E+01  0.19308022157E+00  0.87125697486E+01  0.88595496494E+01  0.51100000000E-03 0.  1.
        -12    1    4    4    0    0  0.15891692518E+01 -0.13813623282E+02  0.84457275924E+01  0.16268741859E+02  0.00000000000E+00 0.  1.
</event>
<event>
 8    1  0.1280823E-010  0.9118800E+02  0.7816164E-02  0.1184000E+00
        -11   -1    0    0    0    0  0.00000000000E+00  0.00000000000E+00  0.45593999997E+02  0.45594000000E+02  0.51100000000E-03 0. -1.
         11   -1    0    0    0    0 -0.00000000000E+00 -0.00000000000E+00 -0.45593999997E+02  0.45594000000E+02  0.51100000000E-03 0.  1.
         23    2    1    2    0    0  0.00000000000E+00  0.00000000000E+00  0.00000000000E+00  0.91188000000E+02  0.91188000000E+02 0.  0.
    9900012    2    3    3    0    0 -0.22440123906E+02 -0.99412525720E+01  0.35794282988E+02  0.47787327675E+02  0.20000258200E+02 0.  0.
        -12    1    3    3    0    0  0.22440123906E+02  0.99412525720E+01 -0.35794282988E+02  0.43400672325E+02  0.00000000000E+00 0.  1.
         11    1    4    4    0    0 -0.51341297351E+01  0.48810303132E+01  0.83439012841E+01  0.10945521182E+02  0.51100000000E-03 0. -1.
        -11    1    4    4    0    0 -0.79092408641E+00  0.10162013195E+01  0.34441150987E+01  0.36769763538E+01  0.51100000000E-03 0.  1.
        -12    1    4    4    0    0 -0.16515070085E+02 -0.15838484205E+02  0.24006266605E+02  0.33164830139E+02  0.00000000000E+00 0.  1.
</event>
<event>
 8    1  0.1280823E-010  0.9118800E+02  0.7816164E-02  0.1184000E+00
        -11   -1    0    0    0    0  0.00000000000E+00  0.00000000000E+00  0.45593999997E+02  0.45594000000E+02  0.51100000000E-03 0. -1.
         11   -1    0    0    0    0 -0.00000000000E+00 -0.00000000000E+00 -0.45593999997E+02  0.45594000000E+02  0.51100000000E-03 0.  1.
         23    2    1    2    0    0 -0.17763568394E-14  0.17763568394E-14  0.00000000000E+00  0.91188000000E+02  0.91188000000E+02 0.  0.
    9900012    2    3    3    0    0  0.14448107837E+02  0.10783792545E+02 -0.39478925460E+02  0.47787267781E+02  0.19999985119E+02 0.  0.
         12    1    3    3    0    0 -0.14448107837E+02 -0.10783792545E+02  0.39478925460E+02  0.43400732219E+02  0.00000000000E+00 0. -1.
         11    1    4    4    0    0  0.10529920588E+00  0.32018351433E+01 -0.24538595155E+02  0.24746827850E+02  0.51100000000E-03 0. -1.
        -11    1    4    4    0    0  0.61861393753E+01  0.68771208782E+01 -0.66770180765E+01  0.11408141067E+02  0.51100000000E-03 0.  1.
         12    1    4    4    0    0  0.81566692559E+01  0.70483652348E+00 -0.82633122285E+01  0.11632298864E+02  0.00000000000E+00 0. -1.
</event>
<event>
 8    1  0.1280823E-010  0.9118800E+02  0.7816164E-02  0.1184000E+00
        -11   -1    0    0    0    0  0.00000000000E+00  0.00000000000E+00  0.45593999997E+02  0.45594000000E+02  0.51100000000E-03 0. -1.
         11   -1    0    0    0    0 -0.00000000000E+00 -0.00000000000E+00 -0.45593999997E+02  0.45594000000E+02  0.51100000000E-03 0.  1.
         23    2    1    2    0    0  0.00000000000E+00 -0.71054273576E-14 -0.17763568394E-14  0.91188000000E+02  0.91188000000E+02 0.  0.
    9900012    2    3    3    0    0 -0.21516703253E+02  0.36693893676E+02  0.86146904593E+01  0.47787271393E+02  0.20000001587E+02 0.  0.
        -12    1    3    3    0    0  0.21516703253E+02 -0.36693893676E+02 -0.86146904593E+01  0.43400728607E+02  0.00000000000E+00 0.  1.
         11    1    4    4    0    0 -0.11528761175E+02  0.19484774726E+02  0.19696427670E+01  0.22725498306E+02  0.51100000000E-03 0. -1.
        -11    1    4    4    0    0 -0.71753550827E+01  0.36923832903E+01 -0.25626101579E+01  0.84667813251E+01  0.51100000000E-03 0.  1.
         12    1    4    4    0    0 -0.28125869953E+01  0.13516735659E+02  0.92076578503E+01  0.16594991762E+02  0.00000000000E+00 0. -1.
</event>
<event>
 8    1  0.1280823E-010  0.9118800E+02  0.7816164E-02  0.1184000E+00
        -11   -1    0    0    0    0  0.00000000000E+00  0.00000000000E+00  0.45593999997E+02  0.45594000000E+02  0.51100000000E-03 0. -1.
         11   -1    0    0    0    0 -0.00000000000E+00 -0.00000000000E+00 -0.45593999997E+02  0.45594000000E+02  0.51100000000E-03 0.  1.
         23    2    1    2    0    0 -0.35527136788E-14  0.00000000000E+00  0.00000000000E+00  0.91188000000E+02  0.91188000000E+02 0.  0.
    9900012    2    3    3    0    0  0.30577289864E+02  0.22866035969E+02 -0.20634877697E+02  0.47787257680E+02  0.19999939066E+02 0.  0.
         12    1    3    3    0    0 -0.30577289864E+02 -0.22866035969E+02  0.20634877697E+02  0.43400742320E+02  0.00000000000E+00 0. -1.
         11    1    4    4    0    0 -0.15646214307E+01  0.34468967740E+01  0.10130240248E+01  0.39185910131E+01  0.51100000000E-03 0. -1.
        -11    1    4    4    0    0  0.64009292380E+01  0.48933599949E+01 -0.78536781719E+01  0.11251538928E+02  0.51100000000E-03 0.  1.
         12    1    4    4    0    0  0.25740982057E+02  0.14525779200E+02 -0.13794223550E+02  0.32617127739E+02  0.00000000000E+00 0. -1.
</event>
<event>
 8    1  0.1280823E-010  0.9118800E+02  0.7816164E-02  0.1184000E+00
        -11   -1    0    0    0    0  0.00000000000E+00  0.00000000000E+00  0.45593999997E+02  0.45594000000E+02  0.51100000000E-03 0. -1.
         11   -1    0    0    0    0 -0.00000000000E+00 -0.00000000000E+00 -0.45593999997E+02  0.45594000000E+02  0.51100000000E-03 0.  1.
         23    2    1    2    0    0  0.00000000000E+00  0.00000000000E+00  0.00000000000E+00  0.91188000000E+02  0.91188000000E+02 0.  0.
    9900012    2    3    3    0    0 -0.24446763406E+02  0.31252097472E+02  0.17586531938E+02  0.47787263335E+02  0.19999964851E+02 0.  0.
        -12    1    3    3    0    0  0.24446763406E+02 -0.31252097472E+02 -0.17586531938E+02  0.43400736665E+02  0.00000000000E+00 0.  1.
         11    1    4    4    0    0 -0.11511932347E+02  0.94548069338E+01  0.86508479661E+01  0.17226582114E+02  0.51100000000E-03 0. -1.
        -11    1    4    4    0    0 -0.81072668616E+01  0.46607638778E+01 -0.21399123401E+01  0.95932122344E+01  0.51100000000E-03 0.  1.
        -12    1    4    4    0    0 -0.48275641966E+01  0.17136526661E+02  0.11075596312E+02  0.20967468987E+02  0.00000000000E+00 0.  1.
</event>
<event>
 8    1  0.1280823E-010  0.9118800E+02  0.7816164E-02  0.1184000E+00
        -11   -1    0    0    0    0  0.00000000000E+00  0.00000000000E+00  0.45593999997E+02  0.45594000000E+02  0.51100000000E-03 0.  1.
         11   -1    0    0    0    0 -0.00000000000E+00 -0.00000000000E+00 -0.45593999997E+02  0.45594000000E+02  0.51100000000E-03 0. -1.
         23    2    1    2    0    0 -0.71054273576E-14 -0.17763568394E-14  0.00000000000E+00  0.91188000000E+02  0.91188000000E+02 0.  0.
    9900012    2    3    3    0    0  0.40557651750E+02  0.14608150287E+02  0.50303882462E+01  0.47787239912E+02  0.19999858055E+02 0.  0.
         12    1    3    3    0    0 -0.40557651750E+02 -0.14608150287E+02 -0.50303882462E+01  0.43400760088E+02  0.00000000000E+00 0. -1.
         11    1    4    4    0    0  0.96465722784E+01  0.13587157754E+01 -0.54558044075E+01  0.11165494493E+02  0.51100000000E-03 0. -1.
        -11    1    4    4    0    0  0.13754564595E+02  0.64372060012E+00  0.33926183051E+01  0.14181406229E+02  0.51100000000E-03 0.  1.
        -12    1    4    4    0    0  0.17156514877E+02  0.12605713911E+02  0.70935743486E+01  0.22440339190E+02  0.00000000000E+00 0.  1.
</event>
<event>
 8    1  0.1280823E-010  0.9118800E+02  0.7816164E-02  0.1184000E+00
        -11   -1    0    0    0    0  0.00000000000E+00  0.00000000000E+00  0.45593999997E+02  0.45594000000E+02  0.51100000000E-03 0. -1.
         11   -1    0    0    0    0 -0.00000000000E+00 -0.00000000000E+00 -0.45593999997E+02  0.45594000000E+02  0.51100000000E-03 0.  1.
         23    2    1    2    0    0  0.00000000000E+00  0.00000000000E+00  0.00000000000E+00  0.91188000000E+02  0.91188000000E+02 0.  0.
    9900012    2    3    3    0    0  0.11209021546E+02 -0.11714345152E+02 -0.40258606092E+02  0.47787269467E+02  0.19999992806E+02 0.  0.
         12    1    3    3    0    0 -0.11209021546E+02  0.11714345152E+02  0.40258606092E+02  0.43400730533E+02  0.00000000000E+00 0. -1.
         11    1    4    4    0    0  0.31034284826E+01 -0.11665630430E+02 -0.11675582145E+02  0.16793969761E+02  0.51100000000E-03 0. -1.
        -11    1    4    4    0    0  0.26797237873E+01 -0.41595687349E+01 -0.91452925637E+01  0.10398043468E+02  0.51100000000E-03 0.  1.
        -12    1    4    4    0    0  0.54258692763E+01  0.41108540121E+01 -0.19437731384E+02  0.20595256237E+02  0.00000000000E+00 0.  1.
</event>
<event>
 8    1  0.1280823E-010  0.9118800E+02  0.7816164E-02  0.1184000E+00
        -11   -1    0    0    0    0  0.00000000000E+00  0.00000000000E+00  0.45593999997E+02  0.45594000000E+02  0.51100000000E-03 0. -1.
         11   -1    0    0    0    0 -0.00000000000E+00 -0.00000000000E+00 -0.45593999997E+02  0.45594000000E+02  0.51100000000E-03 0.  1.
         23    2    1    2    0    0  0.00000000000E+00  0.00000000000E+00  0.00000000000E+00  0.91188000000E+02  0.91188000000E+02 0.  0.
    9900012    2    3    3    0    0  0.34502453399E+02 -0.25649736154E+02 -0.59409569549E+01  0.47787271609E+02  0.20000002575E+02 0.  0.
        -12    1    3    3    0    0 -0.34502453399E+02  0.25649736154E+02  0.59409569549E+01  0.43400728391E+02  0.00000000000E+00 0.  1.
         11    1    4    4    0    0 -0.30028916786E+00 -0.18097607272E+01 -0.11656085862E+01  0.21734882359E+01  0.51100000000E-03 0. -1.
        -11    1    4    4    0    0  0.44342743564E+01 -0.33265592794E+00 -0.56626268945E+01  0.71999161552E+01  0.51100000000E-03 0.  1.
         12    1    4    4    0    0  0.30368468211E+02 -0.23507319499E+02  0.88727852581E+00  0.38413867218E+02  0.00000000000E+00 0. -1.
</event>
<event>
 8    1  0.1280823E-010  0.9118800E+02  0.7816164E-02  0.1184000E+00
        -11   -1    0    0    0    0  0.00000000000E+00  0.00000000000E+00  0.45593999997E+02  0.45594000000E+02  0.51100000000E-03 0. -1.
         11   -1    0    0    0    0 -0.00000000000E+00 -0.00000000000E+00 -0.45593999997E+02  0.45594000000E+02  0.51100000000E-03 0.  1.
         23    2    1    2    0    0 -0.11102230246E-15  0.17763568394E-14  0.00000000000E+00  0.91188000000E+02  0.91188000000E+02 0.  0.
    9900012    2    3    3    0    0  0.73414423212E+00 -0.13923053588E+02  0.41100277508E+02  0.47787271894E+02  0.20000003872E+02 0.  0.
        -12    1    3    3    0    0 -0.73414423212E+00  0.13923053588E+02 -0.41100277508E+02  0.43400728106E+02  0.00000000000E+00 0.  1.
         11    1    4    4    0    0  0.60907585935E+00 -0.36983829625E+01  0.56164383170E+01  0.67522877285E+01  0.51100000000E-03 0. -1.
        -11    1    4    4    0    0  0.78441737021E+01 -0.10227398180E+02  0.22439775134E+02  0.25878064899E+02  0.51100000000E-03 0.  1.
         12    1    4    4    0    0 -0.77191053293E+01  0.27275543534E-02  0.13044064057E+02  0.15156919266E+02  0.00000000000E+00 0. -1.
</event>
<event>
 8    1  0.1280823E-010  0.9118800E+02  0.7816164E-02  0.1184000E+00
        -11   -1    0    0    0    0  0.00000000000E+00  0.00000000000E+00  0.45593999997E+02  0.45594000000E+02  0.51100000000E-03 0. -1.
         11   -1    0    0    0    0 -0.00000000000E+00 -0.00000000000E+00 -0.45593999997E+02  0.45594000000E+02  0.51100000000E-03 0.  1.
         23    2    1    2    0    0 -0.17763568394E-14  0.00000000000E+00 -0.35527136788E-14  0.91188000000E+02  0.91188000000E+02 0.  0.
    9900012    2    3    3    0    0  0.88884572526E+01  0.28521691607E+02  0.31482246756E+02  0.47787269300E+02  0.19999992047E+02 0.  0.
        -12    1    3    3    0    0 -0.88884572526E+01 -0.28521691607E+02 -0.31482246756E+02  0.43400730700E+02  0.00000000000E+00 0.  1.
         11    1    4    4    0    0  0.81264469979E+01  0.14832280839E+02  0.13700246480E+02  0.21765395691E+02  0.51100000000E-03 0. -1.
        -11    1    4    4    0    0  0.18145883215E+00  0.15388026999E+02  0.10769196997E+02  0.18782968520E+02  0.51100000000E-03 0.  1.
        -12    1    4    4    0    0  0.58055142258E+00 -0.16986162308E+01  0.70128032795E+01  0.72389050892E+01  0.00000000000E+00 0.  1.
</event>
<event>
 8    1  0.1280823E-010  0.9118800E+02  0.7816164E-02  0.1184000E+00
        -11   -1    0    0    0    0  0.00000000000E+00  0.00000000000E+00  0.45593999997E+02  0.45594000000E+02  0.51100000000E-03 0. -1.
         11   -1    0    0    0    0 -0.00000000000E+00 -0.00000000000E+00 -0.45593999997E+02  0.45594000000E+02  0.51100000000E-03 0.  1.
         23    2    1    2    0    0  0.00000000000E+00  0.00000000000E+00  0.00000000000E+00  0.91188000000E+02  0.91188000000E+02 0.  0.
    9900012    2    3    3    0    0  0.10087606375E+02 -0.38164223575E+02  0.18037597229E+02  0.47787277918E+02  0.20000031339E+02 0.  0.
        -12    1    3    3    0    0 -0.10087606375E+02  0.38164223575E+02 -0.18037597229E+02  0.43400722082E+02  0.00000000000E+00 0.  1.
         11    1    4    4    0    0 -0.48715127098E+00  0.10710466212E+01 -0.94890369330E+00  0.15115805324E+01  0.51100000000E-03 0. -1.
        -11    1    4    4    0    0  0.49648163146E+01 -0.50414480273E+01  0.74029315609E+00  0.71143259321E+01  0.51100000000E-03 0.  1.
         12    1    4    4    0    0  0.56099413315E+01 -0.34193822169E+02  0.18246207766E+02  0.39161371453E+02  0.00000000000E+00 0. -1.
</event>
<event>
 8    1  0.1280823E-010  0.9118800E+02  0.7816164E-02  0.1184000E+00
        -11   -1    0    0    0    0  0.00000000000E+00  0.00000000000E+00  0.45593999997E+02  0.45594000000E+02  0.51100000000E-03 0.  1.
         11   -1    0    0    0    0 -0.00000000000E+00 -0.00000000000E+00 -0.45593999997E+02  0.45594000000E+02  0.51100000000E-03 0. -1.
         23    2    1    2    0    0  0.00000000000E+00  0.00000000000E+00  0.00000000000E+00  0.91188000000E+02  0.91188000000E+02 0.  0.
    9900012    2    3    3    0    0  0.47526719025E+01 -0.37863921356E+02  0.20672659245E+02  0.47787271079E+02  0.20000000156E+02 0.  0.
        -12    1    3    3    0    0 -0.47526719025E+01  0.37863921356E+02 -0.20672659245E+02  0.43400728921E+02  0.00000000000E+00 0.  1.
         11    1    4    4    0    0  0.25952886985E+00 -0.12686379809E-01  0.34927299575E+01  0.35023819032E+01  0.51100000000E-03 0. -1.
        -11    1    4    4    0    0  0.82737327056E+01 -0.22688958190E+02  0.15194601526E+02  0.28532777510E+02  0.51100000000E-03 0.  1.
         12    1    4    4    0    0 -0.37805896730E+01 -0.15162276786E+02  0.19853277618E+01  0.15752111666E+02  0.00000000000E+00 0. -1.
</event>
<event>
 8    1  0.1280823E-010  0.9118800E+02  0.7816164E-02  0.1184000E+00
        -11   -1    0    0    0    0  0.00000000000E+00  0.00000000000E+00  0.45593999997E+02  0.45594000000E+02  0.51100000000E-03 0. -1.
         11   -1    0    0    0    0 -0.00000000000E+00 -0.00000000000E+00 -0.45593999997E+02  0.45594000000E+02  0.51100000000E-03 0.  1.
         23    2    1    2    0    0  0.35527136788E-14 -0.17763568394E-14  0.71054273576E-14  0.91188000000E+02  0.91188000000E+02 0.  0.
    9900012    2    3    3    0    0  0.23937801341E+02 -0.13663067764E+02  0.33525005620E+02  0.47787265495E+02  0.19999974698E+02 0.  0.
        -12    1    3    3    0    0 -0.23937801341E+02  0.13663067764E+02 -0.33525005620E+02  0.43400734505E+02  0.00000000000E+00 0.  1.
         11    1    4    4    0    0  0.10509652497E+02 -0.47043140901E+01  0.49207132186E+01  0.12521852319E+02  0.51100000000E-03 0. -1.
        -11    1    4    4    0    0 -0.16538161363E+01 -0.27277507948E+01  0.12758330424E+01  0.34356196566E+01  0.51100000000E-03 0.  1.
         12    1    4    4    0    0  0.15081964981E+02 -0.62310028794E+01  0.27328459359E+02  0.31829793519E+02  0.00000000000E+00 0. -1.
</event>
<event>
 8    1  0.1280823E-010  0.9118800E+02  0.7816164E-02  0.1184000E+00
        -11   -1    0    0    0    0  0.00000000000E+00  0.00000000000E+00  0.45593999997E+02  0.45594000000E+02  0.51100000000E-03 0. -1.
         11   -1    0    0    0    0 -0.00000000000E+00 -0.00000000000E+00 -0.45593999997E+02  0.45594000000E+02  0.51100000000E-03 0.  1.
         23    2    1    2    0    0  0.00000000000E+00 -0.22204460493E-15  0.00000000000E+00  0.91188000000E+02  0.91188000000E+02 0.  0.
    9900012    2    3    3    0    0 -0.15414820778E+02 -0.19123718968E+01  0.40525905636E+02  0.47787275426E+02  0.20000019979E+02 0.  0.
        -12    1    3    3    0    0  0.15414820778E+02  0.19123718968E+01 -0.40525905636E+02  0.43400724574E+02  0.00000000000E+00 0.  1.
         11    1    4    4    0    0 -0.27706999765E+01 -0.76791813740E+01  0.13155102159E+02  0.15482355054E+02  0.51100000000E-03 0. -1.
        -11    1    4    4    0    0 -0.91547791197E+01 -0.13081703432E+01  0.15601897238E+02  0.18136716573E+02  0.51100000000E-03 0.  1.
        -12    1    4    4    0    0 -0.34893416816E+01  0.70749798204E+01  0.11768906239E+02  0.14168203799E+02  0.00000000000E+00 0.  1.
</event>
<event>
 8    1  0.1280823E-010  0.9118800E+02  0.7816164E-02  0.1184000E+00
        -11   -1    0    0    0    0  0.00000000000E+00  0.00000000000E+00  0.45593999997E+02  0.45594000000E+02  0.51100000000E-03 0. -1.
         11   -1    0    0    0    0 -0.00000000000E+00 -0.00000000000E+00 -0.45593999997E+02  0.45594000000E+02  0.51100000000E-03 0.  1.
         23    2    1    2    0    0  0.00000000000E+00  0.00000000000E+00  0.00000000000E+00  0.91188000000E+02  0.91188000000E+02 0.  0.
    9900012    2    3    3    0    0  0.17715503151E+02  0.38080543898E+02 -0.10938756379E+02  0.47787271129E+02  0.20000000385E+02 0.  0.
         12    1    3    3    0    0 -0.17715503151E+02 -0.38080543898E+02  0.10938756379E+02  0.43400728871E+02  0.00000000000E+00 0. -1.
         11    1    4    4    0    0  0.50633645761E+01  0.96670734521E+01 -0.77641896438E+01  0.13393006050E+02  0.51100000000E-03 0. -1.
        -11    1    4    4    0    0  0.16020261193E+01 -0.85281869775E+00  0.19840060204E+01  0.26888784964E+01  0.51100000000E-03 0.  1.
        -12    1    4    4    0    0  0.11050112455E+02  0.29266289143E+02 -0.51585727558E+01  0.31705386583E+02  0.00000000000E+00 0.  1.
</event>
<event>
 8    1  0.1280823E-010  0.9118800E+02  0.7816164E-02  0.1184000E+00
        -11   -1    0    0    0    0  0.00000000000E+00  0.00000000000E+00  0.45593999997E+02  0.45594000000E+02  0.51100000000E-03 0. -1.
         11   -1    0    0    0    0 -0.00000000000E+00 -0.00000000000E+00 -0.45593999997E+02  0.45594000000E+02  0.51100000000E-03 0.  1.
         23    2    1    2    0    0  0.71054273576E-14  0.00000000000E+00  0.00000000000E+00  0.91188000000E+02  0.91188000000E+02 0.  0.
    9900012    2    3    3    0    0  0.39669803365E+02  0.56763481771E+01  0.16664617189E+02  0.47787266207E+02  0.19999977946E+02 0.  0.
        -12    1    3    3    0    0 -0.39669803365E+02 -0.56763481771E+01 -0.16664617189E+02  0.43400733793E+02  0.00000000000E+00 0.  1.
         11    1    4    4    0    0  0.18362189455E+02  0.24616216581E+01  0.27424528847E+01  0.18728337643E+02  0.51100000000E-03 0. -1.
        -11    1    4    4    0    0  0.15717500934E+02  0.70248302883E+01  0.51274020797E+01  0.17963249387E+02  0.51100000000E-03 0.  1.
        -12    1    4    4    0    0  0.55901129761E+01 -0.38101037693E+01  0.87947622248E+01  0.11095679177E+02  0.00000000000E+00 0.  1.
</event>
<event>
 8    1  0.1280823E-010  0.9118800E+02  0.7816164E-02  0.1184000E+00
        -11   -1    0    0    0    0  0.00000000000E+00  0.00000000000E+00  0.45593999997E+02  0.45594000000E+02  0.51100000000E-03 0.  1.
         11   -1    0    0    0    0 -0.00000000000E+00 -0.00000000000E+00 -0.45593999997E+02  0.45594000000E+02  0.51100000000E-03 0. -1.
         23    2    1    2    0    0  0.00000000000E+00  0.17763568394E-14 -0.35527136788E-14  0.91188000000E+02  0.91188000000E+02 0.  0.
    9900012    2    3    3    0    0  0.39355758786E+02 -0.85506924626E+01 -0.16175129414E+02  0.47787252279E+02  0.19999914439E+02 0.  0.
         12    1    3    3    0    0 -0.39355758786E+02  0.85506924626E+01  0.16175129414E+02  0.43400747721E+02  0.00000000000E+00 0. -1.
         11    1    4    4    0    0  0.11998095574E+02 -0.97806633011E+01 -0.57883518605E+00  0.15490342877E+02  0.51100000000E-03 0. -1.
        -11    1    4    4    0    0  0.10471212436E+02 -0.20323629412E+01 -0.33378612943E+01  0.11176676934E+02  0.51100000000E-03 0.  1.
        -12    1    4    4    0    0  0.16886450776E+02  0.32623337797E+01 -0.12258432933E+02  0.21120232467E+02  0.00000000000E+00 0.  1.
</event>
<event>
 8    1  0.1280823E-010  0.9118800E+02  0.7816164E-02  0.1184000E+00
        -11   -1    0    0    0    0  0.00000000000E+00  0.00000000000E+00  0.45593999997E+02  0.45594000000E+02  0.51100000000E-03 0. -1.
         11   -1    0    0    0    0 -0.00000000000E+00 -0.00000000000E+00 -0.45593999997E+02  0.45594000000E+02  0.51100000000E-03 0.  1.
         23    2    1    2    0    0 -0.35527136788E-14  0.00000000000E+00  0.00000000000E+00  0.91188000000E+02  0.91188000000E+02 0.  0.
    9900012    2    3    3    0    0 -0.24295857399E+02 -0.84786969619E+01 -0.34949197897E+02  0.47787269331E+02  0.19999992189E+02 0.  0.
         12    1    3    3    0    0  0.24295857399E+02  0.84786969619E+01  0.34949197897E+02  0.43400730669E+02  0.00000000000E+00 0. -1.
         11    1    4    4    0    0 -0.65853612134E+01 -0.10328811826E+02 -0.13635801295E+02  0.18329932168E+02  0.51100000000E-03 0. -1.
        -11    1    4    4    0    0 -0.12602172075E+02 -0.33083604075E+01 -0.14613223195E+02  0.19578209367E+02  0.51100000000E-03 0.  1.
        -12    1    4    4    0    0 -0.51083241103E+01  0.51584752714E+01 -0.67001734068E+01  0.98791277967E+01  0.00000000000E+00 0.  1.
</event>
<event>
 8    1  0.1280823E-010  0.9118800E+02  0.7816164E-02  0.1184000E+00
        -11   -1    0    0    0    0  0.00000000000E+00  0.00000000000E+00  0.45593999997E+02  0.45594000000E+02  0.51100000000E-03 0. -1.
         11   -1    0    0    0    0 -0.00000000000E+00 -0.00000000000E+00 -0.45593999997E+02  0.45594000000E+02  0.51100000000E-03 0.  1.
         23    2    1    2    0    0  0.00000000000E+00  0.00000000000E+00  0.00000000000E+00  0.91188000000E+02  0.91188000000E+02 0.  0.
    9900012    2    3    3    0    0 -0.19221654368E+02 -0.16278818175E+02  0.35343334164E+02  0.47787272038E+02  0.20000004531E+02 0.  0.
        -12    1    3    3    0    0  0.19221654368E+02  0.16278818175E+02 -0.35343334164E+02  0.43400727962E+02  0.00000000000E+00 0.  1.
         11    1    4    4    0    0 -0.73522473577E+01 -0.16281705256E+01  0.60755917979E+01  0.96757065078E+01  0.51100000000E-03 0.  1.
        -11    1    4    4    0    0 -0.46759788480E+01  0.12605220528E+01  0.14350403782E+02  0.15145553242E+02  0.51100000000E-03 0. -1.
         12    1    4    4    0    0 -0.71934281627E+01 -0.15911169702E+02  0.14917338583E+02  0.22966012288E+02  0.00000000000E+00 0. -1.
</event>
<event>
 8    1  0.1280823E-010  0.9118800E+02  0.7816164E-02  0.1184000E+00
        -11   -1    0    0    0    0  0.00000000000E+00  0.00000000000E+00  0.45593999997E+02  0.45594000000E+02  0.51100000000E-03 0. -1.
         11   -1    0    0    0    0 -0.00000000000E+00 -0.00000000000E+00 -0.45593999997E+02  0.45594000000E+02  0.51100000000E-03 0.  1.
         23    2    1    2    0    0  0.17763568394E-14 -0.44408920985E-15  0.71054273576E-14  0.91188000000E+02  0.91188000000E+02 0.  0.
    9900012    2    3    3    0    0 -0.10752738736E+02 -0.39177794224E+01 -0.41864700059E+02  0.47787268474E+02  0.19999988282E+02 0.  0.
         12    1    3    3    0    0  0.10752738736E+02  0.39177794224E+01  0.41864700059E+02  0.43400731526E+02  0.00000000000E+00 0. -1.
         11    1    4    4    0    0 -0.79892316302E+01  0.31157762409E+01 -0.20155758267E+02  0.21904120051E+02  0.51100000000E-03 0. -1.
        -11    1    4    4    0    0 -0.34934421030E+01  0.47835229671E+00 -0.16095443199E+02  0.16477143281E+02  0.51100000000E-03 0.  1.
         12    1    4    4    0    0  0.72993499715E+00 -0.75119079599E+01 -0.56134985929E+01  0.94060051430E+01  0.00000000000E+00 0. -1.
</event>
<event>
 8    1  0.1280823E-010  0.9118800E+02  0.7816164E-02  0.1184000E+00
        -11   -1    0    0    0    0  0.00000000000E+00  0.00000000000E+00  0.45593999997E+02  0.45594000000E+02  0.51100000000E-03 0.  1.
         11   -1    0    0    0    0 -0.00000000000E+00 -0.00000000000E+00 -0.45593999997E+02  0.45594000000E+02  0.51100000000E-03 0. -1.
         23    2    1    2    0    0  0.00000000000E+00 -0.35527136788E-14  0.00000000000E+00  0.91188000000E+02  0.91188000000E+02 0.  0.
    9900012    2    3    3    0    0  0.23520792174E+02 -0.17300710087E+02  0.32110445303E+02  0.47787274988E+02  0.20000017982E+02 0.  0.
        -12    1    3    3    0    0 -0.23520792174E+02  0.17300710087E+02 -0.32110445303E+02  0.43400725012E+02  0.00000000000E+00 0.  1.
         11    1    4    4    0    0  0.36691801583E+01 -0.16908427438E+01  0.45878042944E+01  0.61130827512E+01  0.51100000000E-03 0. -1.
        -11    1    4    4    0    0 -0.35446073606E+01 -0.33514664695E+01  0.44438078493E+01  0.65987875629E+01  0.51100000000E-03 0.  1.
        -12    1    4    4    0    0  0.23396219377E+02 -0.12258400873E+02  0.23078833159E+02  0.35075404674E+02  0.00000000000E+00 0.  1.
</event>
<event>
 8    1  0.1280823E-010  0.9118800E+02  0.7816164E-02  0.1184000E+00
        -11   -1    0    0    0    0  0.00000000000E+00  0.00000000000E+00  0.45593999997E+02  0.45594000000E+02  0.51100000000E-03 0.  1.
         11   -1    0    0    0    0 -0.00000000000E+00 -0.00000000000E+00 -0.45593999997E+02  0.45594000000E+02  0.51100000000E-03 0. -1.
         23    2    1    2    0    0 -0.35527136788E-14  0.71054273576E-14  0.22204460493E-15  0.91188000000E+02  0.91188000000E+02 0.  0.
    9900012    2    3    3    0    0  0.23749603851E+02 -0.36280507708E+02  0.18177643478E+01  0.47787272012E+02  0.20000004413E+02 0.  0.
        -12    1    3    3    0    0 -0.23749603851E+02  0.36280507708E+02 -0.18177643478E+01  0.43400727988E+02  0.00000000000E+00 0.  1.
         11    1    4    4    0    0  0.89733023428E+01 -0.12634551318E+02 -0.59431973123E+01  0.16597398486E+02  0.51100000000E-03 0. -1.
        -11    1    4    4    0    0  0.17225484539E+01  0.10307558013E+01 -0.51483657298E+00  0.20723628196E+01  0.51100000000E-03 0.  1.
         12    1    4    4    0    0  0.13053753054E+02 -0.24676712192E+02  0.82757982330E+01  0.29117510707E+02  0.00000000000E+00 0. -1.
</event>
<event>
 8    1  0.1280823E-010  0.9118800E+02  0.7816164E-02  0.1184000E+00
        -11   -1    0    0    0    0  0.00000000000E+00  0.00000000000E+00  0.45593999997E+02  0.45594000000E+02  0.51100000000E-03 0. -1.
         11   -1    0    0    0    0 -0.00000000000E+00 -0.00000000000E+00 -0.45593999997E+02  0.45594000000E+02  0.51100000000E-03 0.  1.
         23    2    1    2    0    0 -0.35527136788E-14  0.00000000000E+00  0.00000000000E+00  0.91188000000E+02  0.91188000000E+02 0.  0.
    9900012    2    3    3    0    0 -0.26656388451E+02  0.20031676737E+02 -0.27781147491E+02  0.47787271042E+02  0.19999999990E+02 0.  0.
         12    1    3    3    0    0  0.26656388451E+02 -0.20031676737E+02  0.27781147491E+02  0.43400728958E+02  0.00000000000E+00 0. -1.
         11    1    4    4    0    0 -0.13621864292E+02  0.12555666074E+02 -0.13180822666E+02  0.22736183140E+02  0.51100000000E-03 0. -1.
        -11    1    4    4    0    0 -0.56939495936E+00  0.73229395546E+01 -0.27255338013E+01  0.78344233421E+01  0.51100000000E-03 0.  1.
        -12    1    4    4    0    0 -0.12465129199E+02  0.15307110865E+00 -0.11874791024E+02  0.17216664560E+02  0.00000000000E+00 0.  1.
</event>
<event>
 8    1  0.1280823E-010  0.9118800E+02  0.7816164E-02  0.1184000E+00
        -11   -1    0    0    0    0  0.00000000000E+00  0.00000000000E+00  0.45593999997E+02  0.45594000000E+02  0.51100000000E-03 0. -1.
         11   -1    0    0    0    0 -0.00000000000E+00 -0.00000000000E+00 -0.45593999997E+02  0.45594000000E+02  0.51100000000E-03 0.  1.
         23    2    1    2    0    0  0.00000000000E+00  0.00000000000E+00  0.00000000000E+00  0.91188000000E+02  0.91188000000E+02 0.  0.
    9900012    2    3    3    0    0  0.80757815963E+01  0.20852354271E+02 -0.37196562605E+02  0.47787271933E+02  0.20000004054E+02 0.  0.
         12    1    3    3    0    0 -0.80757815963E+01 -0.20852354271E+02  0.37196562605E+02  0.43400728067E+02  0.00000000000E+00 0. -1.
         11    1    4    4    0    0  0.20231292637E+00  0.87956085128E+01 -0.12342434829E+02  0.15157155320E+02  0.51100000000E-03 0. -1.
        -11    1    4    4    0    0 -0.51338669641E+00  0.20280963014E+01  0.19169064202E+01  0.28374761660E+01  0.51100000000E-03 0.  1.
        -12    1    4    4    0    0  0.83868553663E+01  0.10028649457E+02 -0.26771034197E+02  0.29792640448E+02  0.00000000000E+00 0.  1.
</event>
<event>
 8    1  0.1280823E-010  0.9118800E+02  0.7816164E-02  0.1184000E+00
        -11   -1    0    0    0    0  0.00000000000E+00  0.00000000000E+00  0.45593999997E+02  0.45594000000E+02  0.51100000000E-03 0.  1.
         11   -1    0    0    0    0 -0.00000000000E+00 -0.00000000000E+00 -0.45593999997E+02  0.45594000000E+02  0.51100000000E-03 0. -1.
         23    2    1    2    0    0  0.00000000000E+00  0.00000000000E+00  0.00000000000E+00  0.91188000000E+02  0.91188000000E+02 0.  0.
    9900012    2    3    3    0    0  0.14936203474E+02 -0.37437309128E+02 -0.16092891534E+02  0.47787269051E+02  0.19999990912E+02 0.  0.
         12    1    3    3    0    0 -0.14936203474E+02  0.37437309128E+02  0.16092891534E+02  0.43400730949E+02  0.00000000000E+00 0. -1.
         11    1    4    4    0    0  0.53227162965E+00  0.14730433922E+01 -0.19467154721E+01  0.24985738559E+01  0.51100000000E-03 0. -1.
        -11    1    4    4    0    0  0.59104917164E+00 -0.18273520444E+01  0.17927925820E+01  0.26272914039E+01  0.51100000000E-03 0.  1.
        -12    1    4    4    0    0  0.13812882672E+02 -0.37083000476E+02 -0.15938968644E+02  0.42661403791E+02  0.00000000000E+00 0.  1.
</event>
<event>
 8    1  0.1280823E-010  0.9118800E+02  0.7816164E-02  0.1184000E+00
        -11   -1    0    0    0    0  0.00000000000E+00  0.00000000000E+00  0.45593999997E+02  0.45594000000E+02  0.51100000000E-03 0.  1.
         11   -1    0    0    0    0 -0.00000000000E+00 -0.00000000000E+00 -0.45593999997E+02  0.45594000000E+02  0.51100000000E-03 0. -1.
         23    2    1    2    0    0  0.00000000000E+00  0.00000000000E+00 -0.13322676296E-14  0.91188000000E+02  0.91188000000E+02 0.  0.
    9900012    2    3    3    0    0  0.69543765850E+01 -0.42710966620E+02  0.33215448880E+01  0.47787277843E+02  0.20000030996E+02 0.  0.
         12    1    3    3    0    0 -0.69543765850E+01  0.42710966620E+02 -0.33215448880E+01  0.43400722157E+02  0.00000000000E+00 0. -1.
         11    1    4    4    0    0  0.34470355827E+01 -0.17494910325E+02 -0.57343265126E+01  0.18730628457E+02  0.51100000000E-03 0. -1.
        -11    1    4    4    0    0  0.49857752487E+01 -0.41873532456E+01  0.16956893606E+01  0.67280936901E+01  0.51100000000E-03 0.  1.
        -12    1    4    4    0    0 -0.14784342465E+01 -0.21028703050E+02  0.73601820400E+01  0.22328555695E+02  0.00000000000E+00 0.  1.
</event>
<event>
 8    1  0.1280823E-010  0.9118800E+02  0.7816164E-02  0.1184000E+00
        -11   -1    0    0    0    0  0.00000000000E+00  0.00000000000E+00  0.45593999997E+02  0.45594000000E+02  0.51100000000E-03 0. -1.
         11   -1    0    0    0    0 -0.00000000000E+00 -0.00000000000E+00 -0.45593999997E+02  0.45594000000E+02  0.51100000000E-03 0.  1.
         23    2    1    2    0    0  0.00000000000E+00  0.00000000000E+00  0.71054273576E-14  0.91188000000E+02  0.91188000000E+02 0.  0.
    9900012    2    3    3    0    0  0.18193669223E+02  0.16536580772E+02 -0.35765278001E+02  0.47787271735E+02  0.20000003149E+02 0.  0.
         12    1    3    3    0    0 -0.18193669223E+02 -0.16536580772E+02  0.35765278001E+02  0.43400728265E+02  0.00000000000E+00 0. -1.
         11    1    4    4    0    0  0.21690188411E+01  0.74500324951E+01 -0.12981067298E+02  0.15123350666E+02  0.51100000000E-03 0. -1.
        -11    1    4    4    0    0  0.94944363328E+01  0.51648446260E+01 -0.22591834327E+02  0.25044179360E+02  0.51100000000E-03 0.  1.
        -12    1    4    4    0    0  0.65302140489E+01  0.39217036511E+01 -0.19237637657E+00  0.76197417096E+01  0.00000000000E+00 0.  1.
</event>
<event>
 8    1  0.1280823E-010  0.9118800E+02  0.7816164E-02  0.1184000E+00
        -11   -1    0    0    0    0  0.00000000000E+00  0.00000000000E+00  0.45593999997E+02  0.45594000000E+02  0.51100000000E-03 0. -1.
         11   -1    0    0    0    0 -0.00000000000E+00 -0.00000000000E+00 -0.45593999997E+02  0.45594000000E+02  0.51100000000E-03 0.  1.
         23    2    1    2    0    0 -0.88817841970E-15  0.00000000000E+00 -0.71054273576E-14  0.91188000000E+02  0.91188000000E+02 0.  0.
    9900012    2    3    3    0    0 -0.50834119759E+01 -0.24949877503E+01 -0.43029726072E+02  0.47787269971E+02  0.19999995107E+02 0.  0.
         12    1    3    3    0    0  0.50834119759E+01  0.24949877503E+01  0.43029726072E+02  0.43400730029E+02  0.00000000000E+00 0. -1.
         11    1    4    4    0    0  0.35387309732E+01 -0.15372922262E+01 -0.77945244856E+01  0.86971545064E+01  0.51100000000E-03 0. -1.
        -11    1    4    4    0    0  0.10837363052E+01 -0.55854484811E+01 -0.16929168923E+02  0.17859688681E+02  0.51100000000E-03 0.  1.
         12    1    4    4    0    0 -0.97058792544E+01  0.46277529571E+01 -0.18306032664E+02  0.21230426784E+02  0.00000000000E+00 0. -1.
</event>
<event>
 8    1  0.1280823E-010  0.9118800E+02  0.7816164E-02  0.1184000E+00
        -11   -1    0    0    0    0  0.00000000000E+00  0.00000000000E+00  0.45593999997E+02  0.45594000000E+02  0.51100000000E-03 0. -1.
         11   -1    0    0    0    0 -0.00000000000E+00 -0.00000000000E+00 -0.45593999997E+02  0.45594000000E+02  0.51100000000E-03 0.  1.
         23    2    1    2    0    0  0.35527136788E-14 -0.17763568394E-14  0.00000000000E+00  0.91188000000E+02  0.91188000000E+02 0.  0.
    9900012    2    3    3    0    0 -0.18966837388E+02  0.12130511971E+02 -0.37104351954E+02  0.47787272182E+02  0.20000005189E+02 0.  0.
         12    1    3    3    0    0  0.18966837388E+02 -0.12130511971E+02  0.37104351954E+02  0.43400727818E+02  0.00000000000E+00 0. -1.
         11    1    4    4    0    0 -0.14567017480E+02  0.14974872751E+02 -0.22388026889E+02  0.30621374241E+02  0.51100000000E-03 0. -1.
        -11    1    4    4    0    0 -0.59354632133E+01 -0.44142619214E+00 -0.92280564611E+01  0.10980965666E+02  0.51100000000E-03 0.  1.
         12    1    4    4    0    0  0.15356433050E+01 -0.24029345876E+01 -0.54882686035E+01  0.61849322758E+01  0.00000000000E+00 0. -1.
</event>
<event>
 8    1  0.1280823E-010  0.9118800E+02  0.7816164E-02  0.1184000E+00
        -11   -1    0    0    0    0  0.00000000000E+00  0.00000000000E+00  0.45593999997E+02  0.45594000000E+02  0.51100000000E-03 0. -1.
         11   -1    0    0    0    0 -0.00000000000E+00 -0.00000000000E+00 -0.45593999997E+02  0.45594000000E+02  0.51100000000E-03 0.  1.
         23    2    1    2    0    0 -0.71054273576E-14  0.00000000000E+00  0.00000000000E+00  0.91188000000E+02  0.91188000000E+02 0.  0.
    9900012    2    3    3    0    0 -0.38039160030E+02  0.25428534098E+01  0.20740692316E+02  0.47787307413E+02  0.20000165819E+02 0.  0.
        -12    1    3    3    0    0  0.38039160030E+02 -0.25428534098E+01 -0.20740692316E+02  0.43400692587E+02  0.00000000000E+00 0.  1.
         11    1    4    4    0    0 -0.20345877715E+02  0.88926521286E+00  0.13443231479E+02  0.24402172147E+02  0.51100000000E-03 0. -1.
        -11    1    4    4    0    0 -0.16753496701E+02 -0.32871217277E+01  0.46173216058E+01  0.17686279429E+02  0.51100000000E-03 0.  1.
        -12    1    4    4    0    0 -0.93978561398E+00  0.49407099246E+01  0.26801392312E+01  0.56988558376E+01  0.00000000000E+00 0.  1.
</event>
<event>
 8    1  0.1280823E-010  0.9118800E+02  0.7816164E-02  0.1184000E+00
        -11   -1    0    0    0    0  0.00000000000E+00  0.00000000000E+00  0.45593999997E+02  0.45594000000E+02  0.51100000000E-03 0. -1.
         11   -1    0    0    0    0 -0.00000000000E+00 -0.00000000000E+00 -0.45593999997E+02  0.45594000000E+02  0.51100000000E-03 0.  1.
         23    2    1    2    0    0  0.00000000000E+00  0.35527136788E-14  0.00000000000E+00  0.91188000000E+02  0.91188000000E+02 0.  0.
    9900012    2    3    3    0    0 -0.11455437524E+02  0.23036573644E+02 -0.34953000069E+02  0.47787274339E+02  0.20000015019E+02 0.  0.
         12    1    3    3    0    0  0.11455437524E+02 -0.23036573644E+02  0.34953000069E+02  0.43400725661E+02  0.00000000000E+00 0. -1.
         11    1    4    4    0    0 -0.97845247456E+01  0.16335452162E+02 -0.11081462809E+02  0.22031403498E+02  0.51100000000E-03 0. -1.
        -11    1    4    4    0    0 -0.33833242769E+01  0.60684419929E+01 -0.13077757044E+02  0.14808801469E+02  0.51100000000E-03 0.  1.
         12    1    4    4    0    0  0.17124114989E+01  0.63267948928E+00 -0.10793780216E+02  0.10947069372E+02  0.00000000000E+00 0. -1.
</event>
<event>
 8    1  0.1280823E-010  0.9118800E+02  0.7816164E-02  0.1184000E+00
        -11   -1    0    0    0    0  0.00000000000E+00  0.00000000000E+00  0.45593999997E+02  0.45594000000E+02  0.51100000000E-03 0.  1.
         11   -1    0    0    0    0 -0.00000000000E+00 -0.00000000000E+00 -0.45593999997E+02  0.45594000000E+02  0.51100000000E-03 0. -1.
         23    2    1    2    0    0 -0.71054273576E-14 -0.35527136788E-14 -0.35527136788E-14  0.91188000000E+02  0.91188000000E+02 0.  0.
    9900012    2    3    3    0    0  0.39102663707E+02 -0.13239088419E+02 -0.13391474111E+02  0.47787270168E+02  0.19999996002E+02 0.  0.
        -12    1    3    3    0    0 -0.39102663707E+02  0.13239088419E+02  0.13391474111E+02  0.43400729832E+02  0.00000000000E+00 0.  1.
         11    1    4    4    0    0  0.26448741709E+02 -0.11604429910E+02 -0.94137352518E+01  0.30377905510E+02  0.51100000000E-03 0. -1.
        -11    1    4    4    0    0  0.10581476437E+02 -0.79562657537E+00 -0.76698589280E+01  0.13093028735E+02  0.51100000000E-03 0.  1.
        -12    1    4    4    0    0  0.20724455616E+01 -0.83903193313E+00  0.36921200692E+01  0.43163359225E+01  0.00000000000E+00 0.  1.
</event>
<event>
 8    1  0.1280823E-010  0.9118800E+02  0.7816164E-02  0.1184000E+00
        -11   -1    0    0    0    0  0.00000000000E+00  0.00000000000E+00  0.45593999997E+02  0.45594000000E+02  0.51100000000E-03 0. -1.
         11   -1    0    0    0    0 -0.00000000000E+00 -0.00000000000E+00 -0.45593999997E+02  0.45594000000E+02  0.51100000000E-03 0.  1.
         23    2    1    2    0    0  0.00000000000E+00  0.00000000000E+00  0.00000000000E+00  0.91188000000E+02  0.91188000000E+02 0.  0.
    9900012    2    3    3    0    0  0.33549008902E+02  0.22930891096E+02 -0.15240121749E+02  0.47787273327E+02  0.20000010409E+02 0.  0.
         12    1    3    3    0    0 -0.33549008902E+02 -0.22930891096E+02  0.15240121749E+02  0.43400726673E+02  0.00000000000E+00 0. -1.
         11    1    4    4    0    0  0.88077621423E+01  0.52548029461E+01  0.22702624405E+01  0.10504461898E+02  0.51100000000E-03 0. -1.
        -11    1    4    4    0    0  0.97144081751E+01  0.13481922966E+02 -0.52068080810E+01  0.17413868717E+02  0.51100000000E-03 0.  1.
         12    1    4    4    0    0  0.15026838585E+02  0.41941651846E+01 -0.12303576108E+02  0.19868942712E+02  0.00000000000E+00 0. -1.
</event>
<event>
 8    1  0.1280823E-010  0.9118800E+02  0.7816164E-02  0.1184000E+00
        -11   -1    0    0    0    0  0.00000000000E+00  0.00000000000E+00  0.45593999997E+02  0.45594000000E+02  0.51100000000E-03 0. -1.
         11   -1    0    0    0    0 -0.00000000000E+00 -0.00000000000E+00 -0.45593999997E+02  0.45594000000E+02  0.51100000000E-03 0.  1.
         23    2    1    2    0    0  0.00000000000E+00  0.00000000000E+00  0.00000000000E+00  0.91188000000E+02  0.91188000000E+02 0.  0.
    9900012    2    3    3    0    0 -0.86597536671E+01 -0.15931331672E+02  0.39431265065E+02  0.47787270432E+02  0.19999997207E+02 0.  0.
        -12    1    3    3    0    0  0.86597536671E+01  0.15931331672E+02 -0.39431265065E+02  0.43400729568E+02  0.00000000000E+00 0.  1.
         11    1    4    4    0    0 -0.14578348866E+02 -0.71175652421E+01  0.25108014526E+02  0.29893149455E+02  0.51100000000E-03 0. -1.
        -11    1    4    4    0    0  0.85772068049E+00 -0.50025521662E+00  0.12997763567E+01  0.16356524344E+01  0.51100000000E-03 0.  1.
         12    1    4    4    0    0  0.50608745180E+01 -0.83135112130E+01  0.13023474182E+02  0.16258468543E+02  0.00000000000E+00 0. -1.
</event>
<event>
 8    1  0.1280823E-010  0.9118800E+02  0.7816164E-02  0.1184000E+00
        -11   -1    0    0    0    0  0.00000000000E+00  0.00000000000E+00  0.45593999997E+02  0.45594000000E+02  0.51100000000E-03 0.  1.
         11   -1    0    0    0    0 -0.00000000000E+00 -0.00000000000E+00 -0.45593999997E+02  0.45594000000E+02  0.51100000000E-03 0. -1.
         23    2    1    2    0    0 -0.35527136788E-14  0.35527136788E-14  0.00000000000E+00  0.91188000000E+02  0.91188000000E+02 0.  0.
    9900012    2    3    3    0    0 -0.31712174971E+02 -0.22627799790E+02  0.19129629378E+02  0.47787284743E+02  0.20000062456E+02 0.  0.
        -12    1    3    3    0    0  0.31712174971E+02  0.22627799790E+02 -0.19129629378E+02  0.43400715257E+02  0.00000000000E+00 0.  1.
         11    1    4    4    0    0 -0.60281621685E+01 -0.16130630475E+01  0.16136584552E+01  0.64455104837E+01  0.51100000000E-03 0. -1.
        -11    1    4    4    0    0 -0.82140803916E+01 -0.16267833015E+02  0.37668743341E+01  0.18609214121E+02  0.51100000000E-03 0.  1.
         12    1    4    4    0    0 -0.17469932411E+02 -0.47469037273E+01  0.13749096589E+02  0.22732560138E+02  0.00000000000E+00 0. -1.
</event>
<event>
 8    1  0.1280823E-010  0.9118800E+02  0.7816164E-02  0.1184000E+00
        -11   -1    0    0    0    0  0.00000000000E+00  0.00000000000E+00  0.45593999997E+02  0.45594000000E+02  0.51100000000E-03 0. -1.
         11   -1    0    0    0    0 -0.00000000000E+00 -0.00000000000E+00 -0.45593999997E+02  0.45594000000E+02  0.51100000000E-03 0.  1.
         23    2    1    2    0    0  0.35527136788E-14 -0.35527136788E-14  0.00000000000E+00  0.91188000000E+02  0.91188000000E+02 0.  0.
    9900012    2    3    3    0    0 -0.29120930990E+02  0.20299568915E+02 -0.24970422045E+02  0.47787273083E+02  0.20000009293E+02 0.  0.
         12    1    3    3    0    0  0.29120930990E+02 -0.20299568915E+02  0.24970422045E+02  0.43400726917E+02  0.00000000000E+00 0. -1.
         11    1    4    4    0    0 -0.50167668633E+01  0.12380780196E+02 -0.69047904881E+01  0.15037546342E+02  0.51100000000E-03 0. -1.
        -11    1    4    4    0    0 -0.86210769015E+01  0.64550900866E+01 -0.11818985633E+02  0.15989983634E+02  0.51100000000E-03 0.  1.
         12    1    4    4    0    0 -0.15483087225E+02  0.14636986318E+01 -0.62466459239E+01  0.16759743107E+02  0.00000000000E+00 0. -1.
</event>
<event>
 8    1  0.1280823E-010  0.9118800E+02  0.7816164E-02  0.1184000E+00
        -11   -1    0    0    0    0  0.00000000000E+00  0.00000000000E+00  0.45593999997E+02  0.45594000000E+02  0.51100000000E-03 0. -1.
         11   -1    0    0    0    0 -0.00000000000E+00 -0.00000000000E+00 -0.45593999997E+02  0.45594000000E+02  0.51100000000E-03 0.  1.
         23    2    1    2    0    0 -0.22204460493E-15  0.00000000000E+00  0.00000000000E+00  0.91188000000E+02  0.91188000000E+02 0.  0.
    9900012    2    3    3    0    0 -0.12648691574E+01  0.10314766595E+02 -0.42138205419E+02  0.47787278119E+02  0.20000032254E+02 0.  0.
         12    1    3    3    0    0  0.12648691574E+01 -0.10314766595E+02  0.42138205419E+02  0.43400721881E+02  0.00000000000E+00 0. -1.
         11    1    4    4    0    0  0.33430259392E+01  0.87643602857E+01 -0.17522714961E+02  0.19875496811E+02  0.51100000000E-03 0. -1.
        -11    1    4    4    0    0 -0.26989531033E+01  0.37089490198E+01 -0.24606315989E+02  0.25030210496E+02  0.51100000000E-03 0.  1.
         12    1    4    4    0    0 -0.19089419933E+01 -0.21585427104E+01 -0.91744693308E-02  0.28815708107E+01  0.00000000000E+00 0. -1.
</event>
<event>
 8    1  0.1280823E-010  0.9118800E+02  0.7816164E-02  0.1184000E+00
        -11   -1    0    0    0    0  0.00000000000E+00  0.00000000000E+00  0.45593999997E+02  0.45594000000E+02  0.51100000000E-03 0. -1.
         11   -1    0    0    0    0 -0.00000000000E+00 -0.00000000000E+00 -0.45593999997E+02  0.45594000000E+02  0.51100000000E-03 0.  1.
         23    2    1    2    0    0  0.00000000000E+00  0.88817841970E-15  0.00000000000E+00  0.91188000000E+02  0.91188000000E+02 0.  0.
    9900012    2    3    3    0    0 -0.21278050442E+02 -0.58187465077E+01  0.37376592092E+02  0.47787275606E+02  0.20000020798E+02 0.  0.
        -12    1    3    3    0    0  0.21278050442E+02  0.58187465077E+01 -0.37376592092E+02  0.43400724394E+02  0.00000000000E+00 0.  1.
         11    1    4    4    0    0 -0.55408922996E+01 -0.69151232679E+01  0.15613899310E+02  0.17953113079E+02  0.51100000000E-03 0. -1.
        -11    1    4    4    0    0 -0.57360329779E+01 -0.44417826286E+01  0.29737699845E+01  0.78405876964E+01  0.51100000000E-03 0.  1.
        -12    1    4    4    0    0 -0.10001125165E+02  0.55381593888E+01  0.18788922797E+02  0.21993574831E+02  0.00000000000E+00 0.  1.
</event>
<event>
 8    1  0.1280823E-010  0.9118800E+02  0.7816164E-02  0.1184000E+00
        -11   -1    0    0    0    0  0.00000000000E+00  0.00000000000E+00  0.45593999997E+02  0.45594000000E+02  0.51100000000E-03 0.  1.
         11   -1    0    0    0    0 -0.00000000000E+00 -0.00000000000E+00 -0.45593999997E+02  0.45594000000E+02  0.51100000000E-03 0. -1.
         23    2    1    2    0    0  0.00000000000E+00  0.00000000000E+00 -0.44408920985E-15  0.91188000000E+02  0.91188000000E+02 0.  0.
    9900012    2    3    3    0    0 -0.40813670129E+02  0.14484851418E+02  0.28383941848E+01  0.47787273376E+02  0.20000010629E+02 0.  0.
         12    1    3    3    0    0  0.40813670129E+02 -0.14484851418E+02 -0.28383941848E+01  0.43400726624E+02  0.00000000000E+00 0. -1.
         11    1    4    4    0    0 -0.17562581355E+02  0.43244751754E+01  0.43771057344E+01  0.18609255876E+02  0.51100000000E-03 0. -1.
        -11    1    4    4    0    0 -0.12598167215E+02 -0.14179822900E+01 -0.39096587744E+01  0.13266873141E+02  0.51100000000E-03 0.  1.
         12    1    4    4    0    0 -0.10652921558E+02  0.11578358533E+02  0.23709472248E+01  0.15911144358E+02  0.00000000000E+00 0. -1.
</event>
<event>
 8    1  0.1280823E-010  0.9118800E+02  0.7816164E-02  0.1184000E+00
        -11   -1    0    0    0    0  0.00000000000E+00  0.00000000000E+00  0.45593999997E+02  0.45594000000E+02  0.51100000000E-03 0. -1.
         11   -1    0    0    0    0 -0.00000000000E+00 -0.00000000000E+00 -0.45593999997E+02  0.45594000000E+02  0.51100000000E-03 0.  1.
         23    2    1    2    0    0  0.17763568394E-14  0.00000000000E+00  0.00000000000E+00  0.91188000000E+02  0.91188000000E+02 0.  0.
    9900012    2    3    3    0    0  0.77757889250E+01 -0.23630460801E+02  0.35563557777E+02  0.47787214145E+02  0.19999740572E+02 0.  0.
        -12    1    3    3    0    0 -0.77757889250E+01  0.23630460801E+02 -0.35563557777E+02  0.43400785855E+02  0.00000000000E+00 0.  1.
         11    1    4    4    0    0 -0.19459450487E+01 -0.54758085298E+01  0.48112184725E+01  0.75444684795E+01  0.51100000000E-03 0. -1.
        -11    1    4    4    0    0 -0.28710193307E+01 -0.26784310191E+01  0.43690819958E+00  0.39506497893E+01  0.51100000000E-03 0.  1.
        -12    1    4    4    0    0  0.12592753304E+02 -0.15476221252E+02  0.30315431105E+02  0.36292095876E+02  0.00000000000E+00 0.  1.
</event>
<event>
 8    1  0.1280823E-010  0.9118800E+02  0.7816164E-02  0.1184000E+00
        -11   -1    0    0    0    0  0.00000000000E+00  0.00000000000E+00  0.45593999997E+02  0.45594000000E+02  0.51100000000E-03 0. -1.
         11   -1    0    0    0    0 -0.00000000000E+00 -0.00000000000E+00 -0.45593999997E+02  0.45594000000E+02  0.51100000000E-03 0.  1.
         23    2    1    2    0    0  0.00000000000E+00  0.71054273576E-14  0.00000000000E+00  0.91188000000E+02  0.91188000000E+02 0.  0.
    9900012    2    3    3    0    0  0.16947742826E+02  0.33894814364E+02 -0.21155108458E+02  0.47787273721E+02  0.20000012203E+02 0.  0.
         12    1    3    3    0    0 -0.16947742826E+02 -0.33894814364E+02  0.21155108458E+02  0.43400726279E+02  0.00000000000E+00 0. -1.
         11    1    4    4    0    0  0.71236045931E+00  0.60315297206E+01 -0.62980531248E+00  0.61060186036E+01  0.51100000000E-03 0. -1.
        -11    1    4    4    0    0  0.23058220231E+01  0.73857966925E+01 -0.14118844370E+02  0.16099955733E+02  0.51100000000E-03 0.  1.
        -12    1    4    4    0    0  0.13929560344E+02  0.20477487951E+02 -0.64064587751E+01  0.25581299385E+02  0.00000000000E+00 0.  1.
</event>
<event>
 8    1  0.1280823E-010  0.9118800E+02  0.7816164E-02  0.1184000E+00
        -11   -1    0    0    0    0  0.00000000000E+00  0.00000000000E+00  0.45593999997E+02  0.45594000000E+02  0.51100000000E-03 0. -1.
         11   -1    0    0    0    0 -0.00000000000E+00 -0.00000000000E+00 -0.45593999997E+02  0.45594000000E+02  0.51100000000E-03 0.  1.
         23    2    1    2    0    0 -0.35527136788E-14  0.35527136788E-14 -0.35527136788E-14  0.91188000000E+02  0.91188000000E+02 0.  0.
    9900012    2    3    3    0    0  0.24826745674E+02 -0.24514240189E+02  0.25812936095E+02  0.47787274860E+02  0.20000017397E+02 0.  0.
        -12    1    3    3    0    0 -0.24826745674E+02  0.24514240189E+02 -0.25812936095E+02  0.43400725140E+02  0.00000000000E+00 0.  1.
         11    1    4    4    0    0  0.78277480936E+00  0.24285968297E+00 -0.75734432580E+00  0.11159246913E+01  0.51100000000E-03 0. -1.
        -11    1    4    4    0    0  0.93062117046E+00  0.20398996928E+01 -0.26700760531E+00  0.22579946505E+01  0.51100000000E-03 0.  1.
         12    1    4    4    0    0  0.23113349694E+02 -0.26796999565E+02  0.26837288026E+02  0.44413355518E+02  0.00000000000E+00 0. -1.
</event>
<event>
 8    1  0.1280823E-010  0.9118800E+02  0.7816164E-02  0.1184000E+00
        -11   -1    0    0    0    0  0.00000000000E+00  0.00000000000E+00  0.45593999997E+02  0.45594000000E+02  0.51100000000E-03 0. -1.
         11   -1    0    0    0    0 -0.00000000000E+00 -0.00000000000E+00 -0.45593999997E+02  0.45594000000E+02  0.51100000000E-03 0.  1.
         23    2    1    2    0    0  0.00000000000E+00  0.00000000000E+00  0.00000000000E+00  0.91188000000E+02  0.91188000000E+02 0.  0.
    9900012    2    3    3    0    0 -0.33701583496E+01 -0.22135373468E+02  0.37179169518E+02  0.47787269915E+02  0.19999994852E+02 0.  0.
        -12    1    3    3    0    0  0.33701583496E+01  0.22135373468E+02 -0.37179169518E+02  0.43400730085E+02  0.00000000000E+00 0.  1.
         11    1    4    4    0    0  0.33970809638E+00 -0.58885395164E+01  0.15060738671E+02  0.16174552507E+02  0.51100000000E-03 0. -1.
        -11    1    4    4    0    0 -0.43753407405E+01 -0.75258357808E+01  0.21077740827E+02  0.22804669904E+02  0.51100000000E-03 0.  1.
        -12    1    4    4    0    0  0.66547429454E+00 -0.87209981705E+01  0.10406900203E+01  0.88080475046E+01  0.00000000000E+00 0.  1.
</event>
<event>
 8    1  0.1280823E-010  0.9118800E+02  0.7816164E-02  0.1184000E+00
        -11   -1    0    0    0    0  0.00000000000E+00  0.00000000000E+00  0.45593999997E+02  0.45594000000E+02  0.51100000000E-03 0. -1.
         11   -1    0    0    0    0 -0.00000000000E+00 -0.00000000000E+00 -0.45593999997E+02  0.45594000000E+02  0.51100000000E-03 0.  1.
         23    2    1    2    0    0  0.00000000000E+00  0.00000000000E+00  0.00000000000E+00  0.91188000000E+02  0.91188000000E+02 0.  0.
    9900012    2    3    3    0    0  0.17326371927E+02 -0.77219951623E+01  0.39035762346E+02  0.47787272871E+02  0.20000008326E+02 0.  0.
        -12    1    3    3    0    0 -0.17326371927E+02  0.77219951623E+01 -0.39035762346E+02  0.43400727129E+02  0.00000000000E+00 0.  1.
         11    1    4    4    0    0  0.28276441516E+01  0.25132986974E+01  0.34205457265E+01  0.51002328494E+01  0.51100000000E-03 0. -1.
        -11    1    4    4    0    0 -0.67911507607E+00 -0.75420770118E+01  0.77076339012E+01  0.10805172074E+02  0.51100000000E-03 0.  1.
        -12    1    4    4    0    0  0.15177842851E+02 -0.26932168479E+01  0.27907582718E+02  0.31881867947E+02  0.00000000000E+00 0.  1.
</event>
<event>
 8    1  0.1280823E-010  0.9118800E+02  0.7816164E-02  0.1184000E+00
        -11   -1    0    0    0    0  0.00000000000E+00  0.00000000000E+00  0.45593999997E+02  0.45594000000E+02  0.51100000000E-03 0. -1.
         11   -1    0    0    0    0 -0.00000000000E+00 -0.00000000000E+00 -0.45593999997E+02  0.45594000000E+02  0.51100000000E-03 0.  1.
         23    2    1    2    0    0  0.00000000000E+00  0.35527136788E-14  0.17763568394E-14  0.91188000000E+02  0.91188000000E+02 0.  0.
    9900012    2    3    3    0    0 -0.35749396343E+02 -0.19789010499E+02 -0.14628792642E+02  0.47787241371E+02  0.19999864707E+02 0.  0.
         12    1    3    3    0    0  0.35749396343E+02  0.19789010499E+02  0.14628792642E+02  0.43400758629E+02  0.00000000000E+00 0. -1.
         11    1    4    4    0    0 -0.12870993961E+02 -0.60930895258E+01  0.10504676904E+01  0.14279065381E+02  0.51100000000E-03 0. -1.
        -11    1    4    4    0    0 -0.10270520503E+02 -0.10221939155E+02 -0.20762628735E+01  0.14638391281E+02  0.51100000000E-03 0.  1.
         12    1    4    4    0    0 -0.12607881878E+02 -0.34739818178E+01 -0.13602997459E+02  0.18869784710E+02  0.00000000000E+00 0. -1.
</event>
<event>
 8    1  0.1280823E-010  0.9118800E+02  0.7816164E-02  0.1184000E+00
        -11   -1    0    0    0    0  0.00000000000E+00  0.00000000000E+00  0.45593999997E+02  0.45594000000E+02  0.51100000000E-03 0. -1.
         11   -1    0    0    0    0 -0.00000000000E+00 -0.00000000000E+00 -0.45593999997E+02  0.45594000000E+02  0.51100000000E-03 0.  1.
         23    2    1    2    0    0  0.00000000000E+00  0.00000000000E+00  0.71054273576E-14  0.91188000000E+02  0.91188000000E+02 0.  0.
    9900012    2    3    3    0    0  0.43411568994E+00  0.79628731199E+01  0.42661774579E+02  0.47787276331E+02  0.20000024105E+02 0.  0.
        -12    1    3    3    0    0 -0.43411568994E+00 -0.79628731199E+01 -0.42661774579E+02  0.43400723669E+02  0.00000000000E+00 0.  1.
         11    1    4    4    0    0  0.10301442342E+01  0.48804029241E+01  0.55296791420E+01  0.74469377276E+01  0.51100000000E-03 0. -1.
        -11    1    4    4    0    0 -0.41169207473E+01  0.43652666671E+00  0.14486754286E+01  0.43861432636E+01  0.51100000000E-03 0.  1.
         12    1    4    4    0    0  0.35208922030E+01  0.26459435291E+01  0.35683420008E+02  0.35954195340E+02  0.00000000000E+00 0. -1.
</event>
<event>
 8    1  0.1280823E-010  0.9118800E+02  0.7816164E-02  0.1184000E+00
        -11   -1    0    0    0    0  0.00000000000E+00  0.00000000000E+00  0.45593999997E+02  0.45594000000E+02  0.51100000000E-03 0. -1.
         11   -1    0    0    0    0 -0.00000000000E+00 -0.00000000000E+00 -0.45593999997E+02  0.45594000000E+02  0.51100000000E-03 0.  1.
         23    2    1    2    0    0 -0.29976021665E-14  0.00000000000E+00  0.00000000000E+00  0.91188000000E+02  0.91188000000E+02 0.  0.
    9900012    2    3    3    0    0  0.86236473030E+00 -0.82563591732E+01  0.42599435506E+02  0.47787273680E+02  0.20000012015E+02 0.  0.
        -12    1    3    3    0    0 -0.86236473030E+00  0.82563591732E+01 -0.42599435506E+02  0.43400726320E+02  0.00000000000E+00 0.  1.
         11    1    4    4    0    0 -0.18131662042E+01  0.12239647440E+01  0.99937948149E+01  0.10230425037E+02  0.51100000000E-03 0.  1.
        -11    1    4    4    0    0 -0.63507047261E+01 -0.42378853134E+01  0.93875312768E+01  0.12100283723E+02  0.51100000000E-03 0. -1.
        -12    1    4    4    0    0  0.90262356606E+01 -0.52424386039E+01  0.23218109414E+02  0.25456564919E+02  0.00000000000E+00 0.  1.
</event>
<event>
 8    1  0.1280823E-010  0.9118800E+02  0.7816164E-02  0.1184000E+00
        -11   -1    0    0    0    0  0.00000000000E+00  0.00000000000E+00  0.45593999997E+02  0.45594000000E+02  0.51100000000E-03 0. -1.
         11   -1    0    0    0    0 -0.00000000000E+00 -0.00000000000E+00 -0.45593999997E+02  0.45594000000E+02  0.51100000000E-03 0.  1.
         23    2    1    2    0    0  0.00000000000E+00  0.00000000000E+00  0.00000000000E+00  0.91188000000E+02  0.91188000000E+02 0.  0.
    9900012    2    3    3    0    0  0.15465757140E+02  0.34079679430E+02  0.21977474051E+02  0.47787267752E+02  0.19999984990E+02 0.  0.
        -12    1    3    3    0    0 -0.15465757140E+02 -0.34079679430E+02 -0.21977474051E+02  0.43400732248E+02  0.00000000000E+00 0.  1.
         11    1    4    4    0    0 -0.35899422080E+00  0.57784406198E+01  0.54674908068E+01  0.79632097066E+01  0.51100000000E-03 0. -1.
        -11    1    4    4    0    0  0.76783868020E+01  0.10236244956E+01  0.41586069767E+01  0.87920101932E+01  0.51100000000E-03 0.  1.
        -12    1    4    4    0    0  0.81463645590E+01  0.27277614315E+02  0.12351376267E+02  0.31032047853E+02  0.00000000000E+00 0.  1.
</event>
<event>
 8    1  0.1280823E-010  0.9118800E+02  0.7816164E-02  0.1184000E+00
        -11   -1    0    0    0    0  0.00000000000E+00  0.00000000000E+00  0.45593999997E+02  0.45594000000E+02  0.51100000000E-03 0. -1.
         11   -1    0    0    0    0 -0.00000000000E+00 -0.00000000000E+00 -0.45593999997E+02  0.45594000000E+02  0.51100000000E-03 0.  1.
         23    2    1    2    0    0  0.00000000000E+00  0.17763568394E-14  0.35527136788E-14  0.91188000000E+02  0.91188000000E+02 0.  0.
    9900012    2    3    3    0    0 -0.27560827125E+02  0.15764691346E+02 -0.29588818831E+02  0.47787275526E+02  0.20000020435E+02 0.  0.
         12    1    3    3    0    0  0.27560827125E+02 -0.15764691346E+02  0.29588818831E+02  0.43400724474E+02  0.00000000000E+00 0. -1.
         11    1    4    4    0    0 -0.11996803191E+02  0.65818578983E+01 -0.14033128110E+02  0.19600327166E+02  0.51100000000E-03 0. -1.
        -11    1    4    4    0    0 -0.12261293907E+02  0.13031511487E+02 -0.94022438595E+01  0.20212911957E+02  0.51100000000E-03 0.  1.
         12    1    4    4    0    0 -0.33027300263E+01 -0.38486780402E+01 -0.61534468618E+01  0.79740364035E+01  0.00000000000E+00 0. -1.
</event>
<event>
 8    1  0.1280823E-010  0.9118800E+02  0.7816164E-02  0.1184000E+00
        -11   -1    0    0    0    0  0.00000000000E+00  0.00000000000E+00  0.45593999997E+02  0.45594000000E+02  0.51100000000E-03 0. -1.
         11   -1    0    0    0    0 -0.00000000000E+00 -0.00000000000E+00 -0.45593999997E+02  0.45594000000E+02  0.51100000000E-03 0.  1.
         23    2    1    2    0    0  0.00000000000E+00  0.35527136788E-14  0.44408920985E-15  0.91188000000E+02  0.91188000000E+02 0.  0.
    9900012    2    3    3    0    0 -0.35304595330E+02 -0.25050791373E+02 -0.31090990169E+01  0.47787273087E+02  0.20000009315E+02 0.  0.
        -12    1    3    3    0    0  0.35304595330E+02  0.25050791373E+02  0.31090990169E+01  0.43400726913E+02  0.00000000000E+00 0.  1.
         11    1    4    4    0    0 -0.43585235516E+01 -0.87867925799E+01 -0.23603167473E+01  0.10088386729E+02  0.51100000000E-03 0. -1.
        -11    1    4    4    0    0 -0.23801297604E+02 -0.17919560288E+02 -0.32043366915E+01  0.29964648879E+02  0.51100000000E-03 0.  1.
        -12    1    4    4    0    0 -0.71447741742E+01  0.16555614944E+01  0.24555544219E+01  0.77342374790E+01  0.00000000000E+00 0.  1.
</event>
<event>
 8    1  0.1280823E-010  0.9118800E+02  0.7816164E-02  0.1184000E+00
        -11   -1    0    0    0    0  0.00000000000E+00  0.00000000000E+00  0.45593999997E+02  0.45594000000E+02  0.51100000000E-03 0. -1.
         11   -1    0    0    0    0 -0.00000000000E+00 -0.00000000000E+00 -0.45593999997E+02  0.45594000000E+02  0.51100000000E-03 0.  1.
         23    2    1    2    0    0  0.00000000000E+00  0.35527136788E-14 -0.17763568394E-14  0.91188000000E+02  0.91188000000E+02 0.  0.
    9900012    2    3    3    0    0 -0.36239303648E+02 -0.18952175710E+02  0.14531038172E+02  0.47787272318E+02  0.20000005805E+02 0.  0.
        -12    1    3    3    0    0  0.36239303648E+02  0.18952175710E+02 -0.14531038172E+02  0.43400727682E+02  0.00000000000E+00 0.  1.
         11    1    4    4    0    0 -0.15333565522E+02 -0.16454554711E+02  0.59422055885E+01  0.23263284589E+02  0.51100000000E-03 0. -1.
        -11    1    4    4    0    0 -0.13136768622E+02 -0.51448282161E+01  0.81756808586E+01  0.16306002115E+02  0.51100000000E-03 0.  1.
        -12    1    4    4    0    0 -0.77689695031E+01  0.26472072174E+01  0.41315172465E+00  0.82179856132E+01  0.00000000000E+00 0.  1.
</event>
<event>
 8    1  0.1280823E-010  0.9118800E+02  0.7816164E-02  0.1184000E+00
        -11   -1    0    0    0    0  0.00000000000E+00  0.00000000000E+00  0.45593999997E+02  0.45594000000E+02  0.51100000000E-03 0. -1.
         11   -1    0    0    0    0 -0.00000000000E+00 -0.00000000000E+00 -0.45593999997E+02  0.45594000000E+02  0.51100000000E-03 0.  1.
         23    2    1    2    0    0  0.00000000000E+00  0.00000000000E+00  0.00000000000E+00  0.91188000000E+02  0.91188000000E+02 0.  0.
    9900012    2    3    3    0    0 -0.18910843758E+02 -0.16227891808E+02  0.35533910518E+02  0.47787270964E+02  0.19999999631E+02 0.  0.
        -12    1    3    3    0    0  0.18910843758E+02  0.16227891808E+02 -0.35533910518E+02  0.43400729036E+02  0.00000000000E+00 0.  1.
         11    1    4    4    0    0  0.35119753309E+01 -0.18416408266E+01  0.18262248114E+01  0.43658571876E+01  0.51100000000E-03 0.  1.
        -11    1    4    4    0    0 -0.38376008677E+01 -0.11682725630E+01  0.86747739883E+01  0.95573921762E+01  0.51100000000E-03 0. -1.
        -12    1    4    4    0    0 -0.18585218221E+02 -0.13217978419E+02  0.25032911719E+02  0.33864021600E+02  0.00000000000E+00 0.  1.
</event>
<event>
 8    1  0.1280823E-010  0.9118800E+02  0.7816164E-02  0.1184000E+00
        -11   -1    0    0    0    0  0.00000000000E+00  0.00000000000E+00  0.45593999997E+02  0.45594000000E+02  0.51100000000E-03 0. -1.
         11   -1    0    0    0    0 -0.00000000000E+00 -0.00000000000E+00 -0.45593999997E+02  0.45594000000E+02  0.51100000000E-03 0.  1.
         23    2    1    2    0    0  0.00000000000E+00  0.17763568394E-14 -0.35527136788E-14  0.91188000000E+02  0.91188000000E+02 0.  0.
    9900012    2    3    3    0    0 -0.37714971621E+02  0.10933851970E+02 -0.18483880052E+02  0.47787285432E+02  0.20000065597E+02 0.  0.
         12    1    3    3    0    0  0.37714971621E+02 -0.10933851970E+02  0.18483880052E+02  0.43400714568E+02  0.00000000000E+00 0. -1.
         11    1    4    4    0    0 -0.31746872440E+01  0.72740366675E+01 -0.72170464442E+01  0.10727348609E+02  0.51100000000E-03 0. -1.
        -11    1    4    4    0    0 -0.36138782681E+01  0.34060741601E+00 -0.34067416422E+01  0.49781541184E+01  0.51100000000E-03 0.  1.
        -12    1    4    4    0    0 -0.30926406108E+02  0.33192078866E+01 -0.78600919660E+01  0.32081782704E+02  0.00000000000E+00 0.  1.
</event>
<event>
 8    1  0.1280823E-010  0.9118800E+02  0.7816164E-02  0.1184000E+00
        -11   -1    0    0    0    0  0.00000000000E+00  0.00000000000E+00  0.45593999997E+02  0.45594000000E+02  0.51100000000E-03 0.  1.
         11   -1    0    0    0    0 -0.00000000000E+00 -0.00000000000E+00 -0.45593999997E+02  0.45594000000E+02  0.51100000000E-03 0. -1.
         23    2    1    2    0    0  0.00000000000E+00  0.00000000000E+00 -0.35527136788E-14  0.91188000000E+02  0.91188000000E+02 0.  0.
    9900012    2    3    3    0    0  0.29456659240E+01 -0.37613884756E+02 -0.21450921966E+02  0.47787270428E+02  0.19999997190E+02 0.  0.
         12    1    3    3    0    0 -0.29456659240E+01  0.37613884756E+02  0.21450921966E+02  0.43400729572E+02  0.00000000000E+00 0. -1.
         11    1    4    4    0    0  0.13124605059E+01 -0.12355892415E+02 -0.29322912909E+01  0.12766713062E+02  0.51100000000E-03 0. -1.
        -11    1    4    4    0    0  0.57444223179E+01 -0.24785029130E+02 -0.17061589940E+02  0.30633215767E+02  0.51100000000E-03 0.  1.
         12    1    4    4    0    0 -0.41112168998E+01 -0.47296321224E+00 -0.14570407352E+01  0.43873415984E+01  0.00000000000E+00 0. -1.
</event>
<event>
 8    1  0.1280823E-010  0.9118800E+02  0.7816164E-02  0.1184000E+00
        -11   -1    0    0    0    0  0.00000000000E+00  0.00000000000E+00  0.45593999997E+02  0.45594000000E+02  0.51100000000E-03 0. -1.
         11   -1    0    0    0    0 -0.00000000000E+00 -0.00000000000E+00 -0.45593999997E+02  0.45594000000E+02  0.51100000000E-03 0.  1.
         23    2    1    2    0    0  0.35527136788E-14  0.00000000000E+00  0.00000000000E+00  0.91188000000E+02  0.91188000000E+02 0.  0.
    9900012    2    3    3    0    0 -0.15083434498E+02 -0.15707882861E+02  0.37541651192E+02  0.47787272420E+02  0.20000006272E+02 0.  0.
        -12    1    3    3    0    0  0.15083434498E+02  0.15707882861E+02 -0.37541651192E+02  0.43400727580E+02  0.00000000000E+00 0.  1.
         11    1    4    4    0    0 -0.10394176808E+02 -0.49504241427E+01  0.88201044883E+01  0.14503098088E+02  0.51100000000E-03 0. -1.
        -11    1    4    4    0    0 -0.24887930291E+01 -0.36062775583E+01  0.89878424223E+00  0.44729343774E+01  0.51100000000E-03 0.  1.
         12    1    4    4    0    0 -0.22004646605E+01 -0.71511811596E+01  0.27822762462E+02  0.28811239954E+02  0.00000000000E+00 0. -1.
</event>
<event>
 8    1  0.1280823E-010  0.9118800E+02  0.7816164E-02  0.1184000E+00
        -11   -1    0    0    0    0  0.00000000000E+00  0.00000000000E+00  0.45593999997E+02  0.45594000000E+02  0.51100000000E-03 0. -1.
         11   -1    0    0    0    0 -0.00000000000E+00 -0.00000000000E+00 -0.45593999997E+02  0.45594000000E+02  0.51100000000E-03 0.  1.
         23    2    1    2    0    0 -0.17763568394E-14  0.00000000000E+00  0.00000000000E+00  0.91188000000E+02  0.91188000000E+02 0.  0.
    9900012    2    3    3    0    0 -0.13918559467E+02  0.16258743348E+01 -0.41076188740E+02  0.47787273665E+02  0.20000011947E+02 0.  0.
         12    1    3    3    0    0  0.13918559467E+02 -0.16258743348E+01  0.41076188740E+02  0.43400726335E+02  0.00000000000E+00 0. -1.
         11    1    4    4    0    0 -0.67666047633E+00  0.44634102762E+01 -0.15389969703E+02  0.16038424748E+02  0.51100000000E-03 0.  1.
        -11    1    4    4    0    0 -0.94668570309E+00  0.43175306155E+01 -0.55648747244E+01  0.71066951107E+01  0.51100000000E-03 0. -1.
        -12    1    4    4    0    0 -0.12295213287E+02 -0.71550665570E+01 -0.20121344313E+02  0.24642153806E+02  0.00000000000E+00 0.  1.
</event>
<event>
 8    1  0.1280823E-010  0.9118800E+02  0.7816164E-02  0.1184000E+00
        -11   -1    0    0    0    0  0.00000000000E+00  0.00000000000E+00  0.45593999997E+02  0.45594000000E+02  0.51100000000E-03 0. -1.
         11   -1    0    0    0    0 -0.00000000000E+00 -0.00000000000E+00 -0.45593999997E+02  0.45594000000E+02  0.51100000000E-03 0.  1.
         23    2    1    2    0    0  0.00000000000E+00  0.00000000000E+00  0.00000000000E+00  0.91188000000E+02  0.91188000000E+02 0.  0.
    9900012    2    3    3    0    0 -0.22560207822E+02  0.26574956179E+02  0.25854046838E+02  0.47787274075E+02  0.20000013819E+02 0.  0.
        -12    1    3    3    0    0  0.22560207822E+02 -0.26574956179E+02 -0.25854046838E+02  0.43400725925E+02  0.00000000000E+00 0.  1.
         11    1    4    4    0    0 -0.58545271376E-01  0.12296275662E+02  0.53139925023E+01  0.13395534304E+02  0.51100000000E-03 0. -1.
        -11    1    4    4    0    0 -0.36240258295E+01  0.59143601210E+01  0.50931973936E+01  0.86054563391E+01  0.51100000000E-03 0.  1.
        -12    1    4    4    0    0 -0.18877636721E+02  0.83643203960E+01  0.15446856942E+02  0.25786283432E+02  0.00000000000E+00 0.  1.
</event>
<event>
 8    1  0.1280823E-010  0.9118800E+02  0.7816164E-02  0.1184000E+00
        -11   -1    0    0    0    0  0.00000000000E+00  0.00000000000E+00  0.45593999997E+02  0.45594000000E+02  0.51100000000E-03 0. -1.
         11   -1    0    0    0    0 -0.00000000000E+00 -0.00000000000E+00 -0.45593999997E+02  0.45594000000E+02  0.51100000000E-03 0.  1.
         23    2    1    2    0    0 -0.44408920985E-15  0.00000000000E+00  0.00000000000E+00  0.91188000000E+02  0.91188000000E+02 0.  0.
    9900012    2    3    3    0    0  0.19605583687E+01 -0.34639181584E+02  0.26075014310E+02  0.47787273495E+02  0.20000011173E+02 0.  0.
        -12    1    3    3    0    0 -0.19605583687E+01  0.34639181584E+02 -0.26075014310E+02  0.43400726505E+02  0.00000000000E+00 0.  1.
         11    1    4    4    0    0 -0.18210343764E+01 -0.59642662851E+00  0.51682650033E+01  0.55120644343E+01  0.51100000000E-03 0. -1.
        -11    1    4    4    0    0  0.43936086388E+01 -0.40375573052E+01  0.70003896414E+01  0.91984303692E+01  0.51100000000E-03 0.  1.
        -12    1    4    4    0    0 -0.61201589375E+00 -0.30005197650E+02  0.13906359665E+02  0.33076778691E+02  0.00000000000E+00 0.  1.
</event>
<event>
 8    1  0.1280823E-010  0.9118800E+02  0.7816164E-02  0.1184000E+00
        -11   -1    0    0    0    0  0.00000000000E+00  0.00000000000E+00  0.45593999997E+02  0.45594000000E+02  0.51100000000E-03 0. -1.
         11   -1    0    0    0    0 -0.00000000000E+00 -0.00000000000E+00 -0.45593999997E+02  0.45594000000E+02  0.51100000000E-03 0.  1.
         23    2    1    2    0    0  0.20816681712E-15  0.55511151231E-15  0.71054273576E-14  0.91188000000E+02  0.91188000000E+02 0.  0.
    9900012    2    3    3    0    0  0.10616954337E+00 -0.44272343436E+00  0.43398341752E+02  0.47787270250E+02  0.19999996376E+02 0.  0.
        -12    1    3    3    0    0 -0.10616954337E+00  0.44272343436E+00 -0.43398341752E+02  0.43400729750E+02  0.00000000000E+00 0.  1.
         11    1    4    4    0    0 -0.18346953799E+01  0.58053857295E+01  0.13493008362E+02  0.14803036362E+02  0.51100000000E-03 0. -1.
        -11    1    4    4    0    0  0.43557619689E+01  0.56257812250E+00  0.35234848814E+01  0.56306396123E+01  0.51100000000E-03 0.  1.
        -12    1    4    4    0    0 -0.24148970456E+01 -0.68106872863E+01  0.26381848509E+02  0.27353594276E+02  0.00000000000E+00 0.  1.
</event>
<event>
 8    1  0.1280823E-010  0.9118800E+02  0.7816164E-02  0.1184000E+00
        -11   -1    0    0    0    0  0.00000000000E+00  0.00000000000E+00  0.45593999997E+02  0.45594000000E+02  0.51100000000E-03 0. -1.
         11   -1    0    0    0    0 -0.00000000000E+00 -0.00000000000E+00 -0.45593999997E+02  0.45594000000E+02  0.51100000000E-03 0.  1.
         23    2    1    2    0    0  0.00000000000E+00  0.00000000000E+00  0.00000000000E+00  0.91188000000E+02  0.91188000000E+02 0.  0.
    9900012    2    3    3    0    0  0.34798173215E+02 -0.99244095153E+01 -0.23962819350E+02  0.47787268732E+02  0.19999989458E+02 0.  0.
         12    1    3    3    0    0 -0.34798173215E+02  0.99244095153E+01  0.23962819350E+02  0.43400731268E+02  0.00000000000E+00 0. -1.
         11    1    4    4    0    0  0.63192568550E+00 -0.21055630654E+01  0.58215165818E+00  0.22741210849E+01  0.51100000000E-03 0. -1.
        -11    1    4    4    0    0  0.12378046146E+01 -0.35459493940E+01 -0.70346742517E+01  0.79744943073E+01  0.51100000000E-03 0.  1.
         12    1    4    4    0    0  0.32928442915E+02 -0.42728970559E+01 -0.17510296757E+02  0.37538653340E+02  0.00000000000E+00 0. -1.
</event>
<event>
 8    1  0.1280823E-010  0.9118800E+02  0.7816164E-02  0.1184000E+00
        -11   -1    0    0    0    0  0.00000000000E+00  0.00000000000E+00  0.45593999997E+02  0.45594000000E+02  0.51100000000E-03 0. -1.
         11   -1    0    0    0    0 -0.00000000000E+00 -0.00000000000E+00 -0.45593999997E+02  0.45594000000E+02  0.51100000000E-03 0.  1.
         23    2    1    2    0    0 -0.35527136788E-14  0.00000000000E+00  0.00000000000E+00  0.91188000000E+02  0.91188000000E+02 0.  0.
    9900012    2    3    3    0    0  0.23305330514E+02  0.22971013373E+02 -0.28509958400E+02  0.47787267129E+02  0.19999982149E+02 0.  0.
         12    1    3    3    0    0 -0.23305330514E+02 -0.22971013373E+02  0.28509958400E+02  0.43400732871E+02  0.00000000000E+00 0. -1.
         11    1    4    4    0    0 -0.96710958568E-01 -0.12677711221E+00  0.20249302817E+01  0.20311987477E+01  0.51100000000E-03 0. -1.
        -11    1    4    4    0    0  0.15057716296E+02  0.87118290417E+01 -0.16846695553E+02  0.24216563270E+02  0.51100000000E-03 0.  1.
        -12    1    4    4    0    0  0.83443251767E+01  0.14385961443E+02 -0.13688193129E+02  0.21539505111E+02  0.00000000000E+00 0.  1.
</event>
<event>
 8    1  0.1280823E-010  0.9118800E+02  0.7816164E-02  0.1184000E+00
        -11   -1    0    0    0    0  0.00000000000E+00  0.00000000000E+00  0.45593999997E+02  0.45594000000E+02  0.51100000000E-03 0. -1.
         11   -1    0    0    0    0 -0.00000000000E+00 -0.00000000000E+00 -0.45593999997E+02  0.45594000000E+02  0.51100000000E-03 0.  1.
         23    2    1    2    0    0 -0.17763568394E-14  0.00000000000E+00  0.00000000000E+00  0.91188000000E+02  0.91188000000E+02 0.  0.
    9900012    2    3    3    0    0 -0.13361230151E+02 -0.31619211446E+02 -0.26558004724E+02  0.47787255553E+02  0.19999929368E+02 0.  0.
         12    1    3    3    0    0  0.13361230151E+02  0.31619211446E+02  0.26558004724E+02  0.43400744447E+02  0.00000000000E+00 0. -1.
         11    1    4    4    0    0 -0.39707684235E+01 -0.80941528749E+01 -0.68745178286E+01  0.11337605932E+02  0.51100000000E-03 0.  1.
        -11    1    4    4    0    0  0.32606091474E+01 -0.14584815741E+02 -0.11951670943E+02  0.19136114047E+02  0.51100000000E-03 0. -1.
         12    1    4    4    0    0 -0.12651070875E+02 -0.89402428303E+01 -0.77318159522E+01  0.17313535574E+02  0.00000000000E+00 0. -1.
</event>
<event>
 8    1  0.1280823E-010  0.9118800E+02  0.7816164E-02  0.1184000E+00
        -11   -1    0    0    0    0  0.00000000000E+00  0.00000000000E+00  0.45593999997E+02  0.45594000000E+02  0.51100000000E-03 0. -1.
         11   -1    0    0    0    0 -0.00000000000E+00 -0.00000000000E+00 -0.45593999997E+02  0.45594000000E+02  0.51100000000E-03 0.  1.
         23    2    1    2    0    0  0.00000000000E+00  0.17763568394E-14  0.00000000000E+00  0.91188000000E+02  0.91188000000E+02 0.  0.
    9900012    2    3    3    0    0  0.71569254120E+01 -0.64976604409E+01 -0.42310559305E+02  0.47787255752E+02  0.19999930278E+02 0.  0.
         12    1    3    3    0    0 -0.71569254120E+01  0.64976604409E+01  0.42310559305E+02  0.43400744248E+02  0.00000000000E+00 0. -1.
         11    1    4    4    0    0  0.29461381076E+01  0.76160953908E+00  0.21197525527E+00  0.30503627013E+01  0.51100000000E-03 0. -1.
        -11    1    4    4    0    0 -0.14132100194E+01  0.11222776549E+01 -0.11248892533E+01  0.21265102367E+01  0.51100000000E-03 0.  1.
        -12    1    4    4    0    0  0.56239973238E+01 -0.83815476349E+01 -0.41397645307E+02  0.42610382814E+02  0.00000000000E+00 0.  1.
</event>
<event>
 8    1  0.1280823E-010  0.9118800E+02  0.7816164E-02  0.1184000E+00
        -11   -1    0    0    0    0  0.00000000000E+00  0.00000000000E+00  0.45593999997E+02  0.45594000000E+02  0.51100000000E-03 0. -1.
         11   -1    0    0    0    0 -0.00000000000E+00 -0.00000000000E+00 -0.45593999997E+02  0.45594000000E+02  0.51100000000E-03 0.  1.
         23    2    1    2    0    0  0.00000000000E+00  0.35527136788E-14  0.00000000000E+00  0.91188000000E+02  0.91188000000E+02 0.  0.
    9900012    2    3    3    0    0 -0.32331460458E+02 -0.15866451299E+02 -0.24218911004E+02  0.47787271177E+02  0.20000000603E+02 0.  0.
         12    1    3    3    0    0  0.32331460458E+02  0.15866451299E+02  0.24218911004E+02  0.43400728823E+02  0.00000000000E+00 0. -1.
         11    1    4    4    0    0 -0.90160843197E+01 -0.37903473492E+01 -0.16035947174E+01  0.99110052853E+01  0.51100000000E-03 0. -1.
        -11    1    4    4    0    0 -0.11061049164E+02 -0.98100596947E+01 -0.37267621738E+01  0.15247059926E+02  0.51100000000E-03 0.  1.
         12    1    4    4    0    0 -0.12254326974E+02 -0.22660442551E+01 -0.18888554113E+02  0.22629205965E+02  0.00000000000E+00 0. -1.
</event>
<event>
 8    1  0.1280823E-010  0.9118800E+02  0.7816164E-02  0.1184000E+00
        -11   -1    0    0    0    0  0.00000000000E+00  0.00000000000E+00  0.45593999997E+02  0.45594000000E+02  0.51100000000E-03 0.  1.
         11   -1    0    0    0    0 -0.00000000000E+00 -0.00000000000E+00 -0.45593999997E+02  0.45594000000E+02  0.51100000000E-03 0. -1.
         23    2    1    2    0    0 -0.71054273576E-14 -0.35527136788E-14 -0.22204460493E-15  0.91188000000E+02  0.91188000000E+02 0.  0.
    9900012    2    3    3    0    0 -0.33585184910E+02 -0.27487113189E+02  0.34313470612E+00  0.47787265233E+02  0.19999973502E+02 0.  0.
        -12    1    3    3    0    0  0.33585184910E+02  0.27487113189E+02 -0.34313470612E+00  0.43400734767E+02  0.00000000000E+00 0.  1.
         11    1    4    4    0    0 -0.17894694649E+02 -0.81075797610E+01 -0.25252941905E+01  0.19807323322E+02  0.51100000000E-03 0. -1.
        -11    1    4    4    0    0 -0.17160043161E+02 -0.15521574322E+02  0.34411558845E+00  0.23140975920E+02  0.51100000000E-03 0.  1.
        -12    1    4    4    0    0  0.14695528997E+01 -0.38579591053E+01  0.25243133082E+01  0.48389659909E+01  0.00000000000E+00 0.  1.
</event>
<event>
 8    1  0.1280823E-010  0.9118800E+02  0.7816164E-02  0.1184000E+00
        -11   -1    0    0    0    0  0.00000000000E+00  0.00000000000E+00  0.45593999997E+02  0.45594000000E+02  0.51100000000E-03 0. -1.
         11   -1    0    0    0    0 -0.00000000000E+00 -0.00000000000E+00 -0.45593999997E+02  0.45594000000E+02  0.51100000000E-03 0.  1.
         23    2    1    2    0    0  0.00000000000E+00  0.00000000000E+00  0.00000000000E+00  0.91188000000E+02  0.91188000000E+02 0.  0.
    9900012    2    3    3    0    0  0.80235511026E+01  0.10245312130E+02  0.41403859446E+02  0.47787269937E+02  0.19999994951E+02 0.  0.
        -12    1    3    3    0    0 -0.80235511026E+01 -0.10245312130E+02 -0.41403859446E+02  0.43400730063E+02  0.00000000000E+00 0.  1.
         11    1    4    4    0    0  0.36049206570E+01  0.29245781281E+01  0.17071454942E+02  0.17691330766E+02  0.51100000000E-03 0. -1.
        -11    1    4    4    0    0  0.13497809445E+01  0.69468850998E+01  0.25742852247E+02  0.26697856904E+02  0.51100000000E-03 0.  1.
        -12    1    4    4    0    0  0.30688495010E+01  0.37384890255E+00 -0.14104477425E+01  0.33980822674E+01  0.00000000000E+00 0.  1.
</event>
<event>
 8    1  0.1280823E-010  0.9118800E+02  0.7816164E-02  0.1184000E+00
        -11   -1    0    0    0    0  0.00000000000E+00  0.00000000000E+00  0.45593999997E+02  0.45594000000E+02  0.51100000000E-03 0. -1.
         11   -1    0    0    0    0 -0.00000000000E+00 -0.00000000000E+00 -0.45593999997E+02  0.45594000000E+02  0.51100000000E-03 0.  1.
         23    2    1    2    0    0  0.00000000000E+00  0.00000000000E+00 -0.71054273576E-14  0.91188000000E+02  0.91188000000E+02 0.  0.
    9900012    2    3    3    0    0  0.84229312725E+01 -0.15811106219E+02  0.39530826834E+02  0.47787272803E+02  0.20000008017E+02 0.  0.
        -12    1    3    3    0    0 -0.84229312725E+01  0.15811106219E+02 -0.39530826834E+02  0.43400727197E+02  0.00000000000E+00 0.  1.
         11    1    4    4    0    0 -0.79738539439E+00 -0.37218937928E+01  0.27411826830E+01  0.46906715548E+01  0.51100000000E-03 0.  1.
        -11    1    4    4    0    0  0.11463380809E+02 -0.14557578451E+02  0.26935546912E+02  0.32693361369E+02  0.51100000000E-03 0. -1.
         12    1    4    4    0    0 -0.22430641417E+01  0.24683660253E+01  0.98540972393E+01  0.10403239879E+02  0.00000000000E+00 0. -1.
</event>
<event>
 8    1  0.1280823E-010  0.9118800E+02  0.7816164E-02  0.1184000E+00
        -11   -1    0    0    0    0  0.00000000000E+00  0.00000000000E+00  0.45593999997E+02  0.45594000000E+02  0.51100000000E-03 0. -1.
         11   -1    0    0    0    0 -0.00000000000E+00 -0.00000000000E+00 -0.45593999997E+02  0.45594000000E+02  0.51100000000E-03 0.  1.
         23    2    1    2    0    0 -0.35527136788E-14 -0.35527136788E-14 -0.35527136788E-14  0.91188000000E+02  0.91188000000E+02 0.  0.
    9900012    2    3    3    0    0  0.28607384198E+02 -0.20483316015E+02 -0.25410124347E+02  0.47787273221E+02  0.20000009923E+02 0.  0.
         12    1    3    3    0    0 -0.28607384198E+02  0.20483316015E+02  0.25410124347E+02  0.43400726779E+02  0.00000000000E+00 0. -1.
         11    1    4    4    0    0  0.88111181372E+01 -0.12772497600E+02 -0.13529635121E+02  0.20586974633E+02  0.51100000000E-03 0. -1.
        -11    1    4    4    0    0  0.72447962776E+01 -0.80380639806E+01 -0.95447975055E+01  0.14429161630E+02  0.51100000000E-03 0.  1.
         12    1    4    4    0    0  0.12551469783E+02  0.32724556510E+00 -0.23356917198E+01  0.12771136958E+02  0.00000000000E+00 0. -1.
</event>
<event>
 8    1  0.1280823E-010  0.9118800E+02  0.7816164E-02  0.1184000E+00
        -11   -1    0    0    0    0  0.00000000000E+00  0.00000000000E+00  0.45593999997E+02  0.45594000000E+02  0.51100000000E-03 0. -1.
         11   -1    0    0    0    0 -0.00000000000E+00 -0.00000000000E+00 -0.45593999997E+02  0.45594000000E+02  0.51100000000E-03 0.  1.
         23    2    1    2    0    0 -0.44408920985E-15  0.00000000000E+00  0.00000000000E+00  0.91188000000E+02  0.91188000000E+02 0.  0.
    9900012    2    3    3    0    0  0.30985663957E+01 -0.35919175124E+02 -0.24162670714E+02  0.47787275222E+02  0.20000019046E+02 0.  0.
         12    1    3    3    0    0 -0.30985663957E+01  0.35919175124E+02  0.24162670714E+02  0.43400724778E+02  0.00000000000E+00 0. -1.
         11    1    4    4    0    0  0.30984909305E+01 -0.81176231169E+01  0.21719775538E+01  0.89562234156E+01  0.51100000000E-03 0. -1.
        -11    1    4    4    0    0  0.11185325111E+01 -0.10398250352E+02 -0.60562893010E+01  0.12085254061E+02  0.51100000000E-03 0.  1.
         12    1    4    4    0    0 -0.11184570459E+01 -0.17403301654E+02 -0.20278358966E+02  0.26745797745E+02  0.00000000000E+00 0. -1.
</event>
<event>
 8    1  0.1280823E-010  0.9118800E+02  0.7816164E-02  0.1184000E+00
        -11   -1    0    0    0    0  0.00000000000E+00  0.00000000000E+00  0.45593999997E+02  0.45594000000E+02  0.51100000000E-03 0. -1.
         11   -1    0    0    0    0 -0.00000000000E+00 -0.00000000000E+00 -0.45593999997E+02  0.45594000000E+02  0.51100000000E-03 0.  1.
         23    2    1    2    0    0  0.33306690739E-15 -0.17763568394E-14  0.00000000000E+00  0.91188000000E+02  0.91188000000E+02 0.  0.
    9900012    2    3    3    0    0 -0.44735047507E+00 -0.71315137215E+01 -0.42808464196E+02  0.47787271697E+02  0.20000002974E+02 0.  0.
         12    1    3    3    0    0  0.44735047507E+00  0.71315137215E+01  0.42808464196E+02  0.43400728303E+02  0.00000000000E+00 0. -1.
         11    1    4    4    0    0 -0.90791083756E+00 -0.70222326445E+00  0.40771126331E+00  0.12180510406E+01  0.51100000000E-03 0. -1.
        -11    1    4    4    0    0  0.71797593706E+01 -0.76122766322E+01 -0.24167156013E+02  0.26335282990E+02  0.51100000000E-03 0.  1.
         12    1    4    4    0    0 -0.67191990081E+01  0.11829861751E+01 -0.19049019446E+02  0.20233937666E+02  0.00000000000E+00 0. -1.
</event>
<event>
 8    1  0.1280823E-010  0.9118800E+02  0.7816164E-02  0.1184000E+00
        -11   -1    0    0    0    0  0.00000000000E+00  0.00000000000E+00  0.45593999997E+02  0.45594000000E+02  0.51100000000E-03 0. -1.
         11   -1    0    0    0    0 -0.00000000000E+00 -0.00000000000E+00 -0.45593999997E+02  0.45594000000E+02  0.51100000000E-03 0.  1.
         23    2    1    2    0    0  0.00000000000E+00 -0.71054273576E-14  0.00000000000E+00  0.91188000000E+02  0.91188000000E+02 0.  0.
    9900012    2    3    3    0    0 -0.22186993377E+02 -0.30584937291E+02 -0.21352327736E+02  0.47787274615E+02  0.20000016279E+02 0.  0.
         12    1    3    3    0    0  0.22186993377E+02  0.30584937291E+02  0.21352327736E+02  0.43400725385E+02  0.00000000000E+00 0. -1.
         11    1    4    4    0    0 -0.17564545145E+02 -0.13226866003E+02 -0.96320723981E+01  0.24005000507E+02  0.51100000000E-03 0. -1.
        -11    1    4    4    0    0 -0.55571916766E+01 -0.37040104141E+01 -0.19192913553E+01  0.69487950067E+01  0.51100000000E-03 0.  1.
         12    1    4    4    0    0  0.93474344413E+00 -0.13654060874E+02 -0.98009639830E+01  0.16833479101E+02  0.00000000000E+00 0. -1.
</event>
<event>
 8    1  0.1280823E-010  0.9118800E+02  0.7816164E-02  0.1184000E+00
        -11   -1    0    0    0    0  0.00000000000E+00  0.00000000000E+00  0.45593999997E+02  0.45594000000E+02  0.51100000000E-03 0. -1.
         11   -1    0    0    0    0 -0.00000000000E+00 -0.00000000000E+00 -0.45593999997E+02  0.45594000000E+02  0.51100000000E-03 0.  1.
         23    2    1    2    0    0  0.00000000000E+00  0.00000000000E+00  0.00000000000E+00  0.91188000000E+02  0.91188000000E+02 0.  0.
    9900012    2    3    3    0    0  0.23435807582E+02 -0.93855389611E+01 -0.35302946281E+02  0.47787269191E+02  0.19999991550E+02 0.  0.
         12    1    3    3    0    0 -0.23435807582E+02  0.93855389611E+01  0.35302946281E+02  0.43400730809E+02  0.00000000000E+00 0. -1.
         11    1    4    4    0    0 -0.49577526331E-01  0.39714398017E+01 -0.65230145676E+01  0.76370486014E+01  0.51100000000E-03 0. -1.
        -11    1    4    4    0    0  0.56218055220E+01 -0.51030865097E+01 -0.12432569927E+02  0.14567600506E+02  0.51100000000E-03 0.  1.
        -12    1    4    4    0    0  0.17863579586E+02 -0.82538922531E+01 -0.16347361787E+02  0.25582620084E+02  0.00000000000E+00 0.  1.
</event>
<event>
 8    1  0.1280823E-010  0.9118800E+02  0.7816164E-02  0.1184000E+00
        -11   -1    0    0    0    0  0.00000000000E+00  0.00000000000E+00  0.45593999997E+02  0.45594000000E+02  0.51100000000E-03 0. -1.
         11   -1    0    0    0    0 -0.00000000000E+00 -0.00000000000E+00 -0.45593999997E+02  0.45594000000E+02  0.51100000000E-03 0.  1.
         23    2    1    2    0    0  0.00000000000E+00  0.00000000000E+00  0.00000000000E+00  0.91188000000E+02  0.91188000000E+02 0.  0.
    9900012    2    3    3    0    0  0.23994065384E+02  0.19468772222E+02 -0.30477449158E+02  0.47787272211E+02  0.20000005320E+02 0.  0.
         12    1    3    3    0    0 -0.23994065384E+02 -0.19468772222E+02  0.30477449158E+02  0.43400727789E+02  0.00000000000E+00 0. -1.
         11    1    4    4    0    0  0.81742979168E+01  0.14214446882E+02 -0.12501606268E+02  0.20619403632E+02  0.51100000000E-03 0. -1.
        -11    1    4    4    0    0 -0.15084582970E+01 -0.79006602969E+00 -0.38329577346E+00  0.17454416852E+01  0.51100000000E-03 0.  1.
        -12    1    4    4    0    0  0.17328225764E+02  0.60443913691E+01 -0.17592547117E+02  0.25422426894E+02  0.00000000000E+00 0.  1.
</event>
<event>
 8    1  0.1889297E-010  0.9118800E+02  0.7816164E-02  0.1184000E+00
        -11   -1    0    0    0    0  0.00000000000E+00  0.00000000000E+00  0.45593999997E+02  0.45594000000E+02  0.51100000000E-03 0. -1.
         11   -1    0    0    0    0 -0.00000000000E+00 -0.00000000000E+00 -0.45593999997E+02  0.45594000000E+02  0.51100000000E-03 0.  1.
         23    2    1    2    0    0  0.00000000000E+00  0.00000000000E+00  0.00000000000E+00  0.91188000000E+02  0.91188000000E+02 0.  0.
    9900012    2    3    3    0    0  0.29739141638E+02  0.62029674535E+01 -0.30995645606E+02  0.47787269625E+02  0.19999993527E+02 0.  0.
         12    1    3    3    0    0 -0.29739141638E+02 -0.62029674535E+01  0.30995645606E+02  0.43400730375E+02  0.00000000000E+00 0. -1.
         11    1    4    4    0    0  0.88665526917E+01 -0.39457873585E+01 -0.10415668027E+02  0.14236261279E+02  0.51100000000E-03 0. -1.
        -11    1    4    4    0    0  0.12273843100E+02 -0.35442696386E+00 -0.61254553676E+01  0.13722027788E+02  0.51100000000E-03 0.  1.
        -12    1    4    4    0    0  0.85987458463E+01  0.10503181776E+02 -0.14454522212E+02  0.19828980557E+02  0.00000000000E+00 0.  1.
</event>
<event>
 8    1  0.1280823E-010  0.9118800E+02  0.7816164E-02  0.1184000E+00
        -11   -1    0    0    0    0  0.00000000000E+00  0.00000000000E+00  0.45593999997E+02  0.45594000000E+02  0.51100000000E-03 0.  1.
         11   -1    0    0    0    0 -0.00000000000E+00 -0.00000000000E+00 -0.45593999997E+02  0.45594000000E+02  0.51100000000E-03 0. -1.
         23    2    1    2    0    0  0.00000000000E+00  0.00000000000E+00  0.00000000000E+00  0.91188000000E+02  0.91188000000E+02 0.  0.
    9900012    2    3    3    0    0  0.34279618209E+02 -0.20151922827E+02 -0.17390544660E+02  0.47787271184E+02  0.20000000636E+02 0.  0.
        -12    1    3    3    0    0 -0.34279618209E+02  0.20151922827E+02  0.17390544660E+02  0.43400728816E+02  0.00000000000E+00 0.  1.
         11    1    4    4    0    0  0.15857778736E+02 -0.10624863928E+02 -0.68756481541E+01  0.20288701726E+02  0.51100000000E-03 0. -1.
        -11    1    4    4    0    0  0.11035597571E+02 -0.62462329781E+01 -0.13829550327E+02  0.18763163450E+02  0.51100000000E-03 0.  1.
         12    1    4    4    0    0  0.73862419021E+01 -0.32808259213E+01  0.33146538212E+01  0.87354060076E+01  0.00000000000E+00 0. -1.
</event>
<event>
 8    1  0.1280823E-010  0.9118800E+02  0.7816164E-02  0.1184000E+00
        -11   -1    0    0    0    0  0.00000000000E+00  0.00000000000E+00  0.45593999997E+02  0.45594000000E+02  0.51100000000E-03 0. -1.
         11   -1    0    0    0    0 -0.00000000000E+00 -0.00000000000E+00 -0.45593999997E+02  0.45594000000E+02  0.51100000000E-03 0.  1.
         23    2    1    2    0    0  0.17763568394E-14  0.00000000000E+00  0.00000000000E+00  0.91188000000E+02  0.91188000000E+02 0.  0.
    9900012    2    3    3    0    0 -0.14909512803E+02 -0.45467856406E+01 -0.40505018951E+02  0.47787269685E+02  0.19999993802E+02 0.  0.
         12    1    3    3    0    0  0.14909512803E+02  0.45467856406E+01  0.40505018951E+02  0.43400730315E+02  0.00000000000E+00 0. -1.
         11    1    4    4    0    0 -0.67772933398E+01 -0.93454640199E-01 -0.22170199912E+02  0.23183144808E+02  0.51100000000E-03 0.  1.
        -11    1    4    4    0    0  0.24805961040E+01 -0.15136071867E+01 -0.10988432479E+02  0.11366178441E+02  0.51100000000E-03 0. -1.
         12    1    4    4    0    0 -0.10612815567E+02 -0.29397238137E+01 -0.73463865593E+01  0.13237946436E+02  0.00000000000E+00 0. -1.
</event>
<event>
 8    1  0.1280823E-010  0.9118800E+02  0.7816164E-02  0.1184000E+00
        -11   -1    0    0    0    0  0.00000000000E+00  0.00000000000E+00  0.45593999997E+02  0.45594000000E+02  0.51100000000E-03 0. -1.
         11   -1    0    0    0    0 -0.00000000000E+00 -0.00000000000E+00 -0.45593999997E+02  0.45594000000E+02  0.51100000000E-03 0.  1.
         23    2    1    2    0    0 -0.88817841970E-15  0.35527136788E-14  0.00000000000E+00  0.91188000000E+02  0.91188000000E+02 0.  0.
    9900012    2    3    3    0    0 -0.40815360120E+01  0.25287236816E+02  0.35035980763E+02  0.47787271549E+02  0.20000002301E+02 0.  0.
        -12    1    3    3    0    0  0.40815360120E+01 -0.25287236816E+02 -0.35035980763E+02  0.43400728451E+02  0.00000000000E+00 0.  1.
         11    1    4    4    0    0 -0.16896562024E+00  0.26592739082E+01  0.87685082435E+01  0.91644434734E+01  0.51100000000E-03 0. -1.
        -11    1    4    4    0    0 -0.13541939489E+01  0.62424412967E+01  0.19829612625E+02  0.20833037506E+02  0.51100000000E-03 0.  1.
        -12    1    4    4    0    0 -0.25583764429E+01  0.16385521611E+02  0.64378598945E+01  0.17789790570E+02  0.00000000000E+00 0.  1.
</event>
<event>
 8    1  0.1280823E-010  0.9118800E+02  0.7816164E-02  0.1184000E+00
        -11   -1    0    0    0    0  0.00000000000E+00  0.00000000000E+00  0.45593999997E+02  0.45594000000E+02  0.51100000000E-03 0. -1.
         11   -1    0    0    0    0 -0.00000000000E+00 -0.00000000000E+00 -0.45593999997E+02  0.45594000000E+02  0.51100000000E-03 0.  1.
         23    2    1    2    0    0  0.00000000000E+00 -0.35527136788E-14  0.00000000000E+00  0.91188000000E+02  0.91188000000E+02 0.  0.
    9900012    2    3    3    0    0  0.32744450346E+01  0.16585247934E+02 -0.39972874288E+02  0.47787272838E+02  0.20000008178E+02 0.  0.
         12    1    3    3    0    0 -0.32744450346E+01 -0.16585247934E+02  0.39972874288E+02  0.43400727162E+02  0.00000000000E+00 0. -1.
         11    1    4    4    0    0  0.30782650442E+00  0.14531981357E+02 -0.15212361399E+02  0.21040180107E+02  0.51100000000E-03 0. -1.
        -11    1    4    4    0    0  0.51107875327E+00  0.54905609787E+01 -0.17487465596E+02  0.18336273192E+02  0.51100000000E-03 0.  1.
         12    1    4    4    0    0  0.24555397769E+01 -0.34372944011E+01 -0.72730472928E+01  0.84108195391E+01  0.00000000000E+00 0. -1.
</event>
<event>
 8    1  0.1280823E-010  0.9118800E+02  0.7816164E-02  0.1184000E+00
        -11   -1    0    0    0    0  0.00000000000E+00  0.00000000000E+00  0.45593999997E+02  0.45594000000E+02  0.51100000000E-03 0. -1.
         11   -1    0    0    0    0 -0.00000000000E+00 -0.00000000000E+00 -0.45593999997E+02  0.45594000000E+02  0.51100000000E-03 0.  1.
         23    2    1    2    0    0  0.17763568394E-14  0.00000000000E+00 -0.17763568394E-14  0.91188000000E+02  0.91188000000E+02 0.  0.
    9900012    2    3    3    0    0 -0.49716897841E+01  0.40850716632E+02  0.13788553507E+02  0.47787274701E+02  0.20000016673E+02 0.  0.
        -12    1    3    3    0    0  0.49716897841E+01 -0.40850716632E+02 -0.13788553507E+02  0.43400725299E+02  0.00000000000E+00 0.  1.
         11    1    4    4    0    0 -0.45146397920E+01  0.22321718365E+02  0.89025822571E+01  0.24451933549E+02  0.51100000000E-03 0. -1.
        -11    1    4    4    0    0 -0.23443632493E+01  0.12256898931E+02  0.91900135492E+01  0.15497869523E+02  0.51100000000E-03 0.  1.
         12    1    4    4    0    0  0.18873132573E+01  0.62720993365E+01 -0.43040422998E+01  0.78374716290E+01  0.00000000000E+00 0. -1.
</event>
<event>
 8    1  0.1280823E-010  0.9118800E+02  0.7816164E-02  0.1184000E+00
        -11   -1    0    0    0    0  0.00000000000E+00  0.00000000000E+00  0.45593999997E+02  0.45594000000E+02  0.51100000000E-03 0. -1.
         11   -1    0    0    0    0 -0.00000000000E+00 -0.00000000000E+00 -0.45593999997E+02  0.45594000000E+02  0.51100000000E-03 0.  1.
         23    2    1    2    0    0  0.00000000000E+00  0.00000000000E+00  0.35527136788E-14  0.91188000000E+02  0.91188000000E+02 0.  0.
    9900012    2    3    3    0    0  0.30221854498E+02  0.19846805435E+02 -0.24007660116E+02  0.47787263607E+02  0.19999966088E+02 0.  0.
         12    1    3    3    0    0 -0.30221854498E+02 -0.19846805435E+02  0.24007660116E+02  0.43400736393E+02  0.00000000000E+00 0. -1.
         11    1    4    4    0    0  0.16674298133E+01  0.65631104075E+01 -0.14721033502E+01  0.69297784191E+01  0.51100000000E-03 0. -1.
        -11    1    4    4    0    0  0.59299351263E+01 -0.24468713594E+01 -0.55863161759E+01  0.85063646013E+01  0.51100000000E-03 0.  1.
         12    1    4    4    0    0  0.22624489558E+02  0.15730566387E+02 -0.16949240589E+02  0.32351120586E+02  0.00000000000E+00 0. -1.
</event>
<event>
 8    1  0.1280823E-010  0.9118800E+02  0.7816164E-02  0.1184000E+00
        -11   -1    0    0    0    0  0.00000000000E+00  0.00000000000E+00  0.45593999997E+02  0.45594000000E+02  0.51100000000E-03 0. -1.
         11   -1    0    0    0    0 -0.00000000000E+00 -0.00000000000E+00 -0.45593999997E+02  0.45594000000E+02  0.51100000000E-03 0.  1.
         23    2    1    2    0    0  0.00000000000E+00  0.13322676296E-14  0.00000000000E+00  0.91188000000E+02  0.91188000000E+02 0.  0.
    9900012    2    3    3    0    0 -0.34254499018E+02 -0.26241617242E+01 -0.26521095572E+02  0.47787246112E+02  0.19999886323E+02 0.  0.
         12    1    3    3    0    0  0.34254499018E+02  0.26241617242E+01  0.26521095572E+02  0.43400753888E+02  0.00000000000E+00 0. -1.
         11    1    4    4    0    0 -0.10838509307E+02 -0.49373591918E+01 -0.21704122542E+01  0.12106258274E+02  0.51100000000E-03 0. -1.
        -11    1    4    4    0    0 -0.92563853726E+01 -0.41988879108E+01 -0.69065006244E+01  0.12288656598E+02  0.51100000000E-03 0.  1.
         12    1    4    4    0    0 -0.14159604338E+02  0.65120853784E+01 -0.17444182693E+02  0.23392331240E+02  0.00000000000E+00 0. -1.
</event>
<event>
 8    1  0.1280823E-010  0.9118800E+02  0.7816164E-02  0.1184000E+00
        -11   -1    0    0    0    0  0.00000000000E+00  0.00000000000E+00  0.45593999997E+02  0.45594000000E+02  0.51100000000E-03 0. -1.
         11   -1    0    0    0    0 -0.00000000000E+00 -0.00000000000E+00 -0.45593999997E+02  0.45594000000E+02  0.51100000000E-03 0.  1.
         23    2    1    2    0    0 -0.71054273576E-14 -0.17763568394E-14  0.00000000000E+00  0.91188000000E+02  0.91188000000E+02 0.  0.
    9900012    2    3    3    0    0  0.37976420698E+02 -0.14697693484E+02  0.15013042201E+02  0.47787283890E+02  0.20000058566E+02 0.  0.
        -12    1    3    3    0    0 -0.37976420698E+02  0.14697693484E+02 -0.15013042201E+02  0.43400716110E+02  0.00000000000E+00 0.  1.
         11    1    4    4    0    0  0.25393367957E+02 -0.14621796822E+02  0.25663052654E+01  0.29414384262E+02  0.51100000000E-03 0. -1.
        -11    1    4    4    0    0  0.20826116812E+01 -0.19127127581E+01  0.30964916802E+01  0.41933283315E+01  0.51100000000E-03 0.  1.
         12    1    4    4    0    0  0.10500441059E+02  0.18368160962E+01  0.93502452553E+01  0.14179571296E+02  0.00000000000E+00 0. -1.
</event>
<event>
 8    1  0.1280823E-010  0.9118800E+02  0.7816164E-02  0.1184000E+00
        -11   -1    0    0    0    0  0.00000000000E+00  0.00000000000E+00  0.45593999997E+02  0.45594000000E+02  0.51100000000E-03 0. -1.
         11   -1    0    0    0    0 -0.00000000000E+00 -0.00000000000E+00 -0.45593999997E+02  0.45594000000E+02  0.51100000000E-03 0.  1.
         23    2    1    2    0    0  0.44408920985E-15  0.00000000000E+00  0.44408920985E-15  0.91188000000E+02  0.91188000000E+02 0.  0.
    9900012    2    3    3    0    0  0.28055830411E+01  0.43191686300E+02  0.31984903013E+01  0.47787269570E+02  0.19999993279E+02 0.  0.
        -12    1    3    3    0    0 -0.28055830411E+01 -0.43191686300E+02 -0.31984903013E+01  0.43400730430E+02  0.00000000000E+00 0.  1.
         11    1    4    4    0    0  0.10732706228E+01  0.24803062718E+01  0.17712788373E+01  0.32312935509E+01  0.51100000000E-03 0. -1.
        -11    1    4    4    0    0 -0.59146901205E+00 -0.94555883451E+00 -0.24126257503E+01  0.26579466461E+01  0.51100000000E-03 0.  1.
         12    1    4    4    0    0  0.23237814303E+01  0.41656938863E+02  0.38398372142E+01  0.41898029373E+02  0.00000000000E+00 0. -1.
</event>
<event>
 8    1  0.1280823E-010  0.9118800E+02  0.7816164E-02  0.1184000E+00
        -11   -1    0    0    0    0  0.00000000000E+00  0.00000000000E+00  0.45593999997E+02  0.45594000000E+02  0.51100000000E-03 0.  1.
         11   -1    0    0    0    0 -0.00000000000E+00 -0.00000000000E+00 -0.45593999997E+02  0.45594000000E+02  0.51100000000E-03 0. -1.
         23    2    1    2    0    0  0.00000000000E+00  0.00000000000E+00  0.00000000000E+00  0.91188000000E+02  0.91188000000E+02 0.  0.
    9900012    2    3    3    0    0  0.11065636138E+02  0.39396371075E+02  0.14460308234E+02  0.47787275683E+02  0.20000021151E+02 0.  0.
        -12    1    3    3    0    0 -0.11065636138E+02 -0.39396371075E+02 -0.14460308234E+02  0.43400724317E+02  0.00000000000E+00 0.  1.
         11    1    4    4    0    0  0.24341648303E+01  0.36961051657E+00  0.80364034150E-01  0.24633775582E+01  0.51100000000E-03 0. -1.
        -11    1    4    4    0    0  0.89372774336E+01  0.92017635391E+01  0.18013514077E+01  0.12953464684E+02  0.51100000000E-03 0.  1.
         12    1    4    4    0    0 -0.30580612565E+00  0.29824997019E+02  0.12578592792E+02  0.32370433442E+02  0.00000000000E+00 0. -1.
</event>
<event>
 8    1  0.1280823E-010  0.9118800E+02  0.7816164E-02  0.1184000E+00
        -11   -1    0    0    0    0  0.00000000000E+00  0.00000000000E+00  0.45593999997E+02  0.45594000000E+02  0.51100000000E-03 0.  1.
         11   -1    0    0    0    0 -0.00000000000E+00 -0.00000000000E+00 -0.45593999997E+02  0.45594000000E+02  0.51100000000E-03 0. -1.
         23    2    1    2    0    0  0.71054273576E-14  0.71054273576E-14  0.88817841970E-15  0.91188000000E+02  0.91188000000E+02 0.  0.
    9900012    2    3    3    0    0  0.34599080895E+02  0.25203619317E+02  0.71627294013E+01  0.47787268233E+02  0.19999987179E+02 0.  0.
         12    1    3    3    0    0 -0.34599080895E+02 -0.25203619317E+02 -0.71627294013E+01  0.43400731767E+02  0.00000000000E+00 0. -1.
         11    1    4    4    0    0  0.55296738570E+01  0.13001999394E+02  0.10345790264E+01  0.14166849870E+02  0.51100000000E-03 0. -1.
        -11    1    4    4    0    0  0.15246365348E+02  0.94733274039E+01 -0.69979249492E+00  0.17963443384E+02  0.51100000000E-03 0.  1.
         12    1    4    4    0    0  0.13823041691E+02  0.27282925189E+01  0.68279428698E+01  0.15656974979E+02  0.00000000000E+00 0. -1.
</event>
<event>
 8    1  0.1280823E-010  0.9118800E+02  0.7816164E-02  0.1184000E+00
        -11   -1    0    0    0    0  0.00000000000E+00  0.00000000000E+00  0.45593999997E+02  0.45594000000E+02  0.51100000000E-03 0.  1.
         11   -1    0    0    0    0 -0.00000000000E+00 -0.00000000000E+00 -0.45593999997E+02  0.45594000000E+02  0.51100000000E-03 0. -1.
         23    2    1    2    0    0  0.00000000000E+00  0.00000000000E+00 -0.38857805862E-15  0.91188000000E+02  0.91188000000E+02 0.  0.
    9900012    2    3    3    0    0 -0.39895607283E+02  0.17079777166E+02 -0.49472061393E+00  0.47787274004E+02  0.20000013492E+02 0.  0.
         12    1    3    3    0    0  0.39895607283E+02 -0.17079777166E+02  0.49472061393E+00  0.43400725996E+02  0.00000000000E+00 0. -1.
         11    1    4    4    0    0 -0.14305620526E+02  0.32292123746E+01 -0.42544467919E+01  0.15270196756E+02  0.51100000000E-03 0. -1.
        -11    1    4    4    0    0 -0.64504904776E+01 -0.16768250171E+01 -0.24500060149E+01  0.71009224241E+01  0.51100000000E-03 0.  1.
        -12    1    4    4    0    0 -0.19139496279E+02  0.15527389809E+02  0.62097321929E+01  0.25416154823E+02  0.00000000000E+00 0.  1.
</event>
<event>
 8    1  0.1280823E-010  0.9118800E+02  0.7816164E-02  0.1184000E+00
        -11   -1    0    0    0    0  0.00000000000E+00  0.00000000000E+00  0.45593999997E+02  0.45594000000E+02  0.51100000000E-03 0. -1.
         11   -1    0    0    0    0 -0.00000000000E+00 -0.00000000000E+00 -0.45593999997E+02  0.45594000000E+02  0.51100000000E-03 0.  1.
         23    2    1    2    0    0 -0.14210854715E-13 -0.35527136788E-14  0.00000000000E+00  0.91188000000E+02  0.91188000000E+02 0.  0.
    9900012    2    3    3    0    0  0.40110919861E+02  0.15303026245E+02 -0.63683276860E+01  0.47787261506E+02  0.19999956509E+02 0.  0.
         12    1    3    3    0    0 -0.40110919861E+02 -0.15303026245E+02  0.63683276860E+01  0.43400738494E+02  0.00000000000E+00 0. -1.
         11    1    4    4    0    0  0.34366605143E+01 -0.56155401696E+00 -0.60560286229E-01  0.34827641629E+01  0.51100000000E-03 0. -1.
        -11    1    4    4    0    0  0.32897867055E+02  0.14515357577E+02  0.99668511949E+00  0.35971636658E+02  0.51100000000E-03 0.  1.
        -12    1    4    4    0    0  0.37763922916E+01  0.13492226853E+01 -0.73044525192E+01  0.83328606853E+01  0.00000000000E+00 0.  1.
</event>
<event>
 8    1  0.1280823E-010  0.9118800E+02  0.7816164E-02  0.1184000E+00
        -11   -1    0    0    0    0  0.00000000000E+00  0.00000000000E+00  0.45593999997E+02  0.45594000000E+02  0.51100000000E-03 0. -1.
         11   -1    0    0    0    0 -0.00000000000E+00 -0.00000000000E+00 -0.45593999997E+02  0.45594000000E+02  0.51100000000E-03 0.  1.
         23    2    1    2    0    0 -0.17763568394E-14  0.00000000000E+00  0.00000000000E+00  0.91188000000E+02  0.91188000000E+02 0.  0.
    9900012    2    3    3    0    0 -0.11666963974E+02 -0.18842568964E+02 -0.37315717363E+02  0.47787271713E+02  0.20000003049E+02 0.  0.
         12    1    3    3    0    0  0.11666963974E+02  0.18842568964E+02  0.37315717363E+02  0.43400728287E+02  0.00000000000E+00 0. -1.
         11    1    4    4    0    0  0.23379758681E+01 -0.25994494446E+01 -0.27594913521E+01  0.44539938660E+01  0.51100000000E-03 0. -1.
        -11    1    4    4    0    0 -0.92328001065E+01 -0.13158787848E+00 -0.10402028708E+02  0.13909137812E+02  0.51100000000E-03 0.  1.
        -12    1    4    4    0    0 -0.47721397353E+01 -0.16111531641E+02 -0.24154197303E+02  0.29424140035E+02  0.00000000000E+00 0.  1.
</event>
<event>
 8    1  0.1280823E-010  0.9118800E+02  0.7816164E-02  0.1184000E+00
        -11   -1    0    0    0    0  0.00000000000E+00  0.00000000000E+00  0.45593999997E+02  0.45594000000E+02  0.51100000000E-03 0. -1.
         11   -1    0    0    0    0 -0.00000000000E+00 -0.00000000000E+00 -0.45593999997E+02  0.45594000000E+02  0.51100000000E-03 0.  1.
         23    2    1    2    0    0  0.00000000000E+00  0.00000000000E+00  0.00000000000E+00  0.91188000000E+02  0.91188000000E+02 0.  0.
    9900012    2    3    3    0    0  0.20564779646E+02  0.20521583513E+02 -0.32242483630E+02  0.47787270716E+02  0.19999998504E+02 0.  0.
         12    1    3    3    0    0 -0.20564779646E+02 -0.20521583513E+02  0.32242483630E+02  0.43400729284E+02  0.00000000000E+00 0. -1.
         11    1    4    4    0    0  0.14365514516E+02  0.15177789397E+02 -0.94440293100E+01  0.22933010883E+02  0.51100000000E-03 0.  1.
        -11    1    4    4    0    0  0.36290417627E+01  0.20971872475E+01 -0.47410773402E+01  0.63281871870E+01  0.51100000000E-03 0. -1.
         12    1    4    4    0    0  0.25702233669E+01  0.32466068683E+01 -0.18057376979E+02  0.18526072646E+02  0.00000000000E+00 0. -1.
</event>
<event>
 8    1  0.1454480E-010  0.9118800E+02  0.7816164E-02  0.1184000E+00
        -11   -1    0    0    0    0  0.00000000000E+00  0.00000000000E+00  0.45593999997E+02  0.45594000000E+02  0.51100000000E-03 0. -1.
         11   -1    0    0    0    0 -0.00000000000E+00 -0.00000000000E+00 -0.45593999997E+02  0.45594000000E+02  0.51100000000E-03 0.  1.
         23    2    1    2    0    0  0.17763568394E-14  0.00000000000E+00  0.00000000000E+00  0.91188000000E+02  0.91188000000E+02 0.  0.
    9900012    2    3    3    0    0  0.13173488857E+02 -0.36652783552E+02 -0.19148257243E+02  0.47787272976E+02  0.20000008805E+02 0.  0.
         12    1    3    3    0    0 -0.13173488857E+02  0.36652783552E+02  0.19148257243E+02  0.43400727024E+02  0.00000000000E+00 0. -1.
         11    1    4    4    0    0 -0.70365353234E+00  0.10636201186E+01 -0.12968761755E+01  0.18188744118E+01  0.51100000000E-03 0. -1.
        -11    1    4    4    0    0  0.22843741462E+01 -0.11456864325E+02  0.84331154232E+00  0.11712782762E+02  0.51100000000E-03 0.  1.
        -12    1    4    4    0    0  0.11592768244E+02 -0.26259539346E+02 -0.18694692610E+02  0.34255615802E+02  0.00000000000E+00 0.  1.
</event>
<event>
 8    1  0.1280823E-010  0.9118800E+02  0.7816164E-02  0.1184000E+00
        -11   -1    0    0    0    0  0.00000000000E+00  0.00000000000E+00  0.45593999997E+02  0.45594000000E+02  0.51100000000E-03 0. -1.
         11   -1    0    0    0    0 -0.00000000000E+00 -0.00000000000E+00 -0.45593999997E+02  0.45594000000E+02  0.51100000000E-03 0.  1.
         23    2    1    2    0    0 -0.35527136788E-14 -0.17763568394E-14  0.71054273576E-14  0.91188000000E+02  0.91188000000E+02 0.  0.
    9900012    2    3    3    0    0 -0.18925430496E+02 -0.13371152579E+02  0.36696918557E+02  0.47787268759E+02  0.19999989578E+02 0.  0.
        -12    1    3    3    0    0  0.18925430496E+02  0.13371152579E+02 -0.36696918557E+02  0.43400731241E+02  0.00000000000E+00 0.  1.
         11    1    4    4    0    0 -0.16796762785E+02 -0.14402564100E+02  0.26245269130E+02  0.34327528963E+02  0.51100000000E-03 0. -1.
        -11    1    4    4    0    0 -0.36522630472E+01  0.91130686188E-01  0.92821287148E+00  0.37694707273E+01  0.51100000000E-03 0.  1.
         12    1    4    4    0    0  0.15235953362E+01  0.94028083536E+00  0.95234365554E+01  0.96902690686E+01  0.00000000000E+00 0. -1.
</event>
<event>
 8    1  0.1280823E-010  0.9118800E+02  0.7816164E-02  0.1184000E+00
        -11   -1    0    0    0    0  0.00000000000E+00  0.00000000000E+00  0.45593999997E+02  0.45594000000E+02  0.51100000000E-03 0. -1.
         11   -1    0    0    0    0 -0.00000000000E+00 -0.00000000000E+00 -0.45593999997E+02  0.45594000000E+02  0.51100000000E-03 0.  1.
         23    2    1    2    0    0  0.00000000000E+00  0.00000000000E+00  0.00000000000E+00  0.91188000000E+02  0.91188000000E+02 0.  0.
    9900012    2    3    3    0    0 -0.12937597876E+02 -0.85561464115E+01 -0.40534357922E+02  0.47787271292E+02  0.20000001129E+02 0.  0.
         12    1    3    3    0    0  0.12937597876E+02  0.85561464115E+01  0.40534357922E+02  0.43400728708E+02  0.00000000000E+00 0. -1.
         11    1    4    4    0    0 -0.33030921397E+01  0.27130902743E+01 -0.60830102177E+01  0.74346681224E+01  0.51100000000E-03 0. -1.
        -11    1    4    4    0    0 -0.11200642051E+02 -0.35137230898E+01 -0.13139735179E+02  0.17619684252E+02  0.51100000000E-03 0.  1.
        -12    1    4    4    0    0  0.15661363143E+01 -0.77555135961E+01 -0.21311612526E+02  0.22732918918E+02  0.00000000000E+00 0.  1.
</event>
<event>
 8    1  0.1280823E-010  0.9118800E+02  0.7816164E-02  0.1184000E+00
        -11   -1    0    0    0    0  0.00000000000E+00  0.00000000000E+00  0.45593999997E+02  0.45594000000E+02  0.51100000000E-03 0. -1.
         11   -1    0    0    0    0 -0.00000000000E+00 -0.00000000000E+00 -0.45593999997E+02  0.45594000000E+02  0.51100000000E-03 0.  1.
         23    2    1    2    0    0  0.22204460493E-15 -0.88817841970E-15  0.00000000000E+00  0.91188000000E+02  0.91188000000E+02 0.  0.
    9900012    2    3    3    0    0  0.11356331764E+01 -0.27548200426E+01 -0.43298318782E+02  0.47787272984E+02  0.20000008845E+02 0.  0.
         12    1    3    3    0    0 -0.11356331764E+01  0.27548200426E+01  0.43298318782E+02  0.43400727016E+02  0.00000000000E+00 0. -1.
         11    1    4    4    0    0 -0.96595745449E+00  0.15382244569E+01 -0.85017466066E+00  0.20054938291E+01  0.51100000000E-03 0. -1.
        -11    1    4    4    0    0  0.62263626874E+01 -0.75927745666E+01 -0.15705370547E+02  0.18522323888E+02  0.51100000000E-03 0.  1.
        -12    1    4    4    0    0 -0.41247720565E+01  0.32997300670E+01 -0.26742773574E+02  0.27259455267E+02  0.00000000000E+00 0.  1.
</event>
<event>
 8    1  0.1280823E-010  0.9118800E+02  0.7816164E-02  0.1184000E+00
        -11   -1    0    0    0    0  0.00000000000E+00  0.00000000000E+00  0.45593999997E+02  0.45594000000E+02  0.51100000000E-03 0. -1.
         11   -1    0    0    0    0 -0.00000000000E+00 -0.00000000000E+00 -0.45593999997E+02  0.45594000000E+02  0.51100000000E-03 0.  1.
         23    2    1    2    0    0  0.00000000000E+00  0.17763568394E-14  0.00000000000E+00  0.91188000000E+02  0.91188000000E+02 0.  0.
    9900012    2    3    3    0    0  0.19336938952E+02 -0.11243392977E+02 -0.37192636350E+02  0.47787270832E+02  0.19999999030E+02 0.  0.
         12    1    3    3    0    0 -0.19336938952E+02  0.11243392977E+02  0.37192636350E+02  0.43400729168E+02  0.00000000000E+00 0. -1.
         11    1    4    4    0    0  0.33996440481E+01 -0.90716499591E+01 -0.15364197293E+02  0.18163451526E+02  0.51100000000E-03 0. -1.
        -11    1    4    4    0    0 -0.92539450068E+00 -0.10064791530E+01 -0.70192342853E+01  0.71511541363E+01  0.51100000000E-03 0.  1.
        -12    1    4    4    0    0  0.16862689404E+02 -0.11652638647E+01 -0.14809204772E+02  0.22472665169E+02  0.00000000000E+00 0.  1.
</event>
<event>
 8    1  0.1280823E-010  0.9118800E+02  0.7816164E-02  0.1184000E+00
        -11   -1    0    0    0    0  0.00000000000E+00  0.00000000000E+00  0.45593999997E+02  0.45594000000E+02  0.51100000000E-03 0. -1.
         11   -1    0    0    0    0 -0.00000000000E+00 -0.00000000000E+00 -0.45593999997E+02  0.45594000000E+02  0.51100000000E-03 0.  1.
         23    2    1    2    0    0  0.00000000000E+00  0.00000000000E+00  0.00000000000E+00  0.91188000000E+02  0.91188000000E+02 0.  0.
    9900012    2    3    3    0    0 -0.16928257993E+02 -0.32590884652E+02  0.23127718741E+02  0.47787273564E+02  0.20000011486E+02 0.  0.
        -12    1    3    3    0    0  0.16928257993E+02  0.32590884652E+02 -0.23127718741E+02  0.43400726436E+02  0.00000000000E+00 0.  1.
         11    1    4    4    0    0 -0.65426120035E+00 -0.37026074304E+01  0.25367798219E+00  0.37685159256E+01  0.51100000000E-03 0. -1.
        -11    1    4    4    0    0  0.20003123885E+01 -0.11799720273E+02  0.37967028484E+01  0.12555859228E+02  0.51100000000E-03 0.  1.
         12    1    4    4    0    0 -0.18274309181E+02 -0.17088556948E+02  0.19077337911E+02  0.31462898410E+02  0.00000000000E+00 0. -1.
</event>
<event>
 8    1  0.1280823E-010  0.9118800E+02  0.7816164E-02  0.1184000E+00
        -11   -1    0    0    0    0  0.00000000000E+00  0.00000000000E+00  0.45593999997E+02  0.45594000000E+02  0.51100000000E-03 0.  1.
         11   -1    0    0    0    0 -0.00000000000E+00 -0.00000000000E+00 -0.45593999997E+02  0.45594000000E+02  0.51100000000E-03 0. -1.
         23    2    1    2    0    0  0.00000000000E+00  0.00000000000E+00 -0.35527136788E-14  0.91188000000E+02  0.91188000000E+02 0.  0.
    9900012    2    3    3    0    0 -0.28498598018E+02  0.11569615610E+02  0.30620208271E+02  0.47787271332E+02  0.20000001312E+02 0.  0.
        -12    1    3    3    0    0  0.28498598018E+02 -0.11569615610E+02 -0.30620208271E+02  0.43400728668E+02  0.00000000000E+00 0.  1.
         11    1    4    4    0    0 -0.25985785934E+01  0.32688453275E+01  0.98168235913E+01  0.10668082591E+02  0.51100000000E-03 0. -1.
        -11    1    4    4    0    0 -0.63942620041E+00 -0.16798392065E+01  0.58377960503E+01  0.61082394036E+01  0.51100000000E-03 0.  1.
        -12    1    4    4    0    0 -0.25260593224E+02  0.99806094885E+01  0.14965588629E+02  0.31010949338E+02  0.00000000000E+00 0.  1.
</event>
<event>
 8    1  0.1280823E-010  0.9118800E+02  0.7816164E-02  0.1184000E+00
        -11   -1    0    0    0    0  0.00000000000E+00  0.00000000000E+00  0.45593999997E+02  0.45594000000E+02  0.51100000000E-03 0. -1.
         11   -1    0    0    0    0 -0.00000000000E+00 -0.00000000000E+00 -0.45593999997E+02  0.45594000000E+02  0.51100000000E-03 0.  1.
         23    2    1    2    0    0  0.88817841970E-15 -0.35527136788E-14 -0.71054273576E-14  0.91188000000E+02  0.91188000000E+02 0.  0.
    9900012    2    3    3    0    0 -0.66092077284E+01  0.18444937881E+02 -0.38726315847E+02  0.47787252318E+02  0.19999914620E+02 0.  0.
         12    1    3    3    0    0  0.66092077284E+01 -0.18444937881E+02  0.38726315847E+02  0.43400747682E+02  0.00000000000E+00 0. -1.
         11    1    4    4    0    0 -0.49383643624E+01  0.13402003836E+02 -0.22849174651E+02  0.26945981739E+02  0.51100000000E-03 0.  1.
        -11    1    4    4    0    0  0.44854418505E+01  0.56564890546E+01 -0.97721109702E+01  0.12149453078E+02  0.51100000000E-03 0. -1.
         12    1    4    4    0    0 -0.61562852164E+01 -0.61355500904E+00 -0.61050302263E+01  0.86918175015E+01  0.00000000000E+00 0. -1.
</event>
<event>
 8    1  0.1280823E-010  0.9118800E+02  0.7816164E-02  0.1184000E+00
        -11   -1    0    0    0    0  0.00000000000E+00  0.00000000000E+00  0.45593999997E+02  0.45594000000E+02  0.51100000000E-03 0. -1.
         11   -1    0    0    0    0 -0.00000000000E+00 -0.00000000000E+00 -0.45593999997E+02  0.45594000000E+02  0.51100000000E-03 0.  1.
         23    2    1    2    0    0  0.00000000000E+00  0.00000000000E+00 -0.35527136788E-14  0.91188000000E+02  0.91188000000E+02 0.  0.
    9900012    2    3    3    0    0  0.34216290747E+02 -0.84349956346E+01 -0.25332188060E+02  0.47787268949E+02  0.19999990447E+02 0.  0.
         12    1    3    3    0    0 -0.34216290747E+02  0.84349956346E+01  0.25332188060E+02  0.43400731051E+02  0.00000000000E+00 0. -1.
         11    1    4    4    0    0  0.29295813428E+00  0.15462461831E+01  0.89341648490E+00  0.18096670975E+01  0.51100000000E-03 0. -1.
        -11    1    4    4    0    0  0.39975547470E+01 -0.42213061889E+01 -0.97037227949E+01  0.11312033691E+02  0.51100000000E-03 0.  1.
        -12    1    4    4    0    0  0.29925777866E+02 -0.57599356288E+01 -0.16521881750E+02  0.34665568160E+02  0.00000000000E+00 0.  1.
</event>
<event>
 8    1  0.1280823E-010  0.9118800E+02  0.7816164E-02  0.1184000E+00
        -11   -1    0    0    0    0  0.00000000000E+00  0.00000000000E+00  0.45593999997E+02  0.45594000000E+02  0.51100000000E-03 0. -1.
         11   -1    0    0    0    0 -0.00000000000E+00 -0.00000000000E+00 -0.45593999997E+02  0.45594000000E+02  0.51100000000E-03 0.  1.
         23    2    1    2    0    0 -0.88817841970E-15  0.55511151231E-16  0.71054273576E-14  0.91188000000E+02  0.91188000000E+02 0.  0.
    9900012    2    3    3    0    0  0.74354065131E+01 -0.16663934113E+00  0.42758745338E+02  0.47787270265E+02  0.19999996444E+02 0.  0.
        -12    1    3    3    0    0 -0.74354065131E+01  0.16663934113E+00 -0.42758745338E+02  0.43400729735E+02  0.00000000000E+00 0.  1.
         11    1    4    4    0    0 -0.20463588596E+01 -0.72253619323E+00  0.66343060813E+01  0.69802335616E+01  0.51100000000E-03 0. -1.
        -11    1    4    4    0    0 -0.30493536821E+01  0.40516473668E+00  0.20728084246E+02  0.20955099454E+02  0.51100000000E-03 0.  1.
         12    1    4    4    0    0  0.12531119055E+02  0.15073211543E+00  0.15396355011E+02  0.19851937249E+02  0.00000000000E+00 0. -1.
</event>
<event>
 8    1  0.1280823E-010  0.9118800E+02  0.7816164E-02  0.1184000E+00
        -11   -1    0    0    0    0  0.00000000000E+00  0.00000000000E+00  0.45593999997E+02  0.45594000000E+02  0.51100000000E-03 0.  1.
         11   -1    0    0    0    0 -0.00000000000E+00 -0.00000000000E+00 -0.45593999997E+02  0.45594000000E+02  0.51100000000E-03 0. -1.
         23    2    1    2    0    0  0.00000000000E+00  0.00000000000E+00  0.00000000000E+00  0.91188000000E+02  0.91188000000E+02 0.  0.
    9900012    2    3    3    0    0 -0.39190477916E+02 -0.86328404391E+01 -0.16528896810E+02  0.47787263566E+02  0.19999965901E+02 0.  0.
         12    1    3    3    0    0  0.39190477916E+02  0.86328404391E+01  0.16528896810E+02  0.43400736434E+02  0.00000000000E+00 0. -1.
         11    1    4    4    0    0 -0.20714488886E+02 -0.68242776023E+01 -0.16228780136E+02  0.27185181986E+02  0.51100000000E-03 0. -1.
        -11    1    4    4    0    0 -0.14051613836E+02 -0.15335731921E+00 -0.39899881815E+01  0.14607921680E+02  0.51100000000E-03 0.  1.
        -12    1    4    4    0    0 -0.44243751928E+01 -0.16552055176E+01  0.36898715084E+01  0.59941598995E+01  0.00000000000E+00 0.  1.
</event>
<event>
 8    1  0.1280823E-010  0.9118800E+02  0.7816164E-02  0.1184000E+00
        -11   -1    0    0    0    0  0.00000000000E+00  0.00000000000E+00  0.45593999997E+02  0.45594000000E+02  0.51100000000E-03 0. -1.
         11   -1    0    0    0    0 -0.00000000000E+00 -0.00000000000E+00 -0.45593999997E+02  0.45594000000E+02  0.51100000000E-03 0.  1.
         23    2    1    2    0    0  0.00000000000E+00  0.00000000000E+00  0.00000000000E+00  0.91188000000E+02  0.91188000000E+02 0.  0.
    9900012    2    3    3    0    0  0.89133258822E+01  0.35429775438E+02  0.23428759134E+02  0.47787272813E+02  0.20000008062E+02 0.  0.
        -12    1    3    3    0    0 -0.89133258822E+01 -0.35429775438E+02 -0.23428759134E+02  0.43400727187E+02  0.00000000000E+00 0.  1.
         11    1    4    4    0    0  0.92790725665E+01  0.11945136733E+02  0.34361167774E+01  0.15511104991E+02  0.51100000000E-03 0. -1.
        -11    1    4    4    0    0 -0.47422553906E+00 -0.33184398155E+00  0.29088776840E+01  0.29659028864E+01  0.51100000000E-03 0.  1.
         12    1    4    4    0    0  0.10847885472E+00  0.23816482686E+02  0.17083764672E+02  0.29310264936E+02  0.00000000000E+00 0. -1.
</event>
<event>
 8    1  0.1280823E-010  0.9118800E+02  0.7816164E-02  0.1184000E+00
        -11   -1    0    0    0    0  0.00000000000E+00  0.00000000000E+00  0.45593999997E+02  0.45594000000E+02  0.51100000000E-03 0. -1.
         11   -1    0    0    0    0 -0.00000000000E+00 -0.00000000000E+00 -0.45593999997E+02  0.45594000000E+02  0.51100000000E-03 0.  1.
         23    2    1    2    0    0  0.00000000000E+00  0.00000000000E+00  0.35527136788E-14  0.91188000000E+02  0.91188000000E+02 0.  0.
    9900012    2    3    3    0    0 -0.15450814099E+02  0.35197655040E+02 -0.20149956202E+02  0.47787270610E+02  0.19999998019E+02 0.  0.
         12    1    3    3    0    0  0.15450814099E+02 -0.35197655040E+02  0.20149956202E+02  0.43400729390E+02  0.00000000000E+00 0. -1.
         11    1    4    4    0    0 -0.35478456123E+01  0.10353364031E+01 -0.68986143465E+01  0.78262385678E+01  0.51100000000E-03 0. -1.
        -11    1    4    4    0    0 -0.41545312502E+01  0.16627426663E+02 -0.11650892672E+02  0.20723772524E+02  0.51100000000E-03 0.  1.
         12    1    4    4    0    0 -0.77484372364E+01  0.17534891974E+02 -0.16004491836E+01  0.19237259518E+02  0.00000000000E+00 0. -1.
</event>
<event>
 8    1  0.1280823E-010  0.9118800E+02  0.7816164E-02  0.1184000E+00
        -11   -1    0    0    0    0  0.00000000000E+00  0.00000000000E+00  0.45593999997E+02  0.45594000000E+02  0.51100000000E-03 0. -1.
         11   -1    0    0    0    0 -0.00000000000E+00 -0.00000000000E+00 -0.45593999997E+02  0.45594000000E+02  0.51100000000E-03 0.  1.
         23    2    1    2    0    0  0.00000000000E+00  0.00000000000E+00  0.00000000000E+00  0.91188000000E+02  0.91188000000E+02 0.  0.
    9900012    2    3    3    0    0 -0.23613699500E+02 -0.12705104995E+02  0.34126181094E+02  0.47787277275E+02  0.20000028409E+02 0.  0.
        -12    1    3    3    0    0  0.23613699500E+02  0.12705104995E+02 -0.34126181094E+02  0.43400722725E+02  0.00000000000E+00 0.  1.
         11    1    4    4    0    0 -0.66919559364E+01 -0.88621909001E+00  0.81717123028E+01  0.10599270765E+02  0.51100000000E-03 0. -1.
        -11    1    4    4    0    0  0.31835840191E+01  0.22477362535E+00  0.28841597325E+01  0.43016401538E+01  0.51100000000E-03 0.  1.
         12    1    4    4    0    0 -0.20105327582E+02 -0.12043659530E+02  0.23070309059E+02  0.32886366356E+02  0.00000000000E+00 0. -1.
</event>
<event>
 8    1  0.1280823E-010  0.9118800E+02  0.7816164E-02  0.1184000E+00
        -11   -1    0    0    0    0  0.00000000000E+00  0.00000000000E+00  0.45593999997E+02  0.45594000000E+02  0.51100000000E-03 0. -1.
         11   -1    0    0    0    0 -0.00000000000E+00 -0.00000000000E+00 -0.45593999997E+02  0.45594000000E+02  0.51100000000E-03 0.  1.
         23    2    1    2    0    0  0.00000000000E+00  0.00000000000E+00  0.00000000000E+00  0.91188000000E+02  0.91188000000E+02 0.  0.
    9900012    2    3    3    0    0  0.39660469615E+01  0.19475434633E+02  0.38582395417E+02  0.47787270527E+02  0.19999997641E+02 0.  0.
        -12    1    3    3    0    0 -0.39660469615E+01 -0.19475434633E+02 -0.38582395417E+02  0.43400729473E+02  0.00000000000E+00 0.  1.
         11    1    4    4    0    0  0.87806050558E-02 -0.11083105980E+00 -0.14512995202E+00  0.18282118842E+00  0.51100000000E-03 0. -1.
        -11    1    4    4    0    0 -0.69202518512E+01  0.56650733175E+01  0.72700701215E+01  0.11525487461E+02  0.51100000000E-03 0.  1.
         12    1    4    4    0    0  0.10877518208E+02  0.13921192376E+02  0.31457455248E+02  0.36078961878E+02  0.00000000000E+00 0. -1.
</event>
<event>
 8    1  0.1280823E-010  0.9118800E+02  0.7816164E-02  0.1184000E+00
        -11   -1    0    0    0    0  0.00000000000E+00  0.00000000000E+00  0.45593999997E+02  0.45594000000E+02  0.51100000000E-03 0. -1.
         11   -1    0    0    0    0 -0.00000000000E+00 -0.00000000000E+00 -0.45593999997E+02  0.45594000000E+02  0.51100000000E-03 0.  1.
         23    2    1    2    0    0  0.00000000000E+00  0.00000000000E+00  0.00000000000E+00  0.91188000000E+02  0.91188000000E+02 0.  0.
    9900012    2    3    3    0    0  0.27112787057E+02  0.18770824065E+02  0.28216594524E+02  0.47787271151E+02  0.20000000487E+02 0.  0.
        -12    1    3    3    0    0 -0.27112787057E+02 -0.18770824065E+02 -0.28216594524E+02  0.43400728849E+02  0.00000000000E+00 0.  1.
         11    1    4    4    0    0  0.70953651074E+01  0.37822145531E+01  0.12135437527E+01  0.81315460790E+01  0.51100000000E-03 0. -1.
        -11    1    4    4    0    0 -0.18785361250E+01  0.35895426993E+01  0.19934201523E+01  0.45152451681E+01  0.51100000000E-03 0.  1.
         12    1    4    4    0    0  0.21895958074E+02  0.11399066812E+02  0.25009630619E+02  0.35140479904E+02  0.00000000000E+00 0. -1.
</event>
<event>
 8    1  0.1280823E-010  0.9118800E+02  0.7816164E-02  0.1184000E+00
        -11   -1    0    0    0    0  0.00000000000E+00  0.00000000000E+00  0.45593999997E+02  0.45594000000E+02  0.51100000000E-03 0.  1.
         11   -1    0    0    0    0 -0.00000000000E+00 -0.00000000000E+00 -0.45593999997E+02  0.45594000000E+02  0.51100000000E-03 0. -1.
         23    2    1    2    0    0  0.00000000000E+00  0.00000000000E+00  0.35527136788E-14  0.91188000000E+02  0.91188000000E+02 0.  0.
    9900012    2    3    3    0    0  0.90570977773E+01 -0.34667204103E+02 -0.24490344303E+02  0.47787273917E+02  0.20000013096E+02 0.  0.
         12    1    3    3    0    0 -0.90570977773E+01  0.34667204103E+02  0.24490344303E+02  0.43400726083E+02  0.00000000000E+00 0. -1.
         11    1    4    4    0    0  0.43687677044E-01 -0.12042608980E+02 -0.55750724268E+01  0.13270560368E+02  0.51100000000E-03 0. -1.
        -11    1    4    4    0    0  0.14931231218E+01 -0.19713218428E+02 -0.89607610288E+01  0.21705659076E+02  0.51100000000E-03 0.  1.
         12    1    4    4    0    0  0.75202869784E+01 -0.29113766958E+01 -0.99545108474E+01  0.12811054473E+02  0.00000000000E+00 0. -1.
</event>
<event>
 8    1  0.1280823E-010  0.9118800E+02  0.7816164E-02  0.1184000E+00
        -11   -1    0    0    0    0  0.00000000000E+00  0.00000000000E+00  0.45593999997E+02  0.45594000000E+02  0.51100000000E-03 0. -1.
         11   -1    0    0    0    0 -0.00000000000E+00 -0.00000000000E+00 -0.45593999997E+02  0.45594000000E+02  0.51100000000E-03 0.  1.
         23    2    1    2    0    0 -0.35527136788E-14  0.00000000000E+00  0.00000000000E+00  0.91188000000E+02  0.91188000000E+02 0.  0.
    9900012    2    3    3    0    0  0.22023179943E+02  0.27867151348E+02  0.24940426227E+02  0.47787269137E+02  0.19999991305E+02 0.  0.
        -12    1    3    3    0    0 -0.22023179943E+02 -0.27867151348E+02 -0.24940426227E+02  0.43400730863E+02  0.00000000000E+00 0.  1.
         11    1    4    4    0    0  0.53817849710E+01  0.99952782316E+01  0.50332126324E+01  0.12417826946E+02  0.51100000000E-03 0. -1.
        -11    1    4    4    0    0  0.17347897646E+02  0.13944042589E+02  0.94569153333E+01  0.24183033812E+02  0.51100000000E-03 0.  1.
        -12    1    4    4    0    0 -0.70650267439E+00  0.39278305273E+01  0.10450298261E+02  0.11186408379E+02  0.00000000000E+00 0.  1.
</event>
<event>
 8    1  0.1280823E-010  0.9118800E+02  0.7816164E-02  0.1184000E+00
        -11   -1    0    0    0    0  0.00000000000E+00  0.00000000000E+00  0.45593999997E+02  0.45594000000E+02  0.51100000000E-03 0. -1.
         11   -1    0    0    0    0 -0.00000000000E+00 -0.00000000000E+00 -0.45593999997E+02  0.45594000000E+02  0.51100000000E-03 0.  1.
         23    2    1    2    0    0  0.00000000000E+00  0.17763568394E-14  0.00000000000E+00  0.91188000000E+02  0.91188000000E+02 0.  0.
    9900012    2    3    3    0    0  0.32623078207E+02  0.11913224202E+02  0.26027543195E+02  0.47787272502E+02  0.20000006647E+02 0.  0.
        -12    1    3    3    0    0 -0.32623078207E+02 -0.11913224202E+02 -0.26027543195E+02  0.43400727498E+02  0.00000000000E+00 0.  1.
         11    1    4    4    0    0  0.79366631394E+01  0.81705314421E-02  0.29146083530E+00  0.79420172642E+01  0.51100000000E-03 0. -1.
        -11    1    4    4    0    0  0.82532978041E+01  0.60630516085E+01  0.20718498586E+01  0.10448448763E+02  0.51100000000E-03 0.  1.
        -12    1    4    4    0    0  0.16433117263E+02  0.58420020619E+01  0.23664232501E+02  0.29396806475E+02  0.00000000000E+00 0.  1.
</event>
<event>
 8    1  0.1280823E-010  0.9118800E+02  0.7816164E-02  0.1184000E+00
        -11   -1    0    0    0    0  0.00000000000E+00  0.00000000000E+00  0.45593999997E+02  0.45594000000E+02  0.51100000000E-03 0.  1.
         11   -1    0    0    0    0 -0.00000000000E+00 -0.00000000000E+00 -0.45593999997E+02  0.45594000000E+02  0.51100000000E-03 0. -1.
         23    2    1    2    0    0  0.00000000000E+00  0.00000000000E+00  0.00000000000E+00  0.91188000000E+02  0.91188000000E+02 0.  0.
    9900012    2    3    3    0    0 -0.27435271131E+02 -0.10581096029E+01 -0.33612637323E+02  0.47787273212E+02  0.20000009881E+02 0.  0.
         12    1    3    3    0    0  0.27435271131E+02  0.10581096029E+01  0.33612637323E+02  0.43400726788E+02  0.00000000000E+00 0. -1.
         11    1    4    4    0    0 -0.86964724745E+01 -0.37207216469E+01 -0.16917359770E+02  0.19382194533E+02  0.51100000000E-03 0. -1.
        -11    1    4    4    0    0  0.19805891902E+01 -0.40178391717E+00 -0.11863580880E+01  0.23434183643E+01  0.51100000000E-03 0.  1.
        -12    1    4    4    0    0 -0.20719387847E+02  0.30643959611E+01 -0.15508919465E+02  0.26061660314E+02  0.00000000000E+00 0.  1.
</event>
<event>
 8    1  0.1280823E-010  0.9118800E+02  0.7816164E-02  0.1184000E+00
        -11   -1    0    0    0    0  0.00000000000E+00  0.00000000000E+00  0.45593999997E+02  0.45594000000E+02  0.51100000000E-03 0. -1.
         11   -1    0    0    0    0 -0.00000000000E+00 -0.00000000000E+00 -0.45593999997E+02  0.45594000000E+02  0.51100000000E-03 0.  1.
         23    2    1    2    0    0  0.00000000000E+00 -0.17763568394E-14  0.35527136788E-14  0.91188000000E+02  0.91188000000E+02 0.  0.
    9900012    2    3    3    0    0  0.37693460135E+02 -0.12868156301E+02 -0.17240549766E+02  0.47787274894E+02  0.20000017551E+02 0.  0.
         12    1    3    3    0    0 -0.37693460135E+02  0.12868156301E+02  0.17240549766E+02  0.43400725106E+02  0.00000000000E+00 0. -1.
         11    1    4    4    0    0  0.14704613910E+02  0.43178195439E+01 -0.34052223680E+01  0.15699196652E+02  0.51100000000E-03 0. -1.
        -11    1    4    4    0    0  0.89743257558E+01 -0.45969494477E+01 -0.55292738961E+01  0.11499710304E+02  0.51100000000E-03 0.  1.
         12    1    4    4    0    0  0.14014520469E+02 -0.12589026397E+02 -0.83060535014E+01  0.20588367938E+02  0.00000000000E+00 0. -1.
</event>
<event>
 8    1  0.1280823E-010  0.9118800E+02  0.7816164E-02  0.1184000E+00
        -11   -1    0    0    0    0  0.00000000000E+00  0.00000000000E+00  0.45593999997E+02  0.45594000000E+02  0.51100000000E-03 0. -1.
         11   -1    0    0    0    0 -0.00000000000E+00 -0.00000000000E+00 -0.45593999997E+02  0.45594000000E+02  0.51100000000E-03 0.  1.
         23    2    1    2    0    0  0.44408920985E-15 -0.35527136788E-14  0.71054273576E-14  0.91188000000E+02  0.91188000000E+02 0.  0.
    9900012    2    3    3    0    0  0.22044475052E+01 -0.18605512574E+02  0.39148430008E+02  0.47787259695E+02  0.19999948252E+02 0.  0.
        -12    1    3    3    0    0 -0.22044475052E+01  0.18605512574E+02 -0.39148430008E+02  0.43400740305E+02  0.00000000000E+00 0.  1.
         11    1    4    4    0    0  0.79062514498E+01 -0.46119285156E+01  0.19102113404E+02  0.21181818463E+02  0.51100000000E-03 0. -1.
        -11    1    4    4    0    0 -0.67943415456E+00 -0.24875967427E+01  0.10559362192E+02  0.10869677938E+02  0.51100000000E-03 0.  1.
        -12    1    4    4    0    0 -0.50223697900E+01 -0.11505987316E+02  0.94869544121E+01  0.15735763294E+02  0.00000000000E+00 0.  1.
</event>
<event>
 8    1  0.1280823E-010  0.9118800E+02  0.7816164E-02  0.1184000E+00
        -11   -1    0    0    0    0  0.00000000000E+00  0.00000000000E+00  0.45593999997E+02  0.45594000000E+02  0.51100000000E-03 0. -1.
         11   -1    0    0    0    0 -0.00000000000E+00 -0.00000000000E+00 -0.45593999997E+02  0.45594000000E+02  0.51100000000E-03 0.  1.
         23    2    1    2    0    0 -0.44408920985E-15  0.00000000000E+00  0.00000000000E+00  0.91188000000E+02  0.91188000000E+02 0.  0.
    9900012    2    3    3    0    0  0.25266168466E+01 -0.35959593376E+02  0.24169130295E+02  0.47787274112E+02  0.20000013984E+02 0.  0.
        -12    1    3    3    0    0 -0.25266168466E+01  0.35959593376E+02 -0.24169130295E+02  0.43400725888E+02  0.00000000000E+00 0.  1.
         11    1    4    4    0    0 -0.44174130141E+01 -0.53764517918E+01  0.89363937035E+01  0.11326027737E+02  0.51100000000E-03 0. -1.
        -11    1    4    4    0    0 -0.20802683790E+01 -0.98903047415E+01  0.20288235176E+01  0.10308334954E+02  0.51100000000E-03 0.  1.
         12    1    4    4    0    0  0.90242982397E+01 -0.20692836842E+02  0.13203913074E+02  0.26152911420E+02  0.00000000000E+00 0. -1.
</event>
<event>
 8    1  0.1280823E-010  0.9118800E+02  0.7816164E-02  0.1184000E+00
        -11   -1    0    0    0    0  0.00000000000E+00  0.00000000000E+00  0.45593999997E+02  0.45594000000E+02  0.51100000000E-03 0. -1.
         11   -1    0    0    0    0 -0.00000000000E+00 -0.00000000000E+00 -0.45593999997E+02  0.45594000000E+02  0.51100000000E-03 0.  1.
         23    2    1    2    0    0  0.00000000000E+00  0.00000000000E+00  0.00000000000E+00  0.91188000000E+02  0.91188000000E+02 0.  0.
    9900012    2    3    3    0    0  0.94196835986E+01  0.13297792925E+02  0.40225114788E+02  0.47787290380E+02  0.20000088160E+02 0.  0.
        -12    1    3    3    0    0 -0.94196835986E+01 -0.13297792925E+02 -0.40225114788E+02  0.43400709620E+02  0.00000000000E+00 0.  1.
         11    1    4    4    0    0 -0.12291858649E+01  0.85565212260E+01  0.14528154190E+02  0.16905390200E+02  0.51100000000E-03 0. -1.
        -11    1    4    4    0    0  0.71494602473E+01  0.53902354009E+01  0.25812120153E+02  0.27320962035E+02  0.51100000000E-03 0.  1.
         12    1    4    4    0    0  0.34994092161E+01 -0.64896370231E+00 -0.11515955451E+00  0.35609381449E+01  0.00000000000E+00 0. -1.
</event>
<event>
 8    1  0.1280823E-010  0.9118800E+02  0.7816164E-02  0.1184000E+00
        -11   -1    0    0    0    0  0.00000000000E+00  0.00000000000E+00  0.45593999997E+02  0.45594000000E+02  0.51100000000E-03 0. -1.
         11   -1    0    0    0    0 -0.00000000000E+00 -0.00000000000E+00 -0.45593999997E+02  0.45594000000E+02  0.51100000000E-03 0.  1.
         23    2    1    2    0    0  0.00000000000E+00 -0.35527136788E-14 -0.71054273576E-14  0.91188000000E+02  0.91188000000E+02 0.  0.
    9900012    2    3    3    0    0 -0.69427163234E+01  0.23511184332E+02 -0.35814053700E+02  0.47787267966E+02  0.19999985965E+02 0.  0.
         12    1    3    3    0    0  0.69427163234E+01 -0.23511184332E+02  0.35814053700E+02  0.43400732034E+02  0.00000000000E+00 0. -1.
         11    1    4    4    0    0 -0.50918817076E+01  0.83134822067E+01 -0.60840070184E+01  0.11491578977E+02  0.51100000000E-03 0. -1.
        -11    1    4    4    0    0 -0.16896478196E+00  0.14333041086E+02 -0.30906360821E+02  0.34068574307E+02  0.51100000000E-03 0.  1.
        -12    1    4    4    0    0 -0.16818698338E+01  0.86466103912E+00  0.11763141395E+01  0.22271146817E+01  0.00000000000E+00 0.  1.
</event>
<event>
 8    1  0.1280823E-010  0.9118800E+02  0.7816164E-02  0.1184000E+00
        -11   -1    0    0    0    0  0.00000000000E+00  0.00000000000E+00  0.45593999997E+02  0.45594000000E+02  0.51100000000E-03 0. -1.
         11   -1    0    0    0    0 -0.00000000000E+00 -0.00000000000E+00 -0.45593999997E+02  0.45594000000E+02  0.51100000000E-03 0.  1.
         23    2    1    2    0    0  0.71054273576E-14 -0.35527136788E-14 -0.17763568394E-14  0.91188000000E+02  0.91188000000E+02 0.  0.
    9900012    2    3    3    0    0  0.38034474373E+02 -0.16722724871E+02 -0.12544014678E+02  0.47787273368E+02  0.20000010596E+02 0.  0.
         12    1    3    3    0    0 -0.38034474373E+02  0.16722724871E+02  0.12544014678E+02  0.43400726632E+02  0.00000000000E+00 0. -1.
         11    1    4    4    0    0  0.49618330286E+01 -0.54621292994E+01 -0.40433015934E+01  0.84144477848E+01  0.51100000000E-03 0. -1.
        -11    1    4    4    0    0  0.16191738247E+02 -0.92848609285E+01 -0.11768607418E+02  0.22065383539E+02  0.51100000000E-03 0.  1.
         12    1    4    4    0    0  0.16880903097E+02 -0.19757346431E+01  0.32678943331E+01  0.17307442045E+02  0.00000000000E+00 0. -1.
</event>
<event>
 8    1  0.1280823E-010  0.9118800E+02  0.7816164E-02  0.1184000E+00
        -11   -1    0    0    0    0  0.00000000000E+00  0.00000000000E+00  0.45593999997E+02  0.45594000000E+02  0.51100000000E-03 0. -1.
         11   -1    0    0    0    0 -0.00000000000E+00 -0.00000000000E+00 -0.45593999997E+02  0.45594000000E+02  0.51100000000E-03 0.  1.
         23    2    1    2    0    0 -0.17763568394E-14 -0.44408920985E-15  0.71054273576E-14  0.91188000000E+02  0.91188000000E+02 0.  0.
    9900012    2    3    3    0    0 -0.93258009895E+01 -0.32897846411E+01  0.42259081570E+02  0.47787271640E+02  0.20000002715E+02 0.  0.
        -12    1    3    3    0    0  0.93258009895E+01  0.32897846411E+01 -0.42259081570E+02  0.43400728360E+02  0.00000000000E+00 0.  1.
         11    1    4    4    0    0 -0.45894632902E+01 -0.27997780638E+01  0.14876079605E+02  0.15817701324E+02  0.51100000000E-03 0. -1.
        -11    1    4    4    0    0 -0.10050954018E+02 -0.29939338574E+01  0.19460336088E+02  0.22106333878E+02  0.51100000000E-03 0.  1.
         12    1    4    4    0    0  0.53146163184E+01  0.25039272802E+01  0.79226658766E+01  0.98632364378E+01  0.00000000000E+00 0. -1.
</event>
<event>
 8    1  0.1501682E-010  0.9118800E+02  0.7816164E-02  0.1184000E+00
        -11   -1    0    0    0    0  0.00000000000E+00  0.00000000000E+00  0.45593999997E+02  0.45594000000E+02  0.51100000000E-03 0. -1.
         11   -1    0    0    0    0 -0.00000000000E+00 -0.00000000000E+00 -0.45593999997E+02  0.45594000000E+02  0.51100000000E-03 0.  1.
         23    2    1    2    0    0 -0.88817841970E-15  0.00000000000E+00  0.00000000000E+00  0.91188000000E+02  0.91188000000E+02 0.  0.
    9900012    2    3    3    0    0  0.52539006570E+01  0.20726986408E+02 -0.37767871352E+02  0.47787267931E+02  0.19999985805E+02 0.  0.
         12    1    3    3    0    0 -0.52539006570E+01 -0.20726986408E+02  0.37767871352E+02  0.43400732069E+02  0.00000000000E+00 0. -1.
         11    1    4    4    0    0 -0.38019359341E+01  0.13794963221E+01 -0.40465256452E+01  0.57211971656E+01  0.51100000000E-03 0. -1.
        -11    1    4    4    0    0 -0.15998695999E+01  0.25291620691E+01 -0.10305332374E+00  0.29944722001E+01  0.51100000000E-03 0.  1.
        -12    1    4    4    0    0  0.10655706191E+02  0.16818328017E+02 -0.33618292383E+02  0.39071598565E+02  0.00000000000E+00 0.  1.
</event>
<event>
 8    1  0.1280823E-010  0.9118800E+02  0.7816164E-02  0.1184000E+00
        -11   -1    0    0    0    0  0.00000000000E+00  0.00000000000E+00  0.45593999997E+02  0.45594000000E+02  0.51100000000E-03 0. -1.
         11   -1    0    0    0    0 -0.00000000000E+00 -0.00000000000E+00 -0.45593999997E+02  0.45594000000E+02  0.51100000000E-03 0.  1.
         23    2    1    2    0    0  0.00000000000E+00  0.00000000000E+00  0.00000000000E+00  0.91188000000E+02  0.91188000000E+02 0.  0.
    9900012    2    3    3    0    0  0.18532273123E+02  0.33685407754E+02  0.20136322819E+02  0.47787270290E+02  0.19999996561E+02 0.  0.
        -12    1    3    3    0    0 -0.18532273123E+02 -0.33685407754E+02 -0.20136322819E+02  0.43400729710E+02  0.00000000000E+00 0.  1.
         11    1    4    4    0    0  0.12230139265E+00  0.76241295115E+01  0.61263988040E+01  0.97813634533E+01  0.51100000000E-03 0. -1.
        -11    1    4    4    0    0  0.47917257641E+01  0.71662948352E+01  0.11795222439E+02  0.14609712184E+02  0.51100000000E-03 0.  1.
        -12    1    4    4    0    0  0.13618245966E+02  0.18894983408E+02  0.22147015768E+01  0.23396194653E+02  0.00000000000E+00 0.  1.
</event>
<event>
 8    1  0.1280823E-010  0.9118800E+02  0.7816164E-02  0.1184000E+00
        -11   -1    0    0    0    0  0.00000000000E+00  0.00000000000E+00  0.45593999997E+02  0.45594000000E+02  0.51100000000E-03 0. -1.
         11   -1    0    0    0    0 -0.00000000000E+00 -0.00000000000E+00 -0.45593999997E+02  0.45594000000E+02  0.51100000000E-03 0.  1.
         23    2    1    2    0    0  0.35527136788E-14  0.35527136788E-14  0.00000000000E+00  0.91188000000E+02  0.91188000000E+02 0.  0.
    9900012    2    3    3    0    0 -0.29418914507E+02 -0.28987797517E+02  0.13336325431E+02  0.47787279826E+02  0.20000040036E+02 0.  0.
        -12    1    3    3    0    0  0.29418914507E+02  0.28987797517E+02 -0.13336325431E+02  0.43400720174E+02  0.00000000000E+00 0.  1.
         11    1    4    4    0    0 -0.67620261192E+01 -0.67600104802E+01  0.23119033453E+00  0.95643184891E+01  0.51100000000E-03 0. -1.
        -11    1    4    4    0    0 -0.14670828377E+02 -0.14257680642E+02 -0.60576233329E+00  0.20466597442E+02  0.51100000000E-03 0.  1.
         12    1    4    4    0    0 -0.79860600104E+01 -0.79701063949E+01  0.13710897430E+02  0.17756363895E+02  0.00000000000E+00 0. -1.
</event>
<event>
 8    1  0.1280823E-010  0.9118800E+02  0.7816164E-02  0.1184000E+00
        -11   -1    0    0    0    0  0.00000000000E+00  0.00000000000E+00  0.45593999997E+02  0.45594000000E+02  0.51100000000E-03 0. -1.
         11   -1    0    0    0    0 -0.00000000000E+00 -0.00000000000E+00 -0.45593999997E+02  0.45594000000E+02  0.51100000000E-03 0.  1.
         23    2    1    2    0    0  0.00000000000E+00 -0.35527136788E-14  0.00000000000E+00  0.91188000000E+02  0.91188000000E+02 0.  0.
    9900012    2    3    3    0    0 -0.17734937581E+02 -0.19617623254E+02 -0.34412848719E+02  0.47787270627E+02  0.19999998098E+02 0.  0.
         12    1    3    3    0    0  0.17734937581E+02  0.19617623254E+02  0.34412848719E+02  0.43400729373E+02  0.00000000000E+00 0. -1.
         11    1    4    4    0    0 -0.60652391857E+01 -0.13055042877E+02 -0.16698958652E+02  0.22047142473E+02  0.51100000000E-03 0. -1.
        -11    1    4    4    0    0 -0.17602385485E+01 -0.61725313317E+01 -0.12787859981E+01  0.65447594821E+01  0.51100000000E-03 0.  1.
         12    1    4    4    0    0 -0.99094598470E+01 -0.39004904539E+00 -0.16435104069E+02  0.19195368672E+02  0.00000000000E+00 0. -1.
</event>
<event>
 8    1  0.1280823E-010  0.9118800E+02  0.7816164E-02  0.1184000E+00
        -11   -1    0    0    0    0  0.00000000000E+00  0.00000000000E+00  0.45593999997E+02  0.45594000000E+02  0.51100000000E-03 0. -1.
         11   -1    0    0    0    0 -0.00000000000E+00 -0.00000000000E+00 -0.45593999997E+02  0.45594000000E+02  0.51100000000E-03 0.  1.
         23    2    1    2    0    0 -0.88817841970E-15  0.00000000000E+00  0.00000000000E+00  0.91188000000E+02  0.91188000000E+02 0.  0.
    9900012    2    3    3    0    0 -0.77980535569E+01  0.26406665671E+02 -0.33548496174E+02  0.47787271588E+02  0.20000002478E+02 0.  0.
         12    1    3    3    0    0  0.77980535569E+01 -0.26406665671E+02  0.33548496174E+02  0.43400728412E+02  0.00000000000E+00 0. -1.
         11    1    4    4    0    0 -0.45141318923E+00 -0.20503450107E+01 -0.81880619665E+00  0.22534711844E+01  0.51100000000E-03 0. -1.
        -11    1    4    4    0    0 -0.90664378927E+01  0.15248907479E+02 -0.14254610627E+02  0.22757930480E+02  0.51100000000E-03 0.  1.
        -12    1    4    4    0    0  0.17197975250E+01  0.13208103203E+02 -0.18475079350E+02  0.22775869923E+02  0.00000000000E+00 0.  1.
</event>
<event>
 8    1  0.1280823E-010  0.9118800E+02  0.7816164E-02  0.1184000E+00
        -11   -1    0    0    0    0  0.00000000000E+00  0.00000000000E+00  0.45593999997E+02  0.45594000000E+02  0.51100000000E-03 0. -1.
         11   -1    0    0    0    0 -0.00000000000E+00 -0.00000000000E+00 -0.45593999997E+02  0.45594000000E+02  0.51100000000E-03 0.  1.
         23    2    1    2    0    0  0.35527136788E-14  0.00000000000E+00  0.00000000000E+00  0.91188000000E+02  0.91188000000E+02 0.  0.
    9900012    2    3    3    0    0  0.24353916808E+02 -0.12459300876E+02 -0.33693855602E+02  0.47787270195E+02  0.19999996128E+02 0.  0.
         12    1    3    3    0    0 -0.24353916808E+02  0.12459300876E+02  0.33693855602E+02  0.43400729805E+02  0.00000000000E+00 0. -1.
         11    1    4    4    0    0  0.25364078361E+01 -0.64532676529E+01  0.91712051555E-01  0.69344386560E+01  0.51100000000E-03 0. -1.
        -11    1    4    4    0    0  0.32007672673E+01  0.42443681677E+00 -0.56669714938E+01  0.65222407103E+01  0.51100000000E-03 0.  1.
        -12    1    4    4    0    0  0.18616741705E+02 -0.64304700401E+01 -0.28118596160E+02  0.34330590829E+02  0.00000000000E+00 0.  1.
</event>
<event>
 8    1  0.1280823E-010  0.9118800E+02  0.7816164E-02  0.1184000E+00
        -11   -1    0    0    0    0  0.00000000000E+00  0.00000000000E+00  0.45593999997E+02  0.45594000000E+02  0.51100000000E-03 0. -1.
         11   -1    0    0    0    0 -0.00000000000E+00 -0.00000000000E+00 -0.45593999997E+02  0.45594000000E+02  0.51100000000E-03 0.  1.
         23    2    1    2    0    0 -0.88817841970E-15  0.00000000000E+00  0.00000000000E+00  0.91188000000E+02  0.91188000000E+02 0.  0.
    9900012    2    3    3    0    0  0.65896923831E+01 -0.10887410301E+02 -0.41492934328E+02  0.47787270191E+02  0.19999996109E+02 0.  0.
         12    1    3    3    0    0 -0.65896923831E+01  0.10887410301E+02  0.41492934328E+02  0.43400729809E+02  0.00000000000E+00 0. -1.
         11    1    4    4    0    0  0.68471421007E+01 -0.76771961621E+01 -0.11322927658E+02  0.15298084418E+02  0.51100000000E-03 0. -1.
        -11    1    4    4    0    0  0.44149340071E+01 -0.46855509184E+01 -0.11420910812E+02  0.13110424620E+02  0.51100000000E-03 0.  1.
         12    1    4    4    0    0 -0.46723837247E+01  0.14753367794E+01 -0.18749095859E+02  0.19378761153E+02  0.00000000000E+00 0. -1.
</event>
<event>
 8    1  0.1280823E-010  0.9118800E+02  0.7816164E-02  0.1184000E+00
        -11   -1    0    0    0    0  0.00000000000E+00  0.00000000000E+00  0.45593999997E+02  0.45594000000E+02  0.51100000000E-03 0.  1.
         11   -1    0    0    0    0 -0.00000000000E+00 -0.00000000000E+00 -0.45593999997E+02  0.45594000000E+02  0.51100000000E-03 0. -1.
         23    2    1    2    0    0  0.00000000000E+00  0.00000000000E+00  0.88817841970E-15  0.91188000000E+02  0.91188000000E+02 0.  0.
    9900012    2    3    3    0    0  0.27147639052E+02 -0.33697750143E+02 -0.33303125888E+01  0.47787266680E+02  0.19999980100E+02 0.  0.
        -12    1    3    3    0    0 -0.27147639052E+02  0.33697750143E+02  0.33303125888E+01  0.43400733320E+02  0.00000000000E+00 0.  1.
         11    1    4    4    0    0  0.52129950411E+01 -0.32480530253E+01  0.26540025969E+01  0.66909562694E+01  0.51100000000E-03 0. -1.
        -11    1    4    4    0    0  0.81557104235E+01 -0.21099147836E+02  0.18446468373E+01  0.22695646590E+02  0.51100000000E-03 0.  1.
         12    1    4    4    0    0  0.13778933588E+02 -0.93505492809E+01 -0.78289620230E+01  0.18400663820E+02  0.00000000000E+00 0. -1.
</event>
<event>
 8    1  0.1280823E-010  0.9118800E+02  0.7816164E-02  0.1184000E+00
        -11   -1    0    0    0    0  0.00000000000E+00  0.00000000000E+00  0.45593999997E+02  0.45594000000E+02  0.51100000000E-03 0. -1.
         11   -1    0    0    0    0 -0.00000000000E+00 -0.00000000000E+00 -0.45593999997E+02  0.45594000000E+02  0.51100000000E-03 0.  1.
         23    2    1    2    0    0 -0.88817841970E-15 -0.71054273576E-14  0.00000000000E+00  0.91188000000E+02  0.91188000000E+02 0.  0.
    9900012    2    3    3    0    0 -0.49381298388E+01 -0.37343141946E+02  0.21557548503E+02  0.47787271041E+02  0.19999999985E+02 0.  0.
        -12    1    3    3    0    0  0.49381298388E+01  0.37343141946E+02 -0.21557548503E+02  0.43400728959E+02  0.00000000000E+00 0.  1.
         11    1    4    4    0    0  0.42647646435E+01 -0.88928896061E+01  0.36438690821E+01  0.10514251526E+02  0.51100000000E-03 0. -1.
        -11    1    4    4    0    0 -0.42738058960E+01 -0.57907227570E+00  0.15716655045E+01  0.45903021966E+01  0.51100000000E-03 0.  1.
         12    1    4    4    0    0 -0.49290885863E+01 -0.27871180064E+02  0.16342013917E+02  0.32682717318E+02  0.00000000000E+00 0. -1.
</event>
<event>
 8    1  0.1280823E-010  0.9118800E+02  0.7816164E-02  0.1184000E+00
        -11   -1    0    0    0    0  0.00000000000E+00  0.00000000000E+00  0.45593999997E+02  0.45594000000E+02  0.51100000000E-03 0.  1.
         11   -1    0    0    0    0 -0.00000000000E+00 -0.00000000000E+00 -0.45593999997E+02  0.45594000000E+02  0.51100000000E-03 0. -1.
         23    2    1    2    0    0  0.00000000000E+00  0.00000000000E+00 -0.17763568394E-14  0.91188000000E+02  0.91188000000E+02 0.  0.
    9900012    2    3    3    0    0 -0.36074335764E+02  0.19096908813E+02 -0.14750373462E+02  0.47787272537E+02  0.20000006807E+02 0.  0.
         12    1    3    3    0    0  0.36074335764E+02 -0.19096908813E+02  0.14750373462E+02  0.43400727463E+02  0.00000000000E+00 0. -1.
         11    1    4    4    0    0 -0.32377765145E+00 -0.18881371072E+01 -0.17020497423E+01  0.25625899574E+01  0.51100000000E-03 0. -1.
        -11    1    4    4    0    0 -0.13338820306E+02  0.61544163234E+01 -0.10845887695E+02  0.18260182025E+02  0.51100000000E-03 0.  1.
         12    1    4    4    0    0 -0.22411737806E+02  0.14830629596E+02 -0.22024360247E+01  0.26964500555E+02  0.00000000000E+00 0. -1.
</event>
<event>
 8    1  0.1280823E-010  0.9118800E+02  0.7816164E-02  0.1184000E+00
        -11   -1    0    0    0    0  0.00000000000E+00  0.00000000000E+00  0.45593999997E+02  0.45594000000E+02  0.51100000000E-03 0. -1.
         11   -1    0    0    0    0 -0.00000000000E+00 -0.00000000000E+00 -0.45593999997E+02  0.45594000000E+02  0.51100000000E-03 0.  1.
         23    2    1    2    0    0  0.00000000000E+00  0.17763568394E-14  0.00000000000E+00  0.91188000000E+02  0.91188000000E+02 0.  0.
    9900012    2    3    3    0    0  0.17380471658E+02 -0.11918986772E+02 -0.37940479290E+02  0.47787274090E+02  0.20000013888E+02 0.  0.
         12    1    3    3    0    0 -0.17380471658E+02  0.11918986772E+02  0.37940479290E+02  0.43400725910E+02  0.00000000000E+00 0. -1.
         11    1    4    4    0    0  0.27002597269E+01 -0.60310378267E+00 -0.14911444868E+02  0.15165959418E+02  0.51100000000E-03 0. -1.
        -11    1    4    4    0    0  0.49058051291E+01 -0.10000177550E+02 -0.18881456149E+02  0.21922131775E+02  0.51100000000E-03 0.  1.
         12    1    4    4    0    0  0.97744068023E+01 -0.13157054398E+01 -0.41475782733E+01  0.10699182898E+02  0.00000000000E+00 0. -1.
</event>
<event>
 8    1  0.1280823E-010  0.9118800E+02  0.7816164E-02  0.1184000E+00
        -11   -1    0    0    0    0  0.00000000000E+00  0.00000000000E+00  0.45593999997E+02  0.45594000000E+02  0.51100000000E-03 0. -1.
         11   -1    0    0    0    0 -0.00000000000E+00 -0.00000000000E+00 -0.45593999997E+02  0.45594000000E+02  0.51100000000E-03 0.  1.
         23    2    1    2    0    0 -0.88817841970E-15  0.00000000000E+00  0.00000000000E+00  0.91188000000E+02  0.91188000000E+02 0.  0.
    9900012    2    3    3    0    0  0.10073694373E+01 -0.38464353793E+02  0.20077405412E+02  0.47787268279E+02  0.19999987390E+02 0.  0.
        -12    1    3    3    0    0 -0.10073694373E+01  0.38464353793E+02 -0.20077405412E+02  0.43400731721E+02  0.00000000000E+00 0.  1.
         11    1    4    4    0    0  0.17587306670E+01 -0.17145491853E+02  0.37283088325E+01  0.17634095141E+02  0.51100000000E-03 0. -1.
        -11    1    4    4    0    0 -0.49356150202E+01 -0.12707206216E+02  0.34013846910E+01  0.14050010801E+02  0.51100000000E-03 0.  1.
         12    1    4    4    0    0  0.41842537905E+01 -0.86116557241E+01  0.12947711888E+02  0.16103162336E+02  0.00000000000E+00 0. -1.
</event>
<event>
 8    1  0.1280823E-010  0.9118800E+02  0.7816164E-02  0.1184000E+00
        -11   -1    0    0    0    0  0.00000000000E+00  0.00000000000E+00  0.45593999997E+02  0.45594000000E+02  0.51100000000E-03 0.  1.
         11   -1    0    0    0    0 -0.00000000000E+00 -0.00000000000E+00 -0.45593999997E+02  0.45594000000E+02  0.51100000000E-03 0. -1.
         23    2    1    2    0    0 -0.35527136788E-14  0.00000000000E+00  0.35527136788E-14  0.91188000000E+02  0.91188000000E+02 0.  0.
    9900012    2    3    3    0    0  0.31320659871E+02 -0.11052038884E+02 -0.27937290215E+02  0.47787268637E+02  0.19999989025E+02 0.  0.
         12    1    3    3    0    0 -0.31320659871E+02  0.11052038884E+02  0.27937290215E+02  0.43400731363E+02  0.00000000000E+00 0. -1.
         11    1    4    4    0    0  0.16746581426E+00  0.86245753676E+00 -0.21150737556E+01  0.22902871118E+01  0.51100000000E-03 0. -1.
        -11    1    4    4    0    0  0.16631008485E+02 -0.79410836987E+01 -0.24105490681E+02  0.30343466097E+02  0.51100000000E-03 0.  1.
        -12    1    4    4    0    0  0.14522185572E+02 -0.39734127220E+01 -0.17167257783E+01  0.15153515428E+02  0.00000000000E+00 0.  1.
</event>
<event>
 8    1  0.1280823E-010  0.9118800E+02  0.7816164E-02  0.1184000E+00
        -11   -1    0    0    0    0  0.00000000000E+00  0.00000000000E+00  0.45593999997E+02  0.45594000000E+02  0.51100000000E-03 0. -1.
         11   -1    0    0    0    0 -0.00000000000E+00 -0.00000000000E+00 -0.45593999997E+02  0.45594000000E+02  0.51100000000E-03 0.  1.
         23    2    1    2    0    0  0.00000000000E+00  0.00000000000E+00  0.00000000000E+00  0.91188000000E+02  0.91188000000E+02 0.  0.
    9900012    2    3    3    0    0 -0.24974954440E+02 -0.12611173146E+02  0.33178797167E+02  0.47787278591E+02  0.20000034408E+02 0.  0.
        -12    1    3    3    0    0  0.24974954440E+02  0.12611173146E+02 -0.33178797167E+02  0.43400721409E+02  0.00000000000E+00 0.  1.
         11    1    4    4    0    0 -0.59242340406E+01 -0.27357200678E+01  0.18439106449E+02  0.19559687118E+02  0.51100000000E-03 0. -1.
        -11    1    4    4    0    0 -0.36043627129E+01  0.19760548056E+01  0.49547530868E+01  0.64378413753E+01  0.51100000000E-03 0.  1.
        -12    1    4    4    0    0 -0.15446357686E+02 -0.11851507884E+02  0.97849376311E+01  0.21789750098E+02  0.00000000000E+00 0.  1.
</event>
<event>
 8    1  0.1280823E-010  0.9118800E+02  0.7816164E-02  0.1184000E+00
        -11   -1    0    0    0    0  0.00000000000E+00  0.00000000000E+00  0.45593999997E+02  0.45594000000E+02  0.51100000000E-03 0. -1.
         11   -1    0    0    0    0 -0.00000000000E+00 -0.00000000000E+00 -0.45593999997E+02  0.45594000000E+02  0.51100000000E-03 0.  1.
         23    2    1    2    0    0  0.00000000000E+00 -0.17763568394E-14  0.00000000000E+00  0.91188000000E+02  0.91188000000E+02 0.  0.
    9900012    2    3    3    0    0 -0.17762471883E+02 -0.14604262921E+02  0.36808059360E+02  0.47787272625E+02  0.20000007205E+02 0.  0.
        -12    1    3    3    0    0  0.17762471883E+02  0.14604262921E+02 -0.36808059360E+02  0.43400727375E+02  0.00000000000E+00 0.  1.
         11    1    4    4    0    0 -0.88688303418E+01 -0.14058247321E+02  0.14979167710E+02  0.22375565578E+02  0.51100000000E-03 0. -1.
        -11    1    4    4    0    0 -0.38327739709E+01 -0.43061534901E+01  0.15232301432E+02  0.16286685401E+02  0.51100000000E-03 0.  1.
        -12    1    4    4    0    0 -0.50608675703E+01  0.37601378908E+01  0.65965902179E+01  0.91250216452E+01  0.00000000000E+00 0.  1.
</event>
<event>
 8    1  0.1280823E-010  0.9118800E+02  0.7816164E-02  0.1184000E+00
        -11   -1    0    0    0    0  0.00000000000E+00  0.00000000000E+00  0.45593999997E+02  0.45594000000E+02  0.51100000000E-03 0. -1.
         11   -1    0    0    0    0 -0.00000000000E+00 -0.00000000000E+00 -0.45593999997E+02  0.45594000000E+02  0.51100000000E-03 0.  1.
         23    2    1    2    0    0  0.35527136788E-14 -0.35527136788E-14  0.35527136788E-14  0.91188000000E+02  0.91188000000E+02 0.  0.
    9900012    2    3    3    0    0  0.21661341751E+02  0.25101160001E+02  0.28006089655E+02  0.47787273997E+02  0.20000013462E+02 0.  0.
        -12    1    3    3    0    0 -0.21661341751E+02 -0.25101160001E+02 -0.28006089655E+02  0.43400726003E+02  0.00000000000E+00 0.  1.
         11    1    4    4    0    0  0.15742365404E+02  0.57130961082E+01  0.15476297052E+02  0.22803010906E+02  0.51100000000E-03 0. -1.
        -11    1    4    4    0    0 -0.13988198459E+01  0.16091955403E+01  0.25450361434E+01  0.33201530809E+01  0.51100000000E-03 0.  1.
        -12    1    4    4    0    0  0.73177961936E+01  0.17778868352E+02  0.99847564586E+01  0.21664110011E+02  0.00000000000E+00 0.  1.
</event>
<event>
 8    1  0.1280823E-010  0.9118800E+02  0.7816164E-02  0.1184000E+00
        -11   -1    0    0    0    0  0.00000000000E+00  0.00000000000E+00  0.45593999997E+02  0.45594000000E+02  0.51100000000E-03 0. -1.
         11   -1    0    0    0    0 -0.00000000000E+00 -0.00000000000E+00 -0.45593999997E+02  0.45594000000E+02  0.51100000000E-03 0.  1.
         23    2    1    2    0    0  0.35527136788E-14 -0.17763568394E-14  0.71054273576E-14  0.91188000000E+02  0.91188000000E+02 0.  0.
    9900012    2    3    3    0    0 -0.25053020258E+02  0.13431607611E+02 -0.32795758844E+02  0.47787266075E+02  0.19999977344E+02 0.  0.
         12    1    3    3    0    0  0.25053020258E+02 -0.13431607611E+02  0.32795758844E+02  0.43400733925E+02  0.00000000000E+00 0. -1.
         11    1    4    4    0    0 -0.16876081429E+02  0.96080470189E+01 -0.29330690399E+02  0.35176783415E+02  0.51100000000E-03 0.  1.
        -11    1    4    4    0    0  0.60315265772E+00 -0.41197110335E+00 -0.27394951406E+01  0.28351979129E+01  0.51100000000E-03 0. -1.
        -12    1    4    4    0    0 -0.87800914874E+01  0.42355316956E+01 -0.72557330414E+00  0.97752847473E+01  0.00000000000E+00 0.  1.
</event>
<event>
 8    1  0.1280823E-010  0.9118800E+02  0.7816164E-02  0.1184000E+00
        -11   -1    0    0    0    0  0.00000000000E+00  0.00000000000E+00  0.45593999997E+02  0.45594000000E+02  0.51100000000E-03 0. -1.
         11   -1    0    0    0    0 -0.00000000000E+00 -0.00000000000E+00 -0.45593999997E+02  0.45594000000E+02  0.51100000000E-03 0.  1.
         23    2    1    2    0    0 -0.17763568394E-14  0.00000000000E+00  0.00000000000E+00  0.91188000000E+02  0.91188000000E+02 0.  0.
    9900012    2    3    3    0    0  0.10452752669E+02  0.29367682099E+01  0.42020658055E+02  0.47787304738E+02  0.20000153622E+02 0.  0.
        -12    1    3    3    0    0 -0.10452752669E+02 -0.29367682099E+01 -0.42020658055E+02  0.43400695262E+02  0.00000000000E+00 0.  1.
         11    1    4    4    0    0 -0.26269408968E+01 -0.60924424591E+01  0.13867432971E+02  0.15372845250E+02  0.51100000000E-03 0. -1.
        -11    1    4    4    0    0  0.10839248501E+01  0.15292009542E+01  0.41210052437E+01  0.45272544791E+01  0.51100000000E-03 0.  1.
         12    1    4    4    0    0  0.11995768716E+02  0.75000097148E+01  0.24032219840E+02  0.27887205009E+02  0.00000000000E+00 0. -1.
</event>
<event>
 8    1  0.1401583E-010  0.9118800E+02  0.7816164E-02  0.1184000E+00
        -11   -1    0    0    0    0  0.00000000000E+00  0.00000000000E+00  0.45593999997E+02  0.45594000000E+02  0.51100000000E-03 0. -1.
         11   -1    0    0    0    0 -0.00000000000E+00 -0.00000000000E+00 -0.45593999997E+02  0.45594000000E+02  0.51100000000E-03 0.  1.
         23    2    1    2    0    0  0.00000000000E+00  0.00000000000E+00  0.00000000000E+00  0.91188000000E+02  0.91188000000E+02 0.  0.
    9900012    2    3    3    0    0 -0.21954732512E+02 -0.11656970489E+02 -0.35577071608E+02  0.47787271148E+02  0.20000000472E+02 0.  0.
         12    1    3    3    0    0  0.21954732512E+02  0.11656970489E+02  0.35577071608E+02  0.43400728852E+02  0.00000000000E+00 0. -1.
         11    1    4    4    0    0 -0.23066700169E+01  0.10935349356E+01 -0.37724412105E+00  0.25804764309E+01  0.51100000000E-03 0. -1.
        -11    1    4    4    0    0 -0.26382210642E+01 -0.10672046774E+02 -0.10977899706E+02  0.15535992886E+02  0.51100000000E-03 0.  1.
        -12    1    4    4    0    0 -0.17009841431E+02 -0.20784586504E+01 -0.24221927781E+02  0.29670801831E+02  0.00000000000E+00 0.  1.
</event>
<event>
 8    1  0.1280823E-010  0.9118800E+02  0.7816164E-02  0.1184000E+00
        -11   -1    0    0    0    0  0.00000000000E+00  0.00000000000E+00  0.45593999997E+02  0.45594000000E+02  0.51100000000E-03 0. -1.
         11   -1    0    0    0    0 -0.00000000000E+00 -0.00000000000E+00 -0.45593999997E+02  0.45594000000E+02  0.51100000000E-03 0.  1.
         23    2    1    2    0    0  0.00000000000E+00  0.17763568394E-14 -0.71054273576E-14  0.91188000000E+02  0.91188000000E+02 0.  0.
    9900012    2    3    3    0    0 -0.14597093194E+01 -0.13426892456E+02  0.41245736197E+02  0.47787274813E+02  0.20000017182E+02 0.  0.
        -12    1    3    3    0    0  0.14597093194E+01  0.13426892456E+02 -0.41245736197E+02  0.43400725187E+02  0.00000000000E+00 0.  1.
         11    1    4    4    0    0 -0.25060423844E+01 -0.13455059654E+01  0.17587124673E+02  0.17815655734E+02  0.51100000000E-03 0. -1.
        -11    1    4    4    0    0 -0.52756094685E+01 -0.22396570743E+01  0.36507055034E+01  0.67952755653E+01  0.51100000000E-03 0.  1.
         12    1    4    4    0    0  0.63219425335E+01 -0.98417294163E+01  0.20007906021E+02  0.23176343513E+02  0.00000000000E+00 0. -1.
</event>
<event>
 8    1  0.1280823E-010  0.9118800E+02  0.7816164E-02  0.1184000E+00
        -11   -1    0    0    0    0  0.00000000000E+00  0.00000000000E+00  0.45593999997E+02  0.45594000000E+02  0.51100000000E-03 0. -1.
         11   -1    0    0    0    0 -0.00000000000E+00 -0.00000000000E+00 -0.45593999997E+02  0.45594000000E+02  0.51100000000E-03 0.  1.
         23    2    1    2    0    0  0.00000000000E+00 -0.17763568394E-14  0.00000000000E+00  0.91188000000E+02  0.91188000000E+02 0.  0.
    9900012    2    3    3    0    0  0.25688477537E+02 -0.15643175418E+02 -0.31289243781E+02  0.47787267383E+02  0.19999983305E+02 0.  0.
         12    1    3    3    0    0 -0.25688477537E+02  0.15643175418E+02  0.31289243781E+02  0.43400732617E+02  0.00000000000E+00 0. -1.
         11    1    4    4    0    0  0.30264317245E+00 -0.32052043588E+01 -0.10034501563E+02  0.10538318165E+02  0.51100000000E-03 0. -1.
        -11    1    4    4    0    0  0.49670812239E+01 -0.29271887444E+01 -0.11168292363E+02  0.12568654836E+02  0.51100000000E-03 0.  1.
        -12    1    4    4    0    0  0.20418753141E+02 -0.95107823146E+01 -0.10086449855E+02  0.24680294381E+02  0.00000000000E+00 0.  1.
</event>
<event>
 8    1  0.1280823E-010  0.9118800E+02  0.7816164E-02  0.1184000E+00
        -11   -1    0    0    0    0  0.00000000000E+00  0.00000000000E+00  0.45593999997E+02  0.45594000000E+02  0.51100000000E-03 0. -1.
         11   -1    0    0    0    0 -0.00000000000E+00 -0.00000000000E+00 -0.45593999997E+02  0.45594000000E+02  0.51100000000E-03 0.  1.
         23    2    1    2    0    0 -0.35527136788E-14  0.88817841970E-15  0.00000000000E+00  0.91188000000E+02  0.91188000000E+02 0.  0.
    9900012    2    3    3    0    0  0.21259795691E+02  0.72371085502E+01 -0.37138509113E+02  0.47787268299E+02  0.19999987484E+02 0.  0.
         12    1    3    3    0    0 -0.21259795691E+02 -0.72371085502E+01  0.37138509113E+02  0.43400731701E+02  0.00000000000E+00 0. -1.
         11    1    4    4    0    0  0.93617013125E+01  0.69885193147E+01 -0.85093417763E+01  0.14453018764E+02  0.51100000000E-03 0. -1.
        -11    1    4    4    0    0  0.97016139210E+01  0.30751900153E+01 -0.96654697132E+01  0.14035647877E+02  0.51100000000E-03 0.  1.
        -12    1    4    4    0    0  0.21964804574E+01 -0.28266007798E+01 -0.18963697624E+02  0.19298601658E+02  0.00000000000E+00 0.  1.
</event>
<event>
 8    1  0.1280823E-010  0.9118800E+02  0.7816164E-02  0.1184000E+00
        -11   -1    0    0    0    0  0.00000000000E+00  0.00000000000E+00  0.45593999997E+02  0.45594000000E+02  0.51100000000E-03 0. -1.
         11   -1    0    0    0    0 -0.00000000000E+00 -0.00000000000E+00 -0.45593999997E+02  0.45594000000E+02  0.51100000000E-03 0.  1.
         23    2    1    2    0    0  0.00000000000E+00  0.00000000000E+00  0.00000000000E+00  0.91188000000E+02  0.91188000000E+02 0.  0.
    9900012    2    3    3    0    0 -0.28016519491E+01 -0.37078688515E+02  0.22381793637E+02  0.47787273254E+02  0.20000010076E+02 0.  0.
        -12    1    3    3    0    0  0.28016519491E+01  0.37078688515E+02 -0.22381793637E+02  0.43400726746E+02  0.00000000000E+00 0.  1.
         11    1    4    4    0    0 -0.23076608986E+01 -0.64001711060E+01  0.16862379101E+00  0.68055803025E+01  0.51100000000E-03 0.  1.
        -11    1    4    4    0    0 -0.37296296809E+00 -0.17306672388E+00  0.67833179242E+01  0.67957674908E+01  0.51100000000E-03 0. -1.
         12    1    4    4    0    0 -0.12102808240E+00 -0.30505450685E+02  0.15429851922E+02  0.34185925461E+02  0.00000000000E+00 0. -1.
</event>
<event>
 8    1  0.1280823E-010  0.9118800E+02  0.7816164E-02  0.1184000E+00
        -11   -1    0    0    0    0  0.00000000000E+00  0.00000000000E+00  0.45593999997E+02  0.45594000000E+02  0.51100000000E-03 0. -1.
         11   -1    0    0    0    0 -0.00000000000E+00 -0.00000000000E+00 -0.45593999997E+02  0.45594000000E+02  0.51100000000E-03 0.  1.
         23    2    1    2    0    0  0.00000000000E+00  0.00000000000E+00  0.00000000000E+00  0.91188000000E+02  0.91188000000E+02 0.  0.
    9900012    2    3    3    0    0  0.17463900180E+02  0.31790964211E+02 -0.23832121229E+02  0.47787271697E+02  0.20000002974E+02 0.  0.
         12    1    3    3    0    0 -0.17463900180E+02 -0.31790964211E+02  0.23832121229E+02  0.43400728303E+02  0.00000000000E+00 0. -1.
         11    1    4    4    0    0 -0.21223998838E+01  0.80064581684E+00  0.87195409690E+00  0.24302097027E+01  0.51100000000E-03 0. -1.
        -11    1    4    4    0    0  0.71329034320E+00  0.69285919355E+01 -0.19285864861E+01  0.72272827133E+01  0.51100000000E-03 0.  1.
        -12    1    4    4    0    0  0.18873009721E+02  0.24061726459E+02 -0.22775488840E+02  0.38129779281E+02  0.00000000000E+00 0.  1.
</event>
<event>
 8    1  0.1280823E-010  0.9118800E+02  0.7816164E-02  0.1184000E+00
        -11   -1    0    0    0    0  0.00000000000E+00  0.00000000000E+00  0.45593999997E+02  0.45594000000E+02  0.51100000000E-03 0. -1.
         11   -1    0    0    0    0 -0.00000000000E+00 -0.00000000000E+00 -0.45593999997E+02  0.45594000000E+02  0.51100000000E-03 0.  1.
         23    2    1    2    0    0  0.66613381478E-15  0.00000000000E+00  0.00000000000E+00  0.91188000000E+02  0.91188000000E+02 0.  0.
    9900012    2    3    3    0    0  0.12680724713E+01  0.22413449536E+02 -0.37143673470E+02  0.47787271817E+02  0.20000003524E+02 0.  0.
         12    1    3    3    0    0 -0.12680724713E+01 -0.22413449536E+02  0.37143673470E+02  0.43400728183E+02  0.00000000000E+00 0. -1.
         11    1    4    4    0    0  0.67547446152E+01  0.19116506224E+01 -0.90961896688E+01  0.11490067435E+02  0.51100000000E-03 0. -1.
        -11    1    4    4    0    0  0.93590660773E-01  0.97875412544E+01 -0.70146760703E+01  0.12042026559E+02  0.51100000000E-03 0.  1.
        -12    1    4    4    0    0 -0.55802628047E+01  0.10714257660E+02 -0.21032807731E+02  0.24255177823E+02  0.00000000000E+00 0.  1.
</event>
<event>
 8    1  0.1280823E-010  0.9118800E+02  0.7816164E-02  0.1184000E+00
        -11   -1    0    0    0    0  0.00000000000E+00  0.00000000000E+00  0.45593999997E+02  0.45594000000E+02  0.51100000000E-03 0. -1.
         11   -1    0    0    0    0 -0.00000000000E+00 -0.00000000000E+00 -0.45593999997E+02  0.45594000000E+02  0.51100000000E-03 0.  1.
         23    2    1    2    0    0  0.00000000000E+00 -0.88817841970E-15  0.71054273576E-14  0.91188000000E+02  0.91188000000E+02 0.  0.
    9900012    2    3    3    0    0 -0.13872741002E+02 -0.23422906818E+01 -0.41057078083E+02  0.47787275014E+02  0.20000018101E+02 0.  0.
         12    1    3    3    0    0  0.13872741002E+02  0.23422906818E+01  0.41057078083E+02  0.43400724986E+02  0.00000000000E+00 0. -1.
         11    1    4    4    0    0 -0.44832766939E+01 -0.22489304629E+01 -0.62040576669E+01  0.79779565013E+01  0.51100000000E-03 0. -1.
        -11    1    4    4    0    0 -0.94728056148E+01 -0.67391971165E+01 -0.27723436079E+02  0.30062264257E+02  0.51100000000E-03 0.  1.
         12    1    4    4    0    0  0.83341306957E-01  0.66458368975E+01 -0.71295843375E+01  0.97470542559E+01  0.00000000000E+00 0. -1.
</event>
<event>
 8    1  0.1462818E-010  0.9118800E+02  0.7816164E-02  0.1184000E+00
        -11   -1    0    0    0    0  0.00000000000E+00  0.00000000000E+00  0.45593999997E+02  0.45594000000E+02  0.51100000000E-03 0. -1.
         11   -1    0    0    0    0 -0.00000000000E+00 -0.00000000000E+00 -0.45593999997E+02  0.45594000000E+02  0.51100000000E-03 0.  1.
         23    2    1    2    0    0  0.00000000000E+00  0.00000000000E+00  0.00000000000E+00  0.91188000000E+02  0.91188000000E+02 0.  0.
    9900012    2    3    3    0    0  0.11348176096E+02 -0.25276642528E+02 -0.33405564377E+02  0.47787291601E+02  0.20000093727E+02 0.  0.
         12    1    3    3    0    0 -0.11348176096E+02  0.25276642528E+02  0.33405564377E+02  0.43400708399E+02  0.00000000000E+00 0. -1.
         11    1    4    4    0    0  0.71551012787E+00  0.18698068147E+00 -0.10967776917E+02  0.10992681533E+02  0.51100000000E-03 0. -1.
        -11    1    4    4    0    0  0.70573557748E+01 -0.61595791489E+01 -0.91029265370E+01  0.13061774674E+02  0.51100000000E-03 0.  1.
        -12    1    4    4    0    0  0.35753101938E+01 -0.19304044060E+02 -0.13334860923E+02  0.23732835395E+02  0.00000000000E+00 0.  1.
</event>
<event>
 8    1  0.1280823E-010  0.9118800E+02  0.7816164E-02  0.1184000E+00
        -11   -1    0    0    0    0  0.00000000000E+00  0.00000000000E+00  0.45593999997E+02  0.45594000000E+02  0.51100000000E-03 0. -1.
         11   -1    0    0    0    0 -0.00000000000E+00 -0.00000000000E+00 -0.45593999997E+02  0.45594000000E+02  0.51100000000E-03 0.  1.
         23    2    1    2    0    0  0.00000000000E+00  0.00000000000E+00  0.00000000000E+00  0.91188000000E+02  0.91188000000E+02 0.  0.
    9900012    2    3    3    0    0  0.10150193306E+02 -0.21115240252E+02 -0.36534135150E+02  0.47787276202E+02  0.20000023516E+02 0.  0.
         12    1    3    3    0    0 -0.10150193306E+02  0.21115240252E+02  0.36534135150E+02  0.43400723798E+02  0.00000000000E+00 0. -1.
         11    1    4    4    0    0  0.36565150922E+01 -0.53931665485E+01 -0.51619399791E+01  0.83127596290E+01  0.51100000000E-03 0. -1.
        -11    1    4    4    0    0  0.39387016625E+01 -0.83319034840E+01 -0.30191184389E+02  0.31566463240E+02  0.51100000000E-03 0.  1.
        -12    1    4    4    0    0  0.25549765514E+01 -0.73901702193E+01 -0.11810107817E+01  0.79080533328E+01  0.00000000000E+00 0.  1.
</event>
<event>
 8    1  0.1280823E-010  0.9118800E+02  0.7816164E-02  0.1184000E+00
        -11   -1    0    0    0    0  0.00000000000E+00  0.00000000000E+00  0.45593999997E+02  0.45594000000E+02  0.51100000000E-03 0. -1.
         11   -1    0    0    0    0 -0.00000000000E+00 -0.00000000000E+00 -0.45593999997E+02  0.45594000000E+02  0.51100000000E-03 0.  1.
         23    2    1    2    0    0  0.00000000000E+00 -0.44408920985E-15  0.00000000000E+00  0.91188000000E+02  0.91188000000E+02 0.  0.
    9900012    2    3    3    0    0 -0.11938535700E+02 -0.18805017320E+01 -0.41684035643E+02  0.47787265572E+02  0.19999975048E+02 0.  0.
         12    1    3    3    0    0  0.11938535700E+02  0.18805017320E+01  0.41684035643E+02  0.43400734428E+02  0.00000000000E+00 0. -1.
         11    1    4    4    0    0 -0.48553522565E+01 -0.23725382537E+01 -0.21982228424E+02  0.22636734527E+02  0.51100000000E-03 0. -1.
        -11    1    4    4    0    0 -0.79677550942E+01 -0.23700509747E+01 -0.20439601993E+02  0.22065348235E+02  0.51100000000E-03 0.  1.
         12    1    4    4    0    0  0.88457165031E+00  0.28620874964E+01  0.73779477353E+00  0.30851828098E+01  0.00000000000E+00 0. -1.
</event>
<event>
 8    1  0.1280823E-010  0.9118800E+02  0.7816164E-02  0.1184000E+00
        -11   -1    0    0    0    0  0.00000000000E+00  0.00000000000E+00  0.45593999997E+02  0.45594000000E+02  0.51100000000E-03 0. -1.
         11   -1    0    0    0    0 -0.00000000000E+00 -0.00000000000E+00 -0.45593999997E+02  0.45594000000E+02  0.51100000000E-03 0.  1.
         23    2    1    2    0    0  0.00000000000E+00  0.00000000000E+00  0.00000000000E+00  0.91188000000E+02  0.91188000000E+02 0.  0.
    9900012    2    3    3    0    0  0.43996292099E+01 -0.27260934807E+02 -0.33482953575E+02  0.47787268626E+02  0.19999988972E+02 0.  0.
         12    1    3    3    0    0 -0.43996292099E+01  0.27260934807E+02  0.33482953575E+02  0.43400731374E+02  0.00000000000E+00 0. -1.
         11    1    4    4    0    0  0.93690301897E-01  0.27062546882E+01 -0.35291385421E+01  0.44483043309E+01  0.51100000000E-03 0. -1.
        -11    1    4    4    0    0  0.16653460977E+01 -0.40181565782E+01 -0.11886566270E+01  0.45090869087E+01  0.51100000000E-03 0.  1.
        -12    1    4    4    0    0  0.26405928103E+01 -0.25949032917E+02 -0.28765158406E+02  0.38829877386E+02  0.00000000000E+00 0.  1.
</event>
<event>
 8    1  0.1280823E-010  0.9118800E+02  0.7816164E-02  0.1184000E+00
        -11   -1    0    0    0    0  0.00000000000E+00  0.00000000000E+00  0.45593999997E+02  0.45594000000E+02  0.51100000000E-03 0. -1.
         11   -1    0    0    0    0 -0.00000000000E+00 -0.00000000000E+00 -0.45593999997E+02  0.45594000000E+02  0.51100000000E-03 0.  1.
         23    2    1    2    0    0  0.00000000000E+00 -0.35527136788E-14 -0.35527136788E-14  0.91188000000E+02  0.91188000000E+02 0.  0.
    9900012    2    3    3    0    0  0.27218858635E+02  0.28615481524E+02 -0.17997534199E+02  0.47787270910E+02  0.19999999388E+02 0.  0.
         12    1    3    3    0    0 -0.27218858635E+02 -0.28615481524E+02  0.17997534199E+02  0.43400729090E+02  0.00000000000E+00 0. -1.
         11    1    4    4    0    0  0.11030271474E+02  0.76092955225E+01 -0.39690615020E+01  0.13975754599E+02  0.51100000000E-03 0. -1.
        -11    1    4    4    0    0  0.13196010115E+02  0.23361905442E+02 -0.11235601135E+02  0.29088692683E+02  0.51100000000E-03 0.  1.
         12    1    4    4    0    0  0.29925770464E+01 -0.23557194408E+01 -0.27928715627E+01  0.47228236288E+01  0.00000000000E+00 0. -1.
</event>
<event>
 8    1  0.1280823E-010  0.9118800E+02  0.7816164E-02  0.1184000E+00
        -11   -1    0    0    0    0  0.00000000000E+00  0.00000000000E+00  0.45593999997E+02  0.45594000000E+02  0.51100000000E-03 0. -1.
         11   -1    0    0    0    0 -0.00000000000E+00 -0.00000000000E+00 -0.45593999997E+02  0.45594000000E+02  0.51100000000E-03 0.  1.
         23    2    1    2    0    0 -0.88817841970E-15  0.71054273576E-14  0.00000000000E+00  0.91188000000E+02  0.91188000000E+02 0.  0.
    9900012    2    3    3    0    0  0.36175557580E+01 -0.40039310968E+02 -0.16352065687E+02  0.47787272072E+02  0.20000004684E+02 0.  0.
         12    1    3    3    0    0 -0.36175557580E+01  0.40039310968E+02  0.16352065687E+02  0.43400727928E+02  0.00000000000E+00 0. -1.
         11    1    4    4    0    0  0.63375620780E+01 -0.91505946737E+01 -0.49635531618E+01  0.12187490973E+02  0.51100000000E-03 0. -1.
        -11    1    4    4    0    0 -0.88405550270E+00  0.12307453991E+01 -0.89440032376E+00  0.17596137558E+01  0.51100000000E-03 0.  1.
        -12    1    4    4    0    0 -0.18359508173E+01 -0.32119461693E+02 -0.10494112202E+02  0.33840167343E+02  0.00000000000E+00 0.  1.
</event>
<event>
 8    1  0.2037272E-010  0.9118800E+02  0.7816164E-02  0.1184000E+00
        -11   -1    0    0    0    0  0.00000000000E+00  0.00000000000E+00  0.45593999997E+02  0.45594000000E+02  0.51100000000E-03 0. -1.
         11   -1    0    0    0    0 -0.00000000000E+00 -0.00000000000E+00 -0.45593999997E+02  0.45594000000E+02  0.51100000000E-03 0.  1.
         23    2    1    2    0    0  0.00000000000E+00  0.00000000000E+00  0.00000000000E+00  0.91188000000E+02  0.91188000000E+02 0.  0.
    9900012    2    3    3    0    0  0.11963801570E+02  0.66975570416E+01 -0.41178067896E+02  0.47787273117E+02  0.20000009450E+02 0.  0.
         12    1    3    3    0    0 -0.11963801570E+02 -0.66975570416E+01  0.41178067896E+02  0.43400726883E+02  0.00000000000E+00 0. -1.
         11    1    4    4    0    0  0.48208863529E-01  0.44680403530E+01 -0.19782635464E+01  0.48866384776E+01  0.51100000000E-03 0. -1.
        -11    1    4    4    0    0  0.28839233480E+01 -0.27603945995E+01 -0.23477616827E+01  0.46312824792E+01  0.51100000000E-03 0.  1.
        -12    1    4    4    0    0  0.90316693582E+01  0.49899112881E+01 -0.36852042667E+02  0.38269352160E+02  0.00000000000E+00 0.  1.
</event>
<event>
 8    1  0.1280823E-010  0.9118800E+02  0.7816164E-02  0.1184000E+00
        -11   -1    0    0    0    0  0.00000000000E+00  0.00000000000E+00  0.45593999997E+02  0.45594000000E+02  0.51100000000E-03 0.  1.
         11   -1    0    0    0    0 -0.00000000000E+00 -0.00000000000E+00 -0.45593999997E+02  0.45594000000E+02  0.51100000000E-03 0. -1.
         23    2    1    2    0    0  0.00000000000E+00 -0.35527136788E-14  0.00000000000E+00  0.91188000000E+02  0.91188000000E+02 0.  0.
    9900012    2    3    3    0    0 -0.35689933395E+02 -0.24182173395E+02 -0.50073397302E+01  0.47787282183E+02  0.20000050785E+02 0.  0.
         12    1    3    3    0    0  0.35689933395E+02  0.24182173395E+02  0.50073397302E+01  0.43400717817E+02  0.00000000000E+00 0. -1.
         11    1    4    4    0    0 -0.55201622697E+01 -0.29406634660E+01 -0.31142542702E+01  0.69870074441E+01  0.51100000000E-03 0.  1.
        -11    1    4    4    0    0 -0.27743744129E+02 -0.15719349489E+02  0.42755617963E+01  0.32172872355E+02  0.51100000000E-03 0. -1.
         12    1    4    4    0    0 -0.24260269963E+01 -0.55221604401E+01 -0.61686472563E+01  0.86274023834E+01  0.00000000000E+00 0. -1.
</event>
<event>
 8    1  0.1280823E-010  0.9118800E+02  0.7816164E-02  0.1184000E+00
        -11   -1    0    0    0    0  0.00000000000E+00  0.00000000000E+00  0.45593999997E+02  0.45594000000E+02  0.51100000000E-03 0. -1.
         11   -1    0    0    0    0 -0.00000000000E+00 -0.00000000000E+00 -0.45593999997E+02  0.45594000000E+02  0.51100000000E-03 0.  1.
         23    2    1    2    0    0  0.00000000000E+00  0.17763568394E-14 -0.35527136788E-14  0.91188000000E+02  0.91188000000E+02 0.  0.
    9900012    2    3    3    0    0  0.35303494754E+02 -0.14168156771E+02 -0.20893786719E+02  0.47787265772E+02  0.19999975959E+02 0.  0.
         12    1    3    3    0    0 -0.35303494754E+02  0.14168156771E+02  0.20893786719E+02  0.43400734228E+02  0.00000000000E+00 0. -1.
         11    1    4    4    0    0  0.19011937926E+01  0.10770966178E+01 -0.32844066573E+01  0.39448703797E+01  0.51100000000E-03 0. -1.
        -11    1    4    4    0    0  0.10317597333E+01  0.28515395972E+01 -0.18097214660E+01  0.35314159011E+01  0.51100000000E-03 0.  1.
        -12    1    4    4    0    0  0.32370541228E+02 -0.18096792986E+02 -0.15799658596E+02  0.40310979491E+02  0.00000000000E+00 0.  1.
</event>
<event>
 8    1  0.1280823E-010  0.9118800E+02  0.7816164E-02  0.1184000E+00
        -11   -1    0    0    0    0  0.00000000000E+00  0.00000000000E+00  0.45593999997E+02  0.45594000000E+02  0.51100000000E-03 0. -1.
         11   -1    0    0    0    0 -0.00000000000E+00 -0.00000000000E+00 -0.45593999997E+02  0.45594000000E+02  0.51100000000E-03 0.  1.
         23    2    1    2    0    0  0.44408920985E-15 -0.71054273576E-14 -0.35527136788E-14  0.91188000000E+02  0.91188000000E+02 0.  0.
    9900012    2    3    3    0    0  0.30586339422E+01 -0.39548090646E+02 -0.17612970436E+02  0.47787269097E+02  0.19999991122E+02 0.  0.
         12    1    3    3    0    0 -0.30586339422E+01  0.39548090646E+02  0.17612970436E+02  0.43400730903E+02  0.00000000000E+00 0. -1.
         11    1    4    4    0    0 -0.25271256126E+01 -0.22125481296E+02 -0.46026992728E+01  0.22740011594E+02  0.51100000000E-03 0. -1.
        -11    1    4    4    0    0  0.13779786007E+01 -0.14801076571E+02 -0.13480695553E+02  0.20067382628E+02  0.51100000000E-03 0.  1.
        -12    1    4    4    0    0  0.42077809541E+01 -0.26215327785E+01  0.47042438939E+00  0.49798748752E+01  0.00000000000E+00 0.  1.
</event>
<event>
 8    1  0.1280823E-010  0.9118800E+02  0.7816164E-02  0.1184000E+00
        -11   -1    0    0    0    0  0.00000000000E+00  0.00000000000E+00  0.45593999997E+02  0.45594000000E+02  0.51100000000E-03 0. -1.
         11   -1    0    0    0    0 -0.00000000000E+00 -0.00000000000E+00 -0.45593999997E+02  0.45594000000E+02  0.51100000000E-03 0.  1.
         23    2    1    2    0    0  0.17763568394E-14  0.00000000000E+00  0.00000000000E+00  0.91188000000E+02  0.91188000000E+02 0.  0.
    9900012    2    3    3    0    0 -0.45285063806E+01  0.40054111727E+01  0.42977582667E+02  0.47787270736E+02  0.19999998595E+02 0.  0.
        -12    1    3    3    0    0  0.45285063806E+01 -0.40054111727E+01 -0.42977582667E+02  0.43400729264E+02  0.00000000000E+00 0.  1.
         11    1    4    4    0    0 -0.89815906800E+01  0.56737364956E+01  0.17508150031E+02  0.20479149756E+02  0.51100000000E-03 0. -1.
        -11    1    4    4    0    0 -0.49935318316E+00 -0.43380076121E-02  0.18936269230E+02  0.18942852610E+02  0.51100000000E-03 0.  1.
        -12    1    4    4    0    0  0.49524374826E+01 -0.16639873152E+01  0.65331634069E+01  0.83652683702E+01  0.00000000000E+00 0.  1.
</event>
<event>
 8    1  0.1280823E-010  0.9118800E+02  0.7816164E-02  0.1184000E+00
        -11   -1    0    0    0    0  0.00000000000E+00  0.00000000000E+00  0.45593999997E+02  0.45594000000E+02  0.51100000000E-03 0. -1.
         11   -1    0    0    0    0 -0.00000000000E+00 -0.00000000000E+00 -0.45593999997E+02  0.45594000000E+02  0.51100000000E-03 0.  1.
         23    2    1    2    0    0  0.88817841970E-15  0.00000000000E+00 -0.71054273576E-14  0.91188000000E+02  0.91188000000E+02 0.  0.
    9900012    2    3    3    0    0 -0.67208573964E+01 -0.26949993136E+02  0.33348935261E+02  0.47787268010E+02  0.19999986167E+02 0.  0.
        -12    1    3    3    0    0  0.67208573964E+01  0.26949993136E+02 -0.33348935261E+02  0.43400731990E+02  0.00000000000E+00 0.  1.
         11    1    4    4    0    0 -0.12226510496E+01 -0.91593138555E+01  0.15087413092E+02  0.17692313019E+02  0.51100000000E-03 0. -1.
        -11    1    4    4    0    0 -0.77269654474E+01 -0.19539601599E+02  0.16827624425E+02  0.26919713403E+02  0.51100000000E-03 0.  1.
         12    1    4    4    0    0  0.22287591006E+01  0.17489223180E+01  0.14338977435E+01  0.31752415879E+01  0.00000000000E+00 0. -1.
</event>
<event>
 8    1  0.1280823E-010  0.9118800E+02  0.7816164E-02  0.1184000E+00
        -11   -1    0    0    0    0  0.00000000000E+00  0.00000000000E+00  0.45593999997E+02  0.45594000000E+02  0.51100000000E-03 0. -1.
         11   -1    0    0    0    0 -0.00000000000E+00 -0.00000000000E+00 -0.45593999997E+02  0.45594000000E+02  0.51100000000E-03 0.  1.
         23    2    1    2    0    0 -0.35527136788E-14  0.00000000000E+00  0.35527136788E-14  0.91188000000E+02  0.91188000000E+02 0.  0.
    9900012    2    3    3    0    0  0.27191435155E+02  0.25691207192E+02  0.22004797663E+02  0.47787269672E+02  0.19999993744E+02 0.  0.
        -12    1    3    3    0    0 -0.27191435155E+02 -0.25691207192E+02 -0.22004797663E+02  0.43400730328E+02  0.00000000000E+00 0.  1.
         11    1    4    4    0    0  0.12149610034E+02  0.15178876413E+02  0.14420540452E+02  0.24206678837E+02  0.51100000000E-03 0. -1.
        -11    1    4    4    0    0 -0.98612893929E+00  0.50411441307E+01  0.33191972746E+01  0.61157710258E+01  0.51100000000E-03 0.  1.
        -12    1    4    4    0    0  0.16027954060E+02  0.54711866485E+01  0.42650599362E+01  0.17464819809E+02  0.00000000000E+00 0.  1.
</event>
<event>
 8    1  0.1280823E-010  0.9118800E+02  0.7816164E-02  0.1184000E+00
        -11   -1    0    0    0    0  0.00000000000E+00  0.00000000000E+00  0.45593999997E+02  0.45594000000E+02  0.51100000000E-03 0. -1.
         11   -1    0    0    0    0 -0.00000000000E+00 -0.00000000000E+00 -0.45593999997E+02  0.45594000000E+02  0.51100000000E-03 0.  1.
         23    2    1    2    0    0 -0.35527136788E-14  0.00000000000E+00  0.00000000000E+00  0.91188000000E+02  0.91188000000E+02 0.  0.
    9900012    2    3    3    0    0 -0.19497694884E+02  0.36447250533E+02  0.13231067214E+02  0.47787270550E+02  0.19999997745E+02 0.  0.
        -12    1    3    3    0    0  0.19497694884E+02 -0.36447250533E+02 -0.13231067214E+02  0.43400729450E+02  0.00000000000E+00 0.  1.
         11    1    4    4    0    0 -0.18213152698E+02  0.24361076773E+02  0.41065388853E+01  0.30692745961E+02  0.51100000000E-03 0. -1.
        -11    1    4    4    0    0 -0.43146057490E+01  0.58380848521E+01  0.30708732918E+01  0.78822154592E+01  0.51100000000E-03 0.  1.
        -12    1    4    4    0    0  0.30300635628E+01  0.62480889076E+01  0.60536550372E+01  0.92123091297E+01  0.00000000000E+00 0.  1.
</event>
<event>
 8    1  0.1280823E-010  0.9118800E+02  0.7816164E-02  0.1184000E+00
        -11   -1    0    0    0    0  0.00000000000E+00  0.00000000000E+00  0.45593999997E+02  0.45594000000E+02  0.51100000000E-03 0. -1.
         11   -1    0    0    0    0 -0.00000000000E+00 -0.00000000000E+00 -0.45593999997E+02  0.45594000000E+02  0.51100000000E-03 0.  1.
         23    2    1    2    0    0 -0.35527136788E-14 -0.17763568394E-14  0.00000000000E+00  0.91188000000E+02  0.91188000000E+02 0.  0.
    9900012    2    3    3    0    0 -0.18203387290E+02 -0.11469468562E+02  0.37692327221E+02  0.47787267872E+02  0.19999985535E+02 0.  0.
        -12    1    3    3    0    0  0.18203387290E+02  0.11469468562E+02 -0.37692327221E+02  0.43400732128E+02  0.00000000000E+00 0.  1.
         11    1    4    4    0    0 -0.91528531185E+01 -0.10491032387E+02  0.14029291031E+02  0.19765057244E+02  0.51100000000E-03 0. -1.
        -11    1    4    4    0    0  0.23734211777E+01 -0.19625295017E+01  0.25579392830E+01  0.40034614734E+01  0.51100000000E-03 0.  1.
        -12    1    4    4    0    0 -0.11423955349E+02  0.98409332712E+00  0.21105096907E+02  0.24018749155E+02  0.00000000000E+00 0.  1.
</event>
<event>
 8    1  0.1280823E-010  0.9118800E+02  0.7816164E-02  0.1184000E+00
        -11   -1    0    0    0    0  0.00000000000E+00  0.00000000000E+00  0.45593999997E+02  0.45594000000E+02  0.51100000000E-03 0. -1.
         11   -1    0    0    0    0 -0.00000000000E+00 -0.00000000000E+00 -0.45593999997E+02  0.45594000000E+02  0.51100000000E-03 0.  1.
         23    2    1    2    0    0  0.00000000000E+00  0.00000000000E+00  0.00000000000E+00  0.91188000000E+02  0.91188000000E+02 0.  0.
    9900012    2    3    3    0    0  0.56841666479E+01  0.17118977236E+02 -0.39474727141E+02  0.47787271723E+02  0.20000003095E+02 0.  0.
         12    1    3    3    0    0 -0.56841666479E+01 -0.17118977236E+02  0.39474727141E+02  0.43400728277E+02  0.00000000000E+00 0. -1.
         11    1    4    4    0    0 -0.41961396292E+01  0.47075640224E+01 -0.20056622984E+01  0.66175092239E+01  0.51100000000E-03 0. -1.
        -11    1    4    4    0    0  0.36161702073E+01  0.42059731218E+01 -0.66055258041E+01  0.86255358257E+01  0.51100000000E-03 0.  1.
        -12    1    4    4    0    0  0.62641360698E+01  0.82054400922E+01 -0.30863539038E+02  0.32544226674E+02  0.00000000000E+00 0.  1.
</event>
<event>
 8    1  0.1280823E-010  0.9118800E+02  0.7816164E-02  0.1184000E+00
        -11   -1    0    0    0    0  0.00000000000E+00  0.00000000000E+00  0.45593999997E+02  0.45594000000E+02  0.51100000000E-03 0. -1.
         11   -1    0    0    0    0 -0.00000000000E+00 -0.00000000000E+00 -0.45593999997E+02  0.45594000000E+02  0.51100000000E-03 0.  1.
         23    2    1    2    0    0 -0.88817841970E-15  0.00000000000E+00  0.00000000000E+00  0.91188000000E+02  0.91188000000E+02 0.  0.
    9900012    2    3    3    0    0  0.62699049263E+01  0.20723046001E+02  0.37614723096E+02  0.47787265710E+02  0.19999975679E+02 0.  0.
        -12    1    3    3    0    0 -0.62699049263E+01 -0.20723046001E+02 -0.37614723096E+02  0.43400734290E+02  0.00000000000E+00 0.  1.
         11    1    4    4    0    0  0.70984423617E+01  0.86976746438E+01  0.55902896345E+01  0.12541481835E+02  0.51100000000E-03 0. -1.
        -11    1    4    4    0    0  0.15181022322E+01  0.13701845821E+01  0.84533735347E+00  0.22128343089E+01  0.51100000000E-03 0.  1.
        -12    1    4    4    0    0 -0.23466396676E+01  0.10655186775E+02  0.31179096107E+02  0.33032949566E+02  0.00000000000E+00 0.  1.
</event>
<event>
 8    1  0.1280823E-010  0.9118800E+02  0.7816164E-02  0.1184000E+00
        -11   -1    0    0    0    0  0.00000000000E+00  0.00000000000E+00  0.45593999997E+02  0.45594000000E+02  0.51100000000E-03 0. -1.
         11   -1    0    0    0    0 -0.00000000000E+00 -0.00000000000E+00 -0.45593999997E+02  0.45594000000E+02  0.51100000000E-03 0.  1.
         23    2    1    2    0    0  0.00000000000E+00  0.00000000000E+00  0.00000000000E+00  0.91188000000E+02  0.91188000000E+02 0.  0.
    9900012    2    3    3    0    0  0.38531546908E+02  0.13341633419E+02 -0.14864183299E+02  0.47787271498E+02  0.20000002067E+02 0.  0.
         12    1    3    3    0    0 -0.38531546908E+02 -0.13341633419E+02  0.14864183299E+02  0.43400728502E+02  0.00000000000E+00 0. -1.
         11    1    4    4    0    0  0.15279478124E+02 -0.44888620623E+00 -0.71632739064E+01  0.16881245330E+02  0.51100000000E-03 0.  1.
        -11    1    4    4    0    0  0.66779545752E+01  0.51257986688E+01 -0.87912593011E+01  0.12171899181E+02  0.51100000000E-03 0. -1.
         12    1    4    4    0    0  0.16574114208E+02  0.86647209564E+01  0.10903499090E+01  0.18734126987E+02  0.00000000000E+00 0. -1.
</event>
<event>
 8    1  0.1280823E-010  0.9118800E+02  0.7816164E-02  0.1184000E+00
        -11   -1    0    0    0    0  0.00000000000E+00  0.00000000000E+00  0.45593999997E+02  0.45594000000E+02  0.51100000000E-03 0. -1.
         11   -1    0    0    0    0 -0.00000000000E+00 -0.00000000000E+00 -0.45593999997E+02  0.45594000000E+02  0.51100000000E-03 0.  1.
         23    2    1    2    0    0 -0.17763568394E-14 -0.35527136788E-14  0.00000000000E+00  0.91188000000E+02  0.91188000000E+02 0.  0.
    9900012    2    3    3    0    0  0.15034299216E+02  0.19121576470E+02 -0.35943820821E+02  0.47787273107E+02  0.20000009403E+02 0.  0.
         12    1    3    3    0    0 -0.15034299216E+02 -0.19121576470E+02  0.35943820821E+02  0.43400726893E+02  0.00000000000E+00 0. -1.
         11    1    4    4    0    0  0.73330777961E+01  0.48529858752E+01 -0.11309681101E+01  0.88659230199E+01  0.51100000000E-03 0. -1.
        -11    1    4    4    0    0  0.27611422764E+01  0.57102396916E+01 -0.72093862122E+01  0.96023952129E+01  0.51100000000E-03 0.  1.
         12    1    4    4    0    0  0.49400791434E+01  0.85583509035E+01 -0.27603466499E+02  0.29318954874E+02  0.00000000000E+00 0. -1.
</event>
<event>
 8    1  0.1280823E-010  0.9118800E+02  0.7816164E-02  0.1184000E+00
        -11   -1    0    0    0    0  0.00000000000E+00  0.00000000000E+00  0.45593999997E+02  0.45594000000E+02  0.51100000000E-03 0. -1.
         11   -1    0    0    0    0 -0.00000000000E+00 -0.00000000000E+00 -0.45593999997E+02  0.45594000000E+02  0.51100000000E-03 0.  1.
         23    2    1    2    0    0  0.00000000000E+00 -0.11102230246E-15  0.00000000000E+00  0.91188000000E+02  0.91188000000E+02 0.  0.
    9900012    2    3    3    0    0  0.10248980996E+02 -0.88396274454E+00 -0.42163971787E+02  0.47787268227E+02  0.19999987152E+02 0.  0.
         12    1    3    3    0    0 -0.10248980996E+02  0.88396274454E+00  0.42163971787E+02  0.43400731773E+02  0.00000000000E+00 0. -1.
         11    1    4    4    0    0  0.72646605679E+01 -0.42269064132E+01 -0.14776233485E+02  0.16999385496E+02  0.51100000000E-03 0. -1.
        -11    1    4    4    0    0 -0.13334784015E+01 -0.43792251616E+01 -0.14097452785E+02  0.14822076539E+02  0.51100000000E-03 0.  1.
        -12    1    4    4    0    0  0.43177988300E+01  0.77221688303E+01 -0.13290285518E+02  0.15965806191E+02  0.00000000000E+00 0.  1.
</event>
<event>
 8    1  0.1280823E-010  0.9118800E+02  0.7816164E-02  0.1184000E+00
        -11   -1    0    0    0    0  0.00000000000E+00  0.00000000000E+00  0.45593999997E+02  0.45594000000E+02  0.51100000000E-03 0. -1.
         11   -1    0    0    0    0 -0.00000000000E+00 -0.00000000000E+00 -0.45593999997E+02  0.45594000000E+02  0.51100000000E-03 0.  1.
         23    2    1    2    0    0  0.17763568394E-14  0.00000000000E+00  0.00000000000E+00  0.91188000000E+02  0.91188000000E+02 0.  0.
    9900012    2    3    3    0    0 -0.15498926543E+02  0.36269380381E+02  0.18109083142E+02  0.47787267639E+02  0.19999984473E+02 0.  0.
        -12    1    3    3    0    0  0.15498926543E+02 -0.36269380381E+02 -0.18109083142E+02  0.43400732361E+02  0.00000000000E+00 0.  1.
         11    1    4    4    0    0 -0.34083538259E+01  0.72890251517E+01  0.17438122181E+01  0.82333252564E+01  0.51100000000E-03 0. -1.
        -11    1    4    4    0    0 -0.17480851952E+01 -0.11851288071E+01 -0.18684852690E+01  0.28198527623E+01  0.51100000000E-03 0.  1.
         12    1    4    4    0    0 -0.10342487522E+02  0.30165484037E+02  0.18233756193E+02  0.36734089620E+02  0.00000000000E+00 0. -1.
</event>
<event>
 8    1  0.1280823E-010  0.9118800E+02  0.7816164E-02  0.1184000E+00
        -11   -1    0    0    0    0  0.00000000000E+00  0.00000000000E+00  0.45593999997E+02  0.45594000000E+02  0.51100000000E-03 0. -1.
         11   -1    0    0    0    0 -0.00000000000E+00 -0.00000000000E+00 -0.45593999997E+02  0.45594000000E+02  0.51100000000E-03 0.  1.
         23    2    1    2    0    0  0.00000000000E+00  0.00000000000E+00  0.71054273576E-14  0.91188000000E+02  0.91188000000E+02 0.  0.
    9900012    2    3    3    0    0 -0.35624765566E+01  0.25201041592E+02 -0.35154508770E+02  0.47787271626E+02  0.20000002650E+02 0.  0.
         12    1    3    3    0    0  0.35624765566E+01 -0.25201041592E+02  0.35154508770E+02  0.43400728374E+02  0.00000000000E+00 0. -1.
         11    1    4    4    0    0 -0.49866730287E+00  0.42538045254E+01 -0.10822448813E+02  0.11639111676E+02  0.51100000000E-03 0. -1.
        -11    1    4    4    0    0 -0.26679131810E+01  0.12203575977E+02 -0.24381610697E+02  0.27395400486E+02  0.51100000000E-03 0.  1.
         12    1    4    4    0    0 -0.39589607276E+00  0.87436610901E+01  0.49550739930E-01  0.87527594640E+01  0.00000000000E+00 0. -1.
</event>
<event>
 8    1  0.1280823E-010  0.9118800E+02  0.7816164E-02  0.1184000E+00
        -11   -1    0    0    0    0  0.00000000000E+00  0.00000000000E+00  0.45593999997E+02  0.45594000000E+02  0.51100000000E-03 0. -1.
         11   -1    0    0    0    0 -0.00000000000E+00 -0.00000000000E+00 -0.45593999997E+02  0.45594000000E+02  0.51100000000E-03 0.  1.
         23    2    1    2    0    0 -0.35527136788E-14  0.35527136788E-14  0.00000000000E+00  0.91188000000E+02  0.91188000000E+02 0.  0.
    9900012    2    3    3    0    0 -0.28404978854E+02  0.18027913728E+02 -0.27418501018E+02  0.47787277712E+02  0.20000030398E+02 0.  0.
         12    1    3    3    0    0  0.28404978854E+02 -0.18027913728E+02  0.27418501018E+02  0.43400722288E+02  0.00000000000E+00 0. -1.
         11    1    4    4    0    0  0.26642830354E+00 -0.14382133326E+01 -0.14014164346E+01  0.20256875167E+01  0.51100000000E-03 0. -1.
        -11    1    4    4    0    0 -0.39996377216E+01  0.65395076555E+01 -0.12827434619E+02  0.14943404614E+02  0.51100000000E-03 0.  1.
         12    1    4    4    0    0 -0.24671769435E+02  0.12926619405E+02 -0.13189649964E+02  0.30818185581E+02  0.00000000000E+00 0. -1.
</event>
<event>
 8    1  0.1280823E-010  0.9118800E+02  0.7816164E-02  0.1184000E+00
        -11   -1    0    0    0    0  0.00000000000E+00  0.00000000000E+00  0.45593999997E+02  0.45594000000E+02  0.51100000000E-03 0. -1.
         11   -1    0    0    0    0 -0.00000000000E+00 -0.00000000000E+00 -0.45593999997E+02  0.45594000000E+02  0.51100000000E-03 0.  1.
         23    2    1    2    0    0  0.00000000000E+00  0.00000000000E+00  0.00000000000E+00  0.91188000000E+02  0.91188000000E+02 0.  0.
    9900012    2    3    3    0    0 -0.35440840851E+02 -0.24566611375E+02  0.49042708906E+01  0.47787268812E+02  0.19999989821E+02 0.  0.
        -12    1    3    3    0    0  0.35440840851E+02  0.24566611375E+02 -0.49042708906E+01  0.43400731188E+02  0.00000000000E+00 0.  1.
         11    1    4    4    0    0 -0.15890705686E+02 -0.18500041378E+02  0.68504259283E+01  0.25331687544E+02  0.51100000000E-03 0. -1.
        -11    1    4    4    0    0  0.40675439903E+00 -0.17896679032E+01  0.49286248930E+00  0.19003352439E+01  0.51100000000E-03 0.  1.
        -12    1    4    4    0    0 -0.19956889564E+02 -0.42769020939E+01 -0.24390175270E+01  0.20555246024E+02  0.00000000000E+00 0.  1.
</event>
<event>
 8    1  0.1280823E-010  0.9118800E+02  0.7816164E-02  0.1184000E+00
        -11   -1    0    0    0    0  0.00000000000E+00  0.00000000000E+00  0.45593999997E+02  0.45594000000E+02  0.51100000000E-03 0. -1.
         11   -1    0    0    0    0 -0.00000000000E+00 -0.00000000000E+00 -0.45593999997E+02  0.45594000000E+02  0.51100000000E-03 0.  1.
         23    2    1    2    0    0  0.26645352591E-14 -0.71054273576E-14  0.00000000000E+00  0.91188000000E+02  0.91188000000E+02 0.  0.
    9900012    2    3    3    0    0 -0.57090778141E+01  0.37119869190E+02 -0.21751897478E+02  0.47787270720E+02  0.19999998520E+02 0.  0.
         12    1    3    3    0    0  0.57090778141E+01 -0.37119869190E+02  0.21751897478E+02  0.43400729280E+02  0.00000000000E+00 0. -1.
         11    1    4    4    0    0  0.21760768797E+01  0.64212049625E+01 -0.32024852707E+01  0.74982061806E+01  0.51100000000E-03 0.  1.
        -11    1    4    4    0    0 -0.11970824836E+02  0.20275611664E+02 -0.78943933057E+01  0.24833898638E+02  0.51100000000E-03 0. -1.
         12    1    4    4    0    0  0.40856701425E+01  0.10423052563E+02 -0.10655018902E+02  0.15455165901E+02  0.00000000000E+00 0. -1.
</event>
<event>
 8    1  0.1280823E-010  0.9118800E+02  0.7816164E-02  0.1184000E+00
        -11   -1    0    0    0    0  0.00000000000E+00  0.00000000000E+00  0.45593999997E+02  0.45594000000E+02  0.51100000000E-03 0. -1.
         11   -1    0    0    0    0 -0.00000000000E+00 -0.00000000000E+00 -0.45593999997E+02  0.45594000000E+02  0.51100000000E-03 0.  1.
         23    2    1    2    0    0 -0.35527136788E-14  0.00000000000E+00  0.00000000000E+00  0.91188000000E+02  0.91188000000E+02 0.  0.
    9900012    2    3    3    0    0 -0.17989364585E+02  0.11222892934E+02  0.37868890902E+02  0.47787268875E+02  0.19999990110E+02 0.  0.
        -12    1    3    3    0    0  0.17989364585E+02 -0.11222892934E+02 -0.37868890902E+02  0.43400731125E+02  0.00000000000E+00 0.  1.
         11    1    4    4    0    0 -0.90024365063E+01  0.31388030039E+01  0.71764912483E+01  0.11933062233E+02  0.51100000000E-03 0. -1.
        -11    1    4    4    0    0 -0.62761734512E+01  0.48407091446E+01  0.40920052127E+01  0.89200518571E+01  0.51100000000E-03 0.  1.
        -12    1    4    4    0    0 -0.27107546273E+01  0.32433807858E+01  0.26600394442E+02  0.26934154786E+02  0.00000000000E+00 0.  1.
</event>
<event>
 8    1  0.1280823E-010  0.9118800E+02  0.7816164E-02  0.1184000E+00
        -11   -1    0    0    0    0  0.00000000000E+00  0.00000000000E+00  0.45593999997E+02  0.45594000000E+02  0.51100000000E-03 0. -1.
         11   -1    0    0    0    0 -0.00000000000E+00 -0.00000000000E+00 -0.45593999997E+02  0.45594000000E+02  0.51100000000E-03 0.  1.
         23    2    1    2    0    0 -0.17763568394E-14  0.44408920985E-15  0.00000000000E+00  0.91188000000E+02  0.91188000000E+02 0.  0.
    9900012    2    3    3    0    0  0.14946417180E+02 -0.37358097324E+01  0.40574259487E+02  0.47787283488E+02  0.20000056733E+02 0.  0.
        -12    1    3    3    0    0 -0.14946417180E+02  0.37358097324E+01 -0.40574259487E+02  0.43400716512E+02  0.00000000000E+00 0.  1.
         11    1    4    4    0    0  0.89143405763E+01  0.52758033755E+00  0.12434772263E+02  0.15309061709E+02  0.51100000000E-03 0. -1.
        -11    1    4    4    0    0 -0.12609399409E+01  0.25336881209E+01  0.22746745152E+00  0.28392405201E+01  0.51100000000E-03 0.  1.
         12    1    4    4    0    0  0.72930165444E+01 -0.67970781908E+01  0.27912019772E+02  0.29638981258E+02  0.00000000000E+00 0. -1.
</event>
<event>
 8    1  0.1280823E-010  0.9118800E+02  0.7816164E-02  0.1184000E+00
        -11   -1    0    0    0    0  0.00000000000E+00  0.00000000000E+00  0.45593999997E+02  0.45594000000E+02  0.51100000000E-03 0. -1.
         11   -1    0    0    0    0 -0.00000000000E+00 -0.00000000000E+00 -0.45593999997E+02  0.45594000000E+02  0.51100000000E-03 0.  1.
         23    2    1    2    0    0 -0.35527136788E-14 -0.35527136788E-14  0.00000000000E+00  0.91188000000E+02  0.91188000000E+02 0.  0.
    9900012    2    3    3    0    0  0.31165312972E+02  0.18678742449E+02  0.23737131018E+02  0.47787267966E+02  0.19999985965E+02 0.  0.
        -12    1    3    3    0    0 -0.31165312972E+02 -0.18678742449E+02 -0.23737131018E+02  0.43400732034E+02  0.00000000000E+00 0.  1.
         11    1    4    4    0    0  0.10632663415E+01  0.17488684028E+01  0.31341713144E+01  0.37432747818E+01  0.51100000000E-03 0. -1.
        -11    1    4    4    0    0  0.12932976335E+02 -0.11623671629E+01  0.24969558859E+01  0.13223001296E+02  0.51100000000E-03 0.  1.
        -12    1    4    4    0    0  0.17169070295E+02  0.18092241209E+02  0.18106003817E+02  0.30820991889E+02  0.00000000000E+00 0.  1.
</event>
<event>
 8    1  0.1280823E-010  0.9118800E+02  0.7816164E-02  0.1184000E+00
        -11   -1    0    0    0    0  0.00000000000E+00  0.00000000000E+00  0.45593999997E+02  0.45594000000E+02  0.51100000000E-03 0. -1.
         11   -1    0    0    0    0 -0.00000000000E+00 -0.00000000000E+00 -0.45593999997E+02  0.45594000000E+02  0.51100000000E-03 0.  1.
         23    2    1    2    0    0  0.00000000000E+00  0.00000000000E+00  0.00000000000E+00  0.91188000000E+02  0.91188000000E+02 0.  0.
    9900012    2    3    3    0    0  0.13649927430E+02 -0.46117161609E+01 -0.40939410203E+02  0.47787265529E+02  0.19999974854E+02 0.  0.
         12    1    3    3    0    0 -0.13649927430E+02  0.46117161609E+01  0.40939410203E+02  0.43400734471E+02  0.00000000000E+00 0. -1.
         11    1    4    4    0    0  0.39512141343E+01  0.16897912332E+01 -0.15313896005E+02  0.15905436136E+02  0.51100000000E-03 0. -1.
        -11    1    4    4    0    0  0.12949903808E+02 -0.33138127269E+01 -0.13591485929E+02  0.19063311712E+02  0.51100000000E-03 0.  1.
         12    1    4    4    0    0 -0.32511905115E+01 -0.29876946672E+01 -0.12034028269E+02  0.12818517681E+02  0.00000000000E+00 0. -1.
</event>
<event>
 8    1  0.1280823E-010  0.9118800E+02  0.7816164E-02  0.1184000E+00
        -11   -1    0    0    0    0  0.00000000000E+00  0.00000000000E+00  0.45593999997E+02  0.45594000000E+02  0.51100000000E-03 0.  1.
         11   -1    0    0    0    0 -0.00000000000E+00 -0.00000000000E+00 -0.45593999997E+02  0.45594000000E+02  0.51100000000E-03 0. -1.
         23    2    1    2    0    0  0.00000000000E+00 -0.71054273576E-14  0.00000000000E+00  0.91188000000E+02  0.91188000000E+02 0.  0.
    9900012    2    3    3    0    0 -0.22349019537E+02  0.32632356209E+02  0.17868235215E+02  0.47787272175E+02  0.20000005156E+02 0.  0.
        -12    1    3    3    0    0  0.22349019537E+02 -0.32632356209E+02 -0.17868235215E+02  0.43400727825E+02  0.00000000000E+00 0.  1.
         11    1    4    4    0    0 -0.48753431665E+01  0.22457603759E+01  0.50472921699E+00  0.53913970824E+01  0.51100000000E-03 0. -1.
        -11    1    4    4    0    0 -0.43881566111E+01 -0.57379044703E+00  0.47574110599E+01  0.64975467812E+01  0.51100000000E-03 0.  1.
         12    1    4    4    0    0 -0.13085519760E+02  0.30960386280E+02  0.12606094938E+02  0.35898328312E+02  0.00000000000E+00 0. -1.
</event>
<event>
 8    1  0.1280823E-010  0.9118800E+02  0.7816164E-02  0.1184000E+00
        -11   -1    0    0    0    0  0.00000000000E+00  0.00000000000E+00  0.45593999997E+02  0.45594000000E+02  0.51100000000E-03 0. -1.
         11   -1    0    0    0    0 -0.00000000000E+00 -0.00000000000E+00 -0.45593999997E+02  0.45594000000E+02  0.51100000000E-03 0.  1.
         23    2    1    2    0    0 -0.22204460493E-15  0.00000000000E+00  0.35527136788E-14  0.91188000000E+02  0.91188000000E+02 0.  0.
    9900012    2    3    3    0    0 -0.19974650523E+01 -0.33231912880E+02 -0.27843728975E+02  0.47787272546E+02  0.20000006848E+02 0.  0.
         12    1    3    3    0    0  0.19974650523E+01  0.33231912880E+02  0.27843728975E+02  0.43400727454E+02  0.00000000000E+00 0. -1.
         11    1    4    4    0    0  0.18766093439E+01 -0.45450575538E+01 -0.37266629187E-01  0.49173773355E+01  0.51100000000E-03 0. -1.
        -11    1    4    4    0    0 -0.34905775406E+01 -0.20988738375E+01 -0.10187907541E+02  0.10971912471E+02  0.51100000000E-03 0.  1.
         12    1    4    4    0    0 -0.38349685561E+00 -0.26587981489E+02 -0.17618554805E+02  0.31897982740E+02  0.00000000000E+00 0. -1.
</event>
<event>
 8    1  0.1280823E-010  0.9118800E+02  0.7816164E-02  0.1184000E+00
        -11   -1    0    0    0    0  0.00000000000E+00  0.00000000000E+00  0.45593999997E+02  0.45594000000E+02  0.51100000000E-03 0. -1.
         11   -1    0    0    0    0 -0.00000000000E+00 -0.00000000000E+00 -0.45593999997E+02  0.45594000000E+02  0.51100000000E-03 0.  1.
         23    2    1    2    0    0  0.00000000000E+00 -0.44408920985E-15  0.00000000000E+00  0.91188000000E+02  0.91188000000E+02 0.  0.
    9900012    2    3    3    0    0 -0.40312223533E+02 -0.25756000299E+01 -0.15871820723E+02  0.47787265274E+02  0.19999973691E+02 0.  0.
         12    1    3    3    0    0  0.40312223533E+02  0.25756000299E+01  0.15871820723E+02  0.43400734726E+02  0.00000000000E+00 0. -1.
         11    1    4    4    0    0 -0.15244533111E+02 -0.30970685541E+01 -0.99344049140E+01  0.18457519461E+02  0.51100000000E-03 0.  1.
        -11    1    4    4    0    0 -0.25020082859E+02 -0.91841567254E+00 -0.84575816600E+01  0.26426856064E+02  0.51100000000E-03 0. -1.
         12    1    4    4    0    0 -0.47607562816E-01  0.14398841967E+01  0.25201658509E+01  0.29028897492E+01  0.00000000000E+00 0. -1.
</event>
<event>
 8    1  0.1280823E-010  0.9118800E+02  0.7816164E-02  0.1184000E+00
        -11   -1    0    0    0    0  0.00000000000E+00  0.00000000000E+00  0.45593999997E+02  0.45594000000E+02  0.51100000000E-03 0.  1.
         11   -1    0    0    0    0 -0.00000000000E+00 -0.00000000000E+00 -0.45593999997E+02  0.45594000000E+02  0.51100000000E-03 0. -1.
         23    2    1    2    0    0  0.00000000000E+00 -0.17763568394E-14  0.00000000000E+00  0.91188000000E+02  0.91188000000E+02 0.  0.
    9900012    2    3    3    0    0  0.41284082687E+02  0.11623935288E+02  0.66432268719E+01  0.47787264774E+02  0.19999971409E+02 0.  0.
         12    1    3    3    0    0 -0.41284082687E+02 -0.11623935288E+02 -0.66432268719E+01  0.43400735226E+02  0.00000000000E+00 0. -1.
         11    1    4    4    0    0  0.72966723001E+00 -0.19102089516E+00 -0.27434206243E+01  0.28452170799E+01  0.51100000000E-03 0. -1.
        -11    1    4    4    0    0  0.10376279434E+01 -0.17922190263E+01 -0.14158282469E+00  0.20757569088E+01  0.51100000000E-03 0.  1.
        -12    1    4    4    0    0  0.39516787514E+02  0.13607175210E+02  0.95282303209E+01  0.42866290785E+02  0.00000000000E+00 0.  1.
</event>
<event>
 8    1  0.1280823E-010  0.9118800E+02  0.7816164E-02  0.1184000E+00
        -11   -1    0    0    0    0  0.00000000000E+00  0.00000000000E+00  0.45593999997E+02  0.45594000000E+02  0.51100000000E-03 0. -1.
         11   -1    0    0    0    0 -0.00000000000E+00 -0.00000000000E+00 -0.45593999997E+02  0.45594000000E+02  0.51100000000E-03 0.  1.
         23    2    1    2    0    0 -0.17763568394E-14  0.35527136788E-14  0.00000000000E+00  0.91188000000E+02  0.91188000000E+02 0.  0.
    9900012    2    3    3    0    0  0.45559452401E+01 -0.19391761036E+02  0.38559390878E+02  0.47787266619E+02  0.19999979823E+02 0.  0.
        -12    1    3    3    0    0 -0.45559452401E+01  0.19391761036E+02 -0.38559390878E+02  0.43400733381E+02  0.00000000000E+00 0.  1.
         11    1    4    4    0    0  0.38835205323E+00 -0.80815019449E+00  0.65908315787E+01  0.66515400633E+01  0.51100000000E-03 0. -1.
        -11    1    4    4    0    0  0.97310054196E+01 -0.16217821774E+02  0.28381818425E+02  0.34106272546E+02  0.51100000000E-03 0.  1.
        -12    1    4    4    0    0 -0.55634122327E+01 -0.23657890674E+01  0.35867408742E+01  0.70294540102E+01  0.00000000000E+00 0.  1.
</event>
<event>
 8    1  0.1280823E-010  0.9118800E+02  0.7816164E-02  0.1184000E+00
        -11   -1    0    0    0    0  0.00000000000E+00  0.00000000000E+00  0.45593999997E+02  0.45594000000E+02  0.51100000000E-03 0. -1.
         11   -1    0    0    0    0 -0.00000000000E+00 -0.00000000000E+00 -0.45593999997E+02  0.45594000000E+02  0.51100000000E-03 0.  1.
         23    2    1    2    0    0 -0.17763568394E-14  0.17763568394E-14  0.00000000000E+00  0.91188000000E+02  0.91188000000E+02 0.  0.
    9900012    2    3    3    0    0 -0.15768861987E+02  0.84943382157E+01 -0.39532423366E+02  0.47787270890E+02  0.19999999296E+02 0.  0.
         12    1    3    3    0    0  0.15768861987E+02 -0.84943382157E+01  0.39532423366E+02  0.43400729110E+02  0.00000000000E+00 0. -1.
         11    1    4    4    0    0 -0.40570174089E+01  0.22143277040E+01 -0.24238462132E+02  0.24675203833E+02  0.51100000000E-03 0. -1.
        -11    1    4    4    0    0 -0.10672518366E+01 -0.23325584960E+01 -0.61051339603E+01  0.66221232664E+01  0.51100000000E-03 0.  1.
         12    1    4    4    0    0 -0.10644592742E+02  0.86125690078E+01 -0.91888272739E+01  0.16489943791E+02  0.00000000000E+00 0. -1.
</event>
<event>
 8    1  0.1280823E-010  0.9118800E+02  0.7816164E-02  0.1184000E+00
        -11   -1    0    0    0    0  0.00000000000E+00  0.00000000000E+00  0.45593999997E+02  0.45594000000E+02  0.51100000000E-03 0. -1.
         11   -1    0    0    0    0 -0.00000000000E+00 -0.00000000000E+00 -0.45593999997E+02  0.45594000000E+02  0.51100000000E-03 0.  1.
         23    2    1    2    0    0  0.00000000000E+00 -0.71054273576E-14  0.00000000000E+00  0.91188000000E+02  0.91188000000E+02 0.  0.
    9900012    2    3    3    0    0  0.16667945939E+01  0.42446183225E+02  0.88975475400E+01  0.47787273891E+02  0.20000012976E+02 0.  0.
        -12    1    3    3    0    0 -0.16667945939E+01 -0.42446183225E+02 -0.88975475400E+01  0.43400726109E+02  0.00000000000E+00 0.  1.
         11    1    4    4    0    0 -0.96547810770E+00  0.58453144799E+00  0.90321049860E+00  0.14455498802E+01  0.51100000000E-03 0. -1.
        -11    1    4    4    0    0 -0.68238477059E+01  0.21878614799E+02  0.78768991157E+01  0.24233947738E+02  0.51100000000E-03 0.  1.
         12    1    4    4    0    0  0.94561204075E+01  0.19983036978E+02  0.11743792570E+00  0.22107776272E+02  0.00000000000E+00 0. -1.
</event>
<event>
 8    1  0.1280823E-010  0.9118800E+02  0.7816164E-02  0.1184000E+00
        -11   -1    0    0    0    0  0.00000000000E+00  0.00000000000E+00  0.45593999997E+02  0.45594000000E+02  0.51100000000E-03 0. -1.
         11   -1    0    0    0    0 -0.00000000000E+00 -0.00000000000E+00 -0.45593999997E+02  0.45594000000E+02  0.51100000000E-03 0.  1.
         23    2    1    2    0    0  0.00000000000E+00  0.00000000000E+00  0.00000000000E+00  0.91188000000E+02  0.91188000000E+02 0.  0.
    9900012    2    3    3    0    0 -0.72726109746E+01 -0.24480626020E+02  0.35091760427E+02  0.47787267627E+02  0.19999984417E+02 0.  0.
        -12    1    3    3    0    0  0.72726109746E+01  0.24480626020E+02 -0.35091760427E+02  0.43400732373E+02  0.00000000000E+00 0.  1.
         11    1    4    4    0    0  0.36494384023E+01 -0.16701383703E+02  0.24354169875E+02  0.29755339165E+02  0.51100000000E-03 0. -1.
        -11    1    4    4    0    0 -0.30439826122E+01 -0.56416157677E+00  0.50657869592E+01  0.59368599617E+01  0.51100000000E-03 0.  1.
         12    1    4    4    0    0 -0.78780667647E+01 -0.72150807397E+01  0.56718035925E+01  0.12095068500E+02  0.00000000000E+00 0. -1.
</event>
<event>
 8    1  0.1280823E-010  0.9118800E+02  0.7816164E-02  0.1184000E+00
        -11   -1    0    0    0    0  0.00000000000E+00  0.00000000000E+00  0.45593999997E+02  0.45594000000E+02  0.51100000000E-03 0. -1.
         11   -1    0    0    0    0 -0.00000000000E+00 -0.00000000000E+00 -0.45593999997E+02  0.45594000000E+02  0.51100000000E-03 0.  1.
         23    2    1    2    0    0  0.00000000000E+00  0.00000000000E+00  0.00000000000E+00  0.91188000000E+02  0.91188000000E+02 0.  0.
    9900012    2    3    3    0    0  0.29096936462E+01 -0.27935648396E+02  0.33087102218E+02  0.47787273029E+02  0.20000009049E+02 0.  0.
        -12    1    3    3    0    0 -0.29096936462E+01  0.27935648396E+02 -0.33087102218E+02  0.43400726971E+02  0.00000000000E+00 0.  1.
         11    1    4    4    0    0  0.14826099493E+01 -0.17122261493E+02  0.21954851579E+02  0.27881633363E+02  0.51100000000E-03 0. -1.
        -11    1    4    4    0    0  0.13362744460E+01 -0.91757537810E+01  0.13887842239E+02  0.16698869697E+02  0.51100000000E-03 0.  1.
        -12    1    4    4    0    0  0.90809250895E-01 -0.16376331220E+01 -0.27555916004E+01  0.32067699684E+01  0.00000000000E+00 0.  1.
</event>
<event>
 8    1  0.1280823E-010  0.9118800E+02  0.7816164E-02  0.1184000E+00
        -11   -1    0    0    0    0  0.00000000000E+00  0.00000000000E+00  0.45593999997E+02  0.45594000000E+02  0.51100000000E-03 0. -1.
         11   -1    0    0    0    0 -0.00000000000E+00 -0.00000000000E+00 -0.45593999997E+02  0.45594000000E+02  0.51100000000E-03 0.  1.
         23    2    1    2    0    0  0.00000000000E+00  0.00000000000E+00  0.00000000000E+00  0.91188000000E+02  0.91188000000E+02 0.  0.
    9900012    2    3    3    0    0 -0.22060735551E+02  0.73270889825E+01  0.36650524074E+02  0.47787271885E+02  0.20000003833E+02 0.  0.
        -12    1    3    3    0    0  0.22060735551E+02 -0.73270889825E+01 -0.36650524074E+02  0.43400728115E+02  0.00000000000E+00 0.  1.
         11    1    4    4    0    0  0.19865440148E+00 -0.10836929664E+01  0.17242399207E+01  0.20461812192E+01  0.51100000000E-03 0. -1.
        -11    1    4    4    0    0  0.24173664000E+01 -0.14830736803E+01  0.22812618704E+01  0.36396873266E+01  0.51100000000E-03 0.  1.
         12    1    4    4    0    0 -0.24676756352E+02  0.98938556292E+01  0.32645022283E+02  0.42101403339E+02  0.00000000000E+00 0. -1.
</event>
<event>
 8    1  0.1280823E-010  0.9118800E+02  0.7816164E-02  0.1184000E+00
        -11   -1    0    0    0    0  0.00000000000E+00  0.00000000000E+00  0.45593999997E+02  0.45594000000E+02  0.51100000000E-03 0. -1.
         11   -1    0    0    0    0 -0.00000000000E+00 -0.00000000000E+00 -0.45593999997E+02  0.45594000000E+02  0.51100000000E-03 0.  1.
         23    2    1    2    0    0 -0.71054273576E-14  0.00000000000E+00  0.17763568394E-14  0.91188000000E+02  0.91188000000E+02 0.  0.
    9900012    2    3    3    0    0 -0.36125573836E+02 -0.20043530112E+02 -0.13297475120E+02  0.47787273867E+02  0.20000012868E+02 0.  0.
         12    1    3    3    0    0  0.36125573836E+02  0.20043530112E+02  0.13297475120E+02  0.43400726133E+02  0.00000000000E+00 0. -1.
         11    1    4    4    0    0 -0.79722838023E+00 -0.28342412474E+01  0.19628257109E+01  0.35385281645E+01  0.51100000000E-03 0. -1.
        -11    1    4    4    0    0 -0.33271592592E+02 -0.12843211781E+02 -0.98520003085E+01  0.37000119902E+02  0.51100000000E-03 0.  1.
        -12    1    4    4    0    0 -0.20567528642E+01 -0.43660770841E+01 -0.54083005225E+01  0.72486258001E+01  0.00000000000E+00 0.  1.
</event>
<event>
 8    1  0.1280823E-010  0.9118800E+02  0.7816164E-02  0.1184000E+00
        -11   -1    0    0    0    0  0.00000000000E+00  0.00000000000E+00  0.45593999997E+02  0.45594000000E+02  0.51100000000E-03 0. -1.
         11   -1    0    0    0    0 -0.00000000000E+00 -0.00000000000E+00 -0.45593999997E+02  0.45594000000E+02  0.51100000000E-03 0.  1.
         23    2    1    2    0    0 -0.88817841970E-15 -0.35527136788E-14  0.00000000000E+00  0.91188000000E+02  0.91188000000E+02 0.  0.
    9900012    2    3    3    0    0  0.77972247621E+01  0.21728362213E+02 -0.36751936552E+02  0.47787270987E+02  0.19999999740E+02 0.  0.
         12    1    3    3    0    0 -0.77972247621E+01 -0.21728362213E+02  0.36751936552E+02  0.43400729013E+02  0.00000000000E+00 0. -1.
         11    1    4    4    0    0  0.47375889278E+01  0.10135612180E+01 -0.55453428105E+01  0.73636188344E+01  0.51100000000E-03 0.  1.
        -11    1    4    4    0    0 -0.14971670573E+01 -0.14873162133E+01 -0.35259535447E+00  0.21396126895E+01  0.51100000000E-03 0. -1.
         12    1    4    4    0    0  0.45568028917E+01  0.22202117209E+02 -0.30853998388E+02  0.38284039463E+02  0.00000000000E+00 0. -1.
</event>
<event>
 8    1  0.1280823E-010  0.9118800E+02  0.7816164E-02  0.1184000E+00
        -11   -1    0    0    0    0  0.00000000000E+00  0.00000000000E+00  0.45593999997E+02  0.45594000000E+02  0.51100000000E-03 0. -1.
         11   -1    0    0    0    0 -0.00000000000E+00 -0.00000000000E+00 -0.45593999997E+02  0.45594000000E+02  0.51100000000E-03 0.  1.
         23    2    1    2    0    0  0.00000000000E+00 -0.35527136788E-14  0.00000000000E+00  0.91188000000E+02  0.91188000000E+02 0.  0.
    9900012    2    3    3    0    0 -0.21456973184E+02 -0.25465043480E+02 -0.27834389612E+02  0.47787269791E+02  0.19999994283E+02 0.  0.
         12    1    3    3    0    0  0.21456973184E+02  0.25465043480E+02  0.27834389612E+02  0.43400730209E+02  0.00000000000E+00 0. -1.
         11    1    4    4    0    0  0.15235708483E+01 -0.68849381732E+00 -0.36082564224E+00  0.17104055868E+01  0.51100000000E-03 0. -1.
        -11    1    4    4    0    0 -0.13546204004E+02 -0.13070484536E+02 -0.57961216485E+01  0.19695995414E+02  0.51100000000E-03 0.  1.
        -12    1    4    4    0    0 -0.94343400282E+01 -0.11706065126E+02 -0.21677442321E+02  0.26380868789E+02  0.00000000000E+00 0.  1.
</event>
<event>
 8    1  0.1280823E-010  0.9118800E+02  0.7816164E-02  0.1184000E+00
        -11   -1    0    0    0    0  0.00000000000E+00  0.00000000000E+00  0.45593999997E+02  0.45594000000E+02  0.51100000000E-03 0. -1.
         11   -1    0    0    0    0 -0.00000000000E+00 -0.00000000000E+00 -0.45593999997E+02  0.45594000000E+02  0.51100000000E-03 0.  1.
         23    2    1    2    0    0  0.00000000000E+00  0.00000000000E+00  0.71054273576E-14  0.91188000000E+02  0.91188000000E+02 0.  0.
    9900012    2    3    3    0    0 -0.10940881355E+02  0.73662926951E+01 -0.41348019007E+02  0.47787264653E+02  0.19999970859E+02 0.  0.
         12    1    3    3    0    0  0.10940881355E+02 -0.73662926951E+01  0.41348019007E+02  0.43400735347E+02  0.00000000000E+00 0. -1.
         11    1    4    4    0    0  0.10299814135E+01 -0.22744821157E+01 -0.50133591406E+01  0.56007053789E+01  0.51100000000E-03 0. -1.
        -11    1    4    4    0    0  0.13094482337E+01  0.28682388197E+01 -0.19275020431E+02  0.19531202254E+02  0.51100000000E-03 0.  1.
         12    1    4    4    0    0 -0.13280311002E+02  0.67725359911E+01 -0.17059639435E+02  0.22655357020E+02  0.00000000000E+00 0. -1.
</event>
<event>
 8    1  0.1398084E-010  0.9118800E+02  0.7816164E-02  0.1184000E+00
        -11   -1    0    0    0    0  0.00000000000E+00  0.00000000000E+00  0.45593999997E+02  0.45594000000E+02  0.51100000000E-03 0. -1.
         11   -1    0    0    0    0 -0.00000000000E+00 -0.00000000000E+00 -0.45593999997E+02  0.45594000000E+02  0.51100000000E-03 0.  1.
         23    2    1    2    0    0 -0.35527136788E-14  0.00000000000E+00  0.00000000000E+00  0.91188000000E+02  0.91188000000E+02 0.  0.
    9900012    2    3    3    0    0  0.23326937182E+02  0.16714771049E+02 -0.32559083108E+02  0.47787268873E+02  0.19999990101E+02 0.  0.
         12    1    3    3    0    0 -0.23326937182E+02 -0.16714771049E+02  0.32559083108E+02  0.43400731127E+02  0.00000000000E+00 0. -1.
         11    1    4    4    0    0  0.93100723430E+01 -0.24861589115E+01 -0.64198641528E+01  0.11578993444E+02  0.51100000000E-03 0. -1.
        -11    1    4    4    0    0 -0.57102327272E+00  0.15302404643E+01 -0.41086655407E+01  0.44214065910E+01  0.51100000000E-03 0.  1.
        -12    1    4    4    0    0  0.14587888111E+02  0.17670689496E+02 -0.22030553415E+02  0.31786868839E+02  0.00000000000E+00 0.  1.
</event>
<event>
 8    1  0.1280823E-010  0.9118800E+02  0.7816164E-02  0.1184000E+00
        -11   -1    0    0    0    0  0.00000000000E+00  0.00000000000E+00  0.45593999997E+02  0.45594000000E+02  0.51100000000E-03 0. -1.
         11   -1    0    0    0    0 -0.00000000000E+00 -0.00000000000E+00 -0.45593999997E+02  0.45594000000E+02  0.51100000000E-03 0.  1.
         23    2    1    2    0    0  0.35527136788E-14  0.00000000000E+00  0.35527136788E-14  0.91188000000E+02  0.91188000000E+02 0.  0.
    9900012    2    3    3    0    0 -0.29585608091E+02 -0.19829227100E+02 -0.24801549430E+02  0.47787270656E+02  0.19999998227E+02 0.  0.
         12    1    3    3    0    0  0.29585608091E+02  0.19829227100E+02  0.24801549430E+02  0.43400729344E+02  0.00000000000E+00 0. -1.
         11    1    4    4    0    0 -0.12701937829E+02 -0.36793736313E+01 -0.37011055119E+01  0.13732268465E+02  0.51100000000E-03 0. -1.
        -11    1    4    4    0    0  0.28370599946E+00 -0.42988193567E+01  0.10411491490E+00  0.43094288638E+01  0.51100000000E-03 0.  1.
        -12    1    4    4    0    0 -0.17167376262E+02 -0.11851034112E+02 -0.21204558833E+02  0.29745573327E+02  0.00000000000E+00 0.  1.
</event>
<event>
 8    1  0.1280823E-010  0.9118800E+02  0.7816164E-02  0.1184000E+00
        -11   -1    0    0    0    0  0.00000000000E+00  0.00000000000E+00  0.45593999997E+02  0.45594000000E+02  0.51100000000E-03 0. -1.
         11   -1    0    0    0    0 -0.00000000000E+00 -0.00000000000E+00 -0.45593999997E+02  0.45594000000E+02  0.51100000000E-03 0.  1.
         23    2    1    2    0    0  0.00000000000E+00  0.00000000000E+00  0.00000000000E+00  0.91188000000E+02  0.91188000000E+02 0.  0.
    9900012    2    3    3    0    0  0.18762043074E+02 -0.21125124825E+02 -0.32944469508E+02  0.47787271546E+02  0.20000002285E+02 0.  0.
         12    1    3    3    0    0 -0.18762043074E+02  0.21125124825E+02  0.32944469508E+02  0.43400728454E+02  0.00000000000E+00 0. -1.
         11    1    4    4    0    0 -0.15224027357E+01 -0.75361375884E-01 -0.11177784843E+02  0.11281235025E+02  0.51100000000E-03 0. -1.
        -11    1    4    4    0    0  0.29814789672E+01 -0.38159413579E+01 -0.28861981414E+01  0.56374431484E+01  0.51100000000E-03 0.  1.
         12    1    4    4    0    0  0.17302966842E+02 -0.17233822092E+02 -0.18880486524E+02  0.30868593373E+02  0.00000000000E+00 0. -1.
</event>
<event>
 8    1  0.1280823E-010  0.9118800E+02  0.7816164E-02  0.1184000E+00
        -11   -1    0    0    0    0  0.00000000000E+00  0.00000000000E+00  0.45593999997E+02  0.45594000000E+02  0.51100000000E-03 0.  1.
         11   -1    0    0    0    0 -0.00000000000E+00 -0.00000000000E+00 -0.45593999997E+02  0.45594000000E+02  0.51100000000E-03 0. -1.
         23    2    1    2    0    0 -0.71054273576E-14  0.00000000000E+00  0.00000000000E+00  0.91188000000E+02  0.91188000000E+02 0.  0.
    9900012    2    3    3    0    0 -0.38427593792E+02  0.19600896785E+02 -0.47694775099E+01  0.47787273795E+02  0.20000012539E+02 0.  0.
         12    1    3    3    0    0  0.38427593792E+02 -0.19600896785E+02  0.47694775099E+01  0.43400726205E+02  0.00000000000E+00 0. -1.
         11    1    4    4    0    0 -0.34708774574E+01  0.28600064131E+01  0.46330396995E+01  0.64569097969E+01  0.51100000000E-03 0. -1.
        -11    1    4    4    0    0 -0.66770646028E+01 -0.10064875368E+01 -0.46989355825E+00  0.67688262711E+01  0.51100000000E-03 0.  1.
        -12    1    4    4    0    0 -0.28279651732E+02  0.17747377909E+02 -0.89326236512E+01  0.34561537727E+02  0.00000000000E+00 0.  1.
</event>
<event>
 8    1  0.1320300E-010  0.9118800E+02  0.7816164E-02  0.1184000E+00
        -11   -1    0    0    0    0  0.00000000000E+00  0.00000000000E+00  0.45593999997E+02  0.45594000000E+02  0.51100000000E-03 0. -1.
         11   -1    0    0    0    0 -0.00000000000E+00 -0.00000000000E+00 -0.45593999997E+02  0.45594000000E+02  0.51100000000E-03 0.  1.
         23    2    1    2    0    0  0.00000000000E+00  0.00000000000E+00  0.00000000000E+00  0.91188000000E+02  0.91188000000E+02 0.  0.
    9900012    2    3    3    0    0  0.87603789390E+01 -0.30251243975E+02 -0.29862051870E+02  0.47787261031E+02  0.19999954344E+02 0.  0.
         12    1    3    3    0    0 -0.87603789390E+01  0.30251243975E+02  0.29862051870E+02  0.43400738969E+02  0.00000000000E+00 0. -1.
         11    1    4    4    0    0  0.41518573405E+01 -0.90789278100E+01 -0.33753585878E+00  0.99889328896E+01  0.51100000000E-03 0. -1.
        -11    1    4    4    0    0  0.44916596454E+00  0.97121145785E+00 -0.12949772380E+01  0.16798714438E+01  0.51100000000E-03 0.  1.
        -12    1    4    4    0    0  0.41593556340E+01 -0.22143527622E+02 -0.28229538773E+02  0.36118456698E+02  0.00000000000E+00 0.  1.
</event>
<event>
 8    1  0.1280823E-010  0.9118800E+02  0.7816164E-02  0.1184000E+00
        -11   -1    0    0    0    0  0.00000000000E+00  0.00000000000E+00  0.45593999997E+02  0.45594000000E+02  0.51100000000E-03 0. -1.
         11   -1    0    0    0    0 -0.00000000000E+00 -0.00000000000E+00 -0.45593999997E+02  0.45594000000E+02  0.51100000000E-03 0.  1.
         23    2    1    2    0    0  0.00000000000E+00 -0.35527136788E-14  0.00000000000E+00  0.91188000000E+02  0.91188000000E+02 0.  0.
    9900012    2    3    3    0    0  0.20059035232E+02  0.24145354905E+02  0.29971000468E+02  0.47787263521E+02  0.19999965695E+02 0.  0.
        -12    1    3    3    0    0 -0.20059035232E+02 -0.24145354905E+02 -0.29971000468E+02  0.43400736479E+02  0.00000000000E+00 0.  1.
         11    1    4    4    0    0  0.49168385946E+01  0.83581849955E+01  0.10144738805E+02  0.14033897672E+02  0.51100000000E-03 0. -1.
        -11    1    4    4    0    0  0.20324851195E+01 -0.21855642658E+01  0.80440463495E+01  0.85798816341E+01  0.51100000000E-03 0.  1.
        -12    1    4    4    0    0  0.13109711517E+02  0.17972734175E+02  0.11782215314E+02  0.25173484215E+02  0.00000000000E+00 0.  1.
</event>
<event>
 8    1  0.1280823E-010  0.9118800E+02  0.7816164E-02  0.1184000E+00
        -11   -1    0    0    0    0  0.00000000000E+00  0.00000000000E+00  0.45593999997E+02  0.45594000000E+02  0.51100000000E-03 0. -1.
         11   -1    0    0    0    0 -0.00000000000E+00 -0.00000000000E+00 -0.45593999997E+02  0.45594000000E+02  0.51100000000E-03 0.  1.
         23    2    1    2    0    0  0.00000000000E+00 -0.44408920985E-15  0.00000000000E+00  0.91188000000E+02  0.91188000000E+02 0.  0.
    9900012    2    3    3    0    0  0.75707222996E+01 -0.25643879789E+01 -0.42658306819E+02  0.47787273479E+02  0.20000011101E+02 0.  0.
         12    1    3    3    0    0 -0.75707222996E+01  0.25643879789E+01  0.42658306819E+02  0.43400726521E+02  0.00000000000E+00 0. -1.
         11    1    4    4    0    0  0.81770739646E+01  0.37835518540E+01 -0.11398193066E+02  0.14529232901E+02  0.51100000000E-03 0. -1.
        -11    1    4    4    0    0  0.18447037266E+01 -0.16843793800E+01 -0.12580613258E+01  0.27969240775E+01  0.51100000000E-03 0.  1.
        -12    1    4    4    0    0 -0.24510553916E+01 -0.46635604529E+01 -0.30002052427E+02  0.30461116501E+02  0.00000000000E+00 0.  1.
</event>
<event>
 8    1  0.1282555E-010  0.9118800E+02  0.7816164E-02  0.1184000E+00
        -11   -1    0    0    0    0  0.00000000000E+00  0.00000000000E+00  0.45593999997E+02  0.45594000000E+02  0.51100000000E-03 0. -1.
         11   -1    0    0    0    0 -0.00000000000E+00 -0.00000000000E+00 -0.45593999997E+02  0.45594000000E+02  0.51100000000E-03 0.  1.
         23    2    1    2    0    0 -0.35527136788E-14  0.00000000000E+00  0.35527136788E-14  0.91188000000E+02  0.91188000000E+02 0.  0.
    9900012    2    3    3    0    0 -0.23488283050E+02  0.22840901121E+02 -0.28464309829E+02  0.47787272602E+02  0.20000007100E+02 0.  0.
         12    1    3    3    0    0  0.23488283050E+02 -0.22840901121E+02  0.28464309829E+02  0.43400727398E+02  0.00000000000E+00 0. -1.
         11    1    4    4    0    0  0.63472785065E+00 -0.13281548990E+01 -0.92308612225E+00  0.17375163683E+01  0.51100000000E-03 0. -1.
        -11    1    4    4    0    0 -0.10870965031E+02  0.12115234807E+02 -0.21863623324E+02  0.27257564459E+02  0.51100000000E-03 0.  1.
        -12    1    4    4    0    0 -0.13252045870E+02  0.12053821213E+02 -0.56776003834E+01  0.18792191775E+02  0.00000000000E+00 0.  1.
</event>
<event>
 8    1  0.1280823E-010  0.9118800E+02  0.7816164E-02  0.1184000E+00
        -11   -1    0    0    0    0  0.00000000000E+00  0.00000000000E+00  0.45593999997E+02  0.45594000000E+02  0.51100000000E-03 0. -1.
         11   -1    0    0    0    0 -0.00000000000E+00 -0.00000000000E+00 -0.45593999997E+02  0.45594000000E+02  0.51100000000E-03 0.  1.
         23    2    1    2    0    0 -0.17763568394E-14  0.00000000000E+00  0.00000000000E+00  0.91188000000E+02  0.91188000000E+02 0.  0.
    9900012    2    3    3    0    0 -0.84639362199E+01 -0.10805561346E+02  0.41173108392E+02  0.47787271585E+02  0.20000002463E+02 0.  0.
        -12    1    3    3    0    0  0.84639362199E+01  0.10805561346E+02 -0.41173108392E+02  0.43400728415E+02  0.00000000000E+00 0.  1.
         11    1    4    4    0    0 -0.15931389455E+01  0.13717257966E+01  0.26198163424E+02  0.26282379847E+02  0.51100000000E-03 0. -1.
        -11    1    4    4    0    0 -0.34008318562E+01 -0.95536043901E+01  0.13555555963E+02  0.16928972558E+02  0.51100000000E-03 0.  1.
        -12    1    4    4    0    0 -0.34699654182E+01 -0.26236827528E+01  0.14193890052E+01  0.45759191797E+01  0.00000000000E+00 0.  1.
</event>
<event>
 8    1  0.1280823E-010  0.9118800E+02  0.7816164E-02  0.1184000E+00
        -11   -1    0    0    0    0  0.00000000000E+00  0.00000000000E+00  0.45593999997E+02  0.45594000000E+02  0.51100000000E-03 0. -1.
         11   -1    0    0    0    0 -0.00000000000E+00 -0.00000000000E+00 -0.45593999997E+02  0.45594000000E+02  0.51100000000E-03 0.  1.
         23    2    1    2    0    0  0.35527136788E-14 -0.17763568394E-14  0.00000000000E+00  0.91188000000E+02  0.91188000000E+02 0.  0.
    9900012    2    3    3    0    0 -0.17368575543E+02  0.13035462933E+02  0.37577019930E+02  0.47787272620E+02  0.20000007185E+02 0.  0.
        -12    1    3    3    0    0  0.17368575543E+02 -0.13035462933E+02 -0.37577019930E+02  0.43400727380E+02  0.00000000000E+00 0.  1.
         11    1    4    4    0    0 -0.68674674818E+01 -0.98048628943E+00  0.71187946425E+01  0.99398541438E+01  0.51100000000E-03 0. -1.
        -11    1    4    4    0    0 -0.79493477500E+01  0.20725555459E+01  0.50150362930E+01  0.96248743069E+01  0.51100000000E-03 0.  1.
         12    1    4    4    0    0 -0.25517603110E+01  0.11943393677E+02  0.25443188994E+02  0.28222544170E+02  0.00000000000E+00 0. -1.
</event>
<event>
 8    1  0.1280823E-010  0.9118800E+02  0.7816164E-02  0.1184000E+00
        -11   -1    0    0    0    0  0.00000000000E+00  0.00000000000E+00  0.45593999997E+02  0.45594000000E+02  0.51100000000E-03 0. -1.
         11   -1    0    0    0    0 -0.00000000000E+00 -0.00000000000E+00 -0.45593999997E+02  0.45594000000E+02  0.51100000000E-03 0.  1.
         23    2    1    2    0    0  0.00000000000E+00 -0.88817841970E-15  0.00000000000E+00  0.91188000000E+02  0.91188000000E+02 0.  0.
    9900012    2    3    3    0    0  0.38023483463E+02 -0.25243507797E+01  0.20771747104E+02  0.47787272826E+02  0.20000008121E+02 0.  0.
        -12    1    3    3    0    0 -0.38023483463E+02  0.25243507797E+01 -0.20771747104E+02  0.43400727174E+02  0.00000000000E+00 0.  1.
         11    1    4    4    0    0  0.14340130264E+02  0.11661338066E+01  0.16903834226E+02  0.22197720961E+02  0.51100000000E-03 0. -1.
        -11    1    4    4    0    0  0.21535093810E+01  0.14704371079E+01 -0.12103450240E+01  0.28748431750E+01  0.51100000000E-03 0.  1.
         12    1    4    4    0    0  0.21529843818E+02 -0.51609216941E+01  0.50782579020E+01  0.22714708690E+02  0.00000000000E+00 0. -1.
</event>
<event>
 8    1  0.1280823E-010  0.9118800E+02  0.7816164E-02  0.1184000E+00
        -11   -1    0    0    0    0  0.00000000000E+00  0.00000000000E+00  0.45593999997E+02  0.45594000000E+02  0.51100000000E-03 0. -1.
         11   -1    0    0    0    0 -0.00000000000E+00 -0.00000000000E+00 -0.45593999997E+02  0.45594000000E+02  0.51100000000E-03 0.  1.
         23    2    1    2    0    0  0.00000000000E+00  0.00000000000E+00 -0.71054273576E-14  0.91188000000E+02  0.91188000000E+02 0.  0.
    9900012    2    3    3    0    0 -0.20503626835E+02  0.20797279132E+02 -0.32104481575E+02  0.47787271091E+02  0.20000000210E+02 0.  0.
         12    1    3    3    0    0  0.20503626835E+02 -0.20797279132E+02  0.32104481575E+02  0.43400728909E+02  0.00000000000E+00 0. -1.
         11    1    4    4    0    0  0.17870606946E+01  0.62705677396E+01 -0.40981688421E+01  0.77012072964E+01  0.51100000000E-03 0. -1.
        -11    1    4    4    0    0 -0.26697301600E+01 -0.52935804214E+00 -0.74334431716E+01  0.79160442590E+01  0.51100000000E-03 0.  1.
         12    1    4    4    0    0 -0.19620957369E+02  0.15056069434E+02 -0.20572869561E+02  0.32170019535E+02  0.00000000000E+00 0. -1.
</event>
<event>
 8    1  0.1280823E-010  0.9118800E+02  0.7816164E-02  0.1184000E+00
        -11   -1    0    0    0    0  0.00000000000E+00  0.00000000000E+00  0.45593999997E+02  0.45594000000E+02  0.51100000000E-03 0. -1.
         11   -1    0    0    0    0 -0.00000000000E+00 -0.00000000000E+00 -0.45593999997E+02  0.45594000000E+02  0.51100000000E-03 0.  1.
         23    2    1    2    0    0  0.00000000000E+00  0.00000000000E+00  0.17763568394E-14  0.91188000000E+02  0.91188000000E+02 0.  0.
    9900012    2    3    3    0    0  0.14224550081E+02  0.39343359890E+02 -0.11549262144E+02  0.47787271336E+02  0.20000001330E+02 0.  0.
         12    1    3    3    0    0 -0.14224550081E+02 -0.39343359890E+02  0.11549262144E+02  0.43400728664E+02  0.00000000000E+00 0. -1.
         11    1    4    4    0    0  0.13062341233E+02  0.25018902961E+02 -0.49030397078E+01  0.28646292299E+02  0.51100000000E-03 0. -1.
        -11    1    4    4    0    0  0.58867314771E+01  0.79069888433E+01 -0.25564389865E+01  0.10183784199E+02  0.51100000000E-03 0.  1.
        -12    1    4    4    0    0 -0.47245226288E+01  0.64174680864E+01 -0.40897834493E+01  0.89571948383E+01  0.00000000000E+00 0.  1.
</event>
<event>
 8    1  0.1280823E-010  0.9118800E+02  0.7816164E-02  0.1184000E+00
        -11   -1    0    0    0    0  0.00000000000E+00  0.00000000000E+00  0.45593999997E+02  0.45594000000E+02  0.51100000000E-03 0. -1.
         11   -1    0    0    0    0 -0.00000000000E+00 -0.00000000000E+00 -0.45593999997E+02  0.45594000000E+02  0.51100000000E-03 0.  1.
         23    2    1    2    0    0  0.00000000000E+00 -0.13322676296E-14  0.35527136788E-14  0.91188000000E+02  0.91188000000E+02 0.  0.
    9900012    2    3    3    0    0  0.30086035331E+02  0.27925066693E+01 -0.31155350627E+02  0.47787268576E+02  0.19999988747E+02 0.  0.
         12    1    3    3    0    0 -0.30086035331E+02 -0.27925066693E+01  0.31155350627E+02  0.43400731424E+02  0.00000000000E+00 0. -1.
         11    1    4    4    0    0  0.15465984081E+02  0.89745529925E+01 -0.10426909941E+02  0.20699268494E+02  0.51100000000E-03 0. -1.
        -11    1    4    4    0    0  0.71894036406E+00 -0.22863924400E+01 -0.89864305049E+00  0.25596924092E+01  0.51100000000E-03 0.  1.
        -12    1    4    4    0    0  0.13901110886E+02 -0.38956538832E+01 -0.19829797635E+02  0.24528307673E+02  0.00000000000E+00 0.  1.
</event>
<event>
 8    1  0.1280823E-010  0.9118800E+02  0.7816164E-02  0.1184000E+00
        -11   -1    0    0    0    0  0.00000000000E+00  0.00000000000E+00  0.45593999997E+02  0.45594000000E+02  0.51100000000E-03 0. -1.
         11   -1    0    0    0    0 -0.00000000000E+00 -0.00000000000E+00 -0.45593999997E+02  0.45594000000E+02  0.51100000000E-03 0.  1.
         23    2    1    2    0    0  0.44408920985E-15  0.00000000000E+00  0.00000000000E+00  0.91188000000E+02  0.91188000000E+02 0.  0.
    9900012    2    3    3    0    0  0.13217000368E+01  0.60526059323E+01 -0.42956289142E+02  0.47787266062E+02  0.19999977282E+02 0.  0.
         12    1    3    3    0    0 -0.13217000368E+01 -0.60526059323E+01  0.42956289142E+02  0.43400733938E+02  0.00000000000E+00 0. -1.
         11    1    4    4    0    0  0.58155396824E+01  0.30118472750E+01 -0.12112745191E+02  0.13769906395E+02  0.51100000000E-03 0. -1.
        -11    1    4    4    0    0  0.10436025700E+01  0.66983600827E+01 -0.95348516275E+01  0.11699167917E+02  0.51100000000E-03 0.  1.
        -12    1    4    4    0    0 -0.55374422155E+01 -0.36576014254E+01 -0.21308692323E+02  0.22318191750E+02  0.00000000000E+00 0.  1.
</event>
<event>
 8    1  0.1280823E-010  0.9118800E+02  0.7816164E-02  0.1184000E+00
        -11   -1    0    0    0    0  0.00000000000E+00  0.00000000000E+00  0.45593999997E+02  0.45594000000E+02  0.51100000000E-03 0. -1.
         11   -1    0    0    0    0 -0.00000000000E+00 -0.00000000000E+00 -0.45593999997E+02  0.45594000000E+02  0.51100000000E-03 0.  1.
         23    2    1    2    0    0  0.00000000000E+00  0.00000000000E+00  0.00000000000E+00  0.91188000000E+02  0.91188000000E+02 0.  0.
    9900012    2    3    3    0    0 -0.11104141436E+02  0.23127438913E+02 -0.35006324934E+02  0.47787272205E+02  0.20000005292E+02 0.  0.
         12    1    3    3    0    0  0.11104141436E+02 -0.23127438913E+02  0.35006324934E+02  0.43400727795E+02  0.00000000000E+00 0. -1.
         11    1    4    4    0    0 -0.13321683956E+01 -0.21697674934E+00  0.36380397769E+00  0.13978931073E+01  0.51100000000E-03 0. -1.
        -11    1    4    4    0    0 -0.83960672657E+01  0.18279262240E+02 -0.14312582795E+02  0.24687555571E+02  0.51100000000E-03 0.  1.
         12    1    4    4    0    0 -0.13759057744E+01  0.50651534227E+01 -0.21057546117E+02  0.21701823527E+02  0.00000000000E+00 0. -1.
</event>
<event>
 8    1  0.1280823E-010  0.9118800E+02  0.7816164E-02  0.1184000E+00
        -11   -1    0    0    0    0  0.00000000000E+00  0.00000000000E+00  0.45593999997E+02  0.45594000000E+02  0.51100000000E-03 0.  1.
         11   -1    0    0    0    0 -0.00000000000E+00 -0.00000000000E+00 -0.45593999997E+02  0.45594000000E+02  0.51100000000E-03 0. -1.
         23    2    1    2    0    0  0.00000000000E+00  0.00000000000E+00  0.00000000000E+00  0.91188000000E+02  0.91188000000E+02 0.  0.
    9900012    2    3    3    0    0  0.26124891951E+02  0.19841202113E+02  0.28415487298E+02  0.47787271906E+02  0.20000003926E+02 0.  0.
        -12    1    3    3    0    0 -0.26124891951E+02 -0.19841202113E+02 -0.28415487298E+02  0.43400728094E+02  0.00000000000E+00 0.  1.
         11    1    4    4    0    0  0.76464580762E+01  0.60375888100E+01  0.26726761503E+01  0.10102672805E+02  0.51100000000E-03 0. -1.
        -11    1    4    4    0    0  0.99807247406E+01  0.15825889472E+02  0.16217094752E+02  0.24760206106E+02  0.51100000000E-03 0.  1.
         12    1    4    4    0    0  0.84977091337E+01 -0.20222761687E+01  0.95257163955E+01  0.12924392994E+02  0.00000000000E+00 0. -1.
</event>
<event>
 8    1  0.1280823E-010  0.9118800E+02  0.7816164E-02  0.1184000E+00
        -11   -1    0    0    0    0  0.00000000000E+00  0.00000000000E+00  0.45593999997E+02  0.45594000000E+02  0.51100000000E-03 0. -1.
         11   -1    0    0    0    0 -0.00000000000E+00 -0.00000000000E+00 -0.45593999997E+02  0.45594000000E+02  0.51100000000E-03 0.  1.
         23    2    1    2    0    0  0.00000000000E+00  0.00000000000E+00  0.00000000000E+00  0.91188000000E+02  0.91188000000E+02 0.  0.
    9900012    2    3    3    0    0 -0.45010800312E+01 -0.17561279572E+02  0.39433070765E+02  0.47787247338E+02  0.19999891913E+02 0.  0.
        -12    1    3    3    0    0  0.45010800312E+01  0.17561279572E+02 -0.39433070765E+02  0.43400752662E+02  0.00000000000E+00 0.  1.
         11    1    4    4    0    0  0.17700737349E+00  0.12202680077E+01  0.16859928503E+01  0.20887694399E+01  0.51100000000E-03 0. -1.
        -11    1    4    4    0    0  0.34018209659E+01 -0.11704138650E+02  0.30211532302E+02  0.32577537227E+02  0.51100000000E-03 0.  1.
         12    1    4    4    0    0 -0.80799083706E+01 -0.70774089297E+01  0.75355456123E+01  0.13120940672E+02  0.00000000000E+00 0. -1.
</event>
<event>
 8    1  0.1280823E-010  0.9118800E+02  0.7816164E-02  0.1184000E+00
        -11   -1    0    0    0    0  0.00000000000E+00  0.00000000000E+00  0.45593999997E+02  0.45594000000E+02  0.51100000000E-03 0. -1.
         11   -1    0    0    0    0 -0.00000000000E+00 -0.00000000000E+00 -0.45593999997E+02  0.45594000000E+02  0.51100000000E-03 0.  1.
         23    2    1    2    0    0 -0.35527136788E-14  0.00000000000E+00  0.00000000000E+00  0.91188000000E+02  0.91188000000E+02 0.  0.
    9900012    2    3    3    0    0 -0.31997506654E+02 -0.12340065638E+01  0.29296064355E+02  0.47787278912E+02  0.20000035871E+02 0.  0.
        -12    1    3    3    0    0  0.31997506654E+02  0.12340065638E+01 -0.29296064355E+02  0.43400721088E+02  0.00000000000E+00 0.  1.
         11    1    4    4    0    0 -0.19257354681E+02  0.47813685336E+00  0.11469218697E+02  0.22419128037E+02  0.51100000000E-03 0. -1.
        -11    1    4    4    0    0 -0.15058544049E+02 -0.95430692164E-01  0.16151204590E+02  0.22082351910E+02  0.51100000000E-03 0.  1.
        -12    1    4    4    0    0  0.23183920759E+01 -0.16167127250E+01  0.16756410679E+01  0.32857989654E+01  0.00000000000E+00 0.  1.
</event>
<event>
 8    1  0.1280823E-010  0.9118800E+02  0.7816164E-02  0.1184000E+00
        -11   -1    0    0    0    0  0.00000000000E+00  0.00000000000E+00  0.45593999997E+02  0.45594000000E+02  0.51100000000E-03 0. -1.
         11   -1    0    0    0    0 -0.00000000000E+00 -0.00000000000E+00 -0.45593999997E+02  0.45594000000E+02  0.51100000000E-03 0.  1.
         23    2    1    2    0    0  0.00000000000E+00  0.88817841970E-15  0.00000000000E+00  0.91188000000E+02  0.91188000000E+02 0.  0.
    9900012    2    3    3    0    0 -0.20844972786E+02  0.54543789383E+01 -0.37674400108E+02  0.47787267707E+02  0.19999984784E+02 0.  0.
         12    1    3    3    0    0  0.20844972786E+02 -0.54543789383E+01  0.37674400108E+02  0.43400732293E+02  0.00000000000E+00 0. -1.
         11    1    4    4    0    0 -0.74512422646E+00  0.27047128143E+00  0.67463872629E+00  0.10409142612E+01  0.51100000000E-03 0. -1.
        -11    1    4    4    0    0 -0.18009204686E+02 -0.25984831080E+01 -0.22246754326E+02  0.28740244365E+02  0.51100000000E-03 0.  1.
         12    1    4    4    0    0 -0.20906438735E+01  0.77823907649E+01 -0.16102284509E+02  0.18006109081E+02  0.00000000000E+00 0. -1.
</event>
<event>
 8    1  0.1280823E-010  0.9118800E+02  0.7816164E-02  0.1184000E+00
        -11   -1    0    0    0    0  0.00000000000E+00  0.00000000000E+00  0.45593999997E+02  0.45594000000E+02  0.51100000000E-03 0. -1.
         11   -1    0    0    0    0 -0.00000000000E+00 -0.00000000000E+00 -0.45593999997E+02  0.45594000000E+02  0.51100000000E-03 0.  1.
         23    2    1    2    0    0  0.59674487574E-15  0.00000000000E+00  0.00000000000E+00  0.91188000000E+02  0.91188000000E+02 0.  0.
    9900012    2    3    3    0    0 -0.79707973362E-01 -0.13081381009E+02 -0.41382280369E+02  0.47787285593E+02  0.20000066334E+02 0.  0.
         12    1    3    3    0    0  0.79707973362E-01  0.13081381009E+02  0.41382280369E+02  0.43400714407E+02  0.00000000000E+00 0. -1.
         11    1    4    4    0    0 -0.29208612245E+01  0.58445029210E+00 -0.10215962114E+02  0.10641376537E+02  0.51100000000E-03 0.  1.
        -11    1    4    4    0    0 -0.59455822690E+01 -0.44228404872E+01 -0.10244567150E+02  0.12643679165E+02  0.51100000000E-03 0. -1.
         12    1    4    4    0    0  0.87867355202E+01 -0.92429908134E+01 -0.20921751106E+02  0.24502229891E+02  0.00000000000E+00 0. -1.
</event>
<event>
 8    1  0.1280823E-010  0.9118800E+02  0.7816164E-02  0.1184000E+00
        -11   -1    0    0    0    0  0.00000000000E+00  0.00000000000E+00  0.45593999997E+02  0.45594000000E+02  0.51100000000E-03 0. -1.
         11   -1    0    0    0    0 -0.00000000000E+00 -0.00000000000E+00 -0.45593999997E+02  0.45594000000E+02  0.51100000000E-03 0.  1.
         23    2    1    2    0    0  0.35527136788E-14  0.00000000000E+00  0.00000000000E+00  0.91188000000E+02  0.91188000000E+02 0.  0.
    9900012    2    3    3    0    0 -0.24490740557E+02  0.13629067495E+02  0.33137221831E+02  0.47787270461E+02  0.19999997340E+02 0.  0.
        -12    1    3    3    0    0  0.24490740557E+02 -0.13629067495E+02 -0.33137221831E+02  0.43400729539E+02  0.00000000000E+00 0.  1.
         11    1    4    4    0    0  0.65592412993E+00 -0.12188577066E+00 -0.14288769414E+01  0.15769534490E+01  0.51100000000E-03 0. -1.
        -11    1    4    4    0    0 -0.14788150590E+01  0.33419471137E+01  0.95847214316E+01  0.10257796531E+02  0.51100000000E-03 0.  1.
         12    1    4    4    0    0 -0.23667849628E+02  0.10409006152E+02  0.24981377341E+02  0.35952520481E+02  0.00000000000E+00 0. -1.
</event>
<event>
 8    1  0.1280823E-010  0.9118800E+02  0.7816164E-02  0.1184000E+00
        -11   -1    0    0    0    0  0.00000000000E+00  0.00000000000E+00  0.45593999997E+02  0.45594000000E+02  0.51100000000E-03 0. -1.
         11   -1    0    0    0    0 -0.00000000000E+00 -0.00000000000E+00 -0.45593999997E+02  0.45594000000E+02  0.51100000000E-03 0.  1.
         23    2    1    2    0    0  0.00000000000E+00  0.00000000000E+00  0.00000000000E+00  0.91188000000E+02  0.91188000000E+02 0.  0.
    9900012    2    3    3    0    0 -0.22445990787E+02  0.17166334936E+02  0.32941123182E+02  0.47787272425E+02  0.20000006297E+02 0.  0.
        -12    1    3    3    0    0  0.22445990787E+02 -0.17166334936E+02 -0.32941123182E+02  0.43400727575E+02  0.00000000000E+00 0.  1.
         11    1    4    4    0    0 -0.59298862252E+01  0.21462103473E+01  0.31626560434E+01  0.70549389089E+01  0.51100000000E-03 0. -1.
        -11    1    4    4    0    0 -0.19198932593E+01  0.32737768056E+01  0.18453762999E+02  0.18839983381E+02  0.51100000000E-03 0.  1.
        -12    1    4    4    0    0 -0.14596211302E+02  0.11746347783E+02  0.11324704139E+02  0.21892350136E+02  0.00000000000E+00 0.  1.
</event>
<event>
 8    1  0.1280823E-010  0.9118800E+02  0.7816164E-02  0.1184000E+00
        -11   -1    0    0    0    0  0.00000000000E+00  0.00000000000E+00  0.45593999997E+02  0.45594000000E+02  0.51100000000E-03 0. -1.
         11   -1    0    0    0    0 -0.00000000000E+00 -0.00000000000E+00 -0.45593999997E+02  0.45594000000E+02  0.51100000000E-03 0.  1.
         23    2    1    2    0    0  0.17763568394E-14 -0.17763568394E-14 -0.71054273576E-14  0.91188000000E+02  0.91188000000E+02 0.  0.
    9900012    2    3    3    0    0 -0.14995562579E+02  0.10405112853E+02  0.39376260534E+02  0.47787272308E+02  0.20000005761E+02 0.  0.
        -12    1    3    3    0    0  0.14995562579E+02 -0.10405112853E+02 -0.39376260534E+02  0.43400727692E+02  0.00000000000E+00 0.  1.
         11    1    4    4    0    0  0.84167208404E+00 -0.19932755510E+01  0.97219624032E+00  0.23720719024E+01  0.51100000000E-03 0. -1.
        -11    1    4    4    0    0 -0.88760861422E+00  0.70036934140E+01  0.57735067128E+01  0.91199205322E+01  0.51100000000E-03 0.  1.
         12    1    4    4    0    0 -0.14949626049E+02  0.53946949903E+01  0.32630557581E+02  0.36295279873E+02  0.00000000000E+00 0. -1.
</event>
<event>
 8    1  0.1280823E-010  0.9118800E+02  0.7816164E-02  0.1184000E+00
        -11   -1    0    0    0    0  0.00000000000E+00  0.00000000000E+00  0.45593999997E+02  0.45594000000E+02  0.51100000000E-03 0. -1.
         11   -1    0    0    0    0 -0.00000000000E+00 -0.00000000000E+00 -0.45593999997E+02  0.45594000000E+02  0.51100000000E-03 0.  1.
         23    2    1    2    0    0  0.00000000000E+00  0.00000000000E+00  0.00000000000E+00  0.91188000000E+02  0.91188000000E+02 0.  0.
    9900012    2    3    3    0    0 -0.42916115359E+02 -0.50419260749E+01 -0.40508388578E+01  0.47787271071E+02  0.20000000123E+02 0.  0.
         12    1    3    3    0    0  0.42916115359E+02  0.50419260749E+01  0.40508388578E+01  0.43400728929E+02  0.00000000000E+00 0. -1.
         11    1    4    4    0    0 -0.14136391229E+02 -0.50028244323E+01 -0.42938003393E+00  0.15001672466E+02  0.51100000000E-03 0. -1.
        -11    1    4    4    0    0 -0.30640343986E+02 -0.40282763642E-02 -0.28552730642E+01  0.30773093448E+02  0.51100000000E-03 0.  1.
         12    1    4    4    0    0  0.18606198565E+01 -0.35073366235E-01 -0.76618575967E+00  0.20125051577E+01  0.00000000000E+00 0. -1.
</event>
<event>
 8    1  0.1280823E-010  0.9118800E+02  0.7816164E-02  0.1184000E+00
        -11   -1    0    0    0    0  0.00000000000E+00  0.00000000000E+00  0.45593999997E+02  0.45594000000E+02  0.51100000000E-03 0. -1.
         11   -1    0    0    0    0 -0.00000000000E+00 -0.00000000000E+00 -0.45593999997E+02  0.45594000000E+02  0.51100000000E-03 0.  1.
         23    2    1    2    0    0 -0.88817841970E-15  0.00000000000E+00  0.71054273576E-14  0.91188000000E+02  0.91188000000E+02 0.  0.
    9900012    2    3    3    0    0  0.76709265983E+01  0.14904171494E+02 -0.40033052300E+02  0.47787277434E+02  0.20000029132E+02 0.  0.
         12    1    3    3    0    0 -0.76709265983E+01 -0.14904171494E+02  0.40033052300E+02  0.43400722566E+02  0.00000000000E+00 0. -1.
         11    1    4    4    0    0 -0.15660295377E+01  0.13144468126E+01 -0.14313546936E+02  0.14458832770E+02  0.51100000000E-03 0. -1.
        -11    1    4    4    0    0 -0.30066523626E+01  0.20275995660E+01 -0.85092958460E+01  0.92498234840E+01  0.51100000000E-03 0.  1.
        -12    1    4    4    0    0  0.12243608499E+02  0.11562125115E+02 -0.17210209519E+02  0.24078621180E+02  0.00000000000E+00 0.  1.
</event>
<event>
 8    1  0.1280823E-010  0.9118800E+02  0.7816164E-02  0.1184000E+00
        -11   -1    0    0    0    0  0.00000000000E+00  0.00000000000E+00  0.45593999997E+02  0.45594000000E+02  0.51100000000E-03 0. -1.
         11   -1    0    0    0    0 -0.00000000000E+00 -0.00000000000E+00 -0.45593999997E+02  0.45594000000E+02  0.51100000000E-03 0.  1.
         23    2    1    2    0    0  0.00000000000E+00  0.00000000000E+00  0.35527136788E-14  0.91188000000E+02  0.91188000000E+02 0.  0.
    9900012    2    3    3    0    0 -0.23589079778E+02 -0.18203633262E+02  0.31556399695E+02  0.47787270623E+02  0.19999998080E+02 0.  0.
        -12    1    3    3    0    0  0.23589079778E+02  0.18203633262E+02 -0.31556399695E+02  0.43400729377E+02  0.00000000000E+00 0.  1.
         11    1    4    4    0    0 -0.26059018113E+01 -0.28385153814E+01 -0.27854131175E+00  0.38633507923E+01  0.51100000000E-03 0.  1.
        -11    1    4    4    0    0 -0.71175833912E+01 -0.11623226358E+02  0.72148665894E+01  0.15421208917E+02  0.51100000000E-03 0. -1.
         12    1    4    4    0    0 -0.13865594576E+02 -0.37418915221E+01  0.24620074418E+02  0.28502710914E+02  0.00000000000E+00 0. -1.
</event>
<event>
 8    1  0.1280823E-010  0.9118800E+02  0.7816164E-02  0.1184000E+00
        -11   -1    0    0    0    0  0.00000000000E+00  0.00000000000E+00  0.45593999997E+02  0.45594000000E+02  0.51100000000E-03 0. -1.
         11   -1    0    0    0    0 -0.00000000000E+00 -0.00000000000E+00 -0.45593999997E+02  0.45594000000E+02  0.51100000000E-03 0.  1.
         23    2    1    2    0    0 -0.35527136788E-14  0.00000000000E+00  0.00000000000E+00  0.91188000000E+02  0.91188000000E+02 0.  0.
    9900012    2    3    3    0    0  0.24408684367E+02  0.13092077300E+02 -0.33413123737E+02  0.47787271914E+02  0.20000003964E+02 0.  0.
         12    1    3    3    0    0 -0.24408684367E+02 -0.13092077300E+02  0.33413123737E+02  0.43400728086E+02  0.00000000000E+00 0. -1.
         11    1    4    4    0    0  0.47834626936E+01  0.59987407938E+01 -0.82773949292E+01  0.11286348990E+02  0.51100000000E-03 0. -1.
        -11    1    4    4    0    0  0.21163028067E+02  0.21638985242E+01 -0.20899045582E+02  0.29821574745E+02  0.51100000000E-03 0.  1.
         12    1    4    4    0    0 -0.15378063945E+01  0.49294379824E+01 -0.42366832261E+01  0.66793481783E+01  0.00000000000E+00 0. -1.
</event>
<event>
 8    1  0.1280823E-010  0.9118800E+02  0.7816164E-02  0.1184000E+00
        -11   -1    0    0    0    0  0.00000000000E+00  0.00000000000E+00  0.45593999997E+02  0.45594000000E+02  0.51100000000E-03 0. -1.
         11   -1    0    0    0    0 -0.00000000000E+00 -0.00000000000E+00 -0.45593999997E+02  0.45594000000E+02  0.51100000000E-03 0.  1.
         23    2    1    2    0    0  0.00000000000E+00 -0.35527136788E-14  0.00000000000E+00  0.91188000000E+02  0.91188000000E+02 0.  0.
    9900012    2    3    3    0    0 -0.13298563399E+02 -0.26761248919E+02 -0.31473915418E+02  0.47787267472E+02  0.19999983712E+02 0.  0.
         12    1    3    3    0    0  0.13298563399E+02  0.26761248919E+02  0.31473915418E+02  0.43400732528E+02  0.00000000000E+00 0. -1.
         11    1    4    4    0    0  0.36381138613E-01  0.79284655042E+00  0.16935759142E-01  0.79386165093E+00  0.51100000000E-03 0. -1.
        -11    1    4    4    0    0 -0.15223631749E+02 -0.26622045665E+02 -0.32476673309E+02  0.44667959305E+02  0.51100000000E-03 0.  1.
         12    1    4    4    0    0  0.18886872117E+01 -0.93204980498E+00  0.98582213176E+00  0.23254465158E+01  0.00000000000E+00 0. -1.
</event>
<event>
 8    1  0.1280823E-010  0.9118800E+02  0.7816164E-02  0.1184000E+00
        -11   -1    0    0    0    0  0.00000000000E+00  0.00000000000E+00  0.45593999997E+02  0.45594000000E+02  0.51100000000E-03 0. -1.
         11   -1    0    0    0    0 -0.00000000000E+00 -0.00000000000E+00 -0.45593999997E+02  0.45594000000E+02  0.51100000000E-03 0.  1.
         23    2    1    2    0    0  0.00000000000E+00  0.00000000000E+00  0.00000000000E+00  0.91188000000E+02  0.91188000000E+02 0.  0.
    9900012    2    3    3    0    0  0.16639023985E+01  0.37088593635E+02  0.22478675122E+02  0.47787272077E+02  0.20000004708E+02 0.  0.
        -12    1    3    3    0    0 -0.16639023985E+01 -0.37088593635E+02 -0.22478675122E+02  0.43400727923E+02  0.00000000000E+00 0.  1.
         11    1    4    4    0    0  0.11733761496E+01  0.10676518762E+01  0.37188413979E+01  0.40430772589E+01  0.51100000000E-03 0. -1.
        -11    1    4    4    0    0  0.39267918246E+01  0.15845665233E+01  0.48699239317E+01  0.64534257927E+01  0.51100000000E-03 0.  1.
        -12    1    4    4    0    0 -0.34362655757E+01  0.34436375235E+02  0.13889909792E+02  0.37290769025E+02  0.00000000000E+00 0.  1.
</event>
<event>
 8    1  0.1280823E-010  0.9118800E+02  0.7816164E-02  0.1184000E+00
        -11   -1    0    0    0    0  0.00000000000E+00  0.00000000000E+00  0.45593999997E+02  0.45594000000E+02  0.51100000000E-03 0. -1.
         11   -1    0    0    0    0 -0.00000000000E+00 -0.00000000000E+00 -0.45593999997E+02  0.45594000000E+02  0.51100000000E-03 0.  1.
         23    2    1    2    0    0  0.44408920985E-15  0.00000000000E+00  0.00000000000E+00  0.91188000000E+02  0.91188000000E+02 0.  0.
    9900012    2    3    3    0    0  0.34258207929E+01  0.60548908892E+01 -0.42839479566E+02  0.47787320728E+02  0.20000226528E+02 0.  0.
         12    1    3    3    0    0 -0.34258207929E+01 -0.60548908892E+01  0.42839479566E+02  0.43400679272E+02  0.00000000000E+00 0. -1.
         11    1    4    4    0    0  0.14663093412E+01  0.18108656629E+01  0.72429286667E+00  0.24400610547E+01  0.51100000000E-03 0. -1.
        -11    1    4    4    0    0 -0.25539743896E+01  0.65366863000E+01 -0.18703519507E+02  0.19976803928E+02  0.51100000000E-03 0.  1.
         12    1    4    4    0    0  0.45134858413E+01 -0.22926610737E+01 -0.24860252925E+02  0.25370455745E+02  0.00000000000E+00 0. -1.
</event>
<event>
 8    1  0.1280823E-010  0.9118800E+02  0.7816164E-02  0.1184000E+00
        -11   -1    0    0    0    0  0.00000000000E+00  0.00000000000E+00  0.45593999997E+02  0.45594000000E+02  0.51100000000E-03 0. -1.
         11   -1    0    0    0    0 -0.00000000000E+00 -0.00000000000E+00 -0.45593999997E+02  0.45594000000E+02  0.51100000000E-03 0.  1.
         23    2    1    2    0    0  0.00000000000E+00 -0.44408920985E-15  0.00000000000E+00  0.91188000000E+02  0.91188000000E+02 0.  0.
    9900012    2    3    3    0    0 -0.36193839111E+02 -0.27591102783E+01  0.23791100122E+02  0.47787272770E+02  0.20000007866E+02 0.  0.
        -12    1    3    3    0    0  0.36193839111E+02  0.27591102783E+01 -0.23791100122E+02  0.43400727230E+02  0.00000000000E+00 0.  1.
         11    1    4    4    0    0 -0.43940380524E+01 -0.19341525325E+01 -0.11278267303E+01  0.49315828919E+01  0.51100000000E-03 0. -1.
        -11    1    4    4    0    0 -0.15148962458E+02 -0.71857605042E+01  0.93996440297E+01  0.19221850216E+02  0.51100000000E-03 0.  1.
         12    1    4    4    0    0 -0.16650838601E+02  0.63608027584E+01  0.15519282823E+02  0.23633839662E+02  0.00000000000E+00 0. -1.
</event>
<event>
 8    1  0.1280823E-010  0.9118800E+02  0.7816164E-02  0.1184000E+00
        -11   -1    0    0    0    0  0.00000000000E+00  0.00000000000E+00  0.45593999997E+02  0.45594000000E+02  0.51100000000E-03 0. -1.
         11   -1    0    0    0    0 -0.00000000000E+00 -0.00000000000E+00 -0.45593999997E+02  0.45594000000E+02  0.51100000000E-03 0.  1.
         23    2    1    2    0    0  0.00000000000E+00  0.00000000000E+00  0.88817841970E-15  0.91188000000E+02  0.91188000000E+02 0.  0.
    9900012    2    3    3    0    0  0.19577313833E+02 -0.38353344348E+02 -0.54196952517E+01  0.47787270327E+02  0.19999996728E+02 0.  0.
         12    1    3    3    0    0 -0.19577313833E+02  0.38353344348E+02  0.54196952517E+01  0.43400729673E+02  0.00000000000E+00 0. -1.
         11    1    4    4    0    0  0.10939382950E+01 -0.51953224509E+00 -0.22931722811E+01  0.25933094915E+01  0.51100000000E-03 0. -1.
        -11    1    4    4    0    0  0.59247934774E+01 -0.17059380403E+02  0.63378949323E+01  0.19138823107E+02  0.51100000000E-03 0.  1.
        -12    1    4    4    0    0  0.12558582060E+02 -0.20774431699E+02 -0.94644179030E+01  0.26055137728E+02  0.00000000000E+00 0.  1.
</event>
<event>
 8    1  0.1280823E-010  0.9118800E+02  0.7816164E-02  0.1184000E+00
        -11   -1    0    0    0    0  0.00000000000E+00  0.00000000000E+00  0.45593999997E+02  0.45594000000E+02  0.51100000000E-03 0. -1.
         11   -1    0    0    0    0 -0.00000000000E+00 -0.00000000000E+00 -0.45593999997E+02  0.45594000000E+02  0.51100000000E-03 0.  1.
         23    2    1    2    0    0  0.22204460493E-15 -0.35527136788E-14  0.71054273576E-14  0.91188000000E+02  0.91188000000E+02 0.  0.
    9900012    2    3    3    0    0 -0.18973296159E+01  0.24977933384E+02 -0.35441871930E+02  0.47787270724E+02  0.19999998539E+02 0.  0.
         12    1    3    3    0    0  0.18973296159E+01 -0.24977933384E+02  0.35441871930E+02  0.43400729276E+02  0.00000000000E+00 0. -1.
         11    1    4    4    0    0  0.12857342537E+01  0.79162495663E+01 -0.48592222319E+01  0.93772149771E+01  0.51100000000E-03 0. -1.
        -11    1    4    4    0    0 -0.87327332706E+00  0.10619903131E+02 -0.47146562677E+01  0.11652164296E+02  0.51100000000E-03 0.  1.
         12    1    4    4    0    0 -0.23097905426E+01  0.64417806871E+01 -0.25867993430E+02  0.26757891450E+02  0.00000000000E+00 0. -1.
</event>
<event>
 8    1  0.1280823E-010  0.9118800E+02  0.7816164E-02  0.1184000E+00
        -11   -1    0    0    0    0  0.00000000000E+00  0.00000000000E+00  0.45593999997E+02  0.45594000000E+02  0.51100000000E-03 0. -1.
         11   -1    0    0    0    0 -0.00000000000E+00 -0.00000000000E+00 -0.45593999997E+02  0.45594000000E+02  0.51100000000E-03 0.  1.
         23    2    1    2    0    0  0.17763568394E-14  0.35527136788E-14  0.35527136788E-14  0.91188000000E+02  0.91188000000E+02 0.  0.
    9900012    2    3    3    0    0 -0.12375184716E+02 -0.29022191477E+02 -0.29802512176E+02  0.47787279650E+02  0.20000039236E+02 0.  0.
         12    1    3    3    0    0  0.12375184716E+02  0.29022191477E+02  0.29802512176E+02  0.43400720350E+02  0.00000000000E+00 0. -1.
         11    1    4    4    0    0 -0.51835769037E+01  0.14922842927E-01 -0.16683724185E+01  0.54454714209E+01  0.51100000000E-03 0. -1.
        -11    1    4    4    0    0 -0.53071854626E+00 -0.72444237243E+01 -0.17358948647E+01  0.74683779039E+01  0.51100000000E-03 0.  1.
         12    1    4    4    0    0 -0.66608892660E+01 -0.21792690596E+02 -0.26398244893E+02  0.34873430325E+02  0.00000000000E+00 0. -1.
</event>
<event>
 8    1  0.1280823E-010  0.9118800E+02  0.7816164E-02  0.1184000E+00
        -11   -1    0    0    0    0  0.00000000000E+00  0.00000000000E+00  0.45593999997E+02  0.45594000000E+02  0.51100000000E-03 0.  1.
         11   -1    0    0    0    0 -0.00000000000E+00 -0.00000000000E+00 -0.45593999997E+02  0.45594000000E+02  0.51100000000E-03 0. -1.
         23    2    1    2    0    0 -0.35527136788E-14  0.00000000000E+00  0.00000000000E+00  0.91188000000E+02  0.91188000000E+02 0.  0.
    9900012    2    3    3    0    0  0.25528386068E+02 -0.34618768575E+02  0.57849269121E+01  0.47787274058E+02  0.20000013740E+02 0.  0.
         12    1    3    3    0    0 -0.25528386068E+02  0.34618768575E+02 -0.57849269121E+01  0.43400725942E+02  0.00000000000E+00 0. -1.
         11    1    4    4    0    0 -0.11268499212E+01 -0.12786105178E+01  0.13451987075E+01  0.21712198012E+01  0.51100000000E-03 0. -1.
        -11    1    4    4    0    0  0.18241342372E+01 -0.12664837928E+02  0.36042055383E+01  0.13293452648E+02  0.51100000000E-03 0.  1.
        -12    1    4    4    0    0  0.24831101752E+02 -0.20675320129E+02  0.83552266624E+00  0.32322601609E+02  0.00000000000E+00 0.  1.
</event>
<event>
 8    1  0.1280823E-010  0.9118800E+02  0.7816164E-02  0.1184000E+00
        -11   -1    0    0    0    0  0.00000000000E+00  0.00000000000E+00  0.45593999997E+02  0.45594000000E+02  0.51100000000E-03 0. -1.
         11   -1    0    0    0    0 -0.00000000000E+00 -0.00000000000E+00 -0.45593999997E+02  0.45594000000E+02  0.51100000000E-03 0.  1.
         23    2    1    2    0    0  0.00000000000E+00  0.00000000000E+00  0.00000000000E+00  0.91188000000E+02  0.91188000000E+02 0.  0.
    9900012    2    3    3    0    0 -0.18629519842E+02  0.30097134424E+02  0.25114278019E+02  0.47787268779E+02  0.19999989672E+02 0.  0.
        -12    1    3    3    0    0  0.18629519842E+02 -0.30097134424E+02 -0.25114278019E+02  0.43400731221E+02  0.00000000000E+00 0.  1.
         11    1    4    4    0    0 -0.18457471744E+01  0.11496625245E+02  0.12636860298E+02  0.17183405166E+02  0.51100000000E-03 0. -1.
        -11    1    4    4    0    0 -0.56455190909E+00 -0.10700933095E+01 -0.11724385629E+01  0.16847643734E+01  0.51100000000E-03 0.  1.
         12    1    4    4    0    0 -0.16219220758E+02  0.19670602488E+02  0.13649856284E+02  0.28919099240E+02  0.00000000000E+00 0. -1.
</event>
<event>
 8    1  0.1280823E-010  0.9118800E+02  0.7816164E-02  0.1184000E+00
        -11   -1    0    0    0    0  0.00000000000E+00  0.00000000000E+00  0.45593999997E+02  0.45594000000E+02  0.51100000000E-03 0. -1.
         11   -1    0    0    0    0 -0.00000000000E+00 -0.00000000000E+00 -0.45593999997E+02  0.45594000000E+02  0.51100000000E-03 0.  1.
         23    2    1    2    0    0  0.00000000000E+00  0.00000000000E+00  0.00000000000E+00  0.91188000000E+02  0.91188000000E+02 0.  0.
    9900012    2    3    3    0    0 -0.37095932050E+02 -0.15584927783E+02  0.16267303514E+02  0.47787270602E+02  0.19999997984E+02 0.  0.
        -12    1    3    3    0    0  0.37095932050E+02  0.15584927783E+02 -0.16267303514E+02  0.43400729398E+02  0.00000000000E+00 0.  1.
         11    1    4    4    0    0 -0.22420694629E+02  0.29520632240E+00  0.62330091315E+01  0.23272840341E+02  0.51100000000E-03 0. -1.
        -11    1    4    4    0    0 -0.32577822864E+01 -0.62189784517E+01  0.53977598536E+01  0.88557693119E+01  0.51100000000E-03 0.  1.
         12    1    4    4    0    0 -0.11417455134E+02 -0.96611556535E+01  0.46365345287E+01  0.15658660950E+02  0.00000000000E+00 0. -1.
</event>
<event>
 8    1  0.1280823E-010  0.9118800E+02  0.7816164E-02  0.1184000E+00
        -11   -1    0    0    0    0  0.00000000000E+00  0.00000000000E+00  0.45593999997E+02  0.45594000000E+02  0.51100000000E-03 0. -1.
         11   -1    0    0    0    0 -0.00000000000E+00 -0.00000000000E+00 -0.45593999997E+02  0.45594000000E+02  0.51100000000E-03 0.  1.
         23    2    1    2    0    0  0.00000000000E+00  0.00000000000E+00  0.35527136788E-14  0.91188000000E+02  0.91188000000E+02 0.  0.
    9900012    2    3    3    0    0  0.36605302352E+02  0.54342098868E+01  0.22674814771E+02  0.47787239382E+02  0.19999855637E+02 0.  0.
        -12    1    3    3    0    0 -0.36605302352E+02 -0.54342098868E+01 -0.22674814771E+02  0.43400760618E+02  0.00000000000E+00 0.  1.
         11    1    4    4    0    0  0.34690269001E+01 -0.76599205330E+00 -0.44140272788E+00  0.35799061564E+01  0.51100000000E-03 0. -1.
        -11    1    4    4    0    0  0.27468521774E+02  0.13843111117E+01  0.24270305830E+02  0.36680836292E+02  0.51100000000E-03 0.  1.
        -12    1    4    4    0    0  0.56677536771E+01  0.48158908284E+01 -0.11540883312E+01  0.75264969336E+01  0.00000000000E+00 0.  1.
</event>
<event>
 8    1  0.1280823E-010  0.9118800E+02  0.7816164E-02  0.1184000E+00
        -11   -1    0    0    0    0  0.00000000000E+00  0.00000000000E+00  0.45593999997E+02  0.45594000000E+02  0.51100000000E-03 0. -1.
         11   -1    0    0    0    0 -0.00000000000E+00 -0.00000000000E+00 -0.45593999997E+02  0.45594000000E+02  0.51100000000E-03 0.  1.
         23    2    1    2    0    0  0.00000000000E+00  0.00000000000E+00  0.35527136788E-14  0.91188000000E+02  0.91188000000E+02 0.  0.
    9900012    2    3    3    0    0 -0.30853343121E+02  0.16726184019E+02  0.25532902558E+02  0.47787272741E+02  0.20000007734E+02 0.  0.
        -12    1    3    3    0    0  0.30853343121E+02 -0.16726184019E+02 -0.25532902558E+02  0.43400727259E+02  0.00000000000E+00 0.  1.
         11    1    4    4    0    0  0.67297577479E+00  0.49286546301E+01  0.74497713693E+01  0.89578806964E+01  0.51100000000E-03 0. -1.
        -11    1    4    4    0    0 -0.28509956260E+01  0.80865499059E+00 -0.39531980334E+00  0.29897118525E+01  0.51100000000E-03 0.  1.
        -12    1    4    4    0    0 -0.28675323270E+02  0.10988874398E+02  0.18478450992E+02  0.35839680192E+02  0.00000000000E+00 0.  1.
</event>
<event>
 8    1  0.1280823E-010  0.9118800E+02  0.7816164E-02  0.1184000E+00
        -11   -1    0    0    0    0  0.00000000000E+00  0.00000000000E+00  0.45593999997E+02  0.45594000000E+02  0.51100000000E-03 0. -1.
         11   -1    0    0    0    0 -0.00000000000E+00 -0.00000000000E+00 -0.45593999997E+02  0.45594000000E+02  0.51100000000E-03 0.  1.
         23    2    1    2    0    0  0.00000000000E+00 -0.35527136788E-14  0.00000000000E+00  0.91188000000E+02  0.91188000000E+02 0.  0.
    9900012    2    3    3    0    0  0.34581009005E+02 -0.19080030106E+02 -0.17992486921E+02  0.47787270533E+02  0.19999997668E+02 0.  0.
         12    1    3    3    0    0 -0.34581009005E+02  0.19080030106E+02  0.17992486921E+02  0.43400729467E+02  0.00000000000E+00 0. -1.
         11    1    4    4    0    0  0.75727135143E+01 -0.75404266089E+01 -0.10903025533E+02  0.15266957439E+02  0.51100000000E-03 0. -1.
        -11    1    4    4    0    0  0.55182358670E+01 -0.12036661560E+01 -0.65756975842E+01  0.86683065405E+01  0.51100000000E-03 0.  1.
         12    1    4    4    0    0  0.21490059624E+02 -0.10335937341E+02 -0.51376380362E+00  0.23852006553E+02  0.00000000000E+00 0. -1.
</event>
<event>
 8    1  0.1280823E-010  0.9118800E+02  0.7816164E-02  0.1184000E+00
        -11   -1    0    0    0    0  0.00000000000E+00  0.00000000000E+00  0.45593999997E+02  0.45594000000E+02  0.51100000000E-03 0. -1.
         11   -1    0    0    0    0 -0.00000000000E+00 -0.00000000000E+00 -0.45593999997E+02  0.45594000000E+02  0.51100000000E-03 0.  1.
         23    2    1    2    0    0  0.00000000000E+00  0.00000000000E+00  0.00000000000E+00  0.91188000000E+02  0.91188000000E+02 0.  0.
    9900012    2    3    3    0    0  0.44486519641E+01 -0.40044284198E+02  0.16133441378E+02  0.47787272680E+02  0.20000007456E+02 0.  0.
        -12    1    3    3    0    0 -0.44486519641E+01  0.40044284198E+02 -0.16133441378E+02  0.43400727320E+02  0.00000000000E+00 0.  1.
         11    1    4    4    0    0 -0.36655444263E+01 -0.19299343253E+02  0.10607813519E+02  0.22325469174E+02  0.51100000000E-03 0. -1.
        -11    1    4    4    0    0  0.10368469045E+01 -0.71122505048E+01  0.69974687699E+01  0.10031137931E+02  0.51100000000E-03 0.  1.
        -12    1    4    4    0    0  0.70773494859E+01 -0.13632690441E+02 -0.14718409115E+01  0.15430665574E+02  0.00000000000E+00 0.  1.
</event>
<event>
 8    1  0.1280823E-010  0.9118800E+02  0.7816164E-02  0.1184000E+00
        -11   -1    0    0    0    0  0.00000000000E+00  0.00000000000E+00  0.45593999997E+02  0.45594000000E+02  0.51100000000E-03 0. -1.
         11   -1    0    0    0    0 -0.00000000000E+00 -0.00000000000E+00 -0.45593999997E+02  0.45594000000E+02  0.51100000000E-03 0.  1.
         23    2    1    2    0    0  0.00000000000E+00  0.35527136788E-14  0.00000000000E+00  0.91188000000E+02  0.91188000000E+02 0.  0.
    9900012    2    3    3    0    0 -0.29491239831E+02 -0.25731052006E+02  0.18756404413E+02  0.47787274539E+02  0.20000015932E+02 0.  0.
        -12    1    3    3    0    0  0.29491239831E+02  0.25731052006E+02 -0.18756404413E+02  0.43400725461E+02  0.00000000000E+00 0.  1.
         11    1    4    4    0    0 -0.16573806305E+02 -0.84432580295E+01  0.11976002981E+02  0.22122484247E+02  0.51100000000E-03 0. -1.
        -11    1    4    4    0    0 -0.69634991898E+01 -0.11490100574E+02  0.10004188224E+02  0.16751015326E+02  0.51100000000E-03 0.  1.
        -12    1    4    4    0    0 -0.59539343354E+01 -0.57976934017E+01 -0.32237867924E+01  0.89137749654E+01  0.00000000000E+00 0.  1.
</event>
<event>
 8    1  0.1280823E-010  0.9118800E+02  0.7816164E-02  0.1184000E+00
        -11   -1    0    0    0    0  0.00000000000E+00  0.00000000000E+00  0.45593999997E+02  0.45594000000E+02  0.51100000000E-03 0. -1.
         11   -1    0    0    0    0 -0.00000000000E+00 -0.00000000000E+00 -0.45593999997E+02  0.45594000000E+02  0.51100000000E-03 0.  1.
         23    2    1    2    0    0  0.00000000000E+00  0.00000000000E+00  0.00000000000E+00  0.91188000000E+02  0.91188000000E+02 0.  0.
    9900012    2    3    3    0    0  0.30485093551E+02 -0.16523519618E+02  0.26100877191E+02  0.47787269366E+02  0.19999992349E+02 0.  0.
        -12    1    3    3    0    0 -0.30485093551E+02  0.16523519618E+02 -0.26100877191E+02  0.43400730634E+02  0.00000000000E+00 0.  1.
         11    1    4    4    0    0  0.87726408912E+01 -0.11271059923E+02  0.90373749549E+01  0.16901779975E+02  0.51100000000E-03 0. -1.
        -11    1    4    4    0    0  0.11568103183E+02 -0.81546950671E+01  0.53768187185E+01  0.15140351472E+02  0.51100000000E-03 0.  1.
        -12    1    4    4    0    0  0.10144349477E+02  0.29022353723E+01  0.11686683517E+02  0.15745137919E+02  0.00000000000E+00 0.  1.
</event>
<event>
 8    1  0.1280823E-010  0.9118800E+02  0.7816164E-02  0.1184000E+00
        -11   -1    0    0    0    0  0.00000000000E+00  0.00000000000E+00  0.45593999997E+02  0.45594000000E+02  0.51100000000E-03 0. -1.
         11   -1    0    0    0    0 -0.00000000000E+00 -0.00000000000E+00 -0.45593999997E+02  0.45594000000E+02  0.51100000000E-03 0.  1.
         23    2    1    2    0    0 -0.88817841970E-15  0.00000000000E+00  0.35527136788E-14  0.91188000000E+02  0.91188000000E+02 0.  0.
    9900012    2    3    3    0    0 -0.43831183356E+01 -0.32991465671E+02  0.27856321835E+02  0.47787271900E+02  0.20000003900E+02 0.  0.
        -12    1    3    3    0    0  0.43831183356E+01  0.32991465671E+02 -0.27856321835E+02  0.43400728100E+02  0.00000000000E+00 0.  1.
         11    1    4    4    0    0 -0.32673853679E+01 -0.48266679409E+01 -0.81239418159E+00  0.58849396871E+01  0.51100000000E-03 0. -1.
        -11    1    4    4    0    0  0.28444458360E+01 -0.93946353503E+00  0.35875911436E+01  0.46737858661E+01  0.51100000000E-03 0.  1.
         12    1    4    4    0    0 -0.39601788037E+01 -0.27225334195E+02  0.25081124873E+02  0.37228546347E+02  0.00000000000E+00 0. -1.
</event>
<event>
 8    1  0.1280823E-010  0.9118800E+02  0.7816164E-02  0.1184000E+00
        -11   -1    0    0    0    0  0.00000000000E+00  0.00000000000E+00  0.45593999997E+02  0.45594000000E+02  0.51100000000E-03 0.  1.
         11   -1    0    0    0    0 -0.00000000000E+00 -0.00000000000E+00 -0.45593999997E+02  0.45594000000E+02  0.51100000000E-03 0. -1.
         23    2    1    2    0    0 -0.71054273576E-14  0.00000000000E+00  0.00000000000E+00  0.91188000000E+02  0.91188000000E+02 0.  0.
    9900012    2    3    3    0    0  0.35500519100E+02  0.15640308808E+02 -0.19460663006E+02  0.47787268202E+02  0.19999987040E+02 0.  0.
         12    1    3    3    0    0 -0.35500519100E+02 -0.15640308808E+02  0.19460663006E+02  0.43400731798E+02  0.00000000000E+00 0. -1.
         11    1    4    4    0    0  0.18705351896E+01  0.48475527478E+01 -0.10207386198E+01  0.52952409888E+01  0.51100000000E-03 0. -1.
        -11    1    4    4    0    0  0.31395146747E+01  0.25843861503E+01 -0.84430757795E+01  0.93712930296E+01  0.51100000000E-03 0.  1.
        -12    1    4    4    0    0  0.30490469236E+02  0.82083699099E+01 -0.99968486068E+01  0.33120734184E+02  0.00000000000E+00 0.  1.
</event>
<event>
 8    1  0.1280823E-010  0.9118800E+02  0.7816164E-02  0.1184000E+00
        -11   -1    0    0    0    0  0.00000000000E+00  0.00000000000E+00  0.45593999997E+02  0.45594000000E+02  0.51100000000E-03 0. -1.
         11   -1    0    0    0    0 -0.00000000000E+00 -0.00000000000E+00 -0.45593999997E+02  0.45594000000E+02  0.51100000000E-03 0.  1.
         23    2    1    2    0    0  0.00000000000E+00  0.00000000000E+00 -0.35527136788E-14  0.91188000000E+02  0.91188000000E+02 0.  0.
    9900012    2    3    3    0    0 -0.32670172815E+02  0.21428595291E+02 -0.18897018353E+02  0.47787283525E+02  0.20000056903E+02 0.  0.
         12    1    3    3    0    0  0.32670172815E+02 -0.21428595291E+02  0.18897018353E+02  0.43400716475E+02  0.00000000000E+00 0. -1.
         11    1    4    4    0    0 -0.10351683577E+02  0.48363397837E+01 -0.85691088130E+01  0.14282057327E+02  0.51100000000E-03 0.  1.
        -11    1    4    4    0    0 -0.12380590836E+02  0.21729779038E+01 -0.98788514817E+01  0.15987262720E+02  0.51100000000E-03 0. -1.
         12    1    4    4    0    0 -0.99378984012E+01  0.14419277604E+02 -0.44905805808E+00  0.17517963477E+02  0.00000000000E+00 0. -1.
</event>
<event>
 8    1  0.1280823E-010  0.9118800E+02  0.7816164E-02  0.1184000E+00
        -11   -1    0    0    0    0  0.00000000000E+00  0.00000000000E+00  0.45593999997E+02  0.45594000000E+02  0.51100000000E-03 0. -1.
         11   -1    0    0    0    0 -0.00000000000E+00 -0.00000000000E+00 -0.45593999997E+02  0.45594000000E+02  0.51100000000E-03 0.  1.
         23    2    1    2    0    0  0.00000000000E+00  0.00000000000E+00  0.00000000000E+00  0.91188000000E+02  0.91188000000E+02 0.  0.
    9900012    2    3    3    0    0 -0.18101182594E+02  0.10529018445E+02  0.38014604488E+02  0.47787271952E+02  0.20000004139E+02 0.  0.
        -12    1    3    3    0    0  0.18101182594E+02 -0.10529018445E+02 -0.38014604488E+02  0.43400728048E+02  0.00000000000E+00 0.  1.
         11    1    4    4    0    0 -0.27613910201E+01 -0.54711237027E+00  0.47515422444E+00  0.28548877578E+01  0.51100000000E-03 0. -1.
        -11    1    4    4    0    0 -0.15554988745E+02  0.67759956008E+01  0.17267393306E+02  0.24208152822E+02  0.51100000000E-03 0.  1.
         12    1    4    4    0    0  0.21519717086E+00  0.43001352147E+01  0.20272056957E+02  0.20724231372E+02  0.00000000000E+00 0. -1.
</event>
<event>
 8    1  0.1280823E-010  0.9118800E+02  0.7816164E-02  0.1184000E+00
        -11   -1    0    0    0    0  0.00000000000E+00  0.00000000000E+00  0.45593999997E+02  0.45594000000E+02  0.51100000000E-03 0. -1.
         11   -1    0    0    0    0 -0.00000000000E+00 -0.00000000000E+00 -0.45593999997E+02  0.45594000000E+02  0.51100000000E-03 0.  1.
         23    2    1    2    0    0  0.00000000000E+00  0.00000000000E+00 -0.71054273576E-14  0.91188000000E+02  0.91188000000E+02 0.  0.
    9900012    2    3    3    0    0 -0.77938300396E+01 -0.90656077848E+01 -0.41721601411E+02  0.47787296602E+02  0.20000116526E+02 0.  0.
         12    1    3    3    0    0  0.77938300396E+01  0.90656077848E+01  0.41721601411E+02  0.43400703398E+02  0.00000000000E+00 0. -1.
         11    1    4    4    0    0 -0.56313882088E+01 -0.52174493319E+01 -0.15134648241E+02  0.16970323754E+02  0.51100000000E-03 0. -1.
        -11    1    4    4    0    0 -0.69886167822E+01 -0.39723017839E+01 -0.24061000108E+02  0.25368320253E+02  0.51100000000E-03 0.  1.
         12    1    4    4    0    0  0.48261749514E+01  0.12414333104E+00 -0.25259530617E+01  0.54486525947E+01  0.00000000000E+00 0. -1.
</event>
<event>
 8    1  0.1280823E-010  0.9118800E+02  0.7816164E-02  0.1184000E+00
        -11   -1    0    0    0    0  0.00000000000E+00  0.00000000000E+00  0.45593999997E+02  0.45594000000E+02  0.51100000000E-03 0. -1.
         11   -1    0    0    0    0 -0.00000000000E+00 -0.00000000000E+00 -0.45593999997E+02  0.45594000000E+02  0.51100000000E-03 0.  1.
         23    2    1    2    0    0  0.00000000000E+00  0.00000000000E+00  0.00000000000E+00  0.91188000000E+02  0.91188000000E+02 0.  0.
    9900012    2    3    3    0    0 -0.98417499885E+01 -0.10804856306E+02 -0.40865854000E+02  0.47787274364E+02  0.20000015135E+02 0.  0.
         12    1    3    3    0    0  0.98417499885E+01  0.10804856306E+02  0.40865854000E+02  0.43400725636E+02  0.00000000000E+00 0. -1.
         11    1    4    4    0    0 -0.32046468453E+01  0.17933779594E+01 -0.23137531975E+02  0.23427149892E+02  0.51100000000E-03 0.  1.
        -11    1    4    4    0    0 -0.34771512713E+00 -0.31267719388E+01  0.17596512449E+00  0.31509637499E+01  0.51100000000E-03 0. -1.
        -12    1    4    4    0    0 -0.62893880161E+01 -0.94714623263E+01 -0.17904287149E+02  0.21209160722E+02  0.00000000000E+00 0.  1.
</event>
<event>
 8    1  0.1280823E-010  0.9118800E+02  0.7816164E-02  0.1184000E+00
        -11   -1    0    0    0    0  0.00000000000E+00  0.00000000000E+00  0.45593999997E+02  0.45594000000E+02  0.51100000000E-03 0. -1.
         11   -1    0    0    0    0 -0.00000000000E+00 -0.00000000000E+00 -0.45593999997E+02  0.45594000000E+02  0.51100000000E-03 0.  1.
         23    2    1    2    0    0  0.00000000000E+00  0.00000000000E+00  0.00000000000E+00  0.91188000000E+02  0.91188000000E+02 0.  0.
    9900012    2    3    3    0    0 -0.10784040711E+02  0.48486820789E+01  0.41759047054E+02  0.47787271172E+02  0.20000000581E+02 0.  0.
        -12    1    3    3    0    0  0.10784040711E+02 -0.48486820789E+01 -0.41759047054E+02  0.43400728828E+02  0.00000000000E+00 0.  1.
         11    1    4    4    0    0 -0.11409267007E+01  0.25603170920E+01  0.58854565483E+01  0.65188600530E+01  0.51100000000E-03 0. -1.
        -11    1    4    4    0    0  0.50441070657E+01  0.67539746625E+00  0.13777267710E+02  0.14687146886E+02  0.51100000000E-03 0.  1.
        -12    1    4    4    0    0 -0.14687221076E+02  0.16129675207E+01  0.22096322796E+02  0.26581264233E+02  0.00000000000E+00 0.  1.
</event>
<event>
 8    1  0.1280823E-010  0.9118800E+02  0.7816164E-02  0.1184000E+00
        -11   -1    0    0    0    0  0.00000000000E+00  0.00000000000E+00  0.45593999997E+02  0.45594000000E+02  0.51100000000E-03 0.  1.
         11   -1    0    0    0    0 -0.00000000000E+00 -0.00000000000E+00 -0.45593999997E+02  0.45594000000E+02  0.51100000000E-03 0. -1.
         23    2    1    2    0    0 -0.71054273576E-14  0.17763568394E-14  0.58286708793E-15  0.91188000000E+02  0.91188000000E+02 0.  0.
    9900012    2    3    3    0    0  0.42033777715E+02 -0.10805703218E+02  0.14706382420E+00  0.47787270527E+02  0.19999997641E+02 0.  0.
        -12    1    3    3    0    0 -0.42033777715E+02  0.10805703218E+02 -0.14706382420E+00  0.43400729473E+02  0.00000000000E+00 0.  1.
         11    1    4    4    0    0  0.18320679640E+02 -0.85922032806E+01 -0.70816175206E+01  0.21438809824E+02  0.51100000000E-03 0. -1.
        -11    1    4    4    0    0  0.66813061043E+01 -0.24093216829E+01 -0.14239740838E+01  0.72437824845E+01  0.51100000000E-03 0.  1.
        -12    1    4    4    0    0  0.17031791970E+02  0.19582174522E+00  0.86526554286E+01  0.19104678219E+02  0.00000000000E+00 0.  1.
</event>
<event>
 8    1  0.1280823E-010  0.9118800E+02  0.7816164E-02  0.1184000E+00
        -11   -1    0    0    0    0  0.00000000000E+00  0.00000000000E+00  0.45593999997E+02  0.45594000000E+02  0.51100000000E-03 0. -1.
         11   -1    0    0    0    0 -0.00000000000E+00 -0.00000000000E+00 -0.45593999997E+02  0.45594000000E+02  0.51100000000E-03 0.  1.
         23    2    1    2    0    0 -0.35527136788E-14  0.00000000000E+00 -0.71054273576E-14  0.91188000000E+02  0.91188000000E+02 0.  0.
    9900012    2    3    3    0    0  0.24329174537E+02 -0.78909430535E+01  0.35063478013E+02  0.47787271823E+02  0.20000003550E+02 0.  0.
        -12    1    3    3    0    0 -0.24329174537E+02  0.78909430535E+01 -0.35063478013E+02  0.43400728177E+02  0.00000000000E+00 0.  1.
         11    1    4    4    0    0  0.17874126255E+02 -0.17123470833E+01  0.15553251888E+02  0.23755423938E+02  0.51100000000E-03 0. -1.
        -11    1    4    4    0    0  0.89405009563E+01 -0.38448088480E+01  0.17631348336E+02  0.20139005855E+02  0.51100000000E-03 0.  1.
        -12    1    4    4    0    0 -0.24854526737E+01 -0.23337871222E+01  0.18788777880E+01  0.38928420296E+01  0.00000000000E+00 0.  1.
</event>
<event>
 8    1  0.1280823E-010  0.9118800E+02  0.7816164E-02  0.1184000E+00
        -11   -1    0    0    0    0  0.00000000000E+00  0.00000000000E+00  0.45593999997E+02  0.45594000000E+02  0.51100000000E-03 0. -1.
         11   -1    0    0    0    0 -0.00000000000E+00 -0.00000000000E+00 -0.45593999997E+02  0.45594000000E+02  0.51100000000E-03 0.  1.
         23    2    1    2    0    0  0.35527136788E-14  0.00000000000E+00  0.35527136788E-14  0.91188000000E+02  0.91188000000E+02 0.  0.
    9900012    2    3    3    0    0  0.19724950465E+02  0.34311269127E+02  0.17812524763E+02  0.47787275371E+02  0.20000019724E+02 0.  0.
        -12    1    3    3    0    0 -0.19724950465E+02 -0.34311269127E+02 -0.17812524763E+02  0.43400724629E+02  0.00000000000E+00 0.  1.
         11    1    4    4    0    0  0.13820531953E+02  0.13499575892E+02  0.63779790587E+01  0.20345128898E+02  0.51100000000E-03 0. -1.
        -11    1    4    4    0    0 -0.32136024679E+01  0.70432755180E+01  0.67642899841E+01  0.10280592886E+02  0.51100000000E-03 0.  1.
        -12    1    4    4    0    0  0.91180209797E+01  0.13768417717E+02  0.46702557202E+01  0.17161553586E+02  0.00000000000E+00 0.  1.
</event>
<event>
 8    1  0.1280823E-010  0.9118800E+02  0.7816164E-02  0.1184000E+00
        -11   -1    0    0    0    0  0.00000000000E+00  0.00000000000E+00  0.45593999997E+02  0.45594000000E+02  0.51100000000E-03 0. -1.
         11   -1    0    0    0    0 -0.00000000000E+00 -0.00000000000E+00 -0.45593999997E+02  0.45594000000E+02  0.51100000000E-03 0.  1.
         23    2    1    2    0    0 -0.71054273576E-14 -0.17763568394E-14  0.35527136788E-14  0.91188000000E+02  0.91188000000E+02 0.  0.
    9900012    2    3    3    0    0  0.34047814801E+02  0.10890479859E+02 -0.24612334216E+02  0.47787271437E+02  0.20000001788E+02 0.  0.
         12    1    3    3    0    0 -0.34047814801E+02 -0.10890479859E+02  0.24612334216E+02  0.43400728563E+02  0.00000000000E+00 0. -1.
         11    1    4    4    0    0  0.14252648448E+02 -0.20860478824E+00 -0.74681892779E+01  0.16092089830E+02  0.51100000000E-03 0. -1.
        -11    1    4    4    0    0  0.19177051829E+01 -0.30748941299E+01 -0.10425262029E+01  0.37708657128E+01  0.51100000000E-03 0.  1.
         12    1    4    4    0    0  0.17877461170E+02  0.14173978777E+02 -0.16101618735E+02  0.27924315894E+02  0.00000000000E+00 0. -1.
</event>
<event>
 8    1  0.1460012E-010  0.9118800E+02  0.7816164E-02  0.1184000E+00
        -11   -1    0    0    0    0  0.00000000000E+00  0.00000000000E+00  0.45593999997E+02  0.45594000000E+02  0.51100000000E-03 0. -1.
         11   -1    0    0    0    0 -0.00000000000E+00 -0.00000000000E+00 -0.45593999997E+02  0.45594000000E+02  0.51100000000E-03 0.  1.
         23    2    1    2    0    0 -0.44408920985E-15  0.00000000000E+00  0.00000000000E+00  0.91188000000E+02  0.91188000000E+02 0.  0.
    9900012    2    3    3    0    0  0.27918993977E+01 -0.32349583036E+02 -0.28798146425E+02  0.47787268873E+02  0.19999990099E+02 0.  0.
         12    1    3    3    0    0 -0.27918993977E+01  0.32349583036E+02  0.28798146425E+02  0.43400731127E+02  0.00000000000E+00 0. -1.
         11    1    4    4    0    0  0.79202542458E+01 -0.66456992914E+01 -0.78405831190E+01  0.12975765499E+02  0.51100000000E-03 0. -1.
        -11    1    4    4    0    0 -0.16937968505E+01 -0.73587149220E+01 -0.12237078359E+01  0.76496466718E+01  0.51100000000E-03 0.  1.
        -12    1    4    4    0    0 -0.34345579976E+01 -0.18345168823E+02 -0.19733855470E+02  0.27161856702E+02  0.00000000000E+00 0.  1.
</event>
<event>
 8    1  0.1280823E-010  0.9118800E+02  0.7816164E-02  0.1184000E+00
        -11   -1    0    0    0    0  0.00000000000E+00  0.00000000000E+00  0.45593999997E+02  0.45594000000E+02  0.51100000000E-03 0. -1.
         11   -1    0    0    0    0 -0.00000000000E+00 -0.00000000000E+00 -0.45593999997E+02  0.45594000000E+02  0.51100000000E-03 0.  1.
         23    2    1    2    0    0  0.17763568394E-14 -0.44408920985E-15  0.00000000000E+00  0.91188000000E+02  0.91188000000E+02 0.  0.
    9900012    2    3    3    0    0 -0.13572559456E+02 -0.14033387414E+01 -0.41200006484E+02  0.47787259637E+02  0.19999947987E+02 0.  0.
         12    1    3    3    0    0  0.13572559456E+02  0.14033387414E+01  0.41200006484E+02  0.43400740363E+02  0.00000000000E+00 0. -1.
         11    1    4    4    0    0 -0.56095255181E+01  0.13313429692E+01 -0.28920547971E+02  0.29489614203E+02  0.51100000000E-03 0. -1.
        -11    1    4    4    0    0 -0.39809613559E+01  0.40462414836E+01 -0.57034970842E+01  0.80467386382E+01  0.51100000000E-03 0.  1.
         12    1    4    4    0    0 -0.39820725819E+01 -0.67809231941E+01 -0.65759614291E+01  0.10250906795E+02  0.00000000000E+00 0. -1.
</event>
<event>
 8    1  0.1280823E-010  0.9118800E+02  0.7816164E-02  0.1184000E+00
        -11   -1    0    0    0    0  0.00000000000E+00  0.00000000000E+00  0.45593999997E+02  0.45594000000E+02  0.51100000000E-03 0.  1.
         11   -1    0    0    0    0 -0.00000000000E+00 -0.00000000000E+00 -0.45593999997E+02  0.45594000000E+02  0.51100000000E-03 0. -1.
         23    2    1    2    0    0 -0.17763568394E-14  0.00000000000E+00  0.00000000000E+00  0.91188000000E+02  0.91188000000E+02 0.  0.
    9900012    2    3    3    0    0  0.12648438875E+02  0.40112397227E+02  0.10706793517E+02  0.47787275989E+02  0.20000022543E+02 0.  0.
        -12    1    3    3    0    0 -0.12648438875E+02 -0.40112397227E+02 -0.10706793517E+02  0.43400724011E+02  0.00000000000E+00 0.  1.
         11    1    4    4    0    0  0.52303867260E+01  0.11034651898E+02  0.19590162866E+01  0.12367628426E+02  0.51100000000E-03 0. -1.
        -11    1    4    4    0    0  0.11370233476E+01  0.18601834045E+02  0.12733424289E+02  0.22571246007E+02  0.51100000000E-03 0.  1.
        -12    1    4    4    0    0  0.62810288017E+01  0.10475911285E+02 -0.39856470595E+01  0.12848401556E+02  0.00000000000E+00 0.  1.
</event>
<event>
 8    1  0.1280823E-010  0.9118800E+02  0.7816164E-02  0.1184000E+00
        -11   -1    0    0    0    0  0.00000000000E+00  0.00000000000E+00  0.45593999997E+02  0.45594000000E+02  0.51100000000E-03 0.  1.
         11   -1    0    0    0    0 -0.00000000000E+00 -0.00000000000E+00 -0.45593999997E+02  0.45594000000E+02  0.51100000000E-03 0. -1.
         23    2    1    2    0    0  0.00000000000E+00 -0.35527136788E-14  0.00000000000E+00  0.91188000000E+02  0.91188000000E+02 0.  0.
    9900012    2    3    3    0    0 -0.11416570595E+02  0.20081267978E+02  0.36742724001E+02  0.47787272186E+02  0.20000005204E+02 0.  0.
        -12    1    3    3    0    0  0.11416570595E+02 -0.20081267978E+02 -0.36742724001E+02  0.43400727814E+02  0.00000000000E+00 0.  1.
         11    1    4    4    0    0 -0.68356691701E+01  0.17658296396E+02  0.24287979992E+02  0.30796879338E+02  0.51100000000E-03 0. -1.
        -11    1    4    4    0    0  0.10526817435E+01  0.48552399842E+01  0.79637156943E+01  0.93862805242E+01  0.51100000000E-03 0.  1.
        -12    1    4    4    0    0 -0.56335831684E+01 -0.24322684025E+01  0.44910283154E+01  0.76041123234E+01  0.00000000000E+00 0.  1.
</event>
<event>
 8    1  0.1280823E-010  0.9118800E+02  0.7816164E-02  0.1184000E+00
        -11   -1    0    0    0    0  0.00000000000E+00  0.00000000000E+00  0.45593999997E+02  0.45594000000E+02  0.51100000000E-03 0. -1.
         11   -1    0    0    0    0 -0.00000000000E+00 -0.00000000000E+00 -0.45593999997E+02  0.45594000000E+02  0.51100000000E-03 0.  1.
         23    2    1    2    0    0 -0.17763568394E-14  0.00000000000E+00  0.71054273576E-14  0.91188000000E+02  0.91188000000E+02 0.  0.
    9900012    2    3    3    0    0 -0.12209349188E+02  0.19335546726E+02  0.36887552227E+02  0.47787273231E+02  0.20000009970E+02 0.  0.
        -12    1    3    3    0    0  0.12209349188E+02 -0.19335546726E+02 -0.36887552227E+02  0.43400726769E+02  0.00000000000E+00 0.  1.
         11    1    4    4    0    0 -0.54686737310E+01  0.10870472738E+02  0.15911433331E+02  0.20031157751E+02  0.51100000000E-03 0. -1.
        -11    1    4    4    0    0 -0.96055922776E+01  0.78775851405E+01  0.21455666752E+02  0.24792526831E+02  0.51100000000E-03 0.  1.
        -12    1    4    4    0    0  0.28649168207E+01  0.58748884766E+00 -0.47954785615E+00  0.29635886492E+01  0.00000000000E+00 0.  1.
</event>
<event>
 8    1  0.1280823E-010  0.9118800E+02  0.7816164E-02  0.1184000E+00
        -11   -1    0    0    0    0  0.00000000000E+00  0.00000000000E+00  0.45593999997E+02  0.45594000000E+02  0.51100000000E-03 0. -1.
         11   -1    0    0    0    0 -0.00000000000E+00 -0.00000000000E+00 -0.45593999997E+02  0.45594000000E+02  0.51100000000E-03 0.  1.
         23    2    1    2    0    0  0.44408920985E-15  0.00000000000E+00  0.00000000000E+00  0.91188000000E+02  0.91188000000E+02 0.  0.
    9900012    2    3    3    0    0  0.28615353909E+01  0.20035741861E+02  0.38392764773E+02  0.47787265863E+02  0.19999976377E+02 0.  0.
        -12    1    3    3    0    0 -0.28615353909E+01 -0.20035741861E+02 -0.38392764773E+02  0.43400734137E+02  0.00000000000E+00 0.  1.
         11    1    4    4    0    0 -0.12324978696E+00  0.73876481870E+01  0.55799624285E+01  0.92589695544E+01  0.51100000000E-03 0. -1.
        -11    1    4    4    0    0  0.61181198704E+01  0.33220351860E+01  0.38833391836E+01  0.79716768626E+01  0.51100000000E-03 0.  1.
        -12    1    4    4    0    0 -0.31333346926E+01  0.93260584880E+01  0.28929463161E+02  0.30556619446E+02  0.00000000000E+00 0.  1.
</event>
<event>
 8    1  0.1280823E-010  0.9118800E+02  0.7816164E-02  0.1184000E+00
        -11   -1    0    0    0    0  0.00000000000E+00  0.00000000000E+00  0.45593999997E+02  0.45594000000E+02  0.51100000000E-03 0. -1.
         11   -1    0    0    0    0 -0.00000000000E+00 -0.00000000000E+00 -0.45593999997E+02  0.45594000000E+02  0.51100000000E-03 0.  1.
         23    2    1    2    0    0  0.00000000000E+00  0.71054273576E-14  0.00000000000E+00  0.91188000000E+02  0.91188000000E+02 0.  0.
    9900012    2    3    3    0    0  0.53835120270E+01  0.42706340753E+02 -0.55506392082E+01  0.47787270307E+02  0.19999996638E+02 0.  0.
         12    1    3    3    0    0 -0.53835120270E+01 -0.42706340753E+02  0.55506392082E+01  0.43400729693E+02  0.00000000000E+00 0. -1.
         11    1    4    4    0    0 -0.38751250802E+00  0.41210088897E+01  0.33214955931E+01  0.53070908650E+01  0.51100000000E-03 0. -1.
        -11    1    4    4    0    0 -0.47567414819E+01  0.12722189041E+02 -0.20621658254E+01  0.13738020661E+02  0.51100000000E-03 0.  1.
        -12    1    4    4    0    0  0.10527766017E+02  0.25863142822E+02 -0.68099689759E+01  0.28742158781E+02  0.00000000000E+00 0.  1.
</event>
<event>
 8    1  0.1280823E-010  0.9118800E+02  0.7816164E-02  0.1184000E+00
        -11   -1    0    0    0    0  0.00000000000E+00  0.00000000000E+00  0.45593999997E+02  0.45594000000E+02  0.51100000000E-03 0. -1.
         11   -1    0    0    0    0 -0.00000000000E+00 -0.00000000000E+00 -0.45593999997E+02  0.45594000000E+02  0.51100000000E-03 0.  1.
         23    2    1    2    0    0  0.00000000000E+00 -0.17763568394E-14  0.00000000000E+00  0.91188000000E+02  0.91188000000E+02 0.  0.
    9900012    2    3    3    0    0 -0.29824927727E+02 -0.32975781866E+01  0.31356388067E+02  0.47787269494E+02  0.19999992932E+02 0.  0.
        -12    1    3    3    0    0  0.29824927727E+02  0.32975781866E+01 -0.31356388067E+02  0.43400730506E+02  0.00000000000E+00 0.  1.
         11    1    4    4    0    0 -0.23412512478E+01 -0.19850054088E+01 -0.61431773911E+00  0.31303498884E+01  0.51100000000E-03 0. -1.
        -11    1    4    4    0    0 -0.16383585561E+02 -0.76820601766E+01  0.15703936756E+02  0.23959331257E+02  0.51100000000E-03 0.  1.
         12    1    4    4    0    0 -0.11100090918E+02  0.63694873987E+01  0.16266769051E+02  0.20697588349E+02  0.00000000000E+00 0. -1.
</event>
<event>
 8    1  0.1280823E-010  0.9118800E+02  0.7816164E-02  0.1184000E+00
        -11   -1    0    0    0    0  0.00000000000E+00  0.00000000000E+00  0.45593999997E+02  0.45594000000E+02  0.51100000000E-03 0. -1.
         11   -1    0    0    0    0 -0.00000000000E+00 -0.00000000000E+00 -0.45593999997E+02  0.45594000000E+02  0.51100000000E-03 0.  1.
         23    2    1    2    0    0  0.17763568394E-14  0.00000000000E+00  0.00000000000E+00  0.91188000000E+02  0.91188000000E+02 0.  0.
    9900012    2    3    3    0    0  0.15375852117E+02 -0.22173863641E+02 -0.33993032776E+02  0.47787270347E+02  0.19999996821E+02 0.  0.
         12    1    3    3    0    0 -0.15375852117E+02  0.22173863641E+02  0.33993032776E+02  0.43400729653E+02  0.00000000000E+00 0. -1.
         11    1    4    4    0    0 -0.10232137176E+01 -0.27008712889E+00 -0.37346300484E+01  0.38816717054E+01  0.51100000000E-03 0. -1.
        -11    1    4    4    0    0 -0.28381188988E+01 -0.49483744263E+01 -0.28672941684E+01  0.63845676797E+01  0.51100000000E-03 0.  1.
        -12    1    4    4    0    0  0.19237184733E+02 -0.16955402086E+02 -0.27391108559E+02  0.37521030962E+02  0.00000000000E+00 0.  1.
</event>
<event>
 8    1  0.1280823E-010  0.9118800E+02  0.7816164E-02  0.1184000E+00
        -11   -1    0    0    0    0  0.00000000000E+00  0.00000000000E+00  0.45593999997E+02  0.45594000000E+02  0.51100000000E-03 0. -1.
         11   -1    0    0    0    0 -0.00000000000E+00 -0.00000000000E+00 -0.45593999997E+02  0.45594000000E+02  0.51100000000E-03 0.  1.
         23    2    1    2    0    0 -0.44408920985E-15  0.44408920985E-15  0.00000000000E+00  0.91188000000E+02  0.91188000000E+02 0.  0.
    9900012    2    3    3    0    0 -0.25588968586E+01 -0.25319133603E+01 -0.43251182183E+02  0.47787270759E+02  0.19999998699E+02 0.  0.
         12    1    3    3    0    0  0.25588968586E+01  0.25319133603E+01  0.43251182183E+02  0.43400729241E+02  0.00000000000E+00 0. -1.
         11    1    4    4    0    0  0.89639869169E+00 -0.19747379980E+01 -0.25523048144E+01  0.33492358684E+01  0.51100000000E-03 0. -1.
        -11    1    4    4    0    0 -0.80112127797E+00  0.82567268994E+01 -0.23654339282E+02  0.25066772858E+02  0.51100000000E-03 0.  1.
        -12    1    4    4    0    0 -0.26541742723E+01 -0.88139022617E+01 -0.17044538087E+02  0.19371262033E+02  0.00000000000E+00 0.  1.
</event>
<event>
 8    1  0.1280823E-010  0.9118800E+02  0.7816164E-02  0.1184000E+00
        -11   -1    0    0    0    0  0.00000000000E+00  0.00000000000E+00  0.45593999997E+02  0.45594000000E+02  0.51100000000E-03 0. -1.
         11   -1    0    0    0    0 -0.00000000000E+00 -0.00000000000E+00 -0.45593999997E+02  0.45594000000E+02  0.51100000000E-03 0.  1.
         23    2    1    2    0    0  0.00000000000E+00 -0.35527136788E-14  0.00000000000E+00  0.91188000000E+02  0.91188000000E+02 0.  0.
    9900012    2    3    3    0    0 -0.19127858007E+02  0.16345250326E+02  0.35363558609E+02  0.47787269157E+02  0.19999991397E+02 0.  0.
        -12    1    3    3    0    0  0.19127858007E+02 -0.16345250326E+02 -0.35363558609E+02  0.43400730843E+02  0.00000000000E+00 0.  1.
         11    1    4    4    0    0 -0.13389435097E+02  0.17409226322E+02  0.21627887431E+02  0.30824075791E+02  0.51100000000E-03 0. -1.
        -11    1    4    4    0    0  0.44042891082E+00  0.39626233961E+00 -0.86119901869E+00  0.10453064040E+01  0.51100000000E-03 0.  1.
         12    1    4    4    0    0 -0.61788518213E+01 -0.14602383357E+01  0.14596870196E+02  0.15917886963E+02  0.00000000000E+00 0. -1.
</event>
<event>
 8    1  0.1280823E-010  0.9118800E+02  0.7816164E-02  0.1184000E+00
        -11   -1    0    0    0    0  0.00000000000E+00  0.00000000000E+00  0.45593999997E+02  0.45594000000E+02  0.51100000000E-03 0. -1.
         11   -1    0    0    0    0 -0.00000000000E+00 -0.00000000000E+00 -0.45593999997E+02  0.45594000000E+02  0.51100000000E-03 0.  1.
         23    2    1    2    0    0 -0.71054273576E-14  0.00000000000E+00 -0.35527136788E-14  0.91188000000E+02  0.91188000000E+02 0.  0.
    9900012    2    3    3    0    0  0.30750749000E+02 -0.68367275671E+01  0.29854210968E+02  0.47787270508E+02  0.19999997555E+02 0.  0.
        -12    1    3    3    0    0 -0.30750749000E+02  0.68367275671E+01 -0.29854210968E+02  0.43400729492E+02  0.00000000000E+00 0.  1.
         11    1    4    4    0    0  0.18137382024E+02 -0.12990332748E+02  0.14666500985E+02  0.26698682046E+02  0.51100000000E-03 0. -1.
        -11    1    4    4    0    0  0.10724130603E+01  0.11187017877E+01  0.27979711347E+00  0.15747539959E+01  0.51100000000E-03 0.  1.
         12    1    4    4    0    0  0.11540953916E+02  0.50349033929E+01  0.14907912869E+02  0.19513834466E+02  0.00000000000E+00 0. -1.
</event>
<event>
 8    1  0.1280823E-010  0.9118800E+02  0.7816164E-02  0.1184000E+00
        -11   -1    0    0    0    0  0.00000000000E+00  0.00000000000E+00  0.45593999997E+02  0.45594000000E+02  0.51100000000E-03 0.  1.
         11   -1    0    0    0    0 -0.00000000000E+00 -0.00000000000E+00 -0.45593999997E+02  0.45594000000E+02  0.51100000000E-03 0. -1.
         23    2    1    2    0    0  0.00000000000E+00  0.00000000000E+00  0.00000000000E+00  0.91188000000E+02  0.91188000000E+02 0.  0.
    9900012    2    3    3    0    0  0.42092934785E+02 -0.29805408542E+01  0.10145165190E+02  0.47787272364E+02  0.20000006019E+02 0.  0.
        -12    1    3    3    0    0 -0.42092934785E+02  0.29805408542E+01 -0.10145165190E+02  0.43400727636E+02  0.00000000000E+00 0.  1.
         11    1    4    4    0    0  0.28629182397E+01  0.64124280352E+00 -0.16972326871E+01  0.33894088327E+01  0.51100000000E-03 0. -1.
        -11    1    4    4    0    0  0.10789176695E+02  0.32013587771E+01 -0.29326116103E+01  0.11629928757E+02  0.51100000000E-03 0.  1.
         12    1    4    4    0    0  0.28440839850E+02 -0.68231424348E+01  0.14775009487E+02  0.32767934775E+02  0.00000000000E+00 0. -1.
</event>
<event>
 8    1  0.1280823E-010  0.9118800E+02  0.7816164E-02  0.1184000E+00
        -11   -1    0    0    0    0  0.00000000000E+00  0.00000000000E+00  0.45593999997E+02  0.45594000000E+02  0.51100000000E-03 0. -1.
         11   -1    0    0    0    0 -0.00000000000E+00 -0.00000000000E+00 -0.45593999997E+02  0.45594000000E+02  0.51100000000E-03 0.  1.
         23    2    1    2    0    0  0.00000000000E+00  0.00000000000E+00 -0.35527136788E-14  0.91188000000E+02  0.91188000000E+02 0.  0.
    9900012    2    3    3    0    0  0.33803976968E+02  0.98994775960E+01 -0.25355774910E+02  0.47787264559E+02  0.19999970431E+02 0.  0.
         12    1    3    3    0    0 -0.33803976968E+02 -0.98994775960E+01  0.25355774910E+02  0.43400735441E+02  0.00000000000E+00 0. -1.
         11    1    4    4    0    0  0.56396327666E+01 -0.31136496324E+01 -0.59275648545E+01  0.87542159638E+01  0.51100000000E-03 0. -1.
        -11    1    4    4    0    0  0.15466131197E+02  0.59202998848E+01 -0.17935581268E+02  0.24411805353E+02  0.51100000000E-03 0.  1.
        -12    1    4    4    0    0  0.12698213005E+02  0.70928273437E+01 -0.14926287872E+01  0.14621243242E+02  0.00000000000E+00 0.  1.
</event>
<event>
 8    1  0.1280823E-010  0.9118800E+02  0.7816164E-02  0.1184000E+00
        -11   -1    0    0    0    0  0.00000000000E+00  0.00000000000E+00  0.45593999997E+02  0.45594000000E+02  0.51100000000E-03 0. -1.
         11   -1    0    0    0    0 -0.00000000000E+00 -0.00000000000E+00 -0.45593999997E+02  0.45594000000E+02  0.51100000000E-03 0.  1.
         23    2    1    2    0    0  0.00000000000E+00  0.00000000000E+00  0.00000000000E+00  0.91188000000E+02  0.91188000000E+02 0.  0.
    9900012    2    3    3    0    0  0.41560091104E+02 -0.27138773039E+00 -0.12502291644E+02  0.47787284335E+02  0.20000060596E+02 0.  0.
         12    1    3    3    0    0 -0.41560091104E+02  0.27138773039E+00  0.12502291644E+02  0.43400715665E+02  0.00000000000E+00 0. -1.
         11    1    4    4    0    0  0.11675826635E+02 -0.79224799990E+00  0.18241357477E+00  0.11704095842E+02  0.51100000000E-03 0. -1.
        -11    1    4    4    0    0 -0.12550480430E+01  0.16961147424E+01 -0.25614904714E+01  0.33186118342E+01  0.51100000000E-03 0.  1.
        -12    1    4    4    0    0  0.31139312512E+02 -0.11752544729E+01 -0.10123214748E+02  0.32764576659E+02  0.00000000000E+00 0.  1.
</event>
<event>
 8    1  0.1280823E-010  0.9118800E+02  0.7816164E-02  0.1184000E+00
        -11   -1    0    0    0    0  0.00000000000E+00  0.00000000000E+00  0.45593999997E+02  0.45594000000E+02  0.51100000000E-03 0. -1.
         11   -1    0    0    0    0 -0.00000000000E+00 -0.00000000000E+00 -0.45593999997E+02  0.45594000000E+02  0.51100000000E-03 0.  1.
         23    2    1    2    0    0  0.00000000000E+00  0.00000000000E+00 -0.71054273576E-14  0.91188000000E+02  0.91188000000E+02 0.  0.
    9900012    2    3    3    0    0  0.17504549560E+02  0.17755109231E+02 -0.35524228681E+02  0.47787262881E+02  0.19999962778E+02 0.  0.
         12    1    3    3    0    0 -0.17504549560E+02 -0.17755109231E+02  0.35524228681E+02  0.43400737119E+02  0.00000000000E+00 0. -1.
         11    1    4    4    0    0  0.11173767943E+02  0.89555037862E+01 -0.90787571208E+01  0.16955175293E+02  0.51100000000E-03 0.  1.
        -11    1    4    4    0    0  0.64506097802E+01 -0.46940980855E+00 -0.90889956162E+01  0.11155292631E+02  0.51100000000E-03 0. -1.
        -12    1    4    4    0    0 -0.11982816295E+00  0.92690152532E+01 -0.17356475944E+02  0.19676794956E+02  0.00000000000E+00 0.  1.
</event>
<event>
 8    1  0.1280823E-010  0.9118800E+02  0.7816164E-02  0.1184000E+00
        -11   -1    0    0    0    0  0.00000000000E+00  0.00000000000E+00  0.45593999997E+02  0.45594000000E+02  0.51100000000E-03 0.  1.
         11   -1    0    0    0    0 -0.00000000000E+00 -0.00000000000E+00 -0.45593999997E+02  0.45594000000E+02  0.51100000000E-03 0. -1.
         23    2    1    2    0    0  0.00000000000E+00  0.00000000000E+00  0.00000000000E+00  0.91188000000E+02  0.91188000000E+02 0.  0.
    9900012    2    3    3    0    0  0.42638838555E+02 -0.12418873661E+01  0.80006256985E+01  0.47787275938E+02  0.20000022312E+02 0.  0.
         12    1    3    3    0    0 -0.42638838555E+02  0.12418873661E+01 -0.80006256985E+01  0.43400724062E+02  0.00000000000E+00 0. -1.
         11    1    4    4    0    0  0.20547196921E+02  0.11651101506E+01  0.69242965649E+01  0.21713835823E+02  0.51100000000E-03 0. -1.
        -11    1    4    4    0    0  0.14944415725E+02  0.45361676400E+01  0.30569187748E+01  0.15914054508E+02  0.51100000000E-03 0.  1.
         12    1    4    4    0    0  0.71472259089E+01 -0.69431651567E+01 -0.19805896413E+01  0.10159385607E+02  0.00000000000E+00 0. -1.
</event>
<event>
 8    1  0.1280823E-010  0.9118800E+02  0.7816164E-02  0.1184000E+00
        -11   -1    0    0    0    0  0.00000000000E+00  0.00000000000E+00  0.45593999997E+02  0.45594000000E+02  0.51100000000E-03 0. -1.
         11   -1    0    0    0    0 -0.00000000000E+00 -0.00000000000E+00 -0.45593999997E+02  0.45594000000E+02  0.51100000000E-03 0.  1.
         23    2    1    2    0    0  0.00000000000E+00 -0.71054273576E-14  0.00000000000E+00  0.91188000000E+02  0.91188000000E+02 0.  0.
    9900012    2    3    3    0    0  0.86111593329E+01  0.36459499152E+02  0.21912921100E+02  0.47787271266E+02  0.20000001011E+02 0.  0.
        -12    1    3    3    0    0 -0.86111593329E+01 -0.36459499152E+02 -0.21912921100E+02  0.43400728734E+02  0.00000000000E+00 0.  1.
         11    1    4    4    0    0 -0.34787654525E+01  0.20720521604E+02  0.15147240059E+02  0.25901364950E+02  0.51100000000E-03 0. -1.
        -11    1    4    4    0    0  0.27254165248E+01  0.86480426500E+01  0.28916423099E+01  0.95172544581E+01  0.51100000000E-03 0.  1.
        -12    1    4    4    0    0  0.93645082606E+01  0.70909348980E+01  0.38740387313E+01  0.12368651858E+02  0.00000000000E+00 0.  1.
</event>
<event>
 8    1  0.1280823E-010  0.9118800E+02  0.7816164E-02  0.1184000E+00
        -11   -1    0    0    0    0  0.00000000000E+00  0.00000000000E+00  0.45593999997E+02  0.45594000000E+02  0.51100000000E-03 0. -1.
         11   -1    0    0    0    0 -0.00000000000E+00 -0.00000000000E+00 -0.45593999997E+02  0.45594000000E+02  0.51100000000E-03 0.  1.
         23    2    1    2    0    0  0.00000000000E+00  0.00000000000E+00  0.00000000000E+00  0.91188000000E+02  0.91188000000E+02 0.  0.
    9900012    2    3    3    0    0  0.42446814246E+01 -0.46547983033E+01  0.42941109530E+02  0.47787270106E+02  0.19999995723E+02 0.  0.
        -12    1    3    3    0    0 -0.42446814246E+01  0.46547983033E+01 -0.42941109530E+02  0.43400729894E+02  0.00000000000E+00 0.  1.
         11    1    4    4    0    0 -0.13513141075E+01  0.46077176163E+01  0.54999253460E+01  0.73011157039E+01  0.51100000000E-03 0. -1.
        -11    1    4    4    0    0 -0.67193607580E+00 -0.10203431099E+01 -0.37497024530E+00  0.12779675653E+01  0.51100000000E-03 0.  1.
        -12    1    4    4    0    0  0.62679316080E+01 -0.82421728096E+01  0.37816154429E+02  0.39208186837E+02  0.00000000000E+00 0.  1.
</event>
<event>
 8    1  0.1280823E-010  0.9118800E+02  0.7816164E-02  0.1184000E+00
        -11   -1    0    0    0    0  0.00000000000E+00  0.00000000000E+00  0.45593999997E+02  0.45594000000E+02  0.51100000000E-03 0. -1.
         11   -1    0    0    0    0 -0.00000000000E+00 -0.00000000000E+00 -0.45593999997E+02  0.45594000000E+02  0.51100000000E-03 0.  1.
         23    2    1    2    0    0  0.00000000000E+00 -0.88817841970E-15  0.00000000000E+00  0.91188000000E+02  0.91188000000E+02 0.  0.
    9900012    2    3    3    0    0 -0.26937272699E+02  0.47689623130E+01 -0.33693675303E+02  0.47787269390E+02  0.19999992458E+02 0.  0.
         12    1    3    3    0    0  0.26937272699E+02 -0.47689623130E+01  0.33693675303E+02  0.43400730610E+02  0.00000000000E+00 0. -1.
         11    1    4    4    0    0 -0.10007967813E+02  0.68508890397E+01 -0.15393260813E+02  0.19597106396E+02  0.51100000000E-03 0.  1.
        -11    1    4    4    0    0 -0.14601755499E+02  0.36982314630E+01 -0.11383917622E+02  0.18880724570E+02  0.51100000000E-03 0. -1.
         12    1    4    4    0    0 -0.23275493873E+01 -0.57801581897E+01 -0.69164968685E+01  0.93094384245E+01  0.00000000000E+00 0. -1.
</event>
<event>
 8    1  0.1280823E-010  0.9118800E+02  0.7816164E-02  0.1184000E+00
        -11   -1    0    0    0    0  0.00000000000E+00  0.00000000000E+00  0.45593999997E+02  0.45594000000E+02  0.51100000000E-03 0. -1.
         11   -1    0    0    0    0 -0.00000000000E+00 -0.00000000000E+00 -0.45593999997E+02  0.45594000000E+02  0.51100000000E-03 0.  1.
         23    2    1    2    0    0  0.17763568394E-14  0.44408920985E-15  0.00000000000E+00  0.91188000000E+02  0.91188000000E+02 0.  0.
    9900012    2    3    3    0    0  0.13689972353E+02 -0.27415077831E+01  0.41093699474E+02  0.47787270232E+02  0.19999996294E+02 0.  0.
        -12    1    3    3    0    0 -0.13689972353E+02  0.27415077831E+01 -0.41093699474E+02  0.43400729768E+02  0.00000000000E+00 0.  1.
         11    1    4    4    0    0  0.54540121470E+01  0.35579289419E+01  0.21608839448E+02  0.22568718382E+02  0.51100000000E-03 0. -1.
        -11    1    4    4    0    0  0.27423154015E+01 -0.24288267008E+01  0.17956949884E+02  0.18326798474E+02  0.51100000000E-03 0.  1.
        -12    1    4    4    0    0  0.54936448043E+01 -0.38706100242E+01  0.15279101427E+01  0.68917533763E+01  0.00000000000E+00 0.  1.
</event>
<event>
 8    1  0.1280823E-010  0.9118800E+02  0.7816164E-02  0.1184000E+00
        -11   -1    0    0    0    0  0.00000000000E+00  0.00000000000E+00  0.45593999997E+02  0.45594000000E+02  0.51100000000E-03 0. -1.
         11   -1    0    0    0    0 -0.00000000000E+00 -0.00000000000E+00 -0.45593999997E+02  0.45594000000E+02  0.51100000000E-03 0.  1.
         23    2    1    2    0    0  0.00000000000E+00 -0.71054273576E-14  0.00000000000E+00  0.91188000000E+02  0.91188000000E+02 0.  0.
    9900012    2    3    3    0    0 -0.34954569104E+02  0.25293969904E+02  0.46921946715E+01  0.47787268375E+02  0.19999987828E+02 0.  0.
        -12    1    3    3    0    0  0.34954569104E+02 -0.25293969904E+02 -0.46921946715E+01  0.43400731625E+02  0.00000000000E+00 0.  1.
         11    1    4    4    0    0 -0.22762578973E+02  0.25521437012E+02  0.58174232722E+01  0.34688919880E+02  0.51100000000E-03 0. -1.
        -11    1    4    4    0    0 -0.10790105887E+01  0.82633269156E+00 -0.13741899628E+01  0.19327410284E+01  0.51100000000E-03 0.  1.
         12    1    4    4    0    0 -0.11112979543E+02 -0.10537997992E+01  0.24896136214E+00  0.11165607467E+02  0.00000000000E+00 0. -1.
</event>
<event>
 8    1  0.1280823E-010  0.9118800E+02  0.7816164E-02  0.1184000E+00
        -11   -1    0    0    0    0  0.00000000000E+00  0.00000000000E+00  0.45593999997E+02  0.45594000000E+02  0.51100000000E-03 0. -1.
         11   -1    0    0    0    0 -0.00000000000E+00 -0.00000000000E+00 -0.45593999997E+02  0.45594000000E+02  0.51100000000E-03 0.  1.
         23    2    1    2    0    0  0.00000000000E+00  0.00000000000E+00  0.00000000000E+00  0.91188000000E+02  0.91188000000E+02 0.  0.
    9900012    2    3    3    0    0  0.11157779166E+02  0.20210886141E+02  0.36751154433E+02  0.47787270666E+02  0.19999998276E+02 0.  0.
        -12    1    3    3    0    0 -0.11157779166E+02 -0.20210886141E+02 -0.36751154433E+02  0.43400729334E+02  0.00000000000E+00 0.  1.
         11    1    4    4    0    0  0.66707871390E+00  0.12896718453E+01  0.25660626968E+00  0.14744811012E+01  0.51100000000E-03 0.  1.
        -11    1    4    4    0    0  0.12603448530E+01  0.17645307487E+02  0.30419074568E+02  0.35188996054E+02  0.51100000000E-03 0. -1.
         12    1    4    4    0    0  0.92303555990E+01  0.12759068088E+01  0.60754735960E+01  0.11123793511E+02  0.00000000000E+00 0. -1.
</event>
<event>
 8    1  0.1280823E-010  0.9118800E+02  0.7816164E-02  0.1184000E+00
        -11   -1    0    0    0    0  0.00000000000E+00  0.00000000000E+00  0.45593999997E+02  0.45594000000E+02  0.51100000000E-03 0. -1.
         11   -1    0    0    0    0 -0.00000000000E+00 -0.00000000000E+00 -0.45593999997E+02  0.45594000000E+02  0.51100000000E-03 0.  1.
         23    2    1    2    0    0  0.00000000000E+00 -0.17763568394E-14  0.71054273576E-14  0.91188000000E+02  0.91188000000E+02 0.  0.
    9900012    2    3    3    0    0  0.67028925328E+01  0.10199389346E+02  0.41649332485E+02  0.47787271805E+02  0.20000003469E+02 0.  0.
        -12    1    3    3    0    0 -0.67028925328E+01 -0.10199389346E+02 -0.41649332485E+02  0.43400728195E+02  0.00000000000E+00 0.  1.
         11    1    4    4    0    0  0.22986260281E+01  0.44402892015E+01  0.23078679333E+01  0.55069142420E+01  0.51100000000E-03 0. -1.
        -11    1    4    4    0    0  0.11127704799E+01 -0.79845791923E+00 -0.72359032013E+00  0.15489920601E+01  0.51100000000E-03 0.  1.
         12    1    4    4    0    0  0.32914960248E+01  0.65575580637E+01  0.40065054872E+02  0.40731365503E+02  0.00000000000E+00 0. -1.
</event>
<event>
 8    1  0.1280823E-010  0.9118800E+02  0.7816164E-02  0.1184000E+00
        -11   -1    0    0    0    0  0.00000000000E+00  0.00000000000E+00  0.45593999997E+02  0.45594000000E+02  0.51100000000E-03 0. -1.
         11   -1    0    0    0    0 -0.00000000000E+00 -0.00000000000E+00 -0.45593999997E+02  0.45594000000E+02  0.51100000000E-03 0.  1.
         23    2    1    2    0    0  0.17763568394E-14  0.00000000000E+00  0.00000000000E+00  0.91188000000E+02  0.91188000000E+02 0.  0.
    9900012    2    3    3    0    0 -0.13703870874E+02  0.19070308703E+02 -0.36498636991E+02  0.47787271283E+02  0.20000001088E+02 0.  0.
         12    1    3    3    0    0  0.13703870874E+02 -0.19070308703E+02  0.36498636991E+02  0.43400728717E+02  0.00000000000E+00 0. -1.
         11    1    4    4    0    0 -0.45446519358E+01  0.37680316555E+01 -0.40127794894E+01  0.71382297011E+01  0.51100000000E-03 0. -1.
        -11    1    4    4    0    0 -0.96721341197E+01  0.13245768646E+02 -0.12682898807E+02  0.20732980680E+02  0.51100000000E-03 0.  1.
         12    1    4    4    0    0  0.51291518166E+00  0.20565084011E+01 -0.19802958695E+02  0.19916060902E+02  0.00000000000E+00 0. -1.
</event>
<event>
 8    1  0.1280823E-010  0.9118800E+02  0.7816164E-02  0.1184000E+00
        -11   -1    0    0    0    0  0.00000000000E+00  0.00000000000E+00  0.45593999997E+02  0.45594000000E+02  0.51100000000E-03 0.  1.
         11   -1    0    0    0    0 -0.00000000000E+00 -0.00000000000E+00 -0.45593999997E+02  0.45594000000E+02  0.51100000000E-03 0. -1.
         23    2    1    2    0    0  0.35527136788E-14 -0.35527136788E-14 -0.35527136788E-14  0.91188000000E+02  0.91188000000E+02 0.  0.
    9900012    2    3    3    0    0  0.24236460745E+02 -0.30764826954E+02 -0.18701410026E+02  0.47787270238E+02  0.19999996322E+02 0.  0.
         12    1    3    3    0    0 -0.24236460745E+02  0.30764826954E+02  0.18701410026E+02  0.43400729762E+02  0.00000000000E+00 0. -1.
         11    1    4    4    0    0  0.10645709011E+02 -0.16139968756E+02 -0.19457630311E+01  0.19432336602E+02  0.51100000000E-03 0. -1.
        -11    1    4    4    0    0  0.11810494793E+02 -0.15743009340E+02 -0.11739501096E+02  0.22916064596E+02  0.51100000000E-03 0.  1.
         12    1    4    4    0    0  0.17802569406E+01  0.11181511420E+01 -0.50161458983E+01  0.54388690390E+01  0.00000000000E+00 0. -1.
</event>
<event>
 8    1  0.1280823E-010  0.9118800E+02  0.7816164E-02  0.1184000E+00
        -11   -1    0    0    0    0  0.00000000000E+00  0.00000000000E+00  0.45593999997E+02  0.45594000000E+02  0.51100000000E-03 0. -1.
         11   -1    0    0    0    0 -0.00000000000E+00 -0.00000000000E+00 -0.45593999997E+02  0.45594000000E+02  0.51100000000E-03 0.  1.
         23    2    1    2    0    0  0.35527136788E-14  0.00000000000E+00  0.00000000000E+00  0.91188000000E+02  0.91188000000E+02 0.  0.
    9900012    2    3    3    0    0  0.21760443901E+02  0.35256084195E+02 -0.12927283959E+02  0.47787273484E+02  0.20000011125E+02 0.  0.
         12    1    3    3    0    0 -0.21760443901E+02 -0.35256084195E+02  0.12927283959E+02  0.43400726516E+02  0.00000000000E+00 0. -1.
         11    1    4    4    0    0  0.53963569499E+01 -0.61766885009E+00  0.74569930259E+00  0.54825405470E+01  0.51100000000E-03 0. -1.
        -11    1    4    4    0    0  0.30495105955E+01  0.45597324200E+01 -0.44126113109E+01  0.70400151602E+01  0.51100000000E-03 0.  1.
        -12    1    4    4    0    0  0.13314576355E+02  0.31314020625E+02 -0.92603719505E+01  0.35264717777E+02  0.00000000000E+00 0.  1.
</event>
<event>
 8    1  0.1280823E-010  0.9118800E+02  0.7816164E-02  0.1184000E+00
        -11   -1    0    0    0    0  0.00000000000E+00  0.00000000000E+00  0.45593999997E+02  0.45594000000E+02  0.51100000000E-03 0. -1.
         11   -1    0    0    0    0 -0.00000000000E+00 -0.00000000000E+00 -0.45593999997E+02  0.45594000000E+02  0.51100000000E-03 0.  1.
         23    2    1    2    0    0  0.17763568394E-14 -0.71054273576E-14 -0.35527136788E-14  0.91188000000E+02  0.91188000000E+02 0.  0.
    9900012    2    3    3    0    0 -0.11092828289E+02  0.33099695551E+02  0.25787259633E+02  0.47787269080E+02  0.19999991043E+02 0.  0.
        -12    1    3    3    0    0  0.11092828289E+02 -0.33099695551E+02 -0.25787259633E+02  0.43400730920E+02  0.00000000000E+00 0.  1.
         11    1    4    4    0    0 -0.12551462633E+01  0.72150948172E+01  0.56852790578E+01  0.92712126278E+01  0.51100000000E-03 0. -1.
        -11    1    4    4    0    0 -0.50193787768E+01  0.18306744956E+01 -0.17918335938E+01  0.56352639959E+01  0.51100000000E-03 0.  1.
        -12    1    4    4    0    0 -0.48183032489E+01  0.24053926238E+02  0.21893814169E+02  0.32880792456E+02  0.00000000000E+00 0.  1.
</event>
<event>
 8    1  0.1280823E-010  0.9118800E+02  0.7816164E-02  0.1184000E+00
        -11   -1    0    0    0    0  0.00000000000E+00  0.00000000000E+00  0.45593999997E+02  0.45594000000E+02  0.51100000000E-03 0. -1.
         11   -1    0    0    0    0 -0.00000000000E+00 -0.00000000000E+00 -0.45593999997E+02  0.45594000000E+02  0.51100000000E-03 0.  1.
         23    2    1    2    0    0  0.00000000000E+00  0.00000000000E+00  0.00000000000E+00  0.91188000000E+02  0.91188000000E+02 0.  0.
    9900012    2    3    3    0    0  0.19415659158E+02 -0.28043374191E+02  0.26837012938E+02  0.47787263601E+02  0.19999966062E+02 0.  0.
        -12    1    3    3    0    0 -0.19415659158E+02  0.28043374191E+02 -0.26837012938E+02  0.43400736399E+02  0.00000000000E+00 0.  1.
         11    1    4    4    0    0  0.92685973074E+01 -0.10226047343E+01  0.11544298714E+02  0.14839927546E+02  0.51100000000E-03 0. -1.
        -11    1    4    4    0    0  0.40892800770E+01 -0.57967947668E+01  0.32329699182E+01  0.77959692066E+01  0.51100000000E-03 0.  1.
         12    1    4    4    0    0  0.60577817738E+01 -0.21223974690E+02  0.12059744306E+02  0.25151366849E+02  0.00000000000E+00 0. -1.
</event>
<event>
 8    1  0.1280823E-010  0.9118800E+02  0.7816164E-02  0.1184000E+00
        -11   -1    0    0    0    0  0.00000000000E+00  0.00000000000E+00  0.45593999997E+02  0.45594000000E+02  0.51100000000E-03 0. -1.
         11   -1    0    0    0    0 -0.00000000000E+00 -0.00000000000E+00 -0.45593999997E+02  0.45594000000E+02  0.51100000000E-03 0.  1.
         23    2    1    2    0    0  0.00000000000E+00  0.35527136788E-14  0.00000000000E+00  0.91188000000E+02  0.91188000000E+02 0.  0.
    9900012    2    3    3    0    0 -0.22590783127E+02  0.16793885255E+02  0.33034006368E+02  0.47787266815E+02  0.19999980717E+02 0.  0.
        -12    1    3    3    0    0  0.22590783127E+02 -0.16793885255E+02 -0.33034006368E+02  0.43400733185E+02  0.00000000000E+00 0.  1.
         11    1    4    4    0    0 -0.28631187742E+01 -0.26583530698E+01  0.64621751149E+01  0.75514235503E+01  0.51100000000E-03 0. -1.
        -11    1    4    4    0    0 -0.35118431894E+01 -0.39538387860E-02 -0.20486379312E-01  0.35119052056E+01  0.51100000000E-03 0.  1.
         12    1    4    4    0    0 -0.16215821164E+02  0.19456192163E+02  0.26592317632E+02  0.36723938059E+02  0.00000000000E+00 0. -1.
</event>
<event>
 8    1  0.1280823E-010  0.9118800E+02  0.7816164E-02  0.1184000E+00
        -11   -1    0    0    0    0  0.00000000000E+00  0.00000000000E+00  0.45593999997E+02  0.45594000000E+02  0.51100000000E-03 0. -1.
         11   -1    0    0    0    0 -0.00000000000E+00 -0.00000000000E+00 -0.45593999997E+02  0.45594000000E+02  0.51100000000E-03 0.  1.
         23    2    1    2    0    0  0.71054273576E-14  0.00000000000E+00 -0.35527136788E-14  0.91188000000E+02  0.91188000000E+02 0.  0.
    9900012    2    3    3    0    0  0.33554777353E+02 -0.13887786735E+02 -0.23766145663E+02  0.47787269784E+02  0.19999994251E+02 0.  0.
         12    1    3    3    0    0 -0.33554777353E+02  0.13887786735E+02  0.23766145663E+02  0.43400730216E+02  0.00000000000E+00 0. -1.
         11    1    4    4    0    0  0.11770904250E+02 -0.93152042533E+01 -0.11034166984E+02  0.18630084768E+02  0.51100000000E-03 0. -1.
        -11    1    4    4    0    0  0.83941092961E+01 -0.40745285331E+01 -0.12698641317E+02  0.15758119977E+02  0.51100000000E-03 0.  1.
         12    1    4    4    0    0  0.13389763807E+02 -0.49805394903E+00 -0.33337361456E-01  0.13399065039E+02  0.00000000000E+00 0. -1.
</event>
<event>
 8    1  0.1280823E-010  0.9118800E+02  0.7816164E-02  0.1184000E+00
        -11   -1    0    0    0    0  0.00000000000E+00  0.00000000000E+00  0.45593999997E+02  0.45594000000E+02  0.51100000000E-03 0. -1.
         11   -1    0    0    0    0 -0.00000000000E+00 -0.00000000000E+00 -0.45593999997E+02  0.45594000000E+02  0.51100000000E-03 0.  1.
         23    2    1    2    0    0 -0.35527136788E-14  0.00000000000E+00  0.35527136788E-14  0.91188000000E+02  0.91188000000E+02 0.  0.
    9900012    2    3    3    0    0 -0.29887636696E+02  0.52517180490E+01  0.31028567048E+02  0.47787270251E+02  0.19999996380E+02 0.  0.
        -12    1    3    3    0    0  0.29887636696E+02 -0.52517180490E+01 -0.31028567048E+02  0.43400729749E+02  0.00000000000E+00 0.  1.
         11    1    4    4    0    0 -0.78185187353E+01  0.31149971025E+01  0.16126173505E+02  0.18190269771E+02  0.51100000000E-03 0. -1.
        -11    1    4    4    0    0 -0.35491351841E+01 -0.13763962298E+01 -0.19809674731E+01  0.42912771441E+01  0.51100000000E-03 0.  1.
         12    1    4    4    0    0 -0.18519982777E+02  0.35131171763E+01  0.16883361016E+02  0.25305723336E+02  0.00000000000E+00 0. -1.
</event>
<event>
 8    1  0.1280823E-010  0.9118800E+02  0.7816164E-02  0.1184000E+00
        -11   -1    0    0    0    0  0.00000000000E+00  0.00000000000E+00  0.45593999997E+02  0.45594000000E+02  0.51100000000E-03 0. -1.
         11   -1    0    0    0    0 -0.00000000000E+00 -0.00000000000E+00 -0.45593999997E+02  0.45594000000E+02  0.51100000000E-03 0.  1.
         23    2    1    2    0    0  0.00000000000E+00 -0.17763568394E-14  0.00000000000E+00  0.91188000000E+02  0.91188000000E+02 0.  0.
    9900012    2    3    3    0    0 -0.20738222004E+02 -0.11525917674E+02  0.36341466808E+02  0.47787276044E+02  0.20000022796E+02 0.  0.
        -12    1    3    3    0    0  0.20738222004E+02  0.11525917674E+02 -0.36341466808E+02  0.43400723956E+02  0.00000000000E+00 0.  1.
         11    1    4    4    0    0 -0.63035890452E+01 -0.88809115776E+01  0.17174657607E+02  0.20336535828E+02  0.51100000000E-03 0. -1.
        -11    1    4    4    0    0 -0.66057059204E+01 -0.16563976531E+01  0.18283148310E+02  0.19510318200E+02  0.51100000000E-03 0.  1.
        -12    1    4    4    0    0 -0.78289270379E+01 -0.98860844373E+00  0.88366089108E+00  0.79404220159E+01  0.00000000000E+00 0.  1.
</event>
<event>
 8    1  0.1280823E-010  0.9118800E+02  0.7816164E-02  0.1184000E+00
        -11   -1    0    0    0    0  0.00000000000E+00  0.00000000000E+00  0.45593999997E+02  0.45594000000E+02  0.51100000000E-03 0.  1.
         11   -1    0    0    0    0 -0.00000000000E+00 -0.00000000000E+00 -0.45593999997E+02  0.45594000000E+02  0.51100000000E-03 0. -1.
         23    2    1    2    0    0  0.00000000000E+00  0.00000000000E+00  0.00000000000E+00  0.91188000000E+02  0.91188000000E+02 0.  0.
    9900012    2    3    3    0    0 -0.32833242114E+02 -0.24995821726E+02 -0.13446579712E+02  0.47787269620E+02  0.19999993508E+02 0.  0.
         12    1    3    3    0    0  0.32833242114E+02  0.24995821726E+02  0.13446579712E+02  0.43400730380E+02  0.00000000000E+00 0. -1.
         11    1    4    4    0    0 -0.58323279790E+01 -0.13920604323E+01 -0.88421707160E+01  0.10683532428E+02  0.51100000000E-03 0.  1.
        -11    1    4    4    0    0 -0.53008133212E+01 -0.11291922440E+01  0.52234684288E+00  0.54448639539E+01  0.51100000000E-03 0. -1.
        -12    1    4    4    0    0 -0.21700100814E+02 -0.22474569050E+02 -0.51267558393E+01  0.31658873239E+02  0.00000000000E+00 0.  1.
</event>
<event>
 8    1  0.1280823E-010  0.9118800E+02  0.7816164E-02  0.1184000E+00
        -11   -1    0    0    0    0  0.00000000000E+00  0.00000000000E+00  0.45593999997E+02  0.45594000000E+02  0.51100000000E-03 0.  1.
         11   -1    0    0    0    0 -0.00000000000E+00 -0.00000000000E+00 -0.45593999997E+02  0.45594000000E+02  0.51100000000E-03 0. -1.
         23    2    1    2    0    0 -0.71054273576E-14  0.00000000000E+00  0.00000000000E+00  0.91188000000E+02  0.91188000000E+02 0.  0.
    9900012    2    3    3    0    0  0.41515005802E+02  0.65842008430E+01  0.10806297902E+02  0.47787268649E+02  0.19999989078E+02 0.  0.
        -12    1    3    3    0    0 -0.41515005802E+02 -0.65842008430E+01 -0.10806297902E+02  0.43400731351E+02  0.00000000000E+00 0.  1.
         11    1    4    4    0    0  0.32383481847E+02  0.49081489969E+01  0.52534911414E+01  0.33171960939E+02  0.51100000000E-03 0. -1.
        -11    1    4    4    0    0  0.95279492671E+01 -0.14450934947E+01  0.19501922016E+01  0.98322613029E+01  0.51100000000E-03 0.  1.
        -12    1    4    4    0    0 -0.39642531266E+00  0.31211453407E+01  0.36026145591E+01  0.47830464066E+01  0.00000000000E+00 0.  1.
</event>
<event>
 8    1  0.1280823E-010  0.9118800E+02  0.7816164E-02  0.1184000E+00
        -11   -1    0    0    0    0  0.00000000000E+00  0.00000000000E+00  0.45593999997E+02  0.45594000000E+02  0.51100000000E-03 0. -1.
         11   -1    0    0    0    0 -0.00000000000E+00 -0.00000000000E+00 -0.45593999997E+02  0.45594000000E+02  0.51100000000E-03 0.  1.
         23    2    1    2    0    0  0.00000000000E+00 -0.44408920985E-15  0.00000000000E+00  0.91188000000E+02  0.91188000000E+02 0.  0.
    9900012    2    3    3    0    0  0.37019407928E+02  0.34268520651E+01 -0.22392922425E+02  0.47787275892E+02  0.20000022101E+02 0.  0.
         12    1    3    3    0    0 -0.37019407928E+02 -0.34268520651E+01  0.22392922425E+02  0.43400724108E+02  0.00000000000E+00 0. -1.
         11    1    4    4    0    0  0.25647260846E+02  0.73584965843E+01 -0.17298158404E+02  0.31798675213E+02  0.51100000000E-03 0. -1.
        -11    1    4    4    0    0  0.46613748776E+01  0.29658340483E+01 -0.16272952697E+01  0.57595726845E+01  0.51100000000E-03 0.  1.
        -12    1    4    4    0    0  0.67107722039E+01 -0.68974785674E+01 -0.34674687510E+01  0.10229027994E+02  0.00000000000E+00 0.  1.
</event>
<event>
 8    1  0.1280823E-010  0.9118800E+02  0.7816164E-02  0.1184000E+00
        -11   -1    0    0    0    0  0.00000000000E+00  0.00000000000E+00  0.45593999997E+02  0.45594000000E+02  0.51100000000E-03 0. -1.
         11   -1    0    0    0    0 -0.00000000000E+00 -0.00000000000E+00 -0.45593999997E+02  0.45594000000E+02  0.51100000000E-03 0.  1.
         23    2    1    2    0    0  0.17763568394E-14 -0.71054273576E-14 -0.71054273576E-14  0.91188000000E+02  0.91188000000E+02 0.  0.
    9900012    2    3    3    0    0 -0.35093223990E+01  0.31203078243E+02  0.29961260711E+02  0.47787256010E+02  0.19999931450E+02 0.  0.
        -12    1    3    3    0    0  0.35093223990E+01 -0.31203078243E+02 -0.29961260711E+02  0.43400743990E+02  0.00000000000E+00 0.  1.
         11    1    4    4    0    0 -0.47509809332E+01  0.10284539260E+02  0.14701149694E+02  0.18559832171E+02  0.51100000000E-03 0. -1.
        -11    1    4    4    0    0 -0.25688507101E+01 -0.91389631515E+00  0.11831360074E+01  0.29722065067E+01  0.51100000000E-03 0.  1.
         12    1    4    4    0    0  0.38105092443E+01  0.21832435298E+02  0.14076975010E+02  0.26255217332E+02  0.00000000000E+00 0. -1.
</event>
<event>
 8    1  0.1280823E-010  0.9118800E+02  0.7816164E-02  0.1184000E+00
        -11   -1    0    0    0    0  0.00000000000E+00  0.00000000000E+00  0.45593999997E+02  0.45594000000E+02  0.51100000000E-03 0. -1.
         11   -1    0    0    0    0 -0.00000000000E+00 -0.00000000000E+00 -0.45593999997E+02  0.45594000000E+02  0.51100000000E-03 0.  1.
         23    2    1    2    0    0 -0.71054273576E-14  0.00000000000E+00 -0.35527136788E-14  0.91188000000E+02  0.91188000000E+02 0.  0.
    9900012    2    3    3    0    0  0.40107273598E+02  0.11097077247E+01 -0.16546861459E+02  0.47787268775E+02  0.19999989654E+02 0.  0.
         12    1    3    3    0    0 -0.40107273598E+02 -0.11097077247E+01  0.16546861459E+02  0.43400731225E+02  0.00000000000E+00 0. -1.
         11    1    4    4    0    0  0.20115377651E+02 -0.44814202625E+01 -0.29765655824E+01  0.20822379512E+02  0.51100000000E-03 0. -1.
        -11    1    4    4    0    0  0.19188024686E+02  0.16315152829E+01 -0.11033844833E+02  0.22194320569E+02  0.51100000000E-03 0.  1.
         12    1    4    4    0    0  0.80387126126E+00  0.39596127043E+01 -0.25364510430E+01  0.47705686942E+01  0.00000000000E+00 0. -1.
</event>
<event>
 8    1  0.1280823E-010  0.9118800E+02  0.7816164E-02  0.1184000E+00
        -11   -1    0    0    0    0  0.00000000000E+00  0.00000000000E+00  0.45593999997E+02  0.45594000000E+02  0.51100000000E-03 0. -1.
         11   -1    0    0    0    0 -0.00000000000E+00 -0.00000000000E+00 -0.45593999997E+02  0.45594000000E+02  0.51100000000E-03 0.  1.
         23    2    1    2    0    0  0.00000000000E+00  0.44408920985E-15  0.00000000000E+00  0.91188000000E+02  0.91188000000E+02 0.  0.
    9900012    2    3    3    0    0 -0.16589117794E+01  0.25821400827E+01 -0.43292071878E+02  0.47787275084E+02  0.20000018419E+02 0.  0.
         12    1    3    3    0    0  0.16589117794E+01 -0.25821400827E+01  0.43292071878E+02  0.43400724916E+02  0.00000000000E+00 0. -1.
         11    1    4    4    0    0  0.38238352123E+01  0.69102230266E+00 -0.14332454149E+01  0.41416687740E+01  0.51100000000E-03 0. -1.
        -11    1    4    4    0    0 -0.21681445052E+01  0.14825586002E+01 -0.39426894418E+02  0.39514286458E+02  0.51100000000E-03 0.  1.
         12    1    4    4    0    0 -0.33146024865E+01  0.40855917989E+00 -0.24319320456E+01  0.41313198522E+01  0.00000000000E+00 0. -1.
</event>
<event>
 8    1  0.1280823E-010  0.9118800E+02  0.7816164E-02  0.1184000E+00
        -11   -1    0    0    0    0  0.00000000000E+00  0.00000000000E+00  0.45593999997E+02  0.45594000000E+02  0.51100000000E-03 0. -1.
         11   -1    0    0    0    0 -0.00000000000E+00 -0.00000000000E+00 -0.45593999997E+02  0.45594000000E+02  0.51100000000E-03 0.  1.
         23    2    1    2    0    0  0.36082248300E-15  0.35527136788E-14 -0.71054273576E-14  0.91188000000E+02  0.91188000000E+02 0.  0.
    9900012    2    3    3    0    0 -0.16123658456E+00 -0.25595307221E+02  0.35049644458E+02  0.47787270449E+02  0.19999997284E+02 0.  0.
        -12    1    3    3    0    0  0.16123658456E+00  0.25595307221E+02 -0.35049644458E+02  0.43400729551E+02  0.00000000000E+00 0.  1.
         11    1    4    4    0    0  0.14405415029E+01  0.57898820842E+00  0.50656779857E+01  0.52982526254E+01  0.51100000000E-03 0. -1.
        -11    1    4    4    0    0 -0.65060085422E+01 -0.13645692612E+02  0.22460465817E+02  0.27074076143E+02  0.51100000000E-03 0.  1.
         12    1    4    4    0    0  0.49042304547E+01 -0.12528602817E+02  0.75235006547E+01  0.15414941680E+02  0.00000000000E+00 0. -1.
</event>
<event>
 8    1  0.1280823E-010  0.9118800E+02  0.7816164E-02  0.1184000E+00
        -11   -1    0    0    0    0  0.00000000000E+00  0.00000000000E+00  0.45593999997E+02  0.45594000000E+02  0.51100000000E-03 0. -1.
         11   -1    0    0    0    0 -0.00000000000E+00 -0.00000000000E+00 -0.45593999997E+02  0.45594000000E+02  0.51100000000E-03 0.  1.
         23    2    1    2    0    0  0.00000000000E+00  0.00000000000E+00 -0.17763568394E-14  0.91188000000E+02  0.91188000000E+02 0.  0.
    9900012    2    3    3    0    0 -0.36108269758E+02 -0.20104612796E+02  0.13252201804E+02  0.47787268978E+02  0.19999990578E+02 0.  0.
        -12    1    3    3    0    0  0.36108269758E+02  0.20104612796E+02 -0.13252201804E+02  0.43400731022E+02  0.00000000000E+00 0.  1.
         11    1    4    4    0    0 -0.26162290785E+01 -0.43520799666E+01  0.41888253723E+00  0.50951660884E+01  0.51100000000E-03 0. -1.
        -11    1    4    4    0    0 -0.23968967277E+02 -0.93669354766E+01  0.16599696109E+02  0.30623533169E+02  0.51100000000E-03 0.  1.
        -12    1    4    4    0    0 -0.95230734023E+01 -0.63855973532E+01 -0.37663768427E+01  0.12068569721E+02  0.00000000000E+00 0.  1.
</event>
<event>
 8    1  0.1280823E-010  0.9118800E+02  0.7816164E-02  0.1184000E+00
        -11   -1    0    0    0    0  0.00000000000E+00  0.00000000000E+00  0.45593999997E+02  0.45594000000E+02  0.51100000000E-03 0. -1.
         11   -1    0    0    0    0 -0.00000000000E+00 -0.00000000000E+00 -0.45593999997E+02  0.45594000000E+02  0.51100000000E-03 0.  1.
         23    2    1    2    0    0  0.00000000000E+00 -0.88817841970E-15 -0.44408920985E-15  0.91188000000E+02  0.91188000000E+02 0.  0.
    9900012    2    3    3    0    0  0.43093652149E+02  0.42600334634E+01  0.29005807915E+01  0.47787261416E+02  0.19999956101E+02 0.  0.
         12    1    3    3    0    0 -0.43093652149E+02 -0.42600334634E+01 -0.29005807915E+01  0.43400738584E+02  0.00000000000E+00 0. -1.
         11    1    4    4    0    0  0.93643024772E+01 -0.95884866526E+00  0.20701328779E+01  0.96382053329E+01  0.51100000000E-03 0. -1.
        -11    1    4    4    0    0  0.19657112909E+02  0.92044843781E+01 -0.52150274888E+01  0.22323107592E+02  0.51100000000E-03 0.  1.
         12    1    4    4    0    0  0.14072236763E+02 -0.39856022495E+01  0.60454754024E+01  0.15825948491E+02  0.00000000000E+00 0. -1.
</event>
<event>
 8    1  0.1280823E-010  0.9118800E+02  0.7816164E-02  0.1184000E+00
        -11   -1    0    0    0    0  0.00000000000E+00  0.00000000000E+00  0.45593999997E+02  0.45594000000E+02  0.51100000000E-03 0. -1.
         11   -1    0    0    0    0 -0.00000000000E+00 -0.00000000000E+00 -0.45593999997E+02  0.45594000000E+02  0.51100000000E-03 0.  1.
         23    2    1    2    0    0 -0.35527136788E-14 -0.35527136788E-14  0.35527136788E-14  0.91188000000E+02  0.91188000000E+02 0.  0.
    9900012    2    3    3    0    0 -0.25499127707E+02  0.24600861545E+02 -0.25064217648E+02  0.47787275249E+02  0.20000019172E+02 0.  0.
         12    1    3    3    0    0  0.25499127707E+02 -0.24600861545E+02  0.25064217648E+02  0.43400724751E+02  0.00000000000E+00 0. -1.
         11    1    4    4    0    0 -0.66320676482E+01  0.87846337054E+01 -0.91991174725E+01  0.14344959852E+02  0.51100000000E-03 0. -1.
        -11    1    4    4    0    0 -0.18023180202E+02  0.18503407437E+02 -0.16370006893E+02  0.30580847557E+02  0.51100000000E-03 0.  1.
         12    1    4    4    0    0 -0.84387985691E+00 -0.26871795980E+01  0.50490671729E+00  0.28614678397E+01  0.00000000000E+00 0. -1.
</event>
<event>
 8    1  0.1280823E-010  0.9118800E+02  0.7816164E-02  0.1184000E+00
        -11   -1    0    0    0    0  0.00000000000E+00  0.00000000000E+00  0.45593999997E+02  0.45594000000E+02  0.51100000000E-03 0. -1.
         11   -1    0    0    0    0 -0.00000000000E+00 -0.00000000000E+00 -0.45593999997E+02  0.45594000000E+02  0.51100000000E-03 0.  1.
         23    2    1    2    0    0  0.00000000000E+00  0.00000000000E+00  0.00000000000E+00  0.91188000000E+02  0.91188000000E+02 0.  0.
    9900012    2    3    3    0    0 -0.12123257587E+02 -0.15157891170E+02  0.38818658064E+02  0.47787271283E+02  0.20000001089E+02 0.  0.
        -12    1    3    3    0    0  0.12123257587E+02  0.15157891170E+02 -0.38818658064E+02  0.43400728717E+02  0.00000000000E+00 0.  1.
         11    1    4    4    0    0  0.31258267254E+01 -0.89771772126E+01  0.11533712444E+02  0.14946137508E+02  0.51100000000E-03 0. -1.
        -11    1    4    4    0    0 -0.56115614915E+00  0.15251851252E+01  0.17154049381E+01  0.23629854533E+01  0.51100000000E-03 0.  1.
        -12    1    4    4    0    0 -0.14687928163E+02 -0.77058990829E+01  0.25569540682E+02  0.30478148322E+02  0.00000000000E+00 0.  1.
</event>
<event>
 8    1  0.1280823E-010  0.9118800E+02  0.7816164E-02  0.1184000E+00
        -11   -1    0    0    0    0  0.00000000000E+00  0.00000000000E+00  0.45593999997E+02  0.45594000000E+02  0.51100000000E-03 0. -1.
         11   -1    0    0    0    0 -0.00000000000E+00 -0.00000000000E+00 -0.45593999997E+02  0.45594000000E+02  0.51100000000E-03 0.  1.
         23    2    1    2    0    0  0.00000000000E+00  0.11102230246E-15 -0.71054273576E-14  0.91188000000E+02  0.91188000000E+02 0.  0.
    9900012    2    3    3    0    0  0.10212839788E+02 -0.96765326131E+00  0.42170900841E+02  0.47787270432E+02  0.19999997206E+02 0.  0.
        -12    1    3    3    0    0 -0.10212839788E+02  0.96765326131E+00 -0.42170900841E+02  0.43400729568E+02  0.00000000000E+00 0.  1.
         11    1    4    4    0    0 -0.40030052964E+01  0.13047264321E+01  0.20716572544E+02  0.21140074284E+02  0.51100000000E-03 0. -1.
        -11    1    4    4    0    0 -0.68327446468E+00  0.17016115564E+00  0.10555759336E+01  0.12688812496E+01  0.51100000000E-03 0.  1.
         12    1    4    4    0    0  0.14899119549E+02 -0.24425408490E+01  0.20398752363E+02  0.25378314898E+02  0.00000000000E+00 0. -1.
</event>
<event>
 8    1  0.1280823E-010  0.9118800E+02  0.7816164E-02  0.1184000E+00
        -11   -1    0    0    0    0  0.00000000000E+00  0.00000000000E+00  0.45593999997E+02  0.45594000000E+02  0.51100000000E-03 0. -1.
         11   -1    0    0    0    0 -0.00000000000E+00 -0.00000000000E+00 -0.45593999997E+02  0.45594000000E+02  0.51100000000E-03 0.  1.
         23    2    1    2    0    0  0.38857805862E-15 -0.88817841970E-15  0.00000000000E+00  0.91188000000E+02  0.91188000000E+02 0.  0.
    9900012    2    3    3    0    0  0.42864323747E+00 -0.55868190836E+01  0.43037501278E+02  0.47787276518E+02  0.20000024957E+02 0.  0.
        -12    1    3    3    0    0 -0.42864323747E+00  0.55868190836E+01 -0.43037501278E+02  0.43400723482E+02  0.00000000000E+00 0.  1.
         11    1    4    4    0    0 -0.48176463237E+01 -0.23649111176E+01  0.69271957756E+01  0.87629083225E+01  0.51100000000E-03 0. -1.
        -11    1    4    4    0    0 -0.22516382500E+01 -0.30071898873E+01  0.23285636493E+01  0.44198727083E+01  0.51100000000E-03 0.  1.
        -12    1    4    4    0    0  0.74979278112E+01 -0.21471807866E+00  0.33781741853E+02  0.34604495487E+02  0.00000000000E+00 0.  1.
</event>
<event>
 8    1  0.1280823E-010  0.9118800E+02  0.7816164E-02  0.1184000E+00
        -11   -1    0    0    0    0  0.00000000000E+00  0.00000000000E+00  0.45593999997E+02  0.45594000000E+02  0.51100000000E-03 0. -1.
         11   -1    0    0    0    0 -0.00000000000E+00 -0.00000000000E+00 -0.45593999997E+02  0.45594000000E+02  0.51100000000E-03 0.  1.
         23    2    1    2    0    0  0.00000000000E+00 -0.17763568394E-14 -0.71054273576E-14  0.91188000000E+02  0.91188000000E+02 0.  0.
    9900012    2    3    3    0    0  0.17011962813E+02  0.12645932580E+02  0.37872096450E+02  0.47787283657E+02  0.20000057508E+02 0.  0.
        -12    1    3    3    0    0 -0.17011962813E+02 -0.12645932580E+02 -0.37872096450E+02  0.43400716343E+02  0.00000000000E+00 0.  1.
         11    1    4    4    0    0  0.56344207279E+01 -0.77724216829E+00  0.93252790366E+01  0.10922986391E+02  0.51100000000E-03 0. -1.
        -11    1    4    4    0    0  0.15100481495E+02  0.11214622909E+02  0.24889185426E+02  0.31197177113E+02  0.51100000000E-03 0.  1.
        -12    1    4    4    0    0 -0.37229394106E+01  0.22085518386E+01  0.36576319867E+01  0.56671201531E+01  0.00000000000E+00 0.  1.
</event>
<event>
 8    1  0.1280823E-010  0.9118800E+02  0.7816164E-02  0.1184000E+00
        -11   -1    0    0    0    0  0.00000000000E+00  0.00000000000E+00  0.45593999997E+02  0.45594000000E+02  0.51100000000E-03 0. -1.
         11   -1    0    0    0    0 -0.00000000000E+00 -0.00000000000E+00 -0.45593999997E+02  0.45594000000E+02  0.51100000000E-03 0.  1.
         23    2    1    2    0    0  0.00000000000E+00  0.00000000000E+00  0.00000000000E+00  0.91188000000E+02  0.91188000000E+02 0.  0.
    9900012    2    3    3    0    0 -0.12579862856E+02 -0.22159071347E+02 -0.35133261571E+02  0.47787268888E+02  0.19999990169E+02 0.  0.
         12    1    3    3    0    0  0.12579862856E+02  0.22159071347E+02  0.35133261571E+02  0.43400731112E+02  0.00000000000E+00 0. -1.
         11    1    4    4    0    0  0.24527584775E+00 -0.10285922881E+02 -0.68112647373E+01  0.12339112502E+02  0.51100000000E-03 0. -1.
        -11    1    4    4    0    0 -0.24412528979E+01 -0.87356727842E+01 -0.67636063219E+01  0.11314506858E+02  0.51100000000E-03 0.  1.
        -12    1    4    4    0    0 -0.10383885806E+02 -0.31374756811E+01 -0.21558390512E+02  0.24133649528E+02  0.00000000000E+00 0.  1.
</event>
<event>
 8    1  0.1280823E-010  0.9118800E+02  0.7816164E-02  0.1184000E+00
        -11   -1    0    0    0    0  0.00000000000E+00  0.00000000000E+00  0.45593999997E+02  0.45594000000E+02  0.51100000000E-03 0. -1.
         11   -1    0    0    0    0 -0.00000000000E+00 -0.00000000000E+00 -0.45593999997E+02  0.45594000000E+02  0.51100000000E-03 0.  1.
         23    2    1    2    0    0 -0.88817841970E-15  0.00000000000E+00  0.00000000000E+00  0.91188000000E+02  0.91188000000E+02 0.  0.
    9900012    2    3    3    0    0 -0.67960393599E+01  0.52129577246E+01  0.42547183211E+02  0.47787264080E+02  0.19999968245E+02 0.  0.
        -12    1    3    3    0    0  0.67960393599E+01 -0.52129577246E+01 -0.42547183211E+02  0.43400735920E+02  0.00000000000E+00 0.  1.
         11    1    4    4    0    0 -0.48969796535E+01  0.23426382078E+01  0.79217028211E+01  0.96032150526E+01  0.51100000000E-03 0. -1.
        -11    1    4    4    0    0 -0.37867232594E+01  0.78416256713E+01  0.29647796004E+02  0.30900196996E+02  0.51100000000E-03 0.  1.
        -12    1    4    4    0    0  0.18876635530E+01 -0.49713061544E+01  0.49776843858E+01  0.72838520314E+01  0.00000000000E+00 0.  1.
</event>
<event>
 8    1  0.1280823E-010  0.9118800E+02  0.7816164E-02  0.1184000E+00
        -11   -1    0    0    0    0  0.00000000000E+00  0.00000000000E+00  0.45593999997E+02  0.45594000000E+02  0.51100000000E-03 0. -1.
         11   -1    0    0    0    0 -0.00000000000E+00 -0.00000000000E+00 -0.45593999997E+02  0.45594000000E+02  0.51100000000E-03 0.  1.
         23    2    1    2    0    0  0.00000000000E+00  0.00000000000E+00  0.44408920985E-15  0.91188000000E+02  0.91188000000E+02 0.  0.
    9900012    2    3    3    0    0  0.38672663307E+02  0.19517484881E+02  0.26677110940E+01  0.47787265147E+02  0.19999973111E+02 0.  0.
         12    1    3    3    0    0 -0.38672663307E+02 -0.19517484881E+02 -0.26677110940E+01  0.43400734853E+02  0.00000000000E+00 0. -1.
         11    1    4    4    0    0  0.11234497497E+02  0.46615975691E+01 -0.68510236174E+01  0.13959976747E+02  0.51100000000E-03 0. -1.
        -11    1    4    4    0    0  0.18027667677E+01  0.42893268845E+01  0.55007825376E+00  0.46851765694E+01  0.51100000000E-03 0.  1.
        -12    1    4    4    0    0  0.25635399042E+02  0.10566560427E+02  0.89686564576E+01  0.29142111831E+02  0.00000000000E+00 0.  1.
</event>
<event>
 8    1  0.1280823E-010  0.9118800E+02  0.7816164E-02  0.1184000E+00
        -11   -1    0    0    0    0  0.00000000000E+00  0.00000000000E+00  0.45593999997E+02  0.45594000000E+02  0.51100000000E-03 0. -1.
         11   -1    0    0    0    0 -0.00000000000E+00 -0.00000000000E+00 -0.45593999997E+02  0.45594000000E+02  0.51100000000E-03 0.  1.
         23    2    1    2    0    0  0.17763568394E-14  0.00000000000E+00 -0.71054273576E-14  0.91188000000E+02  0.91188000000E+02 0.  0.
    9900012    2    3    3    0    0  0.12776689028E+02 -0.24281889973E+02 -0.33626912198E+02  0.47787272044E+02  0.20000004556E+02 0.  0.
         12    1    3    3    0    0 -0.12776689028E+02  0.24281889973E+02  0.33626912198E+02  0.43400727956E+02  0.00000000000E+00 0. -1.
         11    1    4    4    0    0  0.96895992197E+01 -0.23963913747E+01 -0.95623177864E+01  0.13822769128E+02  0.51100000000E-03 0. -1.
        -11    1    4    4    0    0 -0.92149598811E+00 -0.11273513309E+02 -0.64723257440E+01  0.13031970610E+02  0.51100000000E-03 0.  1.
        -12    1    4    4    0    0  0.40085857967E+01 -0.10611985290E+02 -0.17592268667E+02  0.20932532306E+02  0.00000000000E+00 0.  1.
</event>
<event>
 8    1  0.1280823E-010  0.9118800E+02  0.7816164E-02  0.1184000E+00
        -11   -1    0    0    0    0  0.00000000000E+00  0.00000000000E+00  0.45593999997E+02  0.45594000000E+02  0.51100000000E-03 0. -1.
         11   -1    0    0    0    0 -0.00000000000E+00 -0.00000000000E+00 -0.45593999997E+02  0.45594000000E+02  0.51100000000E-03 0.  1.
         23    2    1    2    0    0 -0.11102230246E-15  0.00000000000E+00  0.71054273576E-14  0.91188000000E+02  0.91188000000E+02 0.  0.
    9900012    2    3    3    0    0 -0.93532870039E+00 -0.14369888016E+02 -0.40942087522E+02  0.47787273600E+02  0.20000011651E+02 0.  0.
         12    1    3    3    0    0  0.93532870039E+00  0.14369888016E+02  0.40942087522E+02  0.43400726400E+02  0.00000000000E+00 0. -1.
         11    1    4    4    0    0 -0.32404305204E+01 -0.64283629973E+00 -0.45256216205E+01  0.56031134005E+01  0.51100000000E-03 0. -1.
        -11    1    4    4    0    0  0.24600793710E+01 -0.15927390987E+02 -0.36579441937E+02  0.39972357284E+02  0.51100000000E-03 0.  1.
        -12    1    4    4    0    0 -0.15497755102E+00  0.22003392709E+01  0.16297603488E+00  0.22118029153E+01  0.00000000000E+00 0.  1.
</event>
<event>
 8    1  0.1280823E-010  0.9118800E+02  0.7816164E-02  0.1184000E+00
        -11   -1    0    0    0    0  0.00000000000E+00  0.00000000000E+00  0.45593999997E+02  0.45594000000E+02  0.51100000000E-03 0. -1.
         11   -1    0    0    0    0 -0.00000000000E+00 -0.00000000000E+00 -0.45593999997E+02  0.45594000000E+02  0.51100000000E-03 0.  1.
         23    2    1    2    0    0 -0.88817841970E-15 -0.44408920985E-15 -0.71054273576E-14  0.91188000000E+02  0.91188000000E+02 0.  0.
    9900012    2    3    3    0    0  0.63738908635E+01 -0.27645181928E+01  0.42841038613E+02  0.47787266884E+02  0.19999981032E+02 0.  0.
        -12    1    3    3    0    0 -0.63738908635E+01  0.27645181928E+01 -0.42841038613E+02  0.43400733116E+02  0.00000000000E+00 0.  1.
         11    1    4    4    0    0  0.28001959528E+01 -0.20797576018E-01  0.82501579446E+00  0.29192775194E+01  0.51100000000E-03 0. -1.
        -11    1    4    4    0    0  0.43999092963E+01 -0.86578891099E+01  0.24112244929E+02  0.25994587926E+02  0.51100000000E-03 0.  1.
         12    1    4    4    0    0 -0.82621438557E+00  0.59141684931E+01  0.17903777889E+02  0.18873401439E+02  0.00000000000E+00 0. -1.
</event>
<event>
 8    1  0.1280823E-010  0.9118800E+02  0.7816164E-02  0.1184000E+00
        -11   -1    0    0    0    0  0.00000000000E+00  0.00000000000E+00  0.45593999997E+02  0.45594000000E+02  0.51100000000E-03 0. -1.
         11   -1    0    0    0    0 -0.00000000000E+00 -0.00000000000E+00 -0.45593999997E+02  0.45594000000E+02  0.51100000000E-03 0.  1.
         23    2    1    2    0    0  0.00000000000E+00  0.00000000000E+00  0.00000000000E+00  0.91188000000E+02  0.91188000000E+02 0.  0.
    9900012    2    3    3    0    0  0.37407417129E+02 -0.16236224238E+02  0.14855757179E+02  0.47787270109E+02  0.19999995734E+02 0.  0.
         12    1    3    3    0    0 -0.37407417129E+02  0.16236224238E+02 -0.14855757179E+02  0.43400729891E+02  0.00000000000E+00 0. -1.
         11    1    4    4    0    0  0.12007257325E+02 -0.87145255466E+01  0.92737329033E+01  0.17496265493E+02  0.51100000000E-03 0. -1.
        -11    1    4    4    0    0  0.15057498561E+02 -0.10623640047E+02  0.70116719501E+00  0.18441302190E+02  0.51100000000E-03 0.  1.
         12    1    4    4    0    0  0.10342661242E+02  0.31019413553E+01  0.48808570804E+01  0.11849702426E+02  0.00000000000E+00 0. -1.
</event>
<event>
 8    1  0.1280823E-010  0.9118800E+02  0.7816164E-02  0.1184000E+00
        -11   -1    0    0    0    0  0.00000000000E+00  0.00000000000E+00  0.45593999997E+02  0.45594000000E+02  0.51100000000E-03 0. -1.
         11   -1    0    0    0    0 -0.00000000000E+00 -0.00000000000E+00 -0.45593999997E+02  0.45594000000E+02  0.51100000000E-03 0.  1.
         23    2    1    2    0    0  0.00000000000E+00  0.88817841970E-15  0.00000000000E+00  0.91188000000E+02  0.91188000000E+02 0.  0.
    9900012    2    3    3    0    0 -0.25537373269E+02 -0.69449247003E+01  0.34398166047E+02  0.47787271435E+02  0.20000001781E+02 0.  0.
        -12    1    3    3    0    0  0.25537373269E+02  0.69449247003E+01 -0.34398166047E+02  0.43400728565E+02  0.00000000000E+00 0.  1.
         11    1    4    4    0    0 -0.46144034751E+01 -0.86425823863E+01  0.10756945045E+02  0.14549873426E+02  0.51100000000E-03 0. -1.
        -11    1    4    4    0    0 -0.42131151964E+01 -0.36718604295E+01  0.38593059769E+01  0.67916965153E+01  0.51100000000E-03 0.  1.
        -12    1    4    4    0    0 -0.16709854597E+02  0.53695181154E+01  0.19781915025E+02  0.26445701494E+02  0.00000000000E+00 0.  1.
</event>
<event>
 8    1  0.1280823E-010  0.9118800E+02  0.7816164E-02  0.1184000E+00
        -11   -1    0    0    0    0  0.00000000000E+00  0.00000000000E+00  0.45593999997E+02  0.45594000000E+02  0.51100000000E-03 0. -1.
         11   -1    0    0    0    0 -0.00000000000E+00 -0.00000000000E+00 -0.45593999997E+02  0.45594000000E+02  0.51100000000E-03 0.  1.
         23    2    1    2    0    0  0.00000000000E+00  0.00000000000E+00 -0.35527136788E-14  0.91188000000E+02  0.91188000000E+02 0.  0.
    9900012    2    3    3    0    0  0.27927856788E+02 -0.91016141920E+01 -0.31950247328E+02  0.47787275698E+02  0.20000021216E+02 0.  0.
         12    1    3    3    0    0 -0.27927856788E+02  0.91016141920E+01  0.31950247328E+02  0.43400724302E+02  0.00000000000E+00 0. -1.
         11    1    4    4    0    0  0.18297342293E+02 -0.10036250006E+02 -0.14952503676E+02  0.25672873147E+02  0.51100000000E-03 0. -1.
        -11    1    4    4    0    0  0.10681940645E+02  0.63551523337E+00 -0.17792774602E+02  0.20762720531E+02  0.51100000000E-03 0.  1.
        -12    1    4    4    0    0 -0.10514261505E+01  0.29912058059E+00  0.79503094972E+00  0.13516820198E+01  0.00000000000E+00 0.  1.
</event>
<event>
 8    1  0.1280823E-010  0.9118800E+02  0.7816164E-02  0.1184000E+00
        -11   -1    0    0    0    0  0.00000000000E+00  0.00000000000E+00  0.45593999997E+02  0.45594000000E+02  0.51100000000E-03 0. -1.
         11   -1    0    0    0    0 -0.00000000000E+00 -0.00000000000E+00 -0.45593999997E+02  0.45594000000E+02  0.51100000000E-03 0.  1.
         23    2    1    2    0    0  0.00000000000E+00  0.00000000000E+00  0.00000000000E+00  0.91188000000E+02  0.91188000000E+02 0.  0.
    9900012    2    3    3    0    0 -0.34954549037E+02 -0.28600664638E+01  0.25566039777E+02  0.47787275716E+02  0.20000021298E+02 0.  0.
        -12    1    3    3    0    0  0.34954549037E+02  0.28600664638E+01 -0.25566039777E+02  0.43400724284E+02  0.00000000000E+00 0.  1.
         11    1    4    4    0    0 -0.11619391535E+02 -0.34627647544E+01  0.69980657706E+01  0.13999068689E+02  0.51100000000E-03 0. -1.
        -11    1    4    4    0    0 -0.67662443665E+01 -0.72189264935E+01  0.60344471045E+01  0.11589198189E+02  0.51100000000E-03 0.  1.
         12    1    4    4    0    0 -0.16568913135E+02  0.78216247842E+01  0.12533526902E+02  0.22199008837E+02  0.00000000000E+00 0. -1.
</event>
<event>
 8    1  0.1280823E-010  0.9118800E+02  0.7816164E-02  0.1184000E+00
        -11   -1    0    0    0    0  0.00000000000E+00  0.00000000000E+00  0.45593999997E+02  0.45594000000E+02  0.51100000000E-03 0. -1.
         11   -1    0    0    0    0 -0.00000000000E+00 -0.00000000000E+00 -0.45593999997E+02  0.45594000000E+02  0.51100000000E-03 0.  1.
         23    2    1    2    0    0  0.00000000000E+00  0.35527136788E-14  0.00000000000E+00  0.91188000000E+02  0.91188000000E+02 0.  0.
    9900012    2    3    3    0    0  0.32601383333E+02 -0.23485488236E+02 -0.16407474641E+02  0.47787267552E+02  0.19999984076E+02 0.  0.
         12    1    3    3    0    0 -0.32601383333E+02  0.23485488236E+02  0.16407474641E+02  0.43400732448E+02  0.00000000000E+00 0. -1.
         11    1    4    4    0    0 -0.44953828698E+00 -0.69897032101E+00 -0.19087473159E+01  0.20818166966E+01  0.51100000000E-03 0. -1.
        -11    1    4    4    0    0  0.55030201697E+01 -0.10017724020E+02 -0.96475988290E+01  0.14957078223E+02  0.51100000000E-03 0.  1.
        -12    1    4    4    0    0  0.27547901451E+02 -0.12768793895E+02 -0.48511284963E+01  0.30748372633E+02  0.00000000000E+00 0.  1.
</event>
<event>
 8    1  0.1280823E-010  0.9118800E+02  0.7816164E-02  0.1184000E+00
        -11   -1    0    0    0    0  0.00000000000E+00  0.00000000000E+00  0.45593999997E+02  0.45594000000E+02  0.51100000000E-03 0. -1.
         11   -1    0    0    0    0 -0.00000000000E+00 -0.00000000000E+00 -0.45593999997E+02  0.45594000000E+02  0.51100000000E-03 0.  1.
         23    2    1    2    0    0  0.88817841970E-15  0.00000000000E+00  0.00000000000E+00  0.91188000000E+02  0.91188000000E+02 0.  0.
    9900012    2    3    3    0    0  0.53011174925E+01  0.20192167222E+02 -0.38049937552E+02  0.47787271763E+02  0.20000003275E+02 0.  0.
         12    1    3    3    0    0 -0.53011174925E+01 -0.20192167222E+02  0.38049937552E+02  0.43400728237E+02  0.00000000000E+00 0. -1.
         11    1    4    4    0    0 -0.52278336615E+01  0.69173734130E+00 -0.35382017270E+01  0.63504029056E+01  0.51100000000E-03 0. -1.
        -11    1    4    4    0    0  0.25152725340E+01  0.14463674173E+01 -0.69186874050E+01  0.75024536183E+01  0.51100000000E-03 0.  1.
        -12    1    4    4    0    0  0.80136786200E+01  0.18054062464E+02 -0.27593048420E+02  0.33934415239E+02  0.00000000000E+00 0.  1.
</event>
<event>
 8    1  0.1280823E-010  0.9118800E+02  0.7816164E-02  0.1184000E+00
        -11   -1    0    0    0    0  0.00000000000E+00  0.00000000000E+00  0.45593999997E+02  0.45594000000E+02  0.51100000000E-03 0. -1.
         11   -1    0    0    0    0 -0.00000000000E+00 -0.00000000000E+00 -0.45593999997E+02  0.45594000000E+02  0.51100000000E-03 0.  1.
         23    2    1    2    0    0  0.00000000000E+00  0.00000000000E+00  0.00000000000E+00  0.91188000000E+02  0.91188000000E+02 0.  0.
    9900012    2    3    3    0    0 -0.20020261009E+02  0.34721017363E+02 -0.16651226104E+02  0.47787271569E+02  0.20000002392E+02 0.  0.
         12    1    3    3    0    0  0.20020261009E+02 -0.34721017363E+02  0.16651226104E+02  0.43400728431E+02  0.00000000000E+00 0. -1.
         11    1    4    4    0    0 -0.37255231302E+01  0.88665397005E+01 -0.83747200104E+01  0.12752685379E+02  0.51100000000E-03 0. -1.
        -11    1    4    4    0    0 -0.14504967319E+02  0.24951061610E+02 -0.11639313572E+02  0.31119498278E+02  0.51100000000E-03 0.  1.
         12    1    4    4    0    0 -0.17897705595E+01  0.90341605243E+00  0.33628074788E+01  0.39150879121E+01  0.00000000000E+00 0. -1.
</event>
<event>
 8    1  0.1280823E-010  0.9118800E+02  0.7816164E-02  0.1184000E+00
        -11   -1    0    0    0    0  0.00000000000E+00  0.00000000000E+00  0.45593999997E+02  0.45594000000E+02  0.51100000000E-03 0. -1.
         11   -1    0    0    0    0 -0.00000000000E+00 -0.00000000000E+00 -0.45593999997E+02  0.45594000000E+02  0.51100000000E-03 0.  1.
         23    2    1    2    0    0  0.00000000000E+00 -0.35527136788E-14  0.35527136788E-14  0.91188000000E+02  0.91188000000E+02 0.  0.
    9900012    2    3    3    0    0 -0.23992728604E+02 -0.28040751591E+02  0.22840468586E+02  0.47787288245E+02  0.20000078423E+02 0.  0.
        -12    1    3    3    0    0  0.23992728604E+02  0.28040751591E+02 -0.22840468586E+02  0.43400711755E+02  0.00000000000E+00 0.  1.
         11    1    4    4    0    0 -0.80928126016E+01 -0.23092287611E+01  0.23205616018E+01  0.87299003250E+01  0.51100000000E-03 0. -1.
        -11    1    4    4    0    0 -0.43535035330E+00  0.15927013520E+01  0.21080377840E+00  0.16645317723E+01  0.51100000000E-03 0.  1.
         12    1    4    4    0    0 -0.15464565649E+02 -0.27324224182E+02  0.20309103206E+02  0.37392856147E+02  0.00000000000E+00 0. -1.
</event>
<event>
 8    1  0.1280823E-010  0.9118800E+02  0.7816164E-02  0.1184000E+00
        -11   -1    0    0    0    0  0.00000000000E+00  0.00000000000E+00  0.45593999997E+02  0.45594000000E+02  0.51100000000E-03 0. -1.
         11   -1    0    0    0    0 -0.00000000000E+00 -0.00000000000E+00 -0.45593999997E+02  0.45594000000E+02  0.51100000000E-03 0.  1.
         23    2    1    2    0    0 -0.17763568394E-14  0.35527136788E-14  0.00000000000E+00  0.91188000000E+02  0.91188000000E+02 0.  0.
    9900012    2    3    3    0    0 -0.13274993063E+02  0.30099465363E+02 -0.28309358697E+02  0.47787273672E+02  0.20000011980E+02 0.  0.
         12    1    3    3    0    0  0.13274993063E+02 -0.30099465363E+02  0.28309358697E+02  0.43400726328E+02  0.00000000000E+00 0. -1.
         11    1    4    4    0    0 -0.75246287710E+01  0.16939554078E+02 -0.88870398096E+01  0.20555972547E+02  0.51100000000E-03 0. -1.
        -11    1    4    4    0    0 -0.35214137500E+01  0.14660125361E+02 -0.11789111019E+02  0.19139037836E+02  0.51100000000E-03 0.  1.
         12    1    4    4    0    0 -0.22289505418E+01 -0.15002140756E+01 -0.76332078684E+01  0.80922632899E+01  0.00000000000E+00 0. -1.
</event>
<event>
 8    1  0.1280823E-010  0.9118800E+02  0.7816164E-02  0.1184000E+00
        -11   -1    0    0    0    0  0.00000000000E+00  0.00000000000E+00  0.45593999997E+02  0.45594000000E+02  0.51100000000E-03 0. -1.
         11   -1    0    0    0    0 -0.00000000000E+00 -0.00000000000E+00 -0.45593999997E+02  0.45594000000E+02  0.51100000000E-03 0.  1.
         23    2    1    2    0    0  0.00000000000E+00  0.00000000000E+00  0.00000000000E+00  0.91188000000E+02  0.91188000000E+02 0.  0.
    9900012    2    3    3    0    0 -0.21073156363E+02 -0.94726773480E+01  0.36739811621E+02  0.47787270822E+02  0.19999998987E+02 0.  0.
        -12    1    3    3    0    0  0.21073156363E+02  0.94726773480E+01 -0.36739811621E+02  0.43400729178E+02  0.00000000000E+00 0.  1.
         11    1    4    4    0    0 -0.13194126003E+01 -0.24770723370E+01 -0.28280407444E-01  0.28066950342E+01  0.51100000000E-03 0. -1.
        -11    1    4    4    0    0  0.13778721580E+00 -0.24595651652E+01 -0.48112381859E+00  0.25099654398E+01  0.51100000000E-03 0.  1.
         12    1    4    4    0    0 -0.19891530979E+02 -0.45360398458E+01  0.37249215847E+02  0.42470610348E+02  0.00000000000E+00 0. -1.
</event>
<event>
 8    1  0.1280823E-010  0.9118800E+02  0.7816164E-02  0.1184000E+00
        -11   -1    0    0    0    0  0.00000000000E+00  0.00000000000E+00  0.45593999997E+02  0.45594000000E+02  0.51100000000E-03 0. -1.
         11   -1    0    0    0    0 -0.00000000000E+00 -0.00000000000E+00 -0.45593999997E+02  0.45594000000E+02  0.51100000000E-03 0.  1.
         23    2    1    2    0    0  0.35527136788E-14 -0.35527136788E-14  0.35527136788E-14  0.91188000000E+02  0.91188000000E+02 0.  0.
    9900012    2    3    3    0    0 -0.27299563078E+02  0.25538658104E+02 -0.22048450001E+02  0.47787270174E+02  0.19999996030E+02 0.  0.
        -12    1    3    3    0    0  0.27299563078E+02 -0.25538658104E+02  0.22048450001E+02  0.43400729826E+02  0.00000000000E+00 0.  1.
         11    1    4    4    0    0 -0.89068950378E+01  0.14659607615E+02 -0.58052790238E+01  0.18109062357E+02  0.51100000000E-03 0. -1.
        -11    1    4    4    0    0 -0.15944568345E+02  0.13658306047E+02 -0.14873502840E+02  0.25729354263E+02  0.51100000000E-03 0.  1.
         12    1    4    4    0    0 -0.24480996947E+01 -0.27792555591E+01 -0.13696681374E+01  0.39488535532E+01  0.00000000000E+00 0. -1.
</event>
<event>
 8    1  0.1280823E-010  0.9118800E+02  0.7816164E-02  0.1184000E+00
        -11   -1    0    0    0    0  0.00000000000E+00  0.00000000000E+00  0.45593999997E+02  0.45594000000E+02  0.51100000000E-03 0. -1.
         11   -1    0    0    0    0 -0.00000000000E+00 -0.00000000000E+00 -0.45593999997E+02  0.45594000000E+02  0.51100000000E-03 0.  1.
         23    2    1    2    0    0  0.35527136788E-14  0.17763568394E-14  0.71054273576E-14  0.91188000000E+02  0.91188000000E+02 0.  0.
    9900012    2    3    3    0    0  0.23569177341E+02  0.12149961946E+02  0.34358337537E+02  0.47787273576E+02  0.20000011542E+02 0.  0.
        -12    1    3    3    0    0 -0.23569177341E+02 -0.12149961946E+02 -0.34358337537E+02  0.43400726424E+02  0.00000000000E+00 0.  1.
         11    1    4    4    0    0  0.53235193420E+01  0.34328007128E+01  0.17212346371E+01  0.65640405129E+01  0.51100000000E-03 0. -1.
        -11    1    4    4    0    0  0.76398725842E+01  0.91954327376E+00  0.21103253620E+01  0.79791407012E+01  0.51100000000E-03 0.  1.
         12    1    4    4    0    0  0.10605785415E+02  0.77976179591E+01  0.30526777538E+02  0.33244092362E+02  0.00000000000E+00 0. -1.
</event>
<event>
 8    1  0.1280823E-010  0.9118800E+02  0.7816164E-02  0.1184000E+00
        -11   -1    0    0    0    0  0.00000000000E+00  0.00000000000E+00  0.45593999997E+02  0.45594000000E+02  0.51100000000E-03 0.  1.
         11   -1    0    0    0    0 -0.00000000000E+00 -0.00000000000E+00 -0.45593999997E+02  0.45594000000E+02  0.51100000000E-03 0. -1.
         23    2    1    2    0    0  0.00000000000E+00  0.35527136788E-14  0.00000000000E+00  0.91188000000E+02  0.91188000000E+02 0.  0.
    9900012    2    3    3    0    0 -0.20632120290E+02 -0.21837835562E+02  0.31321681436E+02  0.47787272153E+02  0.20000005054E+02 0.  0.
        -12    1    3    3    0    0  0.20632120290E+02  0.21837835562E+02 -0.31321681436E+02  0.43400727847E+02  0.00000000000E+00 0.  1.
         11    1    4    4    0    0 -0.18979318578E+02 -0.18110329036E+02  0.27261430432E+02  0.37833637691E+02  0.51100000000E-03 0. -1.
        -11    1    4    4    0    0 -0.28533769805E+01  0.58162691718E+00  0.46037979034E+01  0.54474769812E+01  0.51100000000E-03 0.  1.
         12    1    4    4    0    0  0.12005752690E+01 -0.43091334433E+01 -0.54354689956E+00  0.45061574807E+01  0.00000000000E+00 0. -1.
</event>
<event>
 8    1  0.1280823E-010  0.9118800E+02  0.7816164E-02  0.1184000E+00
        -11   -1    0    0    0    0  0.00000000000E+00  0.00000000000E+00  0.45593999997E+02  0.45594000000E+02  0.51100000000E-03 0. -1.
         11   -1    0    0    0    0 -0.00000000000E+00 -0.00000000000E+00 -0.45593999997E+02  0.45594000000E+02  0.51100000000E-03 0.  1.
         23    2    1    2    0    0 -0.22204460493E-15  0.00000000000E+00  0.17763568394E-14  0.91188000000E+02  0.91188000000E+02 0.  0.
    9900012    2    3    3    0    0 -0.67098079416E+00  0.41857682216E+02 -0.11450232999E+02  0.47787267156E+02  0.19999982270E+02 0.  0.
         12    1    3    3    0    0  0.67098079416E+00 -0.41857682216E+02  0.11450232999E+02  0.43400732844E+02  0.00000000000E+00 0. -1.
         11    1    4    4    0    0 -0.53655586026E+01  0.89559059193E+01  0.34779213178E+01  0.11004244949E+02  0.51100000000E-03 0. -1.
        -11    1    4    4    0    0  0.66844593825E+00  0.27676497279E+00 -0.13796965852E+00  0.73651524786E+00  0.51100000000E-03 0.  1.
        -12    1    4    4    0    0  0.40261318702E+01  0.32625011324E+02 -0.14790184658E+02  0.36046506958E+02  0.00000000000E+00 0.  1.
</event>
