<event>
 7    1  0.2746803E-013  0.5052887E+02  0.7816164E-02  0.1300439E+00
        -11   -1    0    0    0    0  0.00000000000E+00  0.00000000000E+00  0.45593999997E+02  0.45594000000E+02  0.51100000000E-03 0.  1.
         11   -1    0    0    0    0 -0.00000000000E+00 -0.00000000000E+00 -0.45593999997E+02  0.45594000000E+02  0.51100000000E-03 0. -1.
    9900012    2    1    2    0    0  0.93979849490E+01  0.35198300420E+02  0.18053326068E+02  0.50528867500E+02  0.30000023252E+02 0.  0.
         12    1    1    2    0    0 -0.93979849490E+01 -0.35198300420E+02 -0.18053326068E+02  0.40659132500E+02  0.00000000000E+00 0. -1.
         11    1    3    3    0    0  0.40448412087E+01 -0.25746761830E+01  0.44903858637E+01  0.65691143480E+01  0.51100000000E-03 0. -1.
        -11    1    3    3    0    0 -0.60223869135E+01  0.12223090738E+02  0.23473456023E+01  0.13826898530E+02  0.51100000000E-03 0.  1.
         12    1    3    3    0    0  0.11375530654E+02  0.25549885865E+02  0.11215594602E+02  0.30132854621E+02  0.00000000000E+00 0. -1.
</event>
<event>
 7    1  0.2746803E-013  0.5052886E+02  0.7816164E-02  0.1300439E+00
        -11   -1    0    0    0    0  0.00000000000E+00  0.00000000000E+00  0.45593999997E+02  0.45594000000E+02  0.51100000000E-03 0.  1.
         11   -1    0    0    0    0 -0.00000000000E+00 -0.00000000000E+00 -0.45593999997E+02  0.45594000000E+02  0.51100000000E-03 0. -1.
    9900012    2    1    2    0    0  0.22969418443E+02 -0.20596589933E+02  0.26483052030E+02  0.50528859019E+02  0.29999997475E+02 0.  0.
         12    1    1    2    0    0 -0.22969418443E+02  0.20596589933E+02 -0.26483052030E+02  0.40659140981E+02  0.00000000000E+00 0. -1.
         11    1    3    3    0    0 -0.25574356688E+01  0.15611300223E+01  0.13449047175E+01  0.32842614248E+01  0.51100000000E-03 0. -1.
        -11    1    3    3    0    0  0.12266642719E+02 -0.13026546748E+02  0.60869603528E+00  0.17903406237E+02  0.51100000000E-03 0.  1.
         12    1    3    3    0    0  0.13260211393E+02 -0.91311732082E+01  0.24529451277E+02  0.29341191357E+02  0.00000000000E+00 0. -1.
</event>
<event>
 7    1  0.2746803E-013  0.5052887E+02  0.7816164E-02  0.1300439E+00
        -11   -1    0    0    0    0  0.00000000000E+00  0.00000000000E+00  0.45593999997E+02  0.45594000000E+02  0.51100000000E-03 0.  1.
         11   -1    0    0    0    0 -0.00000000000E+00 -0.00000000000E+00 -0.45593999997E+02  0.45594000000E+02  0.51100000000E-03 0. -1.
    9900012    2    1    2    0    0  0.75497621073E+01 -0.38795627487E+02  0.95428284748E+01  0.50528865783E+02  0.30000018033E+02 0.  0.
         12    1    1    2    0    0 -0.75497621073E+01  0.38795627487E+02 -0.95428284748E+01  0.40659134217E+02  0.00000000000E+00 0. -1.
         11    1    3    3    0    0  0.65165011584E+01 -0.16274993584E+02  0.95262124569E+01  0.19952165986E+02  0.51100000000E-03 0. -1.
        -11    1    3    3    0    0 -0.59583196237E+01 -0.15507617038E+02  0.74376981377E+01  0.18201843664E+02  0.51100000000E-03 0.  1.
         12    1    3    3    0    0  0.69915805725E+01 -0.70130168654E+01 -0.74210821198E+01  0.12374856132E+02  0.00000000000E+00 0. -1.
</event>
<event>
 7    1  0.2746803E-013  0.5052886E+02  0.7816164E-02  0.1300439E+00
        -11   -1    0    0    0    0  0.00000000000E+00  0.00000000000E+00  0.45593999997E+02  0.45594000000E+02  0.51100000000E-03 0.  1.
         11   -1    0    0    0    0 -0.00000000000E+00 -0.00000000000E+00 -0.45593999997E+02  0.45594000000E+02  0.51100000000E-03 0. -1.
    9900012    2    1    2    0    0  0.39552460591E+02 -0.44644900230E+01  0.82967753623E+01  0.50528864601E+02  0.30000014441E+02 0.  0.
         12    1    1    2    0    0 -0.39552460591E+02  0.44644900230E+01 -0.82967753623E+01  0.40659135399E+02  0.00000000000E+00 0. -1.
         11    1    3    3    0    0 -0.16633057465E+01  0.13949247720E+01  0.42307044105E+01  0.47551299873E+01  0.51100000000E-03 0. -1.
        -11    1    3    3    0    0  0.24984913729E+02 -0.10230366178E+02  0.86512349287E+01  0.28350488042E+02  0.51100000000E-03 0.  1.
        -12    1    3    3    0    0  0.16230852609E+02  0.43709513830E+01 -0.45851639768E+01  0.17423246572E+02  0.00000000000E+00 0.  1.
</event>
<event>
 7    1  0.2746803E-013  0.5052885E+02  0.7816164E-02  0.1300439E+00
        -11   -1    0    0    0    0  0.00000000000E+00  0.00000000000E+00  0.45593999997E+02  0.45594000000E+02  0.51100000000E-03 0.  1.
         11   -1    0    0    0    0 -0.00000000000E+00 -0.00000000000E+00 -0.45593999997E+02  0.45594000000E+02  0.51100000000E-03 0. -1.
    9900012    2    1    2    0    0  0.29978404286E+02 -0.70877107913E+01  0.26537252104E+02  0.50528854448E+02  0.29999983581E+02 0.  0.
         12    1    1    2    0    0 -0.29978404286E+02  0.70877107913E+01 -0.26537252104E+02  0.40659145552E+02  0.00000000000E+00 0. -1.
         11    1    3    3    0    0  0.22347303360E+02 -0.11259036740E+02  0.73912784936E+01  0.26092122830E+02  0.51100000000E-03 0. -1.
        -11    1    3    3    0    0 -0.32803753610E+01  0.25272052245E+01  0.48462198711E+01  0.63744392739E+01  0.51100000000E-03 0.  1.
        -12    1    3    3    0    0  0.10911476287E+02  0.16441207245E+01  0.14299753739E+02  0.18062292344E+02  0.00000000000E+00 0.  1.
</event>
<event>
 7    1  0.2746803E-013  0.5052886E+02  0.7816164E-02  0.1300439E+00
        -11   -1    0    0    0    0  0.00000000000E+00  0.00000000000E+00  0.45593999997E+02  0.45594000000E+02  0.51100000000E-03 0.  1.
         11   -1    0    0    0    0 -0.00000000000E+00 -0.00000000000E+00 -0.45593999997E+02  0.45594000000E+02  0.51100000000E-03 0. -1.
    9900012    2    1    2    0    0 -0.67908582974E+01  0.39248079328E+02  0.81632179335E+01  0.50528860629E+02  0.30000002368E+02 0.  0.
         12    1    1    2    0    0  0.67908582974E+01 -0.39248079328E+02 -0.81632179335E+01  0.40659139371E+02  0.00000000000E+00 0. -1.
         11    1    3    3    0    0  0.35790922678E+01 -0.19838362191E+01 -0.12207256138E+01  0.42703253847E+01  0.51100000000E-03 0. -1.
        -11    1    3    3    0    0 -0.86754586372E+01  0.77703503071E+01  0.40589426267E+01  0.12333569717E+02  0.51100000000E-03 0.  1.
        -12    1    3    3    0    0 -0.16944919280E+01  0.33461565240E+02  0.53250009207E+01  0.33924965527E+02  0.00000000000E+00 0.  1.
</event>
<event>
 7    1  0.2746803E-013  0.5052886E+02  0.7816164E-02  0.1300439E+00
        -11   -1    0    0    0    0  0.00000000000E+00  0.00000000000E+00  0.45593999997E+02  0.45594000000E+02  0.51100000000E-03 0.  1.
         11   -1    0    0    0    0 -0.00000000000E+00 -0.00000000000E+00 -0.45593999997E+02  0.45594000000E+02  0.51100000000E-03 0. -1.
    9900012    2    1    2    0    0  0.97565084504E+01 -0.37774001680E+02  0.11449927768E+02  0.50528861963E+02  0.30000006422E+02 0.  0.
         12    1    1    2    0    0 -0.97565084504E+01  0.37774001680E+02 -0.11449927768E+02  0.40659138037E+02  0.00000000000E+00 0. -1.
         11    1    3    3    0    0  0.22758310824E+01 -0.17260591939E+01 -0.37568430378E+01  0.47193810323E+01  0.51100000000E-03 0. -1.
        -11    1    3    3    0    0 -0.70057374499E+00 -0.26964374714E+02  0.89626765301E+00  0.26988360514E+02  0.51100000000E-03 0.  1.
         12    1    3    3    0    0  0.81812511130E+01 -0.90835677721E+01  0.14310503153E+02  0.18821120416E+02  0.00000000000E+00 0. -1.
</event>
<event>
 7    1  0.2746803E-013  0.5052886E+02  0.7816164E-02  0.1300439E+00
        -11   -1    0    0    0    0  0.00000000000E+00  0.00000000000E+00  0.45593999997E+02  0.45594000000E+02  0.51100000000E-03 0. -1.
         11   -1    0    0    0    0 -0.00000000000E+00 -0.00000000000E+00 -0.45593999997E+02  0.45594000000E+02  0.51100000000E-03 0.  1.
    9900012    2    1    2    0    0 -0.40625509434E+02  0.88495945920E+00 -0.13967066414E+01  0.50528856386E+02  0.29999989470E+02 0.  0.
         12    1    1    2    0    0  0.40625509434E+02 -0.88495945920E+00  0.13967066414E+01  0.40659143614E+02  0.00000000000E+00 0. -1.
         11    1    3    3    0    0 -0.99369759389E+01 -0.54867882347E+00 -0.94432924700E+01  0.13719340808E+02  0.51100000000E-03 0. -1.
        -11    1    3    3    0    0 -0.97063716333E+01  0.65517781440E+01  0.96194093985E+01  0.15154949177E+02  0.51100000000E-03 0.  1.
         12    1    3    3    0    0 -0.20982161862E+02 -0.51181398613E+01 -0.15728235699E+01  0.21654566401E+02  0.00000000000E+00 0. -1.
</event>
<event>
 7    1  0.2746803E-013  0.5052886E+02  0.7816164E-02  0.1300439E+00
        -11   -1    0    0    0    0  0.00000000000E+00  0.00000000000E+00  0.45593999997E+02  0.45594000000E+02  0.51100000000E-03 0.  1.
         11   -1    0    0    0    0 -0.00000000000E+00 -0.00000000000E+00 -0.45593999997E+02  0.45594000000E+02  0.51100000000E-03 0. -1.
    9900012    2    1    2    0    0  0.17884911507E+02  0.26751310628E+02  0.24852834101E+02  0.50528855361E+02  0.29999986355E+02 0.  0.
         12    1    1    2    0    0 -0.17884911507E+02 -0.26751310628E+02 -0.24852834101E+02  0.40659144639E+02  0.00000000000E+00 0. -1.
         11    1    3    3    0    0  0.13361681097E+02  0.43292333128E+01  0.12514552771E+02  0.18811985917E+02  0.51100000000E-03 0. -1.
        -11    1    3    3    0    0 -0.26283883217E+01  0.10603729209E+02  0.14050025614E+02  0.17797491911E+02  0.51100000000E-03 0.  1.
         12    1    3    3    0    0  0.71516187314E+01  0.11818348106E+02 -0.17117442831E+01  0.13919377534E+02  0.00000000000E+00 0. -1.
</event>
<event>
 7    1  0.2746803E-013  0.5052886E+02  0.7816164E-02  0.1300439E+00
        -11   -1    0    0    0    0  0.00000000000E+00  0.00000000000E+00  0.45593999997E+02  0.45594000000E+02  0.51100000000E-03 0. -1.
         11   -1    0    0    0    0 -0.00000000000E+00 -0.00000000000E+00 -0.45593999997E+02  0.45594000000E+02  0.51100000000E-03 0.  1.
    9900012    2    1    2    0    0 -0.28570319865E+02 -0.19579224003E+02 -0.21296870329E+02  0.50528857417E+02  0.29999992605E+02 0.  0.
         12    1    1    2    0    0  0.28570319865E+02  0.19579224003E+02  0.21296870329E+02  0.40659142583E+02  0.00000000000E+00 0. -1.
         11    1    3    3    0    0 -0.91396059193E+01 -0.17106778109E+02 -0.12023897633E+02  0.22819911660E+02  0.51100000000E-03 0. -1.
        -11    1    3    3    0    0 -0.86620717024E+01 -0.23201112948E+01 -0.13443517903E+02  0.16159906450E+02  0.51100000000E-03 0.  1.
        -12    1    3    3    0    0 -0.10768642244E+02 -0.15233459887E+00  0.41705452064E+01  0.11549039307E+02  0.00000000000E+00 0.  1.
</event>
<event>
 7    1  0.2746803E-013  0.5052884E+02  0.7816164E-02  0.1300439E+00
        -11   -1    0    0    0    0  0.00000000000E+00  0.00000000000E+00  0.45593999997E+02  0.45594000000E+02  0.51100000000E-03 0.  1.
         11   -1    0    0    0    0 -0.00000000000E+00 -0.00000000000E+00 -0.45593999997E+02  0.45594000000E+02  0.51100000000E-03 0. -1.
    9900012    2    1    2    0    0 -0.19919984980E+01 -0.24415484880E+02  0.32451248578E+02  0.50528837513E+02  0.29999932104E+02 0.  0.
         12    1    1    2    0    0  0.19919984980E+01  0.24415484880E+02 -0.32451248578E+02  0.40659162487E+02  0.00000000000E+00 0. -1.
         11    1    3    3    0    0  0.48696957170E+01 -0.78967283476E+01  0.14270814525E+02  0.17021410119E+02  0.51100000000E-03 0.  1.
        -11    1    3    3    0    0  0.21364947706E+01 -0.91601519320E+01 -0.25455470344E+01  0.97443729037E+01  0.51100000000E-03 0. -1.
         12    1    3    3    0    0 -0.89981889856E+01 -0.73586045999E+01  0.20725981087E+02  0.23763054490E+02  0.00000000000E+00 0. -1.
</event>
<event>
 7    1  0.2746803E-013  0.5052886E+02  0.7816164E-02  0.1300439E+00
        -11   -1    0    0    0    0  0.00000000000E+00  0.00000000000E+00  0.45593999997E+02  0.45594000000E+02  0.51100000000E-03 0.  1.
         11   -1    0    0    0    0 -0.00000000000E+00 -0.00000000000E+00 -0.45593999997E+02  0.45594000000E+02  0.51100000000E-03 0. -1.
    9900012    2    1    2    0    0 -0.37253808250E+02  0.16207679323E+02 -0.16218794469E+01  0.50528860916E+02  0.30000003239E+02 0.  0.
         12    1    1    2    0    0  0.37253808250E+02 -0.16207679323E+02  0.16218794469E+01  0.40659139084E+02  0.00000000000E+00 0. -1.
         11    1    3    3    0    0  0.42779904101E+01  0.28615303644E+01 -0.80679166153E+00  0.52096517178E+01  0.51100000000E-03 0. -1.
        -11    1    3    3    0    0 -0.57912691313E+01 -0.21043661111E+01  0.14010092574E+01  0.63190174933E+01  0.51100000000E-03 0.  1.
        -12    1    3    3    0    0 -0.35740529528E+02  0.15450515070E+02 -0.22160970428E+01  0.39000191705E+02  0.00000000000E+00 0.  1.
</event>
<event>
 7    1  0.2746803E-013  0.5052886E+02  0.7816164E-02  0.1300439E+00
        -11   -1    0    0    0    0  0.00000000000E+00  0.00000000000E+00  0.45593999997E+02  0.45594000000E+02  0.51100000000E-03 0.  1.
         11   -1    0    0    0    0 -0.00000000000E+00 -0.00000000000E+00 -0.45593999997E+02  0.45594000000E+02  0.51100000000E-03 0. -1.
    9900012    2    1    2    0    0  0.30899287666E+02 -0.45036977529E+01  0.26040667254E+02  0.50528860526E+02  0.30000002054E+02 0.  0.
         12    1    1    2    0    0 -0.30899287666E+02  0.45036977529E+01 -0.26040667254E+02  0.40659139474E+02  0.00000000000E+00 0. -1.
         11    1    3    3    0    0  0.32553687268E+01 -0.94719149249E+01  0.26782185572E+01  0.10367615579E+02  0.51100000000E-03 0. -1.
        -11    1    3    3    0    0  0.65342384316E+01  0.74056734008E+01  0.13518727777E+02  0.16742050991E+02  0.51100000000E-03 0.  1.
        -12    1    3    3    0    0  0.21109680508E+02 -0.24374562288E+01  0.98437209199E+01  0.23419193956E+02  0.00000000000E+00 0.  1.
</event>
<event>
 7    1  0.2746803E-013  0.5052884E+02  0.7816164E-02  0.1300439E+00
        -11   -1    0    0    0    0  0.00000000000E+00  0.00000000000E+00  0.45593999997E+02  0.45594000000E+02  0.51100000000E-03 0.  1.
         11   -1    0    0    0    0 -0.00000000000E+00 -0.00000000000E+00 -0.45593999997E+02  0.45594000000E+02  0.51100000000E-03 0. -1.
    9900012    2    1    2    0    0  0.17941784277E+02  0.15532335381E+02  0.33015247854E+02  0.50528835519E+02  0.29999926044E+02 0.  0.
         12    1    1    2    0    0 -0.17941784277E+02 -0.15532335381E+02 -0.33015247854E+02  0.40659164481E+02  0.00000000000E+00 0. -1.
         11    1    3    3    0    0  0.57696435194E+00 -0.24244897512E+01  0.91372319800E-01  0.24938700004E+01  0.51100000000E-03 0. -1.
        -11    1    3    3    0    0  0.17702284533E+02  0.14628926095E+01  0.21879442054E+02  0.28181925366E+02  0.51100000000E-03 0.  1.
        -12    1    3    3    0    0 -0.33746460793E+00  0.16493932522E+02  0.11044433480E+02  0.19853040153E+02  0.00000000000E+00 0.  1.
</event>
<event>
 7    1  0.2746803E-013  0.5052886E+02  0.7816164E-02  0.1300439E+00
        -11   -1    0    0    0    0  0.00000000000E+00  0.00000000000E+00  0.45593999997E+02  0.45594000000E+02  0.51100000000E-03 0.  1.
         11   -1    0    0    0    0 -0.00000000000E+00 -0.00000000000E+00 -0.45593999997E+02  0.45594000000E+02  0.51100000000E-03 0. -1.
    9900012    2    1    2    0    0 -0.22206888204E+02 -0.32308610918E+02  0.10778390338E+02  0.50528856853E+02  0.29999990890E+02 0.  0.
         12    1    1    2    0    0  0.22206888204E+02  0.32308610918E+02 -0.10778390338E+02  0.40659143147E+02  0.00000000000E+00 0. -1.
         11    1    3    3    0    0  0.45544883051E+01 -0.79091713064E+01  0.42565127524E+00  0.91367135089E+01  0.51100000000E-03 0. -1.
        -11    1    3    3    0    0 -0.11067818542E+02 -0.21790343776E+01  0.85024210989E+01  0.14125719908E+02  0.51100000000E-03 0.  1.
         12    1    3    3    0    0 -0.15693557967E+02 -0.22220405234E+02  0.18503179634E+01  0.27266423436E+02  0.00000000000E+00 0. -1.
</event>
<event>
 7    1  0.2746803E-013  0.5052886E+02  0.7816164E-02  0.1300439E+00
        -11   -1    0    0    0    0  0.00000000000E+00  0.00000000000E+00  0.45593999997E+02  0.45594000000E+02  0.51100000000E-03 0. -1.
         11   -1    0    0    0    0 -0.00000000000E+00 -0.00000000000E+00 -0.45593999997E+02  0.45594000000E+02  0.51100000000E-03 0.  1.
    9900012    2    1    2    0    0  0.30743932232E+02 -0.21556545206E+02 -0.15597817603E+02  0.50528856818E+02  0.29999990784E+02 0.  0.
         12    1    1    2    0    0 -0.30743932232E+02  0.21556545206E+02  0.15597817603E+02  0.40659143182E+02  0.00000000000E+00 0. -1.
         11    1    3    3    0    0  0.62607806386E+01 -0.16782000207E+02 -0.10638353354E+02  0.20832845881E+02  0.51100000000E-03 0. -1.
        -11    1    3    3    0    0  0.40962163557E+00 -0.34078950574E+01 -0.43957778581E+01  0.55771320449E+01  0.51100000000E-03 0.  1.
         12    1    3    3    0    0  0.24073529958E+02 -0.13666499418E+01 -0.56368639138E+00  0.24118878893E+02  0.00000000000E+00 0. -1.
</event>
<event>
 7    1  0.2746803E-013  0.5052886E+02  0.7816164E-02  0.1300439E+00
        -11   -1    0    0    0    0  0.00000000000E+00  0.00000000000E+00  0.45593999997E+02  0.45594000000E+02  0.51100000000E-03 0. -1.
         11   -1    0    0    0    0 -0.00000000000E+00 -0.00000000000E+00 -0.45593999997E+02  0.45594000000E+02  0.51100000000E-03 0.  1.
    9900012    2    1    2    0    0  0.23026118159E+01  0.32611704220E+02 -0.24173130932E+02  0.50528861637E+02  0.30000005433E+02 0.  0.
         12    1    1    2    0    0 -0.23026118159E+01 -0.32611704220E+02  0.24173130932E+02  0.40659138363E+02  0.00000000000E+00 0. -1.
         11    1    3    3    0    0 -0.42602225338E+01  0.33741250653E+02 -0.23874871188E+02  0.41552749201E+02  0.51100000000E-03 0.  1.
        -11    1    3    3    0    0  0.18655047532E+01  0.14630264000E+01  0.20359989229E+01  0.31250353768E+01  0.51100000000E-03 0. -1.
        -12    1    3    3    0    0  0.46973295965E+01 -0.25925728328E+01 -0.23342586673E+01  0.58510770596E+01  0.00000000000E+00 0.  1.
</event>
<event>
 7    1  0.2746803E-013  0.5052886E+02  0.7816164E-02  0.1300439E+00
        -11   -1    0    0    0    0  0.00000000000E+00  0.00000000000E+00  0.45593999997E+02  0.45594000000E+02  0.51100000000E-03 0. -1.
         11   -1    0    0    0    0 -0.00000000000E+00 -0.00000000000E+00 -0.45593999997E+02  0.45594000000E+02  0.51100000000E-03 0.  1.
    9900012    2    1    2    0    0 -0.10839864208E+02 -0.34282754603E+02 -0.18983037055E+02  0.50528860621E+02  0.30000002344E+02 0.  0.
         12    1    1    2    0    0  0.10839864208E+02  0.34282754603E+02  0.18983037055E+02  0.40659139379E+02  0.00000000000E+00 0. -1.
         11    1    3    3    0    0  0.79969503338E+00 -0.20052120262E+01 -0.12303981793E+02  0.12491931621E+02  0.51100000000E-03 0. -1.
        -11    1    3    3    0    0 -0.55774822246E+01 -0.10197492958E+02 -0.94403978165E+01  0.14973920054E+02  0.51100000000E-03 0.  1.
         12    1    3    3    0    0 -0.60620770170E+01 -0.22080049619E+02  0.27613425545E+01  0.23063008946E+02  0.00000000000E+00 0. -1.
</event>
<event>
 7    1  0.2746803E-013  0.5052887E+02  0.7816164E-02  0.1300439E+00
        -11   -1    0    0    0    0  0.00000000000E+00  0.00000000000E+00  0.45593999997E+02  0.45594000000E+02  0.51100000000E-03 0.  1.
         11   -1    0    0    0    0 -0.00000000000E+00 -0.00000000000E+00 -0.45593999997E+02  0.45594000000E+02  0.51100000000E-03 0. -1.
    9900012    2    1    2    0    0 -0.33227802010E+02  0.22240315559E+01 -0.23326632543E+02  0.50528869063E+02  0.30000028003E+02 0.  0.
         12    1    1    2    0    0  0.33227802010E+02 -0.22240315559E+01  0.23326632543E+02  0.40659130937E+02  0.00000000000E+00 0. -1.
         11    1    3    3    0    0 -0.97563898172E+01 -0.32715808003E+01 -0.22810023348E+01  0.10540083259E+02  0.51100000000E-03 0. -1.
        -11    1    3    3    0    0  0.18994821400E+01  0.98708583672E+00  0.36923304060E+01  0.42679825372E+01  0.51100000000E-03 0.  1.
        -12    1    3    3    0    0 -0.25370894333E+02  0.45085265195E+01 -0.24737960614E+02  0.35720803266E+02  0.00000000000E+00 0.  1.
</event>
<event>
 7    1  0.2746803E-013  0.5052887E+02  0.7816164E-02  0.1300439E+00
        -11   -1    0    0    0    0  0.00000000000E+00  0.00000000000E+00  0.45593999997E+02  0.45594000000E+02  0.51100000000E-03 0.  1.
         11   -1    0    0    0    0 -0.00000000000E+00 -0.00000000000E+00 -0.45593999997E+02  0.45594000000E+02  0.51100000000E-03 0. -1.
    9900012    2    1    2    0    0  0.30408362165E+01 -0.92408451616E+01  0.39478160775E+02  0.50528867172E+02  0.30000022255E+02 0.  0.
         12    1    1    2    0    0 -0.30408362165E+01  0.92408451616E+01 -0.39478160775E+02  0.40659132828E+02  0.00000000000E+00 0. -1.
         11    1    3    3    0    0 -0.16614682697E+01 -0.50205200963E+01 -0.22125741139E+01  0.57325023610E+01  0.51100000000E-03 0. -1.
        -11    1    3    3    0    0  0.64656405651E+01 -0.18458511398E+01  0.60867313002E+01  0.90697283603E+01  0.51100000000E-03 0.  1.
        -12    1    3    3    0    0 -0.17633360790E+01 -0.23744739255E+01  0.35604003588E+02  0.35726636451E+02  0.00000000000E+00 0.  1.
</event>
<event>
 7    1  0.2746803E-013  0.5052886E+02  0.7816164E-02  0.1300439E+00
        -11   -1    0    0    0    0  0.00000000000E+00  0.00000000000E+00  0.45593999997E+02  0.45594000000E+02  0.51100000000E-03 0.  1.
         11   -1    0    0    0    0 -0.00000000000E+00 -0.00000000000E+00 -0.45593999997E+02  0.45594000000E+02  0.51100000000E-03 0. -1.
    9900012    2    1    2    0    0 -0.25924868089E+02  0.11055721943E+02  0.29305940253E+02  0.50528857028E+02  0.29999991421E+02 0.  0.
         12    1    1    2    0    0  0.25924868089E+02 -0.11055721943E+02 -0.29305940253E+02  0.40659142972E+02  0.00000000000E+00 0. -1.
         11    1    3    3    0    0 -0.42127800173E+01 -0.17926032383E+01  0.70906233345E+01  0.84402536323E+01  0.51100000000E-03 0. -1.
        -11    1    3    3    0    0  0.51866714055E+01  0.53897042357E+01  0.72470492815E+01  0.10414902571E+02  0.51100000000E-03 0.  1.
        -12    1    3    3    0    0 -0.26898759478E+02  0.74586209453E+01  0.14968267637E+02  0.31673700824E+02  0.00000000000E+00 0.  1.
</event>
<event>
 7    1  0.2746803E-013  0.5052884E+02  0.7816164E-02  0.1300439E+00
        -11   -1    0    0    0    0  0.00000000000E+00  0.00000000000E+00  0.45593999997E+02  0.45594000000E+02  0.51100000000E-03 0. -1.
         11   -1    0    0    0    0 -0.00000000000E+00 -0.00000000000E+00 -0.45593999997E+02  0.45594000000E+02  0.51100000000E-03 0.  1.
    9900012    2    1    2    0    0  0.16045934950E+01 -0.35216307530E+02 -0.20258439875E+02  0.50528838394E+02  0.29999934783E+02 0.  0.
         12    1    1    2    0    0 -0.16045934950E+01  0.35216307530E+02  0.20258439875E+02  0.40659161606E+02  0.00000000000E+00 0. -1.
         11    1    3    3    0    0 -0.54868151258E+01 -0.23274252098E+01 -0.71654644916E+01  0.93201893744E+01  0.51100000000E-03 0. -1.
        -11    1    3    3    0    0  0.10103642421E+02 -0.13816769987E+02 -0.13648408796E+02  0.21892139822E+02  0.51100000000E-03 0.  1.
        -12    1    3    3    0    0 -0.30122338002E+01 -0.19072112333E+02  0.55543341330E+00  0.19316509198E+02  0.00000000000E+00 0.  1.
</event>
<event>
 7    1  0.2746803E-013  0.5052890E+02  0.7816164E-02  0.1300439E+00
        -11   -1    0    0    0    0  0.00000000000E+00  0.00000000000E+00  0.45593999997E+02  0.45594000000E+02  0.51100000000E-03 0. -1.
         11   -1    0    0    0    0 -0.00000000000E+00 -0.00000000000E+00 -0.45593999997E+02  0.45594000000E+02  0.51100000000E-03 0.  1.
    9900012    2    1    2    0    0 -0.30074249142E+02  0.10307406415E+02 -0.25346782952E+02  0.50528898996E+02  0.30000118988E+02 0.  0.
         12    1    1    2    0    0  0.30074249142E+02 -0.10307406415E+02  0.25346782952E+02  0.40659101004E+02  0.00000000000E+00 0. -1.
         11    1    3    3    0    0 -0.98912858724E+01  0.10907166049E+02 -0.23919631295E+02  0.28088299503E+02  0.51100000000E-03 0. -1.
        -11    1    3    3    0    0 -0.50635793727E+01  0.27666853284E+01 -0.35973813989E+01  0.67996718273E+01  0.51100000000E-03 0.  1.
        -12    1    3    3    0    0 -0.15119383897E+02 -0.33664449627E+01  0.21702297420E+01  0.15640927665E+02  0.00000000000E+00 0.  1.
</event>
<event>
 7    1  0.2746803E-013  0.5052890E+02  0.7816164E-02  0.1300439E+00
        -11   -1    0    0    0    0  0.00000000000E+00  0.00000000000E+00  0.45593999997E+02  0.45594000000E+02  0.51100000000E-03 0.  1.
         11   -1    0    0    0    0 -0.00000000000E+00 -0.00000000000E+00 -0.45593999997E+02  0.45594000000E+02  0.51100000000E-03 0. -1.
    9900012    2    1    2    0    0  0.40444360527E+01 -0.14605194622E+02  0.37729206556E+02  0.50528902613E+02  0.30000129983E+02 0.  0.
         12    1    1    2    0    0 -0.40444360527E+01  0.14605194622E+02 -0.37729206556E+02  0.40659097387E+02  0.00000000000E+00 0. -1.
         11    1    3    3    0    0 -0.10971158220E+01 -0.12273956915E+02  0.15905100490E+02  0.20120285866E+02  0.51100000000E-03 0.  1.
        -11    1    3    3    0    0 -0.54552906213E+01  0.24129483049E+01  0.16670995115E+02  0.17706060931E+02  0.51100000000E-03 0. -1.
         12    1    3    3    0    0  0.10596842496E+02 -0.47441860120E+01  0.51531109510E+01  0.12702555817E+02  0.00000000000E+00 0. -1.
</event>
<event>
 7    1  0.2746803E-013  0.5052886E+02  0.7816164E-02  0.1300439E+00
        -11   -1    0    0    0    0  0.00000000000E+00  0.00000000000E+00  0.45593999997E+02  0.45594000000E+02  0.51100000000E-03 0.  1.
         11   -1    0    0    0    0 -0.00000000000E+00 -0.00000000000E+00 -0.45593999997E+02  0.45594000000E+02  0.51100000000E-03 0. -1.
    9900012    2    1    2    0    0  0.10625871338E+02 -0.19354633857E+02  0.34141687429E+02  0.50528858176E+02  0.29999994911E+02 0.  0.
         12    1    1    2    0    0 -0.10625871338E+02  0.19354633857E+02 -0.34141687429E+02  0.40659141824E+02  0.00000000000E+00 0. -1.
         11    1    3    3    0    0 -0.35547706966E+01  0.10828506061E+01  0.13283485426E+01  0.39463236375E+01  0.51100000000E-03 0. -1.
        -11    1    3    3    0    0  0.35777035393E+01 -0.78065631253E+01  0.28170305929E+02  0.29450102323E+02  0.51100000000E-03 0.  1.
        -12    1    3    3    0    0  0.10602938495E+02 -0.12630921338E+02  0.46430329571E+01  0.17132432215E+02  0.00000000000E+00 0.  1.
</event>
<event>
 7    1  0.2746803E-013  0.5052883E+02  0.7816164E-02  0.1300439E+00
        -11   -1    0    0    0    0  0.00000000000E+00  0.00000000000E+00  0.45593999997E+02  0.45594000000E+02  0.51100000000E-03 0. -1.
         11   -1    0    0    0    0 -0.00000000000E+00 -0.00000000000E+00 -0.45593999997E+02  0.45594000000E+02  0.51100000000E-03 0.  1.
    9900012    2    1    2    0    0  0.17454513593E+02  0.15722656240E+02 -0.33185934159E+02  0.50528828955E+02  0.29999906093E+02 0.  0.
         12    1    1    2    0    0 -0.17454513593E+02 -0.15722656240E+02  0.33185934159E+02  0.40659171045E+02  0.00000000000E+00 0. -1.
         11    1    3    3    0    0 -0.24261394885E+01 -0.10757748209E+01 -0.86588353028E+01  0.90564271843E+01  0.51100000000E-03 0. -1.
        -11    1    3    3    0    0  0.29823063695E+01  0.86789081222E+01  0.15994236174E+01  0.93153504305E+01  0.51100000000E-03 0.  1.
        -12    1    3    3    0    0  0.16898346712E+02  0.81195229391E+01 -0.26126522474E+02  0.32157051341E+02  0.00000000000E+00 0.  1.
</event>
<event>
 7    1  0.2746803E-013  0.5052886E+02  0.7816164E-02  0.1300439E+00
        -11   -1    0    0    0    0  0.00000000000E+00  0.00000000000E+00  0.45593999997E+02  0.45594000000E+02  0.51100000000E-03 0.  1.
         11   -1    0    0    0    0 -0.00000000000E+00 -0.00000000000E+00 -0.45593999997E+02  0.45594000000E+02  0.51100000000E-03 0. -1.
    9900012    2    1    2    0    0 -0.17193171750E+02 -0.35279608166E+02  0.10625885026E+02  0.50528864007E+02  0.30000012634E+02 0.  0.
         12    1    1    2    0    0  0.17193171750E+02  0.35279608166E+02 -0.10625885026E+02  0.40659135993E+02  0.00000000000E+00 0. -1.
         11    1    3    3    0    0 -0.11455872922E+02 -0.13281532491E+02 -0.27738839690E+01  0.17757549444E+02  0.51100000000E-03 0. -1.
        -11    1    3    3    0    0 -0.10356961394E+02 -0.20010870750E+02  0.15471276854E+02  0.27332435040E+02  0.51100000000E-03 0.  1.
         12    1    3    3    0    0  0.46196625669E+01 -0.19872049254E+01 -0.20715078590E+01  0.54388795223E+01  0.00000000000E+00 0. -1.
</event>
<event>
 7    1  0.2746803E-013  0.5052886E+02  0.7816164E-02  0.1300439E+00
        -11   -1    0    0    0    0  0.00000000000E+00  0.00000000000E+00  0.45593999997E+02  0.45594000000E+02  0.51100000000E-03 0. -1.
         11   -1    0    0    0    0 -0.00000000000E+00 -0.00000000000E+00 -0.45593999997E+02  0.45594000000E+02  0.51100000000E-03 0.  1.
    9900012    2    1    2    0    0  0.38400837136E+02 -0.13057663281E+02  0.28352654334E+01  0.50528860890E+02  0.30000003162E+02 0.  0.
         12    1    1    2    0    0 -0.38400837136E+02  0.13057663281E+02 -0.28352654334E+01  0.40659139110E+02  0.00000000000E+00 0. -1.
         11    1    3    3    0    0  0.59311857579E+01 -0.39832619973E+00  0.25542908293E+01  0.64700873378E+01  0.51100000000E-03 0. -1.
        -11    1    3    3    0    0  0.49296906156E+01 -0.15368373971E+02 -0.21366782796E+01  0.16280484096E+02  0.51100000000E-03 0.  1.
        -12    1    3    3    0    0  0.27539960762E+02  0.27090368893E+01  0.24176528837E+01  0.27778289456E+02  0.00000000000E+00 0.  1.
</event>
<event>
 7    1  0.2746803E-013  0.5052884E+02  0.7816164E-02  0.1300439E+00
        -11   -1    0    0    0    0  0.00000000000E+00  0.00000000000E+00  0.45593999997E+02  0.45594000000E+02  0.51100000000E-03 0.  1.
         11   -1    0    0    0    0 -0.00000000000E+00 -0.00000000000E+00 -0.45593999997E+02  0.45594000000E+02  0.51100000000E-03 0. -1.
    9900012    2    1    2    0    0  0.17720943749E+02  0.29702162472E+02  0.21375625789E+02  0.50528835218E+02  0.29999925129E+02 0.  0.
         12    1    1    2    0    0 -0.17720943749E+02 -0.29702162472E+02 -0.21375625789E+02  0.40659164782E+02  0.00000000000E+00 0. -1.
         11    1    3    3    0    0  0.84473925156E+01  0.10363034776E+02 -0.15004476305E+01  0.13453708538E+02  0.51100000000E-03 0. -1.
        -11    1    3    3    0    0 -0.17442322369E+01  0.12043344701E+02  0.19474835673E+01  0.12323846404E+02  0.51100000000E-03 0.  1.
        -12    1    3    3    0    0  0.11017783470E+02  0.72957829957E+01  0.20928589852E+02  0.24751280276E+02  0.00000000000E+00 0.  1.
</event>
<event>
 7    1  0.2746803E-013  0.5052886E+02  0.7816164E-02  0.1300439E+00
        -11   -1    0    0    0    0  0.00000000000E+00  0.00000000000E+00  0.45593999997E+02  0.45594000000E+02  0.51100000000E-03 0.  1.
         11   -1    0    0    0    0 -0.00000000000E+00 -0.00000000000E+00 -0.45593999997E+02  0.45594000000E+02  0.51100000000E-03 0. -1.
    9900012    2    1    2    0    0  0.31964908599E+02  0.17097071381E+02  0.18414686466E+02  0.50528857003E+02  0.29999991348E+02 0.  0.
         12    1    1    2    0    0 -0.31964908599E+02 -0.17097071381E+02 -0.18414686466E+02  0.40659142997E+02  0.00000000000E+00 0. -1.
         11    1    3    3    0    0 -0.64351021057E+00 -0.46248647495E-01 -0.25846282218E+01  0.26639346153E+01  0.51100000000E-03 0. -1.
        -11    1    3    3    0    0  0.20256853924E+02  0.14021046518E+02  0.16410585958E+01  0.24690543736E+02  0.51100000000E-03 0.  1.
        -12    1    3    3    0    0  0.12351564885E+02  0.31222735102E+01  0.19358256092E+02  0.23174378653E+02  0.00000000000E+00 0.  1.
</event>
<event>
 7    1  0.2746803E-013  0.5052885E+02  0.7816164E-02  0.1300439E+00
        -11   -1    0    0    0    0  0.00000000000E+00  0.00000000000E+00  0.45593999997E+02  0.45594000000E+02  0.51100000000E-03 0. -1.
         11   -1    0    0    0    0 -0.00000000000E+00 -0.00000000000E+00 -0.45593999997E+02  0.45594000000E+02  0.51100000000E-03 0.  1.
    9900012    2    1    2    0    0 -0.18782960997E+02 -0.17026097064E+02 -0.31788034625E+02  0.50528846659E+02  0.29999959906E+02 0.  0.
         12    1    1    2    0    0  0.18782960997E+02  0.17026097064E+02  0.31788034625E+02  0.40659153341E+02  0.00000000000E+00 0. -1.
         11    1    3    3    0    0 -0.56138049345E+01  0.93569262104E+00  0.23765481856E+01  0.61675204145E+01  0.51100000000E-03 0.  1.
        -11    1    3    3    0    0  0.25027418983E+00 -0.87001394040E+01 -0.30308312585E+01  0.92163442425E+01  0.51100000000E-03 0. -1.
         12    1    3    3    0    0 -0.13419430252E+02 -0.92616502808E+01 -0.31133751552E+02  0.35144982002E+02  0.00000000000E+00 0. -1.
</event>
<event>
 7    1  0.2746803E-013  0.5052886E+02  0.7816164E-02  0.1300439E+00
        -11   -1    0    0    0    0  0.00000000000E+00  0.00000000000E+00  0.45593999997E+02  0.45594000000E+02  0.51100000000E-03 0.  1.
         11   -1    0    0    0    0 -0.00000000000E+00 -0.00000000000E+00 -0.45593999997E+02  0.45594000000E+02  0.51100000000E-03 0. -1.
    9900012    2    1    2    0    0  0.15321610842E+02  0.29369382363E+02  0.23576541865E+02  0.50528859509E+02  0.29999998964E+02 0.  0.
         12    1    1    2    0    0 -0.15321610842E+02 -0.29369382363E+02 -0.23576541865E+02  0.40659140491E+02  0.00000000000E+00 0. -1.
         11    1    3    3    0    0  0.12040332466E+02  0.35537263509E+01 -0.91392930826E+00  0.12587050644E+02  0.51100000000E-03 0. -1.
        -11    1    3    3    0    0 -0.41892462329E+01  0.10680720355E+02  0.61512724073E+01  0.13017900130E+02  0.51100000000E-03 0.  1.
        -12    1    3    3    0    0  0.74705246085E+01  0.15134935658E+02  0.18339198766E+02  0.24923908735E+02  0.00000000000E+00 0.  1.
</event>
<event>
 7    1  0.2746803E-013  0.5052888E+02  0.7816164E-02  0.1300439E+00
        -11   -1    0    0    0    0  0.00000000000E+00  0.00000000000E+00  0.45593999997E+02  0.45594000000E+02  0.51100000000E-03 0.  1.
         11   -1    0    0    0    0 -0.00000000000E+00 -0.00000000000E+00 -0.45593999997E+02  0.45594000000E+02  0.51100000000E-03 0. -1.
    9900012    2    1    2    0    0  0.36592301308E+02 -0.15856260501E+02 -0.79212796055E+01  0.50528878235E+02  0.30000055883E+02 0.  0.
         12    1    1    2    0    0 -0.36592301308E+02  0.15856260501E+02  0.79212796055E+01  0.40659121765E+02  0.00000000000E+00 0. -1.
         11    1    3    3    0    0  0.61773939891E+01  0.25241297316E+01  0.20651123987E+01  0.69854217395E+01  0.51100000000E-03 0. -1.
        -11    1    3    3    0    0  0.34091944789E+02 -0.14950883222E+02 -0.76733558174E+01  0.38008814746E+02  0.51100000000E-03 0.  1.
        -12    1    3    3    0    0 -0.36770374702E+01 -0.34295070111E+01 -0.23130361869E+01  0.55346417497E+01  0.00000000000E+00 0.  1.
</event>
<event>
 7    1  0.2746803E-013  0.5052880E+02  0.7816164E-02  0.1300439E+00
        -11   -1    0    0    0    0  0.00000000000E+00  0.00000000000E+00  0.45593999997E+02  0.45594000000E+02  0.51100000000E-03 0.  1.
         11   -1    0    0    0    0 -0.00000000000E+00 -0.00000000000E+00 -0.45593999997E+02  0.45594000000E+02  0.51100000000E-03 0. -1.
    9900012    2    1    2    0    0 -0.17249650290E+02  0.23077984134E+02 -0.28688445671E+02  0.50528798068E+02  0.29999812205E+02 0.  0.
         12    1    1    2    0    0  0.17249650290E+02 -0.23077984134E+02  0.28688445671E+02  0.40659201932E+02  0.00000000000E+00 0. -1.
         11    1    3    3    0    0 -0.44782139060E+01 -0.12856947480E+01  0.20972031207E+01  0.51093709948E+01  0.51100000000E-03 0. -1.
        -11    1    3    3    0    0 -0.15466038213E+02  0.92781920285E+01 -0.15616140372E+02  0.23856802504E+02  0.51100000000E-03 0.  1.
        -12    1    3    3    0    0  0.26946018293E+01  0.15085486853E+02 -0.15169508419E+02  0.21562624569E+02  0.00000000000E+00 0.  1.
</event>
<event>
 7    1  0.2746803E-013  0.5052886E+02  0.7816164E-02  0.1300439E+00
        -11   -1    0    0    0    0  0.00000000000E+00  0.00000000000E+00  0.45593999997E+02  0.45594000000E+02  0.51100000000E-03 0.  1.
         11   -1    0    0    0    0 -0.00000000000E+00 -0.00000000000E+00 -0.45593999997E+02  0.45594000000E+02  0.51100000000E-03 0. -1.
    9900012    2    1    2    0    0 -0.15702296371E+02 -0.24259110018E+02  0.28602436167E+02  0.50528857302E+02  0.29999992256E+02 0.  0.
         12    1    1    2    0    0  0.15702296371E+02  0.24259110018E+02 -0.28602436167E+02  0.40659142698E+02  0.00000000000E+00 0. -1.
         11    1    3    3    0    0  0.44295246886E+01 -0.10480342766E+02  0.17219582307E+02  0.20639096118E+02  0.51100000000E-03 0. -1.
        -11    1    3    3    0    0 -0.94276979479E+00 -0.70363540729E+01  0.14127738089E+01  0.72384406899E+01  0.51100000000E-03 0.  1.
         12    1    3    3    0    0 -0.19189051265E+02 -0.67424131790E+01  0.99700800518E+01  0.22651320495E+02  0.00000000000E+00 0. -1.
</event>
<event>
 7    1  0.2746803E-013  0.5052886E+02  0.7816164E-02  0.1300439E+00
        -11   -1    0    0    0    0  0.00000000000E+00  0.00000000000E+00  0.45593999997E+02  0.45594000000E+02  0.51100000000E-03 0.  1.
         11   -1    0    0    0    0 -0.00000000000E+00 -0.00000000000E+00 -0.45593999997E+02  0.45594000000E+02  0.51100000000E-03 0. -1.
    9900012    2    1    2    0    0 -0.15585565356E+02  0.13917264757E+01  0.37527573548E+02  0.50528861711E+02  0.30000005656E+02 0.  0.
         12    1    1    2    0    0  0.15585565356E+02 -0.13917264757E+01 -0.37527573548E+02  0.40659138289E+02  0.00000000000E+00 0. -1.
         11    1    3    3    0    0  0.18813018214E+01 -0.21360187527E+01  0.97588967430E+00  0.30090253526E+01  0.51100000000E-03 0.  1.
        -11    1    3    3    0    0 -0.20090585110E+02  0.10647079382E+02  0.28456106431E+02  0.36424468464E+02  0.51100000000E-03 0. -1.
         12    1    3    3    0    0  0.26237179325E+01 -0.71193341538E+01  0.80955774420E+01  0.11095367894E+02  0.00000000000E+00 0. -1.
</event>
<event>
 7    1  0.2746803E-013  0.5052886E+02  0.7816164E-02  0.1300439E+00
        -11   -1    0    0    0    0  0.00000000000E+00  0.00000000000E+00  0.45593999997E+02  0.45594000000E+02  0.51100000000E-03 0.  1.
         11   -1    0    0    0    0 -0.00000000000E+00 -0.00000000000E+00 -0.45593999997E+02  0.45594000000E+02  0.51100000000E-03 0. -1.
    9900012    2    1    2    0    0 -0.55770730104E+01  0.40148249352E+02 -0.31905705732E+01  0.50528863142E+02  0.30000010007E+02 0.  0.
         12    1    1    2    0    0  0.55770730104E+01 -0.40148249352E+02  0.31905705732E+01  0.40659136858E+02  0.00000000000E+00 0. -1.
         11    1    3    3    0    0 -0.38048780926E+01  0.15082006913E+01  0.19152749810E+01  0.45188544056E+01  0.51100000000E-03 0. -1.
        -11    1    3    3    0    0 -0.11526054207E+02  0.29882445074E+02 -0.24484822231E+00  0.32029211668E+02  0.51100000000E-03 0.  1.
        -12    1    3    3    0    0  0.97538592888E+01  0.87576035874E+01 -0.48609973319E+01  0.13980797069E+02  0.00000000000E+00 0.  1.
</event>
<event>
 7    1  0.2746803E-013  0.5052887E+02  0.7816164E-02  0.1300439E+00
        -11   -1    0    0    0    0  0.00000000000E+00  0.00000000000E+00  0.45593999997E+02  0.45594000000E+02  0.51100000000E-03 0. -1.
         11   -1    0    0    0    0 -0.00000000000E+00 -0.00000000000E+00 -0.45593999997E+02  0.45594000000E+02  0.51100000000E-03 0.  1.
    9900012    2    1    2    0    0  0.28108385962E+02 -0.29374332103E+02  0.48219030938E+00  0.50528865044E+02  0.30000015789E+02 0.  0.
         12    1    1    2    0    0 -0.28108385962E+02  0.29374332103E+02 -0.48219030938E+00  0.40659134956E+02  0.00000000000E+00 0. -1.
         11    1    3    3    0    0 -0.16016505662E+00  0.17134582142E+01 -0.78484262255E+00  0.18914465630E+01  0.51100000000E-03 0. -1.
        -11    1    3    3    0    0  0.22775637725E+02 -0.75978840762E+01  0.40681508216E+01  0.24351742599E+02  0.51100000000E-03 0.  1.
        -12    1    3    3    0    0  0.54929132931E+01 -0.23489906241E+02 -0.28011178897E+01  0.24285675883E+02  0.00000000000E+00 0.  1.
</event>
<event>
 7    1  0.2746803E-013  0.5052887E+02  0.7816164E-02  0.1300439E+00
        -11   -1    0    0    0    0  0.00000000000E+00  0.00000000000E+00  0.45593999997E+02  0.45594000000E+02  0.51100000000E-03 0.  1.
         11   -1    0    0    0    0 -0.00000000000E+00 -0.00000000000E+00 -0.45593999997E+02  0.45594000000E+02  0.51100000000E-03 0. -1.
    9900012    2    1    2    0    0  0.19102177982E+02 -0.25975999595E+02  0.24769318640E+02  0.50528869359E+02  0.30000028903E+02 0.  0.
         12    1    1    2    0    0 -0.19102177982E+02  0.25975999595E+02 -0.24769318640E+02  0.40659130641E+02  0.00000000000E+00 0. -1.
         11    1    3    3    0    0  0.91866758828E+00 -0.99528596844E+01 -0.53840654244E+00  0.10009657731E+02  0.51100000000E-03 0. -1.
        -11    1    3    3    0    0  0.12715380815E+02 -0.31932132005E+01  0.18658475255E+01  0.13242315019E+02  0.51100000000E-03 0.  1.
        -12    1    3    3    0    0  0.54681295781E+01 -0.12829926710E+02  0.23441877657E+02  0.27276896608E+02  0.00000000000E+00 0.  1.
</event>
<event>
 7    1  0.2746803E-013  0.5052887E+02  0.7816164E-02  0.1300439E+00
        -11   -1    0    0    0    0  0.00000000000E+00  0.00000000000E+00  0.45593999997E+02  0.45594000000E+02  0.51100000000E-03 0.  1.
         11   -1    0    0    0    0 -0.00000000000E+00 -0.00000000000E+00 -0.45593999997E+02  0.45594000000E+02  0.51100000000E-03 0. -1.
    9900012    2    1    2    0    0  0.13031165906E+02  0.38134473440E+02 -0.53958892903E+01  0.50528868545E+02  0.30000026430E+02 0.  0.
         12    1    1    2    0    0 -0.13031165906E+02 -0.38134473440E+02  0.53958892903E+01  0.40659131455E+02  0.00000000000E+00 0. -1.
         11    1    3    3    0    0 -0.39379513295E+01 -0.20536675563E+01  0.44211393386E+00  0.44632360566E+01  0.51100000000E-03 0. -1.
        -11    1    3    3    0    0  0.34709396604E+00  0.12960471577E+02 -0.57053269814E+01  0.14164923365E+02  0.51100000000E-03 0.  1.
        -12    1    3    3    0    0  0.16622023269E+02  0.27227669420E+02 -0.13267624270E+00  0.31900709124E+02  0.00000000000E+00 0.  1.
</event>
<event>
 7    1  0.2746803E-013  0.5052883E+02  0.7816164E-02  0.1300439E+00
        -11   -1    0    0    0    0  0.00000000000E+00  0.00000000000E+00  0.45593999997E+02  0.45594000000E+02  0.51100000000E-03 0.  1.
         11   -1    0    0    0    0 -0.00000000000E+00 -0.00000000000E+00 -0.45593999997E+02  0.45594000000E+02  0.51100000000E-03 0. -1.
    9900012    2    1    2    0    0  0.31449734842E+01  0.30726518605E+02  0.26441603384E+02  0.50528828915E+02  0.29999905970E+02 0.  0.
         12    1    1    2    0    0 -0.31449734842E+01 -0.30726518605E+02 -0.26441603384E+02  0.40659171085E+02  0.00000000000E+00 0. -1.
         11    1    3    3    0    0  0.25271869890E+01  0.14109818956E+01  0.76500029909E+01  0.81792475209E+01  0.51100000000E-03 0.  1.
        -11    1    3    3    0    0 -0.96797449338E+00 -0.16015665820E+01 -0.36578603146E+01  0.41087628891E+01  0.51100000000E-03 0. -1.
         12    1    3    3    0    0  0.15857609886E+01  0.30917103292E+02  0.22449460707E+02  0.38240818505E+02  0.00000000000E+00 0. -1.
</event>
<event>
 7    1  0.2746803E-013  0.5052886E+02  0.7816164E-02  0.1300439E+00
        -11   -1    0    0    0    0  0.00000000000E+00  0.00000000000E+00  0.45593999997E+02  0.45594000000E+02  0.51100000000E-03 0. -1.
         11   -1    0    0    0    0 -0.00000000000E+00 -0.00000000000E+00 -0.45593999997E+02  0.45594000000E+02  0.51100000000E-03 0.  1.
    9900012    2    1    2    0    0 -0.32248217104E+02 -0.23401074512E+02  0.80998772646E+01  0.50528858267E+02  0.29999995189E+02 0.  0.
         12    1    1    2    0    0  0.32248217104E+02  0.23401074512E+02 -0.80998772646E+01  0.40659141733E+02  0.00000000000E+00 0. -1.
         11    1    3    3    0    0 -0.89561142086E+00 -0.16894976431E+00  0.39390329341E+01  0.40430983858E+01  0.51100000000E-03 0. -1.
        -11    1    3    3    0    0 -0.32411087874E+02 -0.20445708285E+02  0.10282817275E+02  0.39676717806E+02  0.51100000000E-03 0.  1.
        -12    1    3    3    0    0  0.10584821908E+01 -0.27864164631E+01 -0.61219729446E+01  0.68090420757E+01  0.00000000000E+00 0.  1.
</event>
<event>
 7    1  0.2746803E-013  0.5052887E+02  0.7816164E-02  0.1300439E+00
        -11   -1    0    0    0    0  0.00000000000E+00  0.00000000000E+00  0.45593999997E+02  0.45594000000E+02  0.51100000000E-03 0. -1.
         11   -1    0    0    0    0 -0.00000000000E+00 -0.00000000000E+00 -0.45593999997E+02  0.45594000000E+02  0.51100000000E-03 0.  1.
    9900012    2    1    2    0    0  0.13363817987E+02 -0.23338298695E+02 -0.30494213478E+02  0.50528869749E+02  0.30000030090E+02 0.  0.
         12    1    1    2    0    0 -0.13363817987E+02  0.23338298695E+02  0.30494213478E+02  0.40659130251E+02  0.00000000000E+00 0. -1.
         11    1    3    3    0    0  0.23635157772E+01 -0.10921610708E+02 -0.13581624825E+02  0.17587732101E+02  0.51100000000E-03 0. -1.
        -11    1    3    3    0    0  0.63579265384E+01 -0.19001608554E+02 -0.13671362479E+02  0.24256762146E+02  0.51100000000E-03 0.  1.
         12    1    3    3    0    0  0.46423756709E+01  0.65849205681E+01 -0.32412261731E+01  0.86843755022E+01  0.00000000000E+00 0. -1.
</event>
<event>
 7    1  0.2746803E-013  0.5052885E+02  0.7816164E-02  0.1300439E+00
        -11   -1    0    0    0    0  0.00000000000E+00  0.00000000000E+00  0.45593999997E+02  0.45594000000E+02  0.51100000000E-03 0.  1.
         11   -1    0    0    0    0 -0.00000000000E+00 -0.00000000000E+00 -0.45593999997E+02  0.45594000000E+02  0.51100000000E-03 0. -1.
    9900012    2    1    2    0    0  0.18312880895E+02  0.29713838755E+02  0.20854083592E+02  0.50528848229E+02  0.29999964678E+02 0.  0.
         12    1    1    2    0    0 -0.18312880895E+02 -0.29713838755E+02 -0.20854083592E+02  0.40659151771E+02  0.00000000000E+00 0. -1.
         11    1    3    3    0    0  0.24674586314E+02  0.19669945507E+02  0.93984310645E+01  0.32925255849E+02  0.51100000000E-03 0. -1.
        -11    1    3    3    0    0 -0.52593433765E+00  0.39156357247E+01  0.85990544320E+00  0.40432966362E+01  0.51100000000E-03 0.  1.
         12    1    3    3    0    0 -0.58357710809E+01  0.61282575232E+01  0.10595747085E+02  0.13560295744E+02  0.00000000000E+00 0. -1.
</event>
<event>
 7    1  0.2746803E-013  0.5052886E+02  0.7816164E-02  0.1300439E+00
        -11   -1    0    0    0    0  0.00000000000E+00  0.00000000000E+00  0.45593999997E+02  0.45594000000E+02  0.51100000000E-03 0.  1.
         11   -1    0    0    0    0 -0.00000000000E+00 -0.00000000000E+00 -0.45593999997E+02  0.45594000000E+02  0.51100000000E-03 0. -1.
    9900012    2    1    2    0    0  0.29533274982E+02 -0.25665504073E+02  0.11055901248E+02  0.50528863476E+02  0.30000011022E+02 0.  0.
         12    1    1    2    0    0 -0.29533274982E+02  0.25665504073E+02 -0.11055901248E+02  0.40659136524E+02  0.00000000000E+00 0. -1.
         11    1    3    3    0    0  0.18164613299E+02 -0.12703699544E+02 -0.68582791947E+01  0.23202869481E+02  0.51100000000E-03 0. -1.
        -11    1    3    3    0    0 -0.69701763840E+00  0.13910818114E+01  0.27019539103E+00  0.15792238615E+01  0.51100000000E-03 0.  1.
        -12    1    3    3    0    0  0.12065679322E+02 -0.14352886340E+02  0.17643985052E+02  0.25746770133E+02  0.00000000000E+00 0.  1.
</event>
<event>
 7    1  0.2746803E-013  0.5052886E+02  0.7816164E-02  0.1300439E+00
        -11   -1    0    0    0    0  0.00000000000E+00  0.00000000000E+00  0.45593999997E+02  0.45594000000E+02  0.51100000000E-03 0. -1.
         11   -1    0    0    0    0 -0.00000000000E+00 -0.00000000000E+00 -0.45593999997E+02  0.45594000000E+02  0.51100000000E-03 0.  1.
    9900012    2    1    2    0    0 -0.18960567086E+02 -0.14664108595E+02  0.32842453690E+02  0.50528856508E+02  0.29999989843E+02 0.  0.
         12    1    1    2    0    0  0.18960567086E+02  0.14664108595E+02 -0.32842453690E+02  0.40659143492E+02  0.00000000000E+00 0. -1.
         11    1    3    3    0    0 -0.97167615251E+01 -0.19233336758E+02  0.25505042306E+02  0.33389277930E+02  0.51100000000E-03 0. -1.
        -11    1    3    3    0    0 -0.10916980772E+01 -0.36756096750E+01  0.24939075243E+01  0.45740011123E+01  0.51100000000E-03 0.  1.
        -12    1    3    3    0    0 -0.81521074835E+01  0.82448378388E+01  0.48435038596E+01  0.12565577466E+02  0.00000000000E+00 0.  1.
</event>
<event>
 7    1  0.2746803E-013  0.5052887E+02  0.7816164E-02  0.1300439E+00
        -11   -1    0    0    0    0  0.00000000000E+00  0.00000000000E+00  0.45593999997E+02  0.45594000000E+02  0.51100000000E-03 0. -1.
         11   -1    0    0    0    0 -0.00000000000E+00 -0.00000000000E+00 -0.45593999997E+02  0.45594000000E+02  0.51100000000E-03 0.  1.
    9900012    2    1    2    0    0 -0.78430670966E+01  0.39124804276E+02  0.78038875026E+01  0.50528872227E+02  0.30000037620E+02 0.  0.
         12    1    1    2    0    0  0.78430670966E+01 -0.39124804276E+02 -0.78038875026E+01  0.40659127773E+02  0.00000000000E+00 0. -1.
         11    1    3    3    0    0  0.49687567586E+01  0.51029627026E+01  0.32327350532E+01  0.78217228445E+01  0.51100000000E-03 0. -1.
        -11    1    3    3    0    0 -0.90913509485E+01  0.36701443570E+02  0.33295061668E+01  0.37957005069E+02  0.51100000000E-03 0.  1.
         12    1    3    3    0    0 -0.37204729067E+01 -0.26796019965E+01  0.12416462826E+01  0.47501443136E+01  0.00000000000E+00 0. -1.
</event>
<event>
 7    1  0.2746803E-013  0.5052886E+02  0.7816164E-02  0.1300439E+00
        -11   -1    0    0    0    0  0.00000000000E+00  0.00000000000E+00  0.45593999997E+02  0.45594000000E+02  0.51100000000E-03 0. -1.
         11   -1    0    0    0    0 -0.00000000000E+00 -0.00000000000E+00 -0.45593999997E+02  0.45594000000E+02  0.51100000000E-03 0.  1.
    9900012    2    1    2    0    0  0.32121850756E+00 -0.39991161564E+02  0.73327776552E+01  0.50528858190E+02  0.29999994954E+02 0.  0.
         12    1    1    2    0    0 -0.32121850756E+00  0.39991161564E+02 -0.73327776552E+01  0.40659141810E+02  0.00000000000E+00 0. -1.
         11    1    3    3    0    0 -0.43492369837E+01 -0.86717309501E+01  0.47735234048E+01  0.10812090731E+02  0.51100000000E-03 0. -1.
        -11    1    3    3    0    0 -0.74597346181E+01 -0.19169430762E+02 -0.46616558499E+01  0.21091366761E+02  0.51100000000E-03 0.  1.
         12    1    3    3    0    0  0.12130190109E+02 -0.12149999852E+02  0.72209101003E+01  0.18625400698E+02  0.00000000000E+00 0. -1.
</event>
<event>
 7    1  0.2746803E-013  0.5052885E+02  0.7816164E-02  0.1300439E+00
        -11   -1    0    0    0    0  0.00000000000E+00  0.00000000000E+00  0.45593999997E+02  0.45594000000E+02  0.51100000000E-03 0. -1.
         11   -1    0    0    0    0 -0.00000000000E+00 -0.00000000000E+00 -0.45593999997E+02  0.45594000000E+02  0.51100000000E-03 0.  1.
    9900012    2    1    2    0    0 -0.36987742006E+02 -0.92838277210E+01 -0.14102615423E+02  0.50528852473E+02  0.29999977578E+02 0.  0.
         12    1    1    2    0    0  0.36987742006E+02  0.92838277210E+01  0.14102615423E+02  0.40659147527E+02  0.00000000000E+00 0. -1.
         11    1    3    3    0    0 -0.78928794732E+01 -0.48871444809E+01  0.34171061094E+01  0.98923375387E+01  0.51100000000E-03 0. -1.
        -11    1    3    3    0    0 -0.57914237864E+01 -0.36931298843E+01 -0.15836305960E+02  0.17261760760E+02  0.51100000000E-03 0.  1.
         12    1    3    3    0    0 -0.23303438746E+02 -0.70355335578E+00 -0.16834155717E+01  0.23374754174E+02  0.00000000000E+00 0. -1.
</event>
<event>
 7    1  0.2746803E-013  0.5052886E+02  0.7816164E-02  0.1300439E+00
        -11   -1    0    0    0    0  0.00000000000E+00  0.00000000000E+00  0.45593999997E+02  0.45594000000E+02  0.51100000000E-03 0.  1.
         11   -1    0    0    0    0 -0.00000000000E+00 -0.00000000000E+00 -0.45593999997E+02  0.45594000000E+02  0.51100000000E-03 0. -1.
    9900012    2    1    2    0    0 -0.31836516387E+02  0.20376831314E+02  0.14979553193E+02  0.50528855347E+02  0.29999986313E+02 0.  0.
         12    1    1    2    0    0  0.31836516387E+02 -0.20376831314E+02 -0.14979553193E+02  0.40659144653E+02  0.00000000000E+00 0. -1.
         11    1    3    3    0    0 -0.12565838541E+02  0.11289953129E+01  0.10402204709E+02  0.16351782524E+02  0.51100000000E-03 0. -1.
        -11    1    3    3    0    0 -0.22522763273E+02  0.20299454124E+02  0.31887613379E+01  0.30487881237E+02  0.51100000000E-03 0.  1.
        -12    1    3    3    0    0  0.32520854266E+01 -0.10516181231E+01  0.13885871461E+01  0.36891915864E+01  0.00000000000E+00 0.  1.
</event>
<event>
 7    1  0.2746803E-013  0.5052886E+02  0.7816164E-02  0.1300439E+00
        -11   -1    0    0    0    0  0.00000000000E+00  0.00000000000E+00  0.45593999997E+02  0.45594000000E+02  0.51100000000E-03 0.  1.
         11   -1    0    0    0    0 -0.00000000000E+00 -0.00000000000E+00 -0.45593999997E+02  0.45594000000E+02  0.51100000000E-03 0. -1.
    9900012    2    1    2    0    0 -0.27141698926E+02 -0.16402854591E+02  0.25444841847E+02  0.50528862824E+02  0.30000009039E+02 0.  0.
         12    1    1    2    0    0  0.27141698926E+02  0.16402854591E+02 -0.25444841847E+02  0.40659137176E+02  0.00000000000E+00 0. -1.
         11    1    3    3    0    0 -0.43942860181E+01  0.27071482984E+01  0.46415127941E-01  0.51614490353E+01  0.51100000000E-03 0. -1.
        -11    1    3    3    0    0 -0.23329609311E+02 -0.62954688890E+01  0.20315434226E+02  0.31569296273E+02  0.51100000000E-03 0.  1.
         12    1    3    3    0    0  0.58219640274E+00 -0.12814534000E+02  0.50829924922E+01  0.13798117515E+02  0.00000000000E+00 0. -1.
</event>
<event>
 7    1  0.2746803E-013  0.5052887E+02  0.7816164E-02  0.1300439E+00
        -11   -1    0    0    0    0  0.00000000000E+00  0.00000000000E+00  0.45593999997E+02  0.45594000000E+02  0.51100000000E-03 0.  1.
         11   -1    0    0    0    0 -0.00000000000E+00 -0.00000000000E+00 -0.45593999997E+02  0.45594000000E+02  0.51100000000E-03 0. -1.
    9900012    2    1    2    0    0  0.33986907575E+02 -0.16685274969E+02  0.14820820577E+02  0.50528868063E+02  0.30000024963E+02 0.  0.
         12    1    1    2    0    0 -0.33986907575E+02  0.16685274969E+02 -0.14820820577E+02  0.40659131937E+02  0.00000000000E+00 0. -1.
         11    1    3    3    0    0 -0.22195296974E+00  0.25296763273E+01 -0.18678233973E+01  0.31523467364E+01  0.51100000000E-03 0. -1.
        -11    1    3    3    0    0  0.21060690944E+02 -0.29108058756E+01  0.15660772931E+02  0.26406160322E+02  0.51100000000E-03 0.  1.
         12    1    3    3    0    0  0.13148169601E+02 -0.16304145421E+02  0.10278710431E+01  0.20970361004E+02  0.00000000000E+00 0. -1.
</event>
<event>
 7    1  0.2746803E-013  0.5052886E+02  0.7816164E-02  0.1300439E+00
        -11   -1    0    0    0    0  0.00000000000E+00  0.00000000000E+00  0.45593999997E+02  0.45594000000E+02  0.51100000000E-03 0.  1.
         11   -1    0    0    0    0 -0.00000000000E+00 -0.00000000000E+00 -0.45593999997E+02  0.45594000000E+02  0.51100000000E-03 0. -1.
    9900012    2    1    2    0    0 -0.86660364718E+01  0.27022676254E+02  0.29117693433E+02  0.50528864607E+02  0.30000014459E+02 0.  0.
         12    1    1    2    0    0  0.86660364718E+01 -0.27022676254E+02 -0.29117693433E+02  0.40659135393E+02  0.00000000000E+00 0. -1.
         11    1    3    3    0    0 -0.53165742034E+01  0.11270787230E+02  0.44849470015E+01  0.13244295222E+02  0.51100000000E-03 0.  1.
        -11    1    3    3    0    0 -0.12753499799E+02  0.73305736043E+01  0.17211275743E+02  0.22641048550E+02  0.51100000000E-03 0. -1.
         12    1    3    3    0    0  0.94040375303E+01  0.84213154194E+01  0.74214706882E+01  0.14643520835E+02  0.00000000000E+00 0. -1.
</event>
<event>
 7    1  0.2746803E-013  0.5052885E+02  0.7816164E-02  0.1300439E+00
        -11   -1    0    0    0    0  0.00000000000E+00  0.00000000000E+00  0.45593999997E+02  0.45594000000E+02  0.51100000000E-03 0. -1.
         11   -1    0    0    0    0 -0.00000000000E+00 -0.00000000000E+00 -0.45593999997E+02  0.45594000000E+02  0.51100000000E-03 0.  1.
    9900012    2    1    2    0    0  0.85727734583E+01  0.16901326512E+02 -0.35972474044E+02  0.50528853778E+02  0.29999981544E+02 0.  0.
         12    1    1    2    0    0 -0.85727734583E+01 -0.16901326512E+02  0.35972474044E+02  0.40659146222E+02  0.00000000000E+00 0. -1.
         11    1    3    3    0    0  0.68100130087E+01 -0.11657702466E+01 -0.56253541713E+01  0.89095402384E+01  0.51100000000E-03 0. -1.
        -11    1    3    3    0    0 -0.40786297375E+01 -0.73621761478E+00  0.13029069114E+01  0.43445141953E+01  0.51100000000E-03 0.  1.
        -12    1    3    3    0    0  0.58413901871E+01  0.18803314374E+02 -0.31650026784E+02  0.37274799345E+02  0.00000000000E+00 0.  1.
</event>
<event>
 7    1  0.2746803E-013  0.5052885E+02  0.7816164E-02  0.1300439E+00
        -11   -1    0    0    0    0  0.00000000000E+00  0.00000000000E+00  0.45593999997E+02  0.45594000000E+02  0.51100000000E-03 0. -1.
         11   -1    0    0    0    0 -0.00000000000E+00 -0.00000000000E+00 -0.45593999997E+02  0.45594000000E+02  0.51100000000E-03 0.  1.
    9900012    2    1    2    0    0  0.25565325866E+02 -0.17325574316E+02 -0.26446274779E+02  0.50528845291E+02  0.29999955745E+02 0.  0.
         12    1    1    2    0    0 -0.25565325866E+02  0.17325574316E+02  0.26446274779E+02  0.40659154709E+02  0.00000000000E+00 0. -1.
         11    1    3    3    0    0  0.15437526394E+02 -0.42161088636E+00 -0.77258966418E+00  0.15462595900E+02  0.51100000000E-03 0. -1.
        -11    1    3    3    0    0 -0.21876915044E+01  0.65135355901E+00 -0.14038440191E+01  0.26797451126E+01  0.51100000000E-03 0.  1.
         12    1    3    3    0    0  0.12315490976E+02 -0.17555316988E+02 -0.24269841095E+02  0.32386504278E+02  0.00000000000E+00 0. -1.
</event>
<event>
 7    1  0.2746803E-013  0.5052887E+02  0.7816164E-02  0.1300439E+00
        -11   -1    0    0    0    0  0.00000000000E+00  0.00000000000E+00  0.45593999997E+02  0.45594000000E+02  0.51100000000E-03 0. -1.
         11   -1    0    0    0    0 -0.00000000000E+00 -0.00000000000E+00 -0.45593999997E+02  0.45594000000E+02  0.51100000000E-03 0.  1.
    9900012    2    1    2    0    0  0.19900317359E+02  0.24046535001E+02 -0.26055836272E+02  0.50528867196E+02  0.30000022330E+02 0.  0.
         12    1    1    2    0    0 -0.19900317359E+02 -0.24046535001E+02  0.26055836272E+02  0.40659132804E+02  0.00000000000E+00 0. -1.
         11    1    3    3    0    0  0.44175429433E+01  0.11142589146E+02 -0.91981567960E+01  0.15108873791E+02  0.51100000000E-03 0. -1.
        -11    1    3    3    0    0  0.16903890225E+02  0.15291713207E+02 -0.51257059335E+01  0.23363451353E+02  0.51100000000E-03 0.  1.
         12    1    3    3    0    0 -0.14211158097E+01 -0.23877673514E+01 -0.11731973542E+02  0.12056542053E+02  0.00000000000E+00 0. -1.
</event>
<event>
 7    1  0.2746803E-013  0.5052885E+02  0.7816164E-02  0.1300439E+00
        -11   -1    0    0    0    0  0.00000000000E+00  0.00000000000E+00  0.45593999997E+02  0.45594000000E+02  0.51100000000E-03 0.  1.
         11   -1    0    0    0    0 -0.00000000000E+00 -0.00000000000E+00 -0.45593999997E+02  0.45594000000E+02  0.51100000000E-03 0. -1.
    9900012    2    1    2    0    0 -0.23923126492E+02  0.12523592763E+02  0.30397530010E+02  0.50528853581E+02  0.29999980945E+02 0.  0.
         12    1    1    2    0    0  0.23923126492E+02 -0.12523592763E+02 -0.30397530010E+02  0.40659146419E+02  0.00000000000E+00 0. -1.
         11    1    3    3    0    0 -0.15635582281E+02  0.10012354927E+02  0.23484309381E+02  0.29937125310E+02  0.51100000000E-03 0.  1.
        -11    1    3    3    0    0 -0.39892233699E+01  0.92208723369E+01  0.66658627082E-02  0.10046812153E+02  0.51100000000E-03 0. -1.
        -12    1    3    3    0    0 -0.42983208414E+01 -0.67096345017E+01  0.69065547658E+01  0.10544916118E+02  0.00000000000E+00 0.  1.
</event>
<event>
 7    1  0.2746803E-013  0.5052887E+02  0.7816164E-02  0.1300439E+00
        -11   -1    0    0    0    0  0.00000000000E+00  0.00000000000E+00  0.45593999997E+02  0.45594000000E+02  0.51100000000E-03 0.  1.
         11   -1    0    0    0    0 -0.00000000000E+00 -0.00000000000E+00 -0.45593999997E+02  0.45594000000E+02  0.51100000000E-03 0. -1.
    9900012    2    1    2    0    0 -0.91361890086E+01  0.27591264603E+02  0.28432680410E+02  0.50528866373E+02  0.30000019829E+02 0.  0.
         12    1    1    2    0    0  0.91361890086E+01 -0.27591264603E+02 -0.28432680410E+02  0.40659133627E+02  0.00000000000E+00 0. -1.
         11    1    3    3    0    0 -0.52413554607E+01  0.20824248704E+02  0.12449655402E+02  0.24821665154E+02  0.51100000000E-03 0. -1.
        -11    1    3    3    0    0 -0.61897648993E+01  0.87721276979E+00 -0.20653189679E+01  0.65839376100E+01  0.51100000000E-03 0.  1.
         12    1    3    3    0    0  0.22949313514E+01  0.58898031294E+01  0.18048343975E+02  0.19123263609E+02  0.00000000000E+00 0. -1.
</event>
<event>
 7    1  0.2746803E-013  0.5052884E+02  0.7816164E-02  0.1300439E+00
        -11   -1    0    0    0    0  0.00000000000E+00  0.00000000000E+00  0.45593999997E+02  0.45594000000E+02  0.51100000000E-03 0.  1.
         11   -1    0    0    0    0 -0.00000000000E+00 -0.00000000000E+00 -0.45593999997E+02  0.45594000000E+02  0.51100000000E-03 0. -1.
    9900012    2    1    2    0    0 -0.26642923019E+02 -0.15636190424E+02  0.26435427986E+02  0.50528835587E+02  0.29999926250E+02 0.  0.
         12    1    1    2    0    0  0.26642923019E+02  0.15636190424E+02 -0.26435427986E+02  0.40659164413E+02  0.00000000000E+00 0. -1.
         11    1    3    3    0    0 -0.63002093433E+01 -0.18379580123E+01 -0.50588172547E+01  0.82862753817E+01  0.51100000000E-03 0.  1.
        -11    1    3    3    0    0 -0.60845698653E+01 -0.81745713039E+01  0.43711725878E+01  0.11088406400E+02  0.51100000000E-03 0. -1.
        -12    1    3    3    0    0 -0.14258143811E+02 -0.56236611076E+01  0.27123072653E+02  0.31154153805E+02  0.00000000000E+00 0.  1.
</event>
<event>
 7    1  0.2746803E-013  0.5052889E+02  0.7816164E-02  0.1300439E+00
        -11   -1    0    0    0    0  0.00000000000E+00  0.00000000000E+00  0.45593999997E+02  0.45594000000E+02  0.51100000000E-03 0.  1.
         11   -1    0    0    0    0 -0.00000000000E+00 -0.00000000000E+00 -0.45593999997E+02  0.45594000000E+02  0.51100000000E-03 0. -1.
    9900012    2    1    2    0    0 -0.13380930410E+02 -0.96242173924E+01  0.37168379837E+02  0.50528888859E+02  0.30000088177E+02 0.  0.
         12    1    1    2    0    0  0.13380930410E+02  0.96242173924E+01 -0.37168379837E+02  0.40659111141E+02  0.00000000000E+00 0. -1.
         11    1    3    3    0    0 -0.12003431681E+02 -0.40177949561E+01  0.28710437196E+01  0.12979520050E+02  0.51100000000E-03 0.  1.
        -11    1    3    3    0    0  0.27929809966E+01  0.19946865511E+01  0.17218203586E+01  0.38398154764E+01  0.51100000000E-03 0. -1.
        -12    1    3    3    0    0 -0.41704797255E+01 -0.76011089874E+01  0.32575515759E+02  0.33709553333E+02  0.00000000000E+00 0.  1.
</event>
<event>
 7    1  0.2746803E-013  0.5052897E+02  0.7816164E-02  0.1300438E+00
        -11   -1    0    0    0    0  0.00000000000E+00  0.00000000000E+00  0.45593999997E+02  0.45594000000E+02  0.51100000000E-03 0.  1.
         11   -1    0    0    0    0 -0.00000000000E+00 -0.00000000000E+00 -0.45593999997E+02  0.45594000000E+02  0.51100000000E-03 0. -1.
    9900012    2    1    2    0    0 -0.32369215064E+02 -0.20283046785E+02  0.13927995280E+02  0.50528965048E+02  0.30000319758E+02 0.  0.
         12    1    1    2    0    0  0.32369215064E+02  0.20283046785E+02 -0.13927995280E+02  0.40659034952E+02  0.00000000000E+00 0. -1.
         11    1    3    3    0    0 -0.22784830548E+02 -0.13522822439E+02  0.39373776400E+01  0.26786529689E+02  0.51100000000E-03 0. -1.
        -11    1    3    3    0    0 -0.56812051385E+01  0.56004972671E+01  0.65742888692E+01  0.10337453065E+02  0.51100000000E-03 0.  1.
         12    1    3    3    0    0 -0.39031793772E+01 -0.12360721613E+02  0.34163287707E+01  0.13404982295E+02  0.00000000000E+00 0. -1.
</event>
<event>
 7    1  0.2746803E-013  0.5052885E+02  0.7816164E-02  0.1300439E+00
        -11   -1    0    0    0    0  0.00000000000E+00  0.00000000000E+00  0.45593999997E+02  0.45594000000E+02  0.51100000000E-03 0.  1.
         11   -1    0    0    0    0 -0.00000000000E+00 -0.00000000000E+00 -0.45593999997E+02  0.45594000000E+02  0.51100000000E-03 0. -1.
    9900012    2    1    2    0    0 -0.12611404880E+02  0.13089678033E+02  0.36370028739E+02  0.50528853495E+02  0.29999980683E+02 0.  0.
         12    1    1    2    0    0  0.12611404880E+02 -0.13089678033E+02 -0.36370028739E+02  0.40659146505E+02  0.00000000000E+00 0. -1.
         11    1    3    3    0    0 -0.49944858201E+01 -0.18329253821E+01  0.24340647755E+00  0.53257629536E+01  0.51100000000E-03 0. -1.
        -11    1    3    3    0    0 -0.13572239145E+02  0.15986922627E+02  0.25955184013E+02  0.33368532301E+02  0.51100000000E-03 0.  1.
         12    1    3    3    0    0  0.59553200857E+01 -0.10643192118E+01  0.10171438248E+02  0.11834558240E+02  0.00000000000E+00 0. -1.
</event>
<event>
 7    1  0.2746803E-013  0.5052879E+02  0.7816164E-02  0.1300439E+00
        -11   -1    0    0    0    0  0.00000000000E+00  0.00000000000E+00  0.45593999997E+02  0.45594000000E+02  0.51100000000E-03 0. -1.
         11   -1    0    0    0    0 -0.00000000000E+00 -0.00000000000E+00 -0.45593999997E+02  0.45594000000E+02  0.51100000000E-03 0.  1.
    9900012    2    1    2    0    0 -0.96672341940E+01 -0.36400817521E+02 -0.15319794997E+02  0.50528793762E+02  0.29999799118E+02 0.  0.
         12    1    1    2    0    0  0.96672341940E+01  0.36400817521E+02  0.15319794997E+02  0.40659206238E+02  0.00000000000E+00 0. -1.
         11    1    3    3    0    0 -0.14587419989E+02 -0.26051855640E+02 -0.92236531672E+01  0.31250084515E+02  0.51100000000E-03 0. -1.
        -11    1    3    3    0    0 -0.29466755968E+00 -0.10041486579E+02  0.13989582428E+01  0.10142749435E+02  0.51100000000E-03 0.  1.
        -12    1    3    3    0    0  0.52148533543E+01 -0.30747530187E+00 -0.74951000730E+01  0.91359598112E+01  0.00000000000E+00 0.  1.
</event>
<event>
 7    1  0.2746803E-013  0.5052886E+02  0.7816164E-02  0.1300439E+00
        -11   -1    0    0    0    0  0.00000000000E+00  0.00000000000E+00  0.45593999997E+02  0.45594000000E+02  0.51100000000E-03 0.  1.
         11   -1    0    0    0    0 -0.00000000000E+00 -0.00000000000E+00 -0.45593999997E+02  0.45594000000E+02  0.51100000000E-03 0. -1.
    9900012    2    1    2    0    0 -0.20190417121E+01  0.21407677399E+02  0.34507977570E+02  0.50528859613E+02  0.29999999280E+02 0.  0.
         12    1    1    2    0    0  0.20190417121E+01 -0.21407677399E+02 -0.34507977570E+02  0.40659140387E+02  0.00000000000E+00 0. -1.
         11    1    3    3    0    0  0.21078570065E+01  0.79401806727E+01 -0.36259813279E+01  0.89798257849E+01  0.51100000000E-03 0. -1.
        -11    1    3    3    0    0  0.24600904263E+01  0.22624131298E+01  0.57002554947E+01  0.66078340658E+01  0.51100000000E-03 0.  1.
        -12    1    3    3    0    0 -0.65869891450E+01  0.11205083596E+02  0.32433703403E+02  0.34941199762E+02  0.00000000000E+00 0.  1.
</event>
<event>
 7    1  0.2746803E-013  0.5052886E+02  0.7816164E-02  0.1300439E+00
        -11   -1    0    0    0    0  0.00000000000E+00  0.00000000000E+00  0.45593999997E+02  0.45594000000E+02  0.51100000000E-03 0.  1.
         11   -1    0    0    0    0 -0.00000000000E+00 -0.00000000000E+00 -0.45593999997E+02  0.45594000000E+02  0.51100000000E-03 0. -1.
    9900012    2    1    2    0    0  0.35295333818E+02  0.15749172010E+02  0.12624128055E+02  0.50528860591E+02  0.30000002253E+02 0.  0.
         12    1    1    2    0    0 -0.35295333818E+02 -0.15749172010E+02 -0.12624128055E+02  0.40659139409E+02  0.00000000000E+00 0. -1.
         11    1    3    3    0    0  0.40600046186E+01  0.13125536993E+02  0.60273902811E+01  0.15003092772E+02  0.51100000000E-03 0. -1.
        -11    1    3    3    0    0  0.12455620617E+02 -0.43341043945E+01  0.80416793548E+01  0.15446538543E+02  0.51100000000E-03 0.  1.
         12    1    3    3    0    0  0.18779708582E+02  0.69577394117E+01 -0.14449415814E+01  0.20079229276E+02  0.00000000000E+00 0. -1.
</event>
<event>
 7    1  0.2746803E-013  0.5052886E+02  0.7816164E-02  0.1300439E+00
        -11   -1    0    0    0    0  0.00000000000E+00  0.00000000000E+00  0.45593999997E+02  0.45594000000E+02  0.51100000000E-03 0.  1.
         11   -1    0    0    0    0 -0.00000000000E+00 -0.00000000000E+00 -0.45593999997E+02  0.45594000000E+02  0.51100000000E-03 0. -1.
    9900012    2    1    2    0    0 -0.38987783284E+02  0.76449913867E+01  0.86413162072E+01  0.50528862227E+02  0.30000007224E+02 0.  0.
         12    1    1    2    0    0  0.38987783284E+02 -0.76449913867E+01 -0.86413162072E+01  0.40659137773E+02  0.00000000000E+00 0. -1.
         11    1    3    3    0    0  0.34359133973E+01 -0.51276582594E+00  0.11395216960E+01  0.36560825515E+01  0.51100000000E-03 0. -1.
        -11    1    3    3    0    0 -0.20771067321E+02 -0.40632622198E+01  0.58308636752E+01  0.21953275586E+02  0.51100000000E-03 0.  1.
        -12    1    3    3    0    0 -0.21652629360E+02  0.12221019432E+02  0.16709308360E+01  0.24919504089E+02  0.00000000000E+00 0.  1.
</event>
<event>
 7    1  0.2746803E-013  0.5052886E+02  0.7816164E-02  0.1300439E+00
        -11   -1    0    0    0    0  0.00000000000E+00  0.00000000000E+00  0.45593999997E+02  0.45594000000E+02  0.51100000000E-03 0.  1.
         11   -1    0    0    0    0 -0.00000000000E+00 -0.00000000000E+00 -0.45593999997E+02  0.45594000000E+02  0.51100000000E-03 0. -1.
    9900012    2    1    2    0    0 -0.27270794401E+01 -0.37399569256E+02  0.15716257540E+02  0.50528862111E+02  0.30000006873E+02 0.  0.
         12    1    1    2    0    0  0.27270794401E+01  0.37399569256E+02 -0.15716257540E+02  0.40659137889E+02  0.00000000000E+00 0. -1.
         11    1    3    3    0    0  0.50191981767E+01 -0.47628160340E+01  0.36369600547E+01  0.78169204685E+01  0.51100000000E-03 0. -1.
        -11    1    3    3    0    0 -0.26683664226E+01 -0.22450525623E+02 -0.40527429756E+01  0.22968913905E+02  0.51100000000E-03 0.  1.
        -12    1    3    3    0    0 -0.50779111941E+01 -0.10186227599E+02  0.16132040461E+02  0.19743027737E+02  0.00000000000E+00 0.  1.
</event>
<event>
 7    1  0.2746803E-013  0.5052886E+02  0.7816164E-02  0.1300439E+00
        -11   -1    0    0    0    0  0.00000000000E+00  0.00000000000E+00  0.45593999997E+02  0.45594000000E+02  0.51100000000E-03 0. -1.
         11   -1    0    0    0    0 -0.00000000000E+00 -0.00000000000E+00 -0.45593999997E+02  0.45594000000E+02  0.51100000000E-03 0.  1.
    9900012    2    1    2    0    0 -0.38886309288E+02  0.45726251820E+01  0.10959562234E+02  0.50528856435E+02  0.29999989618E+02 0.  0.
         12    1    1    2    0    0  0.38886309288E+02 -0.45726251820E+01 -0.10959562234E+02  0.40659143565E+02  0.00000000000E+00 0. -1.
         11    1    3    3    0    0 -0.58847343963E+01  0.69372648065E+01  0.88669884379E+01  0.12703512354E+02  0.51100000000E-03 0.  1.
        -11    1    3    3    0    0 -0.12200607917E+01 -0.46698135281E+01  0.34478090741E+01  0.59315338990E+01  0.51100000000E-03 0. -1.
        -12    1    3    3    0    0 -0.31781514100E+02  0.23051739036E+01 -0.13552352782E+01  0.31893810181E+02  0.00000000000E+00 0.  1.
</event>
<event>
 7    1  0.2746803E-013  0.5052887E+02  0.7816164E-02  0.1300439E+00
        -11   -1    0    0    0    0  0.00000000000E+00  0.00000000000E+00  0.45593999997E+02  0.45594000000E+02  0.51100000000E-03 0. -1.
         11   -1    0    0    0    0 -0.00000000000E+00 -0.00000000000E+00 -0.45593999997E+02  0.45594000000E+02  0.51100000000E-03 0.  1.
    9900012    2    1    2    0    0  0.68858756813E+01  0.35880323383E+02 -0.17842410114E+02  0.50528874473E+02  0.30000044448E+02 0.  0.
         12    1    1    2    0    0 -0.68858756813E+01 -0.35880323383E+02  0.17842410114E+02  0.40659125527E+02  0.00000000000E+00 0. -1.
         11    1    3    3    0    0  0.63339364471E+01 -0.95512976236E+00 -0.83556049135E+01  0.10528397671E+02  0.51100000000E-03 0. -1.
        -11    1    3    3    0    0  0.55130125780E+01  0.10545462063E+02 -0.48385963334E+01  0.12845703272E+02  0.51100000000E-03 0.  1.
         12    1    3    3    0    0 -0.49610733438E+01  0.26289991082E+02 -0.46482088672E+01  0.27154773531E+02  0.00000000000E+00 0. -1.
</event>
<event>
 7    1  0.2746803E-013  0.5052887E+02  0.7816164E-02  0.1300439E+00
        -11   -1    0    0    0    0  0.00000000000E+00  0.00000000000E+00  0.45593999997E+02  0.45594000000E+02  0.51100000000E-03 0.  1.
         11   -1    0    0    0    0 -0.00000000000E+00 -0.00000000000E+00 -0.45593999997E+02  0.45594000000E+02  0.51100000000E-03 0. -1.
    9900012    2    1    2    0    0 -0.20227417559E+02  0.28101233036E+02  0.21315187239E+02  0.50528869091E+02  0.30000028088E+02 0.  0.
         12    1    1    2    0    0  0.20227417559E+02 -0.28101233036E+02 -0.21315187239E+02  0.40659130909E+02  0.00000000000E+00 0. -1.
         11    1    3    3    0    0 -0.72196056695E+01  0.13519541695E+02  0.16760808515E+02  0.22711790242E+02  0.51100000000E-03 0. -1.
        -11    1    3    3    0    0 -0.32361586975E+01 -0.20423958878E+01  0.73942347440E+01  0.83257919616E+01  0.51100000000E-03 0.  1.
        -12    1    3    3    0    0 -0.97716531922E+01  0.16624087228E+02 -0.28398560198E+01  0.19491286887E+02  0.00000000000E+00 0.  1.
</event>
<event>
 7    1  0.2746803E-013  0.5052887E+02  0.7816164E-02  0.1300439E+00
        -11   -1    0    0    0    0  0.00000000000E+00  0.00000000000E+00  0.45593999997E+02  0.45594000000E+02  0.51100000000E-03 0.  1.
         11   -1    0    0    0    0 -0.00000000000E+00 -0.00000000000E+00 -0.45593999997E+02  0.45594000000E+02  0.51100000000E-03 0. -1.
    9900012    2    1    2    0    0  0.87625382440E+01 -0.21238794455E+02  0.33545441294E+02  0.50528866979E+02  0.30000021670E+02 0.  0.
         12    1    1    2    0    0 -0.87625382440E+01  0.21238794455E+02 -0.33545441294E+02  0.40659133021E+02  0.00000000000E+00 0. -1.
         11    1    3    3    0    0  0.77815087811E+01 -0.10405767702E+02  0.26164892375E+02  0.29213583718E+02  0.51100000000E-03 0. -1.
        -11    1    3    3    0    0 -0.39775699696E+01  0.37894467116E+00  0.81029242161E+01  0.90344918529E+01  0.51100000000E-03 0.  1.
         12    1    3    3    0    0  0.49585994325E+01 -0.11211971424E+02 -0.72237529744E+00  0.12280791408E+02  0.00000000000E+00 0. -1.
</event>
<event>
 7    1  0.2746803E-013  0.5052885E+02  0.7816164E-02  0.1300439E+00
        -11   -1    0    0    0    0  0.00000000000E+00  0.00000000000E+00  0.45593999997E+02  0.45594000000E+02  0.51100000000E-03 0. -1.
         11   -1    0    0    0    0 -0.00000000000E+00 -0.00000000000E+00 -0.45593999997E+02  0.45594000000E+02  0.51100000000E-03 0.  1.
    9900012    2    1    2    0    0  0.20371348805E+02 -0.24752155064E+02 -0.25010104598E+02  0.50528851405E+02  0.29999974330E+02 0.  0.
         12    1    1    2    0    0 -0.20371348805E+02  0.24752155064E+02  0.25010104598E+02  0.40659148595E+02  0.00000000000E+00 0. -1.
         11    1    3    3    0    0  0.84491995432E+01 -0.44413868045E+01 -0.27960323144E+01  0.99464911719E+01  0.51100000000E-03 0. -1.
        -11    1    3    3    0    0  0.18579015057E+02 -0.17959670203E+02 -0.21252326689E+02  0.33457300313E+02  0.51100000000E-03 0.  1.
         12    1    3    3    0    0 -0.66568657944E+01 -0.23510980574E+01 -0.96174559474E+00  0.71250599204E+01  0.00000000000E+00 0. -1.
</event>
<event>
 7    1  0.2746803E-013  0.5052889E+02  0.7816164E-02  0.1300439E+00
        -11   -1    0    0    0    0  0.00000000000E+00  0.00000000000E+00  0.45593999997E+02  0.45594000000E+02  0.51100000000E-03 0.  1.
         11   -1    0    0    0    0 -0.00000000000E+00 -0.00000000000E+00 -0.45593999997E+02  0.45594000000E+02  0.51100000000E-03 0. -1.
    9900012    2    1    2    0    0 -0.33306460185E+02  0.21050541791E+02  0.10035829973E+02  0.50528886840E+02  0.30000082039E+02 0.  0.
         12    1    1    2    0    0  0.33306460185E+02 -0.21050541791E+02 -0.10035829973E+02  0.40659113160E+02  0.00000000000E+00 0. -1.
         11    1    3    3    0    0 -0.99199618342E+01  0.39009066913E+01 -0.58165593798E+01  0.12143108296E+02  0.51100000000E-03 0. -1.
        -11    1    3    3    0    0 -0.10745289364E+02  0.15078630208E+02  0.67866197236E+00  0.18528003530E+02  0.51100000000E-03 0.  1.
         12    1    3    3    0    0 -0.12641208986E+02  0.20710048916E+01  0.15173727381E+02  0.19857775014E+02  0.00000000000E+00 0. -1.
</event>
<event>
 7    1  0.2746803E-013  0.5052884E+02  0.7816164E-02  0.1300439E+00
        -11   -1    0    0    0    0  0.00000000000E+00  0.00000000000E+00  0.45593999997E+02  0.45594000000E+02  0.51100000000E-03 0.  1.
         11   -1    0    0    0    0 -0.00000000000E+00 -0.00000000000E+00 -0.45593999997E+02  0.45594000000E+02  0.51100000000E-03 0. -1.
    9900012    2    1    2    0    0 -0.13645259474E+02  0.38124090208E+02  0.36779969268E+01  0.50528843323E+02  0.29999949765E+02 0.  0.
         12    1    1    2    0    0  0.13645259474E+02 -0.38124090208E+02 -0.36779969268E+01  0.40659156677E+02  0.00000000000E+00 0. -1.
         11    1    3    3    0    0 -0.12711069263E+01 -0.10396068099E+01  0.36681523456E+01  0.40189348128E+01  0.51100000000E-03 0. -1.
        -11    1    3    3    0    0  0.24654755678E+01  0.80818806903E+01 -0.74543511969E+01  0.11267773396E+02  0.51100000000E-03 0.  1.
        -12    1    3    3    0    0 -0.14839628115E+02  0.31081816328E+02  0.74641957781E+01  0.35242135115E+02  0.00000000000E+00 0.  1.
</event>
<event>
 7    1  0.2746803E-013  0.5052886E+02  0.7816164E-02  0.1300439E+00
        -11   -1    0    0    0    0  0.00000000000E+00  0.00000000000E+00  0.45593999997E+02  0.45594000000E+02  0.51100000000E-03 0. -1.
         11   -1    0    0    0    0 -0.00000000000E+00 -0.00000000000E+00 -0.45593999997E+02  0.45594000000E+02  0.51100000000E-03 0.  1.
    9900012    2    1    2    0    0 -0.14960580552E+02 -0.29780398566E+01 -0.37689224391E+02  0.50528864163E+02  0.30000013109E+02 0.  0.
         12    1    1    2    0    0  0.14960580552E+02  0.29780398566E+01  0.37689224391E+02  0.40659135837E+02  0.00000000000E+00 0. -1.
         11    1    3    3    0    0 -0.11215743406E+02 -0.52019229564E+01 -0.13275357291E+01  0.12434438225E+02  0.51100000000E-03 0. -1.
        -11    1    3    3    0    0 -0.28436513790E+01  0.33068732431E+01 -0.47394592494E+01  0.64408258825E+01  0.51100000000E-03 0.  1.
         12    1    3    3    0    0 -0.90118576715E+00 -0.10829901433E+01 -0.31622229413E+02  0.31653600055E+02  0.00000000000E+00 0. -1.
</event>
<event>
 7    1  0.2746803E-013  0.5052886E+02  0.7816164E-02  0.1300439E+00
        -11   -1    0    0    0    0  0.00000000000E+00  0.00000000000E+00  0.45593999997E+02  0.45594000000E+02  0.51100000000E-03 0.  1.
         11   -1    0    0    0    0 -0.00000000000E+00 -0.00000000000E+00 -0.45593999997E+02  0.45594000000E+02  0.51100000000E-03 0. -1.
    9900012    2    1    2    0    0 -0.30705505673E+01  0.21034996705E+02  0.34659286696E+02  0.50528861772E+02  0.30000005843E+02 0.  0.
         12    1    1    2    0    0  0.30705505673E+01 -0.21034996705E+02 -0.34659286696E+02  0.40659138228E+02  0.00000000000E+00 0. -1.
         11    1    3    3    0    0  0.68088078004E+01  0.83913080370E+01  0.18102155768E+02  0.21082266432E+02  0.51100000000E-03 0. -1.
        -11    1    3    3    0    0 -0.70375688406E+01  0.77401021560E+01  0.20172790471E+02  0.22723952830E+02  0.51100000000E-03 0.  1.
         12    1    3    3    0    0 -0.28417895271E+01  0.49035865116E+01 -0.36156595421E+01  0.67226425100E+01  0.00000000000E+00 0. -1.
</event>
<event>
 7    1  0.2746803E-013  0.5052886E+02  0.7816164E-02  0.1300439E+00
        -11   -1    0    0    0    0  0.00000000000E+00  0.00000000000E+00  0.45593999997E+02  0.45594000000E+02  0.51100000000E-03 0.  1.
         11   -1    0    0    0    0 -0.00000000000E+00 -0.00000000000E+00 -0.45593999997E+02  0.45594000000E+02  0.51100000000E-03 0. -1.
    9900012    2    1    2    0    0 -0.12669898580E+02  0.10768394170E+02  0.37103656030E+02  0.50528856701E+02  0.29999990429E+02 0.  0.
         12    1    1    2    0    0  0.12669898580E+02 -0.10768394170E+02 -0.37103656030E+02  0.40659143299E+02  0.00000000000E+00 0. -1.
         11    1    3    3    0    0 -0.30954413355E+01  0.71166466764E+01  0.80182471847E+01  0.11158884584E+02  0.51100000000E-03 0. -1.
        -11    1    3    3    0    0 -0.12423625539E+02  0.14914177737E+01  0.27738729210E+01  0.12816597433E+02  0.51100000000E-03 0.  1.
        -12    1    3    3    0    0  0.28491682949E+01  0.21603297196E+01  0.26311535924E+02  0.26553374685E+02  0.00000000000E+00 0.  1.
</event>
<event>
 7    1  0.2746803E-013  0.5052886E+02  0.7816164E-02  0.1300439E+00
        -11   -1    0    0    0    0  0.00000000000E+00  0.00000000000E+00  0.45593999997E+02  0.45594000000E+02  0.51100000000E-03 0. -1.
         11   -1    0    0    0    0 -0.00000000000E+00 -0.00000000000E+00 -0.45593999997E+02  0.45594000000E+02  0.51100000000E-03 0.  1.
    9900012    2    1    2    0    0  0.81734365234E+01  0.39790680120E+02 -0.17498623147E+01  0.50528864407E+02  0.30000013853E+02 0.  0.
         12    1    1    2    0    0 -0.81734365234E+01 -0.39790680120E+02  0.17498623147E+01  0.40659135593E+02  0.00000000000E+00 0. -1.
         11    1    3    3    0    0  0.11476210346E+02  0.23538115176E+02 -0.11680488270E+02  0.28673682646E+02  0.51100000000E-03 0. -1.
        -11    1    3    3    0    0 -0.38678638742E+01  0.77418030011E+01 -0.14316111151E+00  0.86554248898E+01  0.51100000000E-03 0.  1.
         12    1    3    3    0    0  0.56509005119E+00  0.85107619425E+01  0.10073787067E+02  0.13199756872E+02  0.00000000000E+00 0. -1.
</event>
<event>
 7    1  0.2746803E-013  0.5052886E+02  0.7816164E-02  0.1300439E+00
        -11   -1    0    0    0    0  0.00000000000E+00  0.00000000000E+00  0.45593999997E+02  0.45594000000E+02  0.51100000000E-03 0.  1.
         11   -1    0    0    0    0 -0.00000000000E+00 -0.00000000000E+00 -0.45593999997E+02  0.45594000000E+02  0.51100000000E-03 0. -1.
    9900012    2    1    2    0    0 -0.37475341896E+02 -0.14178657910E+02  0.69087071889E+01  0.50528858034E+02  0.29999994481E+02 0.  0.
         12    1    1    2    0    0  0.37475341896E+02  0.14178657910E+02 -0.69087071889E+01  0.40659141966E+02  0.00000000000E+00 0. -1.
         11    1    3    3    0    0 -0.17617174951E+02 -0.17052554258E+01 -0.16359810512E+01  0.17774959454E+02  0.51100000000E-03 0. -1.
        -11    1    3    3    0    0 -0.18168013250E+02 -0.72379988852E+01  0.14724467832E+02  0.24480099806E+02  0.51100000000E-03 0.  1.
         12    1    3    3    0    0 -0.16901536952E+01 -0.52354035992E+01 -0.61797795918E+01  0.82737987746E+01  0.00000000000E+00 0. -1.
</event>
<event>
 7    1  0.2746803E-013  0.5052885E+02  0.7816164E-02  0.1300439E+00
        -11   -1    0    0    0    0  0.00000000000E+00  0.00000000000E+00  0.45593999997E+02  0.45594000000E+02  0.51100000000E-03 0.  1.
         11   -1    0    0    0    0 -0.00000000000E+00 -0.00000000000E+00 -0.45593999997E+02  0.45594000000E+02  0.51100000000E-03 0. -1.
    9900012    2    1    2    0    0 -0.74269713942E+01 -0.16275229340E+01  0.39941929722E+02  0.50528849924E+02  0.29999969830E+02 0.  0.
         12    1    1    2    0    0  0.74269713942E+01  0.16275229340E+01 -0.39941929722E+02  0.40659150076E+02  0.00000000000E+00 0. -1.
         11    1    3    3    0    0  0.48393269042E+01 -0.44196903292E+01  0.34097994623E+01  0.73877926424E+01  0.51100000000E-03 0. -1.
        -11    1    3    3    0    0 -0.62821946924E+01 -0.67855208522E+01  0.72304269826E+01  0.11738327734E+02  0.51100000000E-03 0.  1.
         12    1    3    3    0    0 -0.59841036060E+01  0.95776882475E+01  0.29301703277E+02  0.31402729548E+02  0.00000000000E+00 0. -1.
</event>
<event>
 7    1  0.2746803E-013  0.5052886E+02  0.7816164E-02  0.1300439E+00
        -11   -1    0    0    0    0  0.00000000000E+00  0.00000000000E+00  0.45593999997E+02  0.45594000000E+02  0.51100000000E-03 0. -1.
         11   -1    0    0    0    0 -0.00000000000E+00 -0.00000000000E+00 -0.45593999997E+02  0.45594000000E+02  0.51100000000E-03 0.  1.
    9900012    2    1    2    0    0 -0.83133768477E+01 -0.73022087328E+01 -0.39124560345E+02  0.50528859464E+02  0.29999998826E+02 0.  0.
         12    1    1    2    0    0  0.83133768477E+01  0.73022087328E+01  0.39124560345E+02  0.40659140536E+02  0.00000000000E+00 0. -1.
         11    1    3    3    0    0  0.12467747233E+01 -0.61111462745E+01 -0.11343497221E+02  0.12945095035E+02  0.51100000000E-03 0.  1.
        -11    1    3    3    0    0 -0.13865118618E+02  0.47885410441E+01 -0.26231770527E+02  0.30054574109E+02  0.51100000000E-03 0. -1.
         12    1    3    3    0    0  0.43049670467E+01 -0.59796035024E+01 -0.15492925961E+01  0.75291903195E+01  0.00000000000E+00 0. -1.
</event>
<event>
 7    1  0.2746803E-013  0.5052880E+02  0.7816164E-02  0.1300439E+00
        -11   -1    0    0    0    0  0.00000000000E+00  0.00000000000E+00  0.45593999997E+02  0.45594000000E+02  0.51100000000E-03 0.  1.
         11   -1    0    0    0    0 -0.00000000000E+00 -0.00000000000E+00 -0.45593999997E+02  0.45594000000E+02  0.51100000000E-03 0. -1.
    9900012    2    1    2    0    0  0.18137852298E+02 -0.14154064753E+02  0.33523896337E+02  0.50528796114E+02  0.29999806268E+02 0.  0.
         12    1    1    2    0    0 -0.18137852298E+02  0.14154064753E+02 -0.33523896337E+02  0.40659203886E+02  0.00000000000E+00 0. -1.
         11    1    3    3    0    0  0.86879352548E+00  0.27145134395E+01  0.89827464528E+00  0.29883579107E+01  0.51100000000E-03 0. -1.
        -11    1    3    3    0    0  0.52715413124E+01  0.64456761720E+01  0.70123536706E+01  0.10886183601E+02  0.51100000000E-03 0.  1.
        -12    1    3    3    0    0  0.11997517460E+02 -0.23314254364E+02  0.25613268021E+02  0.36654254603E+02  0.00000000000E+00 0.  1.
</event>
<event>
 7    1  0.2746803E-013  0.5052887E+02  0.7816164E-02  0.1300439E+00
        -11   -1    0    0    0    0  0.00000000000E+00  0.00000000000E+00  0.45593999997E+02  0.45594000000E+02  0.51100000000E-03 0.  1.
         11   -1    0    0    0    0 -0.00000000000E+00 -0.00000000000E+00 -0.45593999997E+02  0.45594000000E+02  0.51100000000E-03 0. -1.
    9900012    2    1    2    0    0 -0.11759433715E+02  0.13974266890E+02  0.36326304112E+02  0.50528870805E+02  0.30000033300E+02 0.  0.
         12    1    1    2    0    0  0.11759433715E+02 -0.13974266890E+02 -0.36326304112E+02  0.40659129195E+02  0.00000000000E+00 0. -1.
         11    1    3    3    0    0  0.26175629221E+01 -0.26549710238E+01  0.20920182021E+01  0.42751663368E+01  0.51100000000E-03 0. -1.
        -11    1    3    3    0    0 -0.10602647452E+02 -0.17487578319E+01  0.58663793945E+01  0.12242903839E+02  0.51100000000E-03 0.  1.
        -12    1    3    3    0    0 -0.37743491851E+01  0.18377995746E+02  0.28367906515E+02  0.34010800629E+02  0.00000000000E+00 0.  1.
</event>
<event>
 7    1  0.2746803E-013  0.5052887E+02  0.7816164E-02  0.1300439E+00
        -11   -1    0    0    0    0  0.00000000000E+00  0.00000000000E+00  0.45593999997E+02  0.45594000000E+02  0.51100000000E-03 0. -1.
         11   -1    0    0    0    0 -0.00000000000E+00 -0.00000000000E+00 -0.45593999997E+02  0.45594000000E+02  0.51100000000E-03 0.  1.
    9900012    2    1    2    0    0  0.93162840842E+01 -0.15868907869E+02 -0.36256713675E+02  0.50528872211E+02  0.30000037572E+02 0.  0.
         12    1    1    2    0    0 -0.93162840842E+01  0.15868907869E+02  0.36256713675E+02  0.40659127789E+02  0.00000000000E+00 0. -1.
         11    1    3    3    0    0  0.13395958857E+02 -0.66044946111E+01 -0.12857986912E+02  0.19707838300E+02  0.51100000000E-03 0.  1.
        -11    1    3    3    0    0  0.27114021332E+01 -0.11538391378E+02 -0.95164325393E+01  0.15200285052E+02  0.51100000000E-03 0. -1.
         12    1    3    3    0    0 -0.67910769057E+01  0.22739781200E+01 -0.13882294223E+02  0.15620748859E+02  0.00000000000E+00 0. -1.
</event>
<event>
 7    1  0.2746803E-013  0.5052887E+02  0.7816164E-02  0.1300439E+00
        -11   -1    0    0    0    0  0.00000000000E+00  0.00000000000E+00  0.45593999997E+02  0.45594000000E+02  0.51100000000E-03 0.  1.
         11   -1    0    0    0    0 -0.00000000000E+00 -0.00000000000E+00 -0.45593999997E+02  0.45594000000E+02  0.51100000000E-03 0. -1.
    9900012    2    1    2    0    0 -0.32378857213E+01 -0.38630409311E+02 -0.12262658916E+02  0.50528865341E+02  0.30000016691E+02 0.  0.
         12    1    1    2    0    0  0.32378857213E+01  0.38630409311E+02  0.12262658916E+02  0.40659134659E+02  0.00000000000E+00 0. -1.
         11    1    3    3    0    0 -0.15810568975E+01 -0.13666974674E+00 -0.99160874070E+00  0.18712850367E+01  0.51100000000E-03 0. -1.
        -11    1    3    3    0    0  0.44853809682E+01 -0.26675344349E+02  0.51274337397E+01  0.27531494976E+02  0.51100000000E-03 0.  1.
        -12    1    3    3    0    0 -0.61422097920E+01 -0.11818395215E+02 -0.16398483915E+02  0.21126085329E+02  0.00000000000E+00 0.  1.
</event>
<event>
 7    1  0.2746803E-013  0.5052886E+02  0.7816164E-02  0.1300439E+00
        -11   -1    0    0    0    0  0.00000000000E+00  0.00000000000E+00  0.45593999997E+02  0.45594000000E+02  0.51100000000E-03 0.  1.
         11   -1    0    0    0    0 -0.00000000000E+00 -0.00000000000E+00 -0.45593999997E+02  0.45594000000E+02  0.51100000000E-03 0. -1.
    9900012    2    1    2    0    0 -0.21923394852E+00  0.18373956196E+02  0.36270033045E+02  0.50528860475E+02  0.30000001900E+02 0.  0.
         12    1    1    2    0    0  0.21923394852E+00 -0.18373956196E+02 -0.36270033045E+02  0.40659139525E+02  0.00000000000E+00 0. -1.
         11    1    3    3    0    0 -0.32676291724E+01  0.13115138165E+02  0.99672559926E+01  0.16793761990E+02  0.51100000000E-03 0. -1.
        -11    1    3    3    0    0  0.84726671178E+01  0.10387693533E+02  0.14302471545E+02  0.19602320209E+02  0.51100000000E-03 0.  1.
        -12    1    3    3    0    0 -0.54242718939E+01 -0.51288755028E+01  0.12000305508E+02  0.14132778275E+02  0.00000000000E+00 0.  1.
</event>
<event>
 7    1  0.2746803E-013  0.5052885E+02  0.7816164E-02  0.1300439E+00
        -11   -1    0    0    0    0  0.00000000000E+00  0.00000000000E+00  0.45593999997E+02  0.45594000000E+02  0.51100000000E-03 0.  1.
         11   -1    0    0    0    0 -0.00000000000E+00 -0.00000000000E+00 -0.45593999997E+02  0.45594000000E+02  0.51100000000E-03 0. -1.
    9900012    2    1    2    0    0  0.38159723080E+02 -0.43712680277E+01 -0.13337685671E+02  0.50528852090E+02  0.29999976414E+02 0.  0.
         12    1    1    2    0    0 -0.38159723080E+02  0.43712680277E+01  0.13337685671E+02  0.40659147910E+02  0.00000000000E+00 0. -1.
         11    1    3    3    0    0  0.17597212866E+02 -0.30192650086E+01 -0.70622757452E+01  0.19200354184E+02  0.51100000000E-03 0. -1.
        -11    1    3    3    0    0  0.18739444020E+02 -0.10409209052E+02 -0.38874628171E+01  0.21786022186E+02  0.51100000000E-03 0.  1.
         12    1    3    3    0    0  0.18230661931E+01  0.90572060329E+01 -0.23879471089E+01  0.95424757197E+01  0.00000000000E+00 0. -1.
</event>
<event>
 7    1  0.2746803E-013  0.5052886E+02  0.7816164E-02  0.1300439E+00
        -11   -1    0    0    0    0  0.00000000000E+00  0.00000000000E+00  0.45593999997E+02  0.45594000000E+02  0.51100000000E-03 0.  1.
         11   -1    0    0    0    0 -0.00000000000E+00 -0.00000000000E+00 -0.45593999997E+02  0.45594000000E+02  0.51100000000E-03 0. -1.
    9900012    2    1    2    0    0  0.50762944955E+01 -0.15847976188E+02  0.37097687213E+02  0.50528861892E+02  0.30000006208E+02 0.  0.
         12    1    1    2    0    0 -0.50762944955E+01  0.15847976188E+02 -0.37097687213E+02  0.40659138108E+02  0.00000000000E+00 0. -1.
         11    1    3    3    0    0  0.57957012860E+01 -0.13609891227E+02  0.13275117440E+02  0.19875815352E+02  0.51100000000E-03 0. -1.
        -11    1    3    3    0    0  0.43823957043E+01 -0.94718425527E+01  0.13070156990E+02  0.16725734586E+02  0.51100000000E-03 0.  1.
        -12    1    3    3    0    0 -0.51018024947E+01  0.72337575915E+01  0.10752412784E+02  0.13927311954E+02  0.00000000000E+00 0.  1.
</event>
<event>
 7    1  0.2746803E-013  0.5052886E+02  0.7816164E-02  0.1300439E+00
        -11   -1    0    0    0    0  0.00000000000E+00  0.00000000000E+00  0.45593999997E+02  0.45594000000E+02  0.51100000000E-03 0.  1.
         11   -1    0    0    0    0 -0.00000000000E+00 -0.00000000000E+00 -0.45593999997E+02  0.45594000000E+02  0.51100000000E-03 0. -1.
    9900012    2    1    2    0    0  0.32027029067E+02 -0.74437982445E+01  0.23917043724E+02  0.50528859532E+02  0.29999999033E+02 0.  0.
         12    1    1    2    0    0 -0.32027029067E+02  0.74437982445E+01 -0.23917043724E+02  0.40659140468E+02  0.00000000000E+00 0. -1.
         11    1    3    3    0    0  0.35416504882E+01  0.84658458839E+00  0.13813827769E+02  0.14285721247E+02  0.51100000000E-03 0. -1.
        -11    1    3    3    0    0  0.90012331310E+01 -0.87101367305E+01  0.11089982330E+02  0.16729506510E+02  0.51100000000E-03 0.  1.
         12    1    3    3    0    0  0.19484145447E+02  0.41975389760E+00 -0.98676637550E+00  0.19513631774E+02  0.00000000000E+00 0. -1.
</event>
<event>
 7    1  0.2746803E-013  0.5052886E+02  0.7816164E-02  0.1300439E+00
        -11   -1    0    0    0    0  0.00000000000E+00  0.00000000000E+00  0.45593999997E+02  0.45594000000E+02  0.51100000000E-03 0.  1.
         11   -1    0    0    0    0 -0.00000000000E+00 -0.00000000000E+00 -0.45593999997E+02  0.45594000000E+02  0.51100000000E-03 0. -1.
    9900012    2    1    2    0    0  0.19490248662E+02  0.11094362126E+02  0.33914758635E+02  0.50528861825E+02  0.30000006003E+02 0.  0.
         12    1    1    2    0    0 -0.19490248662E+02 -0.11094362126E+02 -0.33914758635E+02  0.40659138175E+02  0.00000000000E+00 0. -1.
         11    1    3    3    0    0  0.17792021031E+02  0.82699028965E+01  0.31896388651E+02  0.37447655675E+02  0.51100000000E-03 0. -1.
        -11    1    3    3    0    0 -0.63678956392E+00  0.66119795129E+01  0.44647117531E+01  0.80035882782E+01  0.51100000000E-03 0.  1.
         12    1    3    3    0    0  0.23350171949E+01 -0.37875202836E+01 -0.24463417697E+01  0.50776178719E+01  0.00000000000E+00 0. -1.
</event>
<event>
 7    1  0.2746803E-013  0.5052887E+02  0.7816164E-02  0.1300439E+00
        -11   -1    0    0    0    0  0.00000000000E+00  0.00000000000E+00  0.45593999997E+02  0.45594000000E+02  0.51100000000E-03 0.  1.
         11   -1    0    0    0    0 -0.00000000000E+00 -0.00000000000E+00 -0.45593999997E+02  0.45594000000E+02  0.51100000000E-03 0. -1.
    9900012    2    1    2    0    0  0.14506572088E+02  0.18908818840E+01  0.37936119314E+02  0.50528865520E+02  0.30000017234E+02 0.  0.
         12    1    1    2    0    0 -0.14506572088E+02 -0.18908818840E+01 -0.37936119314E+02  0.40659134480E+02  0.00000000000E+00 0. -1.
         11    1    3    3    0    0  0.14410327925E+02 -0.20442005295E+01  0.98833331020E+01  0.17593083305E+02  0.51100000000E-03 0. -1.
        -11    1    3    3    0    0 -0.74219710639E+00 -0.28156092256E+01 -0.10142328667E+01  0.30833716002E+01  0.51100000000E-03 0.  1.
        -12    1    3    3    0    0  0.83844126970E+00  0.67506916391E+01  0.29067019079E+02  0.29852410615E+02  0.00000000000E+00 0.  1.
</event>
<event>
 7    1  0.2746803E-013  0.5052887E+02  0.7816164E-02  0.1300439E+00
        -11   -1    0    0    0    0  0.00000000000E+00  0.00000000000E+00  0.45593999997E+02  0.45594000000E+02  0.51100000000E-03 0. -1.
         11   -1    0    0    0    0 -0.00000000000E+00 -0.00000000000E+00 -0.45593999997E+02  0.45594000000E+02  0.51100000000E-03 0.  1.
    9900012    2    1    2    0    0 -0.34490053757E+02 -0.21478355865E+02  0.15104681797E+01  0.50528867041E+02  0.30000021859E+02 0.  0.
         12    1    1    2    0    0  0.34490053757E+02  0.21478355865E+02 -0.15104681797E+01  0.40659132959E+02  0.00000000000E+00 0. -1.
         11    1    3    3    0    0 -0.86030065177E+01  0.12066961542E+01 -0.14587822375E+01  0.88088525150E+01  0.51100000000E-03 0. -1.
        -11    1    3    3    0    0 -0.19787260190E+02 -0.37251209787E+01 -0.41700391324E+01  0.20562135559E+02  0.51100000000E-03 0.  1.
         12    1    3    3    0    0 -0.60997870492E+01 -0.18959931041E+02  0.71392895496E+01  0.21157878967E+02  0.00000000000E+00 0. -1.
</event>
<event>
 7    1  0.2746803E-013  0.5052888E+02  0.7816164E-02  0.1300439E+00
        -11   -1    0    0    0    0  0.00000000000E+00  0.00000000000E+00  0.45593999997E+02  0.45594000000E+02  0.51100000000E-03 0.  1.
         11   -1    0    0    0    0 -0.00000000000E+00 -0.00000000000E+00 -0.45593999997E+02  0.45594000000E+02  0.51100000000E-03 0. -1.
    9900012    2    1    2    0    0  0.28951294834E+02  0.45802600338E+01  0.28178143486E+02  0.50528880176E+02  0.30000061784E+02 0.  0.
         12    1    1    2    0    0 -0.28951294834E+02 -0.45802600338E+01 -0.28178143486E+02  0.40659119824E+02  0.00000000000E+00 0. -1.
         11    1    3    3    0    0  0.13723997367E+02 -0.32928184252E+01  0.63738538552E+01  0.15486018537E+02  0.51100000000E-03 0. -1.
        -11    1    3    3    0    0  0.16359906320E+02  0.77205783058E+01  0.57991133290E+01  0.18996936064E+02  0.51100000000E-03 0.  1.
         12    1    3    3    0    0 -0.11326088530E+01  0.15250015319E+00  0.16005176302E+02  0.16045925575E+02  0.00000000000E+00 0. -1.
</event>
<event>
 7    1  0.2746803E-013  0.5052886E+02  0.7816164E-02  0.1300439E+00
        -11   -1    0    0    0    0  0.00000000000E+00  0.00000000000E+00  0.45593999997E+02  0.45594000000E+02  0.51100000000E-03 0.  1.
         11   -1    0    0    0    0 -0.00000000000E+00 -0.00000000000E+00 -0.45593999997E+02  0.45594000000E+02  0.51100000000E-03 0. -1.
    9900012    2    1    2    0    0 -0.36808208727E+02 -0.94303155627E+01  0.14470338264E+02  0.50528858705E+02  0.29999996521E+02 0.  0.
         12    1    1    2    0    0  0.36808208727E+02  0.94303155627E+01 -0.14470338264E+02  0.40659141295E+02  0.00000000000E+00 0. -1.
         11    1    3    3    0    0 -0.12571287041E+02 -0.13002255229E+01 -0.48295405112E+01  0.13529682409E+02  0.51100000000E-03 0. -1.
        -11    1    3    3    0    0 -0.36155530629E+01 -0.10138713630E+02  0.53379828173E+01  0.12014982266E+02  0.51100000000E-03 0.  1.
        -12    1    3    3    0    0 -0.20621368623E+02  0.20086235902E+01  0.13961895958E+02  0.24984194031E+02  0.00000000000E+00 0.  1.
</event>
<event>
 7    1  0.2746803E-013  0.5052886E+02  0.7816164E-02  0.1300439E+00
        -11   -1    0    0    0    0  0.00000000000E+00  0.00000000000E+00  0.45593999997E+02  0.45594000000E+02  0.51100000000E-03 0.  1.
         11   -1    0    0    0    0 -0.00000000000E+00 -0.00000000000E+00 -0.45593999997E+02  0.45594000000E+02  0.51100000000E-03 0. -1.
    9900012    2    1    2    0    0  0.32587267162E+02 -0.64101840660E+01  0.23455173942E+02  0.50528860493E+02  0.30000001954E+02 0.  0.
         12    1    1    2    0    0 -0.32587267162E+02  0.64101840660E+01 -0.23455173942E+02  0.40659139507E+02  0.00000000000E+00 0. -1.
         11    1    3    3    0    0  0.11225039322E+02  0.38068681575E+00 -0.26236933010E+01  0.11533871727E+02  0.51100000000E-03 0. -1.
        -11    1    3    3    0    0  0.16270659703E+00  0.48034052338E+01  0.37705518670E+01  0.61087017377E+01  0.51100000000E-03 0.  1.
        -12    1    3    3    0    0  0.21199521243E+02 -0.11594276116E+02  0.22308315376E+02  0.32886287028E+02  0.00000000000E+00 0.  1.
</event>
<event>
 7    1  0.2746803E-013  0.5052886E+02  0.7816164E-02  0.1300439E+00
        -11   -1    0    0    0    0  0.00000000000E+00  0.00000000000E+00  0.45593999997E+02  0.45594000000E+02  0.51100000000E-03 0. -1.
         11   -1    0    0    0    0 -0.00000000000E+00 -0.00000000000E+00 -0.45593999997E+02  0.45594000000E+02  0.51100000000E-03 0.  1.
    9900012    2    1    2    0    0  0.23456264250E+02 -0.29452517059E+02  0.15346603494E+02  0.50528864096E+02  0.30000012907E+02 0.  0.
         12    1    1    2    0    0 -0.23456264250E+02  0.29452517059E+02 -0.15346603494E+02  0.40659135904E+02  0.00000000000E+00 0. -1.
         11    1    3    3    0    0  0.91925964452E+01  0.33504724768E+01 -0.90173463678E+00  0.98256104563E+01  0.51100000000E-03 0. -1.
        -11    1    3    3    0    0 -0.12585873145E+01 -0.76833706732E+01  0.36674352364E+01  0.86062946966E+01  0.51100000000E-03 0.  1.
        -12    1    3    3    0    0  0.15522255119E+02 -0.25119618862E+02  0.12580902894E+02  0.32096958943E+02  0.00000000000E+00 0.  1.
</event>
<event>
 7    1  0.2746803E-013  0.5052887E+02  0.7816164E-02  0.1300439E+00
        -11   -1    0    0    0    0  0.00000000000E+00  0.00000000000E+00  0.45593999997E+02  0.45594000000E+02  0.51100000000E-03 0. -1.
         11   -1    0    0    0    0 -0.00000000000E+00 -0.00000000000E+00 -0.45593999997E+02  0.45594000000E+02  0.51100000000E-03 0.  1.
    9900012    2    1    2    0    0  0.40169381377E+01  0.35993047603E+02  0.18480525504E+02  0.50528867070E+02  0.30000021946E+02 0.  0.
         12    1    1    2    0    0 -0.40169381377E+01 -0.35993047603E+02 -0.18480525504E+02  0.40659132930E+02  0.00000000000E+00 0. -1.
         11    1    3    3    0    0 -0.63938005509E+01  0.55541354786E+01  0.12734604869E+02  0.15293765652E+02  0.51100000000E-03 0.  1.
        -11    1    3    3    0    0  0.88744595050E+01  0.72767609568E+01  0.29866403027E+01  0.11858638290E+02  0.51100000000E-03 0. -1.
        -12    1    3    3    0    0  0.15362791837E+01  0.23162151167E+02  0.27592803322E+01  0.23376463128E+02  0.00000000000E+00 0.  1.
</event>
<event>
 7    1  0.2746803E-013  0.5052889E+02  0.7816164E-02  0.1300439E+00
        -11   -1    0    0    0    0  0.00000000000E+00  0.00000000000E+00  0.45593999997E+02  0.45594000000E+02  0.51100000000E-03 0.  1.
         11   -1    0    0    0    0 -0.00000000000E+00 -0.00000000000E+00 -0.45593999997E+02  0.45594000000E+02  0.51100000000E-03 0. -1.
    9900012    2    1    2    0    0 -0.27563559400E+02 -0.24785390773E+02  0.16706217931E+02  0.50528891302E+02  0.30000095603E+02 0.  0.
         12    1    1    2    0    0  0.27563559400E+02  0.24785390773E+02 -0.16706217931E+02  0.40659108698E+02  0.00000000000E+00 0. -1.
         11    1    3    3    0    0  0.89378583712E-01 -0.30044577599E+01 -0.54067440203E+01  0.61860840703E+01  0.51100000000E-03 0. -1.
        -11    1    3    3    0    0 -0.22818766563E+01 -0.10257391566E+02  0.71955410609E+01  0.12735652878E+02  0.51100000000E-03 0.  1.
        -12    1    3    3    0    0 -0.25371061327E+02 -0.11523541446E+02  0.14917420890E+02  0.31607154354E+02  0.00000000000E+00 0.  1.
</event>
<event>
 7    1  0.2746803E-013  0.5052886E+02  0.7816164E-02  0.1300439E+00
        -11   -1    0    0    0    0  0.00000000000E+00  0.00000000000E+00  0.45593999997E+02  0.45594000000E+02  0.51100000000E-03 0. -1.
         11   -1    0    0    0    0 -0.00000000000E+00 -0.00000000000E+00 -0.45593999997E+02  0.45594000000E+02  0.51100000000E-03 0.  1.
    9900012    2    1    2    0    0  0.75493117836E+01 -0.22048172277E+02 -0.33317440256E+02  0.50528857924E+02  0.29999994146E+02 0.  0.
         12    1    1    2    0    0 -0.75493117836E+01  0.22048172277E+02  0.33317440256E+02  0.40659142076E+02  0.00000000000E+00 0. -1.
         11    1    3    3    0    0  0.53112003220E+01 -0.13803718959E+02 -0.82333639836E+01  0.16927486190E+02  0.51100000000E-03 0.  1.
        -11    1    3    3    0    0 -0.19307740064E+01 -0.57256201500E+01  0.17801415252E+01  0.62991680782E+01  0.51100000000E-03 0. -1.
         12    1    3    3    0    0  0.41688854680E+01 -0.25188331671E+01 -0.26864217798E+02  0.27302203656E+02  0.00000000000E+00 0. -1.
</event>
<event>
 7    1  0.2746803E-013  0.5052886E+02  0.7816164E-02  0.1300439E+00
        -11   -1    0    0    0    0  0.00000000000E+00  0.00000000000E+00  0.45593999997E+02  0.45594000000E+02  0.51100000000E-03 0. -1.
         11   -1    0    0    0    0 -0.00000000000E+00 -0.00000000000E+00 -0.45593999997E+02  0.45594000000E+02  0.51100000000E-03 0.  1.
    9900012    2    1    2    0    0 -0.10758815478E+01 -0.40624861873E+02 -0.12762385337E+01  0.50528859477E+02  0.29999998866E+02 0.  0.
         12    1    1    2    0    0  0.10758815478E+01  0.40624861873E+02  0.12762385337E+01  0.40659140523E+02  0.00000000000E+00 0. -1.
         11    1    3    3    0    0  0.41646258951E+01 -0.30117221884E+02 -0.13582237798E+01  0.30434124515E+02  0.51100000000E-03 0. -1.
        -11    1    3    3    0    0  0.40199053910E+01 -0.17319173354E+01 -0.47436150686E+01  0.64545380307E+01  0.51100000000E-03 0.  1.
         12    1    3    3    0    0 -0.92604128340E+01 -0.87757226527E+01  0.48256003147E+01  0.13640196932E+02  0.00000000000E+00 0. -1.
</event>
<event>
 7    1  0.2746803E-013  0.5052886E+02  0.7816164E-02  0.1300439E+00
        -11   -1    0    0    0    0  0.00000000000E+00  0.00000000000E+00  0.45593999997E+02  0.45594000000E+02  0.51100000000E-03 0.  1.
         11   -1    0    0    0    0 -0.00000000000E+00 -0.00000000000E+00 -0.45593999997E+02  0.45594000000E+02  0.51100000000E-03 0. -1.
    9900012    2    1    2    0    0 -0.28387191756E+02  0.16891123154E+01  0.29059937483E+02  0.50528859296E+02  0.29999998317E+02 0.  0.
         12    1    1    2    0    0  0.28387191756E+02 -0.16891123154E+01 -0.29059937483E+02  0.40659140704E+02  0.00000000000E+00 0. -1.
         11    1    3    3    0    0 -0.25804338761E+01  0.83265240479E+01  0.11387882786E+02  0.14341321987E+02  0.51100000000E-03 0. -1.
        -11    1    3    3    0    0 -0.21095668130E+02 -0.32479839957E+01  0.20620406899E+02  0.29677900782E+02  0.51100000000E-03 0.  1.
         12    1    3    3    0    0 -0.47110897499E+01 -0.33894277368E+01 -0.29483522017E+01  0.65096365275E+01  0.00000000000E+00 0. -1.
</event>
<event>
 7    1  0.2746803E-013  0.5052886E+02  0.7816164E-02  0.1300439E+00
        -11   -1    0    0    0    0  0.00000000000E+00  0.00000000000E+00  0.45593999997E+02  0.45594000000E+02  0.51100000000E-03 0. -1.
         11   -1    0    0    0    0 -0.00000000000E+00 -0.00000000000E+00 -0.45593999997E+02  0.45594000000E+02  0.51100000000E-03 0.  1.
    9900012    2    1    2    0    0  0.15953303674E+02 -0.35093227048E+02 -0.12927600987E+02  0.50528863880E+02  0.30000012250E+02 0.  0.
         12    1    1    2    0    0 -0.15953303674E+02  0.35093227048E+02  0.12927600987E+02  0.40659136120E+02  0.00000000000E+00 0. -1.
         11    1    3    3    0    0  0.18203359576E+01 -0.42220232148E+01  0.28678249586E+01  0.54188119804E+01  0.51100000000E-03 0. -1.
        -11    1    3    3    0    0 -0.61363972104E+01 -0.15826526695E+02 -0.72805596550E+01  0.18469999109E+02  0.51100000000E-03 0.  1.
        -12    1    3    3    0    0  0.20269364927E+02 -0.15044677138E+02 -0.85148662907E+01  0.26640052790E+02  0.00000000000E+00 0.  1.
</event>
<event>
 7    1  0.2746803E-013  0.5052886E+02  0.7816164E-02  0.1300439E+00
        -11   -1    0    0    0    0  0.00000000000E+00  0.00000000000E+00  0.45593999997E+02  0.45594000000E+02  0.51100000000E-03 0.  1.
         11   -1    0    0    0    0 -0.00000000000E+00 -0.00000000000E+00 -0.45593999997E+02  0.45594000000E+02  0.51100000000E-03 0. -1.
    9900012    2    1    2    0    0  0.34450198889E+02  0.15724461214E+02  0.14801720472E+02  0.50528858188E+02  0.29999994949E+02 0.  0.
         12    1    1    2    0    0 -0.34450198889E+02 -0.15724461214E+02 -0.14801720472E+02  0.40659141812E+02  0.00000000000E+00 0. -1.
         11    1    3    3    0    0  0.12967193633E+02  0.40119994302E+01 -0.17846256889E+01  0.13690476224E+02  0.51100000000E-03 0. -1.
        -11    1    3    3    0    0  0.25885766066E+02  0.86927492753E+01  0.12109722579E+02  0.29871092313E+02  0.51100000000E-03 0.  1.
         12    1    3    3    0    0 -0.44027608102E+01  0.30197125088E+01  0.44766235814E+01  0.69672896507E+01  0.00000000000E+00 0. -1.
</event>
<event>
 7    1  0.2746803E-013  0.5052886E+02  0.7816164E-02  0.1300439E+00
        -11   -1    0    0    0    0  0.00000000000E+00  0.00000000000E+00  0.45593999997E+02  0.45594000000E+02  0.51100000000E-03 0. -1.
         11   -1    0    0    0    0 -0.00000000000E+00 -0.00000000000E+00 -0.45593999997E+02  0.45594000000E+02  0.51100000000E-03 0.  1.
    9900012    2    1    2    0    0  0.37995569200E+02  0.34657973792E+01 -0.14053126838E+02  0.50528863214E+02  0.30000010225E+02 0.  0.
         12    1    1    2    0    0 -0.37995569200E+02 -0.34657973792E+01  0.14053126838E+02  0.40659136786E+02  0.00000000000E+00 0. -1.
         11    1    3    3    0    0  0.65588198884E+01  0.76090836030E+01 -0.65078818614E+01  0.11969494483E+02  0.51100000000E-03 0. -1.
        -11    1    3    3    0    0  0.30213205351E+02  0.31656309972E+01 -0.66163539396E+01  0.31090756455E+02  0.51100000000E-03 0.  1.
        -12    1    3    3    0    0  0.12235439598E+01 -0.73089172210E+01 -0.92889103704E+00  0.74686122756E+01  0.00000000000E+00 0.  1.
</event>
<event>
 7    1  0.2746803E-013  0.5052885E+02  0.7816164E-02  0.1300439E+00
        -11   -1    0    0    0    0  0.00000000000E+00  0.00000000000E+00  0.45593999997E+02  0.45594000000E+02  0.51100000000E-03 0. -1.
         11   -1    0    0    0    0 -0.00000000000E+00 -0.00000000000E+00 -0.45593999997E+02  0.45594000000E+02  0.51100000000E-03 0.  1.
    9900012    2    1    2    0    0 -0.19744149205E+02 -0.20047848853E+02 -0.29349933076E+02  0.50528852899E+02  0.29999978872E+02 0.  0.
         12    1    1    2    0    0  0.19744149205E+02  0.20047848853E+02  0.29349933076E+02  0.40659147101E+02  0.00000000000E+00 0. -1.
         11    1    3    3    0    0  0.63077219631E+01 -0.67023369503E+01 -0.10389889111E+02  0.13880146720E+02  0.51100000000E-03 0. -1.
        -11    1    3    3    0    0 -0.83569922201E+01 -0.98713864689E+01 -0.10824516095E+02  0.16865756394E+02  0.51100000000E-03 0.  1.
        -12    1    3    3    0    0 -0.17694878948E+02 -0.34741254338E+01 -0.81355278698E+01  0.19782949786E+02  0.00000000000E+00 0.  1.
</event>
<event>
 7    1  0.2746803E-013  0.5052886E+02  0.7816164E-02  0.1300439E+00
        -11   -1    0    0    0    0  0.00000000000E+00  0.00000000000E+00  0.45593999997E+02  0.45594000000E+02  0.51100000000E-03 0.  1.
         11   -1    0    0    0    0 -0.00000000000E+00 -0.00000000000E+00 -0.45593999997E+02  0.45594000000E+02  0.51100000000E-03 0. -1.
    9900012    2    1    2    0    0  0.62828178883E+01  0.12842620846E+02  0.38062566229E+02  0.50528860084E+02  0.30000000710E+02 0.  0.
         12    1    1    2    0    0 -0.62828178883E+01 -0.12842620846E+02 -0.38062566229E+02  0.40659139916E+02  0.00000000000E+00 0. -1.
         11    1    3    3    0    0 -0.11519650308E+01 -0.47981231954E+01  0.17544936172E+02  0.18225635659E+02  0.51100000000E-03 0. -1.
        -11    1    3    3    0    0 -0.49954049503E+01  0.44389200559E+01  0.70671914628E+01  0.97264216089E+01  0.51100000000E-03 0.  1.
        -12    1    3    3    0    0  0.12430187869E+02  0.13201823985E+02  0.13450438594E+02  0.22576802815E+02  0.00000000000E+00 0.  1.
</event>
<event>
 7    1  0.2746803E-013  0.5052887E+02  0.7816164E-02  0.1300439E+00
        -11   -1    0    0    0    0  0.00000000000E+00  0.00000000000E+00  0.45593999997E+02  0.45594000000E+02  0.51100000000E-03 0. -1.
         11   -1    0    0    0    0 -0.00000000000E+00 -0.00000000000E+00 -0.45593999997E+02  0.45594000000E+02  0.51100000000E-03 0.  1.
    9900012    2    1    2    0    0 -0.31195980036E+02 -0.18298217196E+02 -0.18578243445E+02  0.50528867539E+02  0.30000023372E+02 0.  0.
         12    1    1    2    0    0  0.31195980036E+02  0.18298217196E+02  0.18578243445E+02  0.40659132461E+02  0.00000000000E+00 0. -1.
         11    1    3    3    0    0  0.28883801165E+00 -0.33969500894E+01 -0.11372820696E+02  0.11872815510E+02  0.51100000000E-03 0. -1.
        -11    1    3    3    0    0  0.81832549831E+00 -0.24758966143E+00 -0.27813439026E+01  0.29097820241E+01  0.51100000000E-03 0.  1.
        -12    1    3    3    0    0 -0.32303143546E+02 -0.14653677445E+02 -0.44240788465E+01  0.35746270005E+02  0.00000000000E+00 0.  1.
</event>
<event>
 7    1  0.2746803E-013  0.5052886E+02  0.7816164E-02  0.1300439E+00
        -11   -1    0    0    0    0  0.00000000000E+00  0.00000000000E+00  0.45593999997E+02  0.45594000000E+02  0.51100000000E-03 0. -1.
         11   -1    0    0    0    0 -0.00000000000E+00 -0.00000000000E+00 -0.45593999997E+02  0.45594000000E+02  0.51100000000E-03 0.  1.
    9900012    2    1    2    0    0  0.25935902672E+02  0.12937151237E+02 -0.28515346136E+02  0.50528857181E+02  0.29999991886E+02 0.  0.
         12    1    1    2    0    0 -0.25935902672E+02 -0.12937151237E+02  0.28515346136E+02  0.40659142819E+02  0.00000000000E+00 0. -1.
         11    1    3    3    0    0  0.10445675082E+02 -0.14791686347E+01 -0.59769111243E+00  0.10566801914E+02  0.51100000000E-03 0. -1.
        -11    1    3    3    0    0  0.18756756022E+02  0.11874018008E+02 -0.28109531093E+02  0.35818346397E+02  0.51100000000E-03 0.  1.
         12    1    3    3    0    0 -0.32665284320E+01  0.25423018638E+01  0.19187606911E+00  0.41437088689E+01  0.00000000000E+00 0. -1.
</event>
<event>
 7    1  0.2746803E-013  0.5052886E+02  0.7816164E-02  0.1300439E+00
        -11   -1    0    0    0    0  0.00000000000E+00  0.00000000000E+00  0.45593999997E+02  0.45594000000E+02  0.51100000000E-03 0.  1.
         11   -1    0    0    0    0 -0.00000000000E+00 -0.00000000000E+00 -0.45593999997E+02  0.45594000000E+02  0.51100000000E-03 0. -1.
    9900012    2    1    2    0    0 -0.36716726417E+02 -0.14445340096E+02  0.98173026950E+01  0.50528864723E+02  0.30000014811E+02 0.  0.
         12    1    1    2    0    0  0.36716726417E+02  0.14445340096E+02 -0.98173026950E+01  0.40659135277E+02  0.00000000000E+00 0. -1.
         11    1    3    3    0    0 -0.27847811851E+01 -0.62514896557E+01 -0.45552788770E+01  0.82211127636E+01  0.51100000000E-03 0. -1.
        -11    1    3    3    0    0 -0.19606131844E+00  0.86949175222E+00 -0.31169865928E+01  0.32419225204E+01  0.51100000000E-03 0.  1.
        -12    1    3    3    0    0 -0.33735883914E+02 -0.90633421929E+01  0.17489568165E+02  0.39065829439E+02  0.00000000000E+00 0.  1.
</event>
<event>
 7    1  0.2746803E-013  0.5052886E+02  0.7816164E-02  0.1300439E+00
        -11   -1    0    0    0    0  0.00000000000E+00  0.00000000000E+00  0.45593999997E+02  0.45594000000E+02  0.51100000000E-03 0. -1.
         11   -1    0    0    0    0 -0.00000000000E+00 -0.00000000000E+00 -0.45593999997E+02  0.45594000000E+02  0.51100000000E-03 0.  1.
    9900012    2    1    2    0    0 -0.28189719441E+02  0.15211312628E+02 -0.25042397411E+02  0.50528856107E+02  0.29999988624E+02 0.  0.
         12    1    1    2    0    0  0.28189719441E+02 -0.15211312628E+02  0.25042397411E+02  0.40659143893E+02  0.00000000000E+00 0. -1.
         11    1    3    3    0    0 -0.10151484315E+02  0.19398316308E+02 -0.10618968561E+02  0.24333306453E+02  0.51100000000E-03 0. -1.
        -11    1    3    3    0    0 -0.22769303799E+01  0.81486105639E+00 -0.81638268736E+01  0.85144864778E+01  0.51100000000E-03 0.  1.
         12    1    3    3    0    0 -0.15761304746E+02 -0.50018647368E+01 -0.62596019763E+01  0.17681063176E+02  0.00000000000E+00 0. -1.
</event>
<event>
 7    1  0.2746803E-013  0.5052886E+02  0.7816164E-02  0.1300439E+00
        -11   -1    0    0    0    0  0.00000000000E+00  0.00000000000E+00  0.45593999997E+02  0.45594000000E+02  0.51100000000E-03 0. -1.
         11   -1    0    0    0    0 -0.00000000000E+00 -0.00000000000E+00 -0.45593999997E+02  0.45594000000E+02  0.51100000000E-03 0.  1.
    9900012    2    1    2    0    0 -0.15379717292E+02  0.26803772982E+02 -0.26423240706E+02  0.50528860813E+02  0.30000002926E+02 0.  0.
         12    1    1    2    0    0  0.15379717292E+02 -0.26803772982E+02  0.26423240706E+02  0.40659139187E+02  0.00000000000E+00 0. -1.
         11    1    3    3    0    0  0.64912837640E+00 -0.25335300293E+01  0.61864198401E+00  0.26875379484E+01  0.51100000000E-03 0. -1.
        -11    1    3    3    0    0 -0.70486986893E+01  0.14251982800E+02 -0.36252866976E+00  0.15903917576E+02  0.51100000000E-03 0.  1.
        -12    1    3    3    0    0 -0.89801469795E+01  0.15085320210E+02 -0.26679354020E+02  0.31937405289E+02  0.00000000000E+00 0.  1.
</event>
<event>
 7    1  0.2746803E-013  0.5052887E+02  0.7816164E-02  0.1300439E+00
        -11   -1    0    0    0    0  0.00000000000E+00  0.00000000000E+00  0.45593999997E+02  0.45594000000E+02  0.51100000000E-03 0.  1.
         11   -1    0    0    0    0 -0.00000000000E+00 -0.00000000000E+00 -0.45593999997E+02  0.45594000000E+02  0.51100000000E-03 0. -1.
    9900012    2    1    2    0    0 -0.34333025223E+02  0.91215184901E+01  0.19778939108E+02  0.50528866305E+02  0.30000019621E+02 0.  0.
         12    1    1    2    0    0  0.34333025223E+02 -0.91215184901E+01 -0.19778939108E+02  0.40659133695E+02  0.00000000000E+00 0. -1.
         11    1    3    3    0    0 -0.44796154049E+01 -0.44526620018E+01  0.11409643787E+02  0.13041208713E+02  0.51100000000E-03 0. -1.
        -11    1    3    3    0    0 -0.10452529403E+01  0.57938826028E+01  0.44734127652E+01  0.73941227575E+01  0.51100000000E-03 0.  1.
        -12    1    3    3    0    0 -0.28808156878E+02  0.77802978891E+01  0.38958825556E+01  0.30093534835E+02  0.00000000000E+00 0.  1.
</event>
<event>
 7    1  0.2746803E-013  0.5052886E+02  0.7816164E-02  0.1300439E+00
        -11   -1    0    0    0    0  0.00000000000E+00  0.00000000000E+00  0.45593999997E+02  0.45594000000E+02  0.51100000000E-03 0.  1.
         11   -1    0    0    0    0 -0.00000000000E+00 -0.00000000000E+00 -0.45593999997E+02  0.45594000000E+02  0.51100000000E-03 0. -1.
    9900012    2    1    2    0    0  0.36903267599E+02  0.43272187730E+00 -0.17062450957E+02  0.50528860309E+02  0.30000001396E+02 0.  0.
         12    1    1    2    0    0 -0.36903267599E+02 -0.43272187730E+00  0.17062450957E+02  0.40659139691E+02  0.00000000000E+00 0. -1.
         11    1    3    3    0    0  0.14812146028E+02 -0.44614704340E+01 -0.30211400836E+01  0.15761715518E+02  0.51100000000E-03 0.  1.
        -11    1    3    3    0    0 -0.19774071245E+01  0.55244696633E+01 -0.80404113573E+01  0.99537992270E+01  0.51100000000E-03 0. -1.
         12    1    3    3    0    0  0.24068528696E+02 -0.63027735192E+00 -0.60008995158E+01  0.24813345565E+02  0.00000000000E+00 0. -1.
</event>
<event>
 7    1  0.2746803E-013  0.5052888E+02  0.7816164E-02  0.1300439E+00
        -11   -1    0    0    0    0  0.00000000000E+00  0.00000000000E+00  0.45593999997E+02  0.45594000000E+02  0.51100000000E-03 0.  1.
         11   -1    0    0    0    0 -0.00000000000E+00 -0.00000000000E+00 -0.45593999997E+02  0.45594000000E+02  0.51100000000E-03 0. -1.
    9900012    2    1    2    0    0  0.26288857820E+02  0.16727552523E+02  0.26119902473E+02  0.50528876004E+02  0.30000049102E+02 0.  0.
         12    1    1    2    0    0 -0.26288857820E+02 -0.16727552523E+02 -0.26119902473E+02  0.40659123996E+02  0.00000000000E+00 0. -1.
         11    1    3    3    0    0  0.46607497163E+01  0.17163285994E+02  0.15547815186E+02  0.23622775691E+02  0.51100000000E-03 0. -1.
        -11    1    3    3    0    0  0.20815701832E+01  0.41689435437E+01  0.19098922861E+01  0.50359421665E+01  0.51100000000E-03 0.  1.
        -12    1    3    3    0    0  0.19546537921E+02 -0.46046770150E+01  0.86621950009E+01  0.21870158146E+02  0.00000000000E+00 0.  1.
</event>
<event>
 7    1  0.2746803E-013  0.5052886E+02  0.7816164E-02  0.1300439E+00
        -11   -1    0    0    0    0  0.00000000000E+00  0.00000000000E+00  0.45593999997E+02  0.45594000000E+02  0.51100000000E-03 0. -1.
         11   -1    0    0    0    0 -0.00000000000E+00 -0.00000000000E+00 -0.45593999997E+02  0.45594000000E+02  0.51100000000E-03 0.  1.
    9900012    2    1    2    0    0  0.28548386444E+02 -0.28358781822E+02  0.58253719080E+01  0.50528857942E+02  0.29999994202E+02 0.  0.
         12    1    1    2    0    0 -0.28548386444E+02  0.28358781822E+02 -0.58253719080E+01  0.40659142058E+02  0.00000000000E+00 0. -1.
         11    1    3    3    0    0 -0.78884601469E+00 -0.38220735842E+01 -0.14421097408E+01  0.41605534828E+01  0.51100000000E-03 0. -1.
        -11    1    3    3    0    0  0.27352158201E+02 -0.81406472941E+01  0.56264013136E+00  0.28543427629E+02  0.51100000000E-03 0.  1.
         12    1    3    3    0    0  0.19850742584E+01 -0.16396060943E+02  0.67048415175E+01  0.17824876831E+02  0.00000000000E+00 0. -1.
</event>
<event>
 7    1  0.2746803E-013  0.5052886E+02  0.7816164E-02  0.1300439E+00
        -11   -1    0    0    0    0  0.00000000000E+00  0.00000000000E+00  0.45593999997E+02  0.45594000000E+02  0.51100000000E-03 0. -1.
         11   -1    0    0    0    0 -0.00000000000E+00 -0.00000000000E+00 -0.45593999997E+02  0.45594000000E+02  0.51100000000E-03 0.  1.
    9900012    2    1    2    0    0 -0.39123757243E+02  0.40465615690E+00  0.11060463397E+02  0.50528856158E+02  0.29999988778E+02 0.  0.
         12    1    1    2    0    0  0.39123757243E+02 -0.40465615690E+00 -0.11060463397E+02  0.40659143842E+02  0.00000000000E+00 0. -1.
         11    1    3    3    0    0 -0.17560879502E+02  0.54612312049E+01  0.41343831099E+01  0.18849473709E+02  0.51100000000E-03 0. -1.
        -11    1    3    3    0    0 -0.24986760205E+02 -0.67378546232E+01  0.89223627441E+01  0.27374174465E+02  0.51100000000E-03 0.  1.
        -12    1    3    3    0    0  0.34238824637E+01  0.16812795752E+01 -0.19962824571E+01  0.43052079838E+01  0.00000000000E+00 0.  1.
</event>
<event>
 7    1  0.2746803E-013  0.5052886E+02  0.7816164E-02  0.1300439E+00
        -11   -1    0    0    0    0  0.00000000000E+00  0.00000000000E+00  0.45593999997E+02  0.45594000000E+02  0.51100000000E-03 0.  1.
         11   -1    0    0    0    0 -0.00000000000E+00 -0.00000000000E+00 -0.45593999997E+02  0.45594000000E+02  0.51100000000E-03 0. -1.
    9900012    2    1    2    0    0  0.28575459570E+02 -0.11740280737E+01  0.28900356977E+02  0.50528857547E+02  0.29999993001E+02 0.  0.
         12    1    1    2    0    0 -0.28575459570E+02  0.11740280737E+01 -0.28900356977E+02  0.40659142453E+02  0.00000000000E+00 0. -1.
         11    1    3    3    0    0  0.75770398753E+01  0.93300787578E+01  0.11641122139E+01  0.12075473507E+02  0.51100000000E-03 0. -1.
        -11    1    3    3    0    0  0.56832148449E+01  0.24728104421E+01  0.94387400311E+01  0.11291746370E+02  0.51100000000E-03 0.  1.
         12    1    3    3    0    0  0.15315204850E+02 -0.12976917274E+02  0.18297504732E+02  0.27161637671E+02  0.00000000000E+00 0. -1.
</event>
<event>
 7    1  0.2746803E-013  0.5052887E+02  0.7816164E-02  0.1300439E+00
        -11   -1    0    0    0    0  0.00000000000E+00  0.00000000000E+00  0.45593999997E+02  0.45594000000E+02  0.51100000000E-03 0.  1.
         11   -1    0    0    0    0 -0.00000000000E+00 -0.00000000000E+00 -0.45593999997E+02  0.45594000000E+02  0.51100000000E-03 0. -1.
    9900012    2    1    2    0    0 -0.18106908545E+02 -0.46920499536E+01  0.36101102171E+02  0.50528867597E+02  0.30000023549E+02 0.  0.
         12    1    1    2    0    0  0.18106908545E+02  0.46920499536E+01 -0.36101102171E+02  0.40659132403E+02  0.00000000000E+00 0. -1.
         11    1    3    3    0    0 -0.45855535389E+01 -0.73052042045E+01  0.29492042210E+01  0.91154328217E+01  0.51100000000E-03 0. -1.
        -11    1    3    3    0    0 -0.15283919295E+02 -0.12543684334E+01  0.11037704134E+02  0.18894510896E+02  0.51100000000E-03 0.  1.
         12    1    3    3    0    0  0.17625642893E+01  0.38675226843E+01  0.22114193815E+02  0.22518923880E+02  0.00000000000E+00 0. -1.
</event>
<event>
 7    1  0.2746803E-013  0.5052884E+02  0.7816164E-02  0.1300439E+00
        -11   -1    0    0    0    0  0.00000000000E+00  0.00000000000E+00  0.45593999997E+02  0.45594000000E+02  0.51100000000E-03 0.  1.
         11   -1    0    0    0    0 -0.00000000000E+00 -0.00000000000E+00 -0.45593999997E+02  0.45594000000E+02  0.51100000000E-03 0. -1.
    9900012    2    1    2    0    0  0.39371534810E+02 -0.97129655411E+01 -0.29509706909E+01  0.50528835216E+02  0.29999925122E+02 0.  0.
         12    1    1    2    0    0 -0.39371534810E+02  0.97129655411E+01  0.29509706909E+01  0.40659164784E+02  0.00000000000E+00 0. -1.
         11    1    3    3    0    0 -0.15336459217E+01 -0.15751268991E+01  0.40169765061E+01  0.45792133683E+01  0.51100000000E-03 0. -1.
        -11    1    3    3    0    0  0.14731935118E+02  0.56366005325E+01 -0.12275373897E+01  0.15821125946E+02  0.51100000000E-03 0.  1.
        -12    1    3    3    0    0  0.26173245614E+02 -0.13774439175E+02 -0.57404098072E+01  0.30128495901E+02  0.00000000000E+00 0.  1.
</event>
<event>
 7    1  0.2746803E-013  0.5052885E+02  0.7816164E-02  0.1300439E+00
        -11   -1    0    0    0    0  0.00000000000E+00  0.00000000000E+00  0.45593999997E+02  0.45594000000E+02  0.51100000000E-03 0. -1.
         11   -1    0    0    0    0 -0.00000000000E+00 -0.00000000000E+00 -0.45593999997E+02  0.45594000000E+02  0.51100000000E-03 0.  1.
    9900012    2    1    2    0    0  0.21823666461E+02  0.15648578596E+02 -0.30528943698E+02  0.50528845641E+02  0.29999956810E+02 0.  0.
         12    1    1    2    0    0 -0.21823666461E+02 -0.15648578596E+02  0.30528943698E+02  0.40659154359E+02  0.00000000000E+00 0. -1.
         11    1    3    3    0    0  0.19266150315E+02  0.95745290698E+01 -0.55484286694E+01  0.22218038073E+02  0.51100000000E-03 0. -1.
        -11    1    3    3    0    0 -0.73472840729E+00  0.87624721746E+01 -0.13954621149E+02  0.16494004854E+02  0.51100000000E-03 0.  1.
        -12    1    3    3    0    0  0.32922445538E+01 -0.26884226480E+01 -0.11025893879E+02  0.11816802714E+02  0.00000000000E+00 0.  1.
</event>
<event>
 7    1  0.2746803E-013  0.5052887E+02  0.7816164E-02  0.1300439E+00
        -11   -1    0    0    0    0  0.00000000000E+00  0.00000000000E+00  0.45593999997E+02  0.45594000000E+02  0.51100000000E-03 0.  1.
         11   -1    0    0    0    0 -0.00000000000E+00 -0.00000000000E+00 -0.45593999997E+02  0.45594000000E+02  0.51100000000E-03 0. -1.
    9900012    2    1    2    0    0 -0.14478678723E+02 -0.13318418589E+02  0.35583031340E+02  0.50528873957E+02  0.30000042879E+02 0.  0.
         12    1    1    2    0    0  0.14478678723E+02  0.13318418589E+02 -0.35583031340E+02  0.40659126043E+02  0.00000000000E+00 0. -1.
         11    1    3    3    0    0 -0.10591105822E+02 -0.14904732198E+02  0.17331999765E+02  0.25193665485E+02  0.51100000000E-03 0. -1.
        -11    1    3    3    0    0 -0.88393471242E+01 -0.81193498640E+00  0.17705814775E+02  0.19806291250E+02  0.51100000000E-03 0.  1.
         12    1    3    3    0    0  0.49517742232E+01  0.23982485957E+01  0.54521680011E+00  0.55289172216E+01  0.00000000000E+00 0. -1.
</event>
<event>
 7    1  0.2746803E-013  0.5052886E+02  0.7816164E-02  0.1300439E+00
        -11   -1    0    0    0    0  0.00000000000E+00  0.00000000000E+00  0.45593999997E+02  0.45594000000E+02  0.51100000000E-03 0. -1.
         11   -1    0    0    0    0 -0.00000000000E+00 -0.00000000000E+00 -0.45593999997E+02  0.45594000000E+02  0.51100000000E-03 0.  1.
    9900012    2    1    2    0    0  0.28391464577E+02  0.54869188778E+01 -0.28582937384E+02  0.50528857742E+02  0.29999993594E+02 0.  0.
         12    1    1    2    0    0 -0.28391464577E+02 -0.54869188778E+01  0.28582937384E+02  0.40659142258E+02  0.00000000000E+00 0. -1.
         11    1    3    3    0    0  0.74477197429E+01 -0.51070514609E+00  0.33472169315E+01  0.81812719404E+01  0.51100000000E-03 0. -1.
        -11    1    3    3    0    0  0.13805305660E+02  0.93239881245E+01 -0.10943604893E+02  0.19932027173E+02  0.51100000000E-03 0.  1.
         12    1    3    3    0    0  0.71384391743E+01 -0.33263641005E+01 -0.20986549423E+02  0.22415558629E+02  0.00000000000E+00 0. -1.
</event>
<event>
 7    1  0.2746803E-013  0.5052887E+02  0.7816164E-02  0.1300439E+00
        -11   -1    0    0    0    0  0.00000000000E+00  0.00000000000E+00  0.45593999997E+02  0.45594000000E+02  0.51100000000E-03 0.  1.
         11   -1    0    0    0    0 -0.00000000000E+00 -0.00000000000E+00 -0.45593999997E+02  0.45594000000E+02  0.51100000000E-03 0. -1.
    9900012    2    1    2    0    0  0.11154250005E+02  0.27461098466E+02  0.27832274696E+02  0.50528871420E+02  0.30000035167E+02 0.  0.
         12    1    1    2    0    0 -0.11154250005E+02 -0.27461098466E+02 -0.27832274696E+02  0.40659128580E+02  0.00000000000E+00 0. -1.
         11    1    3    3    0    0  0.64650554785E+01  0.67048927594E+01  0.10209972325E+02  0.13820132575E+02  0.51100000000E-03 0. -1.
        -11    1    3    3    0    0  0.53623542177E+01  0.26096689727E+02  0.13150084082E+02  0.29710549795E+02  0.51100000000E-03 0.  1.
         12    1    3    3    0    0 -0.67315969131E+00 -0.53404840209E+01  0.44722182897E+01  0.69981890499E+01  0.00000000000E+00 0. -1.
</event>
<event>
 7    1  0.2746803E-013  0.5052886E+02  0.7816164E-02  0.1300439E+00
        -11   -1    0    0    0    0  0.00000000000E+00  0.00000000000E+00  0.45593999997E+02  0.45594000000E+02  0.51100000000E-03 0.  1.
         11   -1    0    0    0    0 -0.00000000000E+00 -0.00000000000E+00 -0.45593999997E+02  0.45594000000E+02  0.51100000000E-03 0. -1.
    9900012    2    1    2    0    0 -0.58140905713E+01 -0.92366431539E+01  0.39166905497E+02  0.50528859427E+02  0.29999998716E+02 0.  0.
         12    1    1    2    0    0  0.58140905713E+01  0.92366431539E+01 -0.39166905497E+02  0.40659140573E+02  0.00000000000E+00 0. -1.
         11    1    3    3    0    0  0.95231696878E+00  0.85579183166E+01  0.52008785094E+01  0.10059523401E+02  0.51100000000E-03 0. -1.
        -11    1    3    3    0    0 -0.47332654071E+01 -0.58063515760E+01  0.48706706185E+01  0.89353764651E+01  0.51100000000E-03 0.  1.
        -12    1    3    3    0    0 -0.20331421330E+01 -0.11988209894E+02  0.29095356369E+02  0.31533959561E+02  0.00000000000E+00 0.  1.
</event>
<event>
 7    1  0.2746803E-013  0.5052885E+02  0.7816164E-02  0.1300439E+00
        -11   -1    0    0    0    0  0.00000000000E+00  0.00000000000E+00  0.45593999997E+02  0.45594000000E+02  0.51100000000E-03 0. -1.
         11   -1    0    0    0    0 -0.00000000000E+00 -0.00000000000E+00 -0.45593999997E+02  0.45594000000E+02  0.51100000000E-03 0.  1.
    9900012    2    1    2    0    0 -0.13587237925E+02  0.46524683140E+01 -0.38038239710E+02  0.50528853721E+02  0.29999981372E+02 0.  0.
         12    1    1    2    0    0  0.13587237925E+02 -0.46524683140E+01  0.38038239710E+02  0.40659146279E+02  0.00000000000E+00 0. -1.
         11    1    3    3    0    0 -0.68455081591E+01 -0.29281246917E+01 -0.21806640231E+01  0.77582338202E+01  0.51100000000E-03 0. -1.
        -11    1    3    3    0    0 -0.11119571212E+01 -0.67142908184E+01 -0.17828742859E+02  0.19083558945E+02  0.51100000000E-03 0.  1.
        -12    1    3    3    0    0 -0.56297726451E+01  0.14294883824E+02 -0.18028832828E+02  0.23687060956E+02  0.00000000000E+00 0.  1.
</event>
<event>
 7    1  0.2746803E-013  0.5052886E+02  0.7816164E-02  0.1300439E+00
        -11   -1    0    0    0    0  0.00000000000E+00  0.00000000000E+00  0.45593999997E+02  0.45594000000E+02  0.51100000000E-03 0. -1.
         11   -1    0    0    0    0 -0.00000000000E+00 -0.00000000000E+00 -0.45593999997E+02  0.45594000000E+02  0.51100000000E-03 0.  1.
    9900012    2    1    2    0    0 -0.19986807647E+02  0.34191685056E+02  0.91990291132E+01  0.50528856581E+02  0.29999990065E+02 0.  0.
         12    1    1    2    0    0  0.19986807647E+02 -0.34191685056E+02 -0.91990291132E+01  0.40659143419E+02  0.00000000000E+00 0. -1.
         11    1    3    3    0    0  0.51450767537E+00 -0.33728044526E+01 -0.74735206201E+00  0.34927157613E+01  0.51100000000E-03 0. -1.
        -11    1    3    3    0    0 -0.86139876057E+00  0.51734649491E+01 -0.40776506084E+01  0.66433411887E+01  0.51100000000E-03 0.  1.
        -12    1    3    3    0    0 -0.19639916562E+02  0.32391024560E+02  0.14024031784E+02  0.40392799631E+02  0.00000000000E+00 0.  1.
</event>
<event>
 7    1  0.2746803E-013  0.5052886E+02  0.7816164E-02  0.1300439E+00
        -11   -1    0    0    0    0  0.00000000000E+00  0.00000000000E+00  0.45593999997E+02  0.45594000000E+02  0.51100000000E-03 0. -1.
         11   -1    0    0    0    0 -0.00000000000E+00 -0.00000000000E+00 -0.45593999997E+02  0.45594000000E+02  0.51100000000E-03 0.  1.
    9900012    2    1    2    0    0  0.71419214800E+01  0.57810119715E+01 -0.39607299415E+02  0.50528864387E+02  0.30000013790E+02 0.  0.
         12    1    1    2    0    0 -0.71419214800E+01 -0.57810119715E+01  0.39607299415E+02  0.40659135613E+02  0.00000000000E+00 0. -1.
         11    1    3    3    0    0 -0.42843911672E+01 -0.43728733495E+01 -0.22163865380E+02  0.22993802597E+02  0.51100000000E-03 0. -1.
        -11    1    3    3    0    0  0.10670904731E+02 -0.23721896647E+00 -0.68832533861E+01  0.12700537707E+02  0.51100000000E-03 0.  1.
         12    1    3    3    0    0  0.75540791664E+00  0.10391104287E+02 -0.10560180649E+02  0.14834524083E+02  0.00000000000E+00 0. -1.
</event>
<event>
 7    1  0.2746803E-013  0.5052886E+02  0.7816164E-02  0.1300439E+00
        -11   -1    0    0    0    0  0.00000000000E+00  0.00000000000E+00  0.45593999997E+02  0.45594000000E+02  0.51100000000E-03 0.  1.
         11   -1    0    0    0    0 -0.00000000000E+00 -0.00000000000E+00 -0.45593999997E+02  0.45594000000E+02  0.51100000000E-03 0. -1.
    9900012    2    1    2    0    0 -0.11674373654E+02 -0.28316188964E+02  0.26740757673E+02  0.50528859839E+02  0.29999999968E+02 0.  0.
         12    1    1    2    0    0  0.11674373654E+02  0.28316188964E+02 -0.26740757673E+02  0.40659140161E+02  0.00000000000E+00 0. -1.
         11    1    3    3    0    0 -0.56038203794E+01 -0.47109480241E+01  0.17928248770E+02  0.19365379892E+02  0.51100000000E-03 0. -1.
        -11    1    3    3    0    0  0.44274247104E+01 -0.45784742001E+00  0.87548591242E+00  0.45363189559E+01  0.51100000000E-03 0.  1.
        -12    1    3    3    0    0 -0.10497977985E+02 -0.23147393520E+02  0.79370229910E+01  0.26627160992E+02  0.00000000000E+00 0.  1.
</event>
<event>
 7    1  0.2746803E-013  0.5052886E+02  0.7816164E-02  0.1300439E+00
        -11   -1    0    0    0    0  0.00000000000E+00  0.00000000000E+00  0.45593999997E+02  0.45594000000E+02  0.51100000000E-03 0. -1.
         11   -1    0    0    0    0 -0.00000000000E+00 -0.00000000000E+00 -0.45593999997E+02  0.45594000000E+02  0.51100000000E-03 0.  1.
    9900012    2    1    2    0    0  0.18173959891E+02 -0.28537041961E+02 -0.22550173273E+02  0.50528857158E+02  0.29999991818E+02 0.  0.
         12    1    1    2    0    0 -0.18173959891E+02  0.28537041961E+02  0.22550173273E+02  0.40659142842E+02  0.00000000000E+00 0. -1.
         11    1    3    3    0    0  0.79059082840E+01  0.26145443215E+00 -0.29983754177E+01  0.84594325827E+01  0.51100000000E-03 0. -1.
        -11    1    3    3    0    0  0.16261555928E+02 -0.15108583400E+02 -0.13247877197E+02  0.25849830638E+02  0.51100000000E-03 0.  1.
        -12    1    3    3    0    0 -0.59935043216E+01 -0.13689912993E+02 -0.63039206583E+01  0.16219593937E+02  0.00000000000E+00 0.  1.
</event>
<event>
 7    1  0.2746803E-013  0.5052888E+02  0.7816164E-02  0.1300439E+00
        -11   -1    0    0    0    0  0.00000000000E+00  0.00000000000E+00  0.45593999997E+02  0.45594000000E+02  0.51100000000E-03 0. -1.
         11   -1    0    0    0    0 -0.00000000000E+00 -0.00000000000E+00 -0.45593999997E+02  0.45594000000E+02  0.51100000000E-03 0.  1.
    9900012    2    1    2    0    0 -0.11151225030E+02 -0.24669379509E+02 -0.30335395644E+02  0.50528876375E+02  0.30000050230E+02 0.  0.
         12    1    1    2    0    0  0.11151225030E+02  0.24669379509E+02  0.30335395644E+02  0.40659123625E+02  0.00000000000E+00 0. -1.
         11    1    3    3    0    0  0.29007716345E+01  0.26296382624E+01 -0.34966264313E+01  0.52493685456E+01  0.51100000000E-03 0. -1.
        -11    1    3    3    0    0 -0.13010238052E+02 -0.57545229775E+01 -0.15005305199E+02  0.20677040728E+02  0.51100000000E-03 0.  1.
        -12    1    3    3    0    0 -0.10417586122E+01 -0.21544494794E+02 -0.11833464013E+02  0.24602467102E+02  0.00000000000E+00 0.  1.
</event>
<event>
 7    1  0.2746803E-013  0.5052886E+02  0.7816164E-02  0.1300439E+00
        -11   -1    0    0    0    0  0.00000000000E+00  0.00000000000E+00  0.45593999997E+02  0.45594000000E+02  0.51100000000E-03 0.  1.
         11   -1    0    0    0    0 -0.00000000000E+00 -0.00000000000E+00 -0.45593999997E+02  0.45594000000E+02  0.51100000000E-03 0. -1.
    9900012    2    1    2    0    0 -0.12066028804E+01 -0.35151462050E+02  0.20398140559E+02  0.50528864335E+02  0.30000013633E+02 0.  0.
         12    1    1    2    0    0  0.12066028804E+01  0.35151462050E+02 -0.20398140559E+02  0.40659135665E+02  0.00000000000E+00 0. -1.
         11    1    3    3    0    0  0.69702474751E+01 -0.19902143636E+02  0.16447552155E+02  0.26743254165E+02  0.51100000000E-03 0. -1.
        -11    1    3    3    0    0 -0.40672333764E+01 -0.15957636642E+02  0.76987383431E+01  0.18178534783E+02  0.51100000000E-03 0.  1.
         12    1    3    3    0    0 -0.41096169790E+01  0.70831822744E+00 -0.37481499397E+01  0.56070753870E+01  0.00000000000E+00 0. -1.
</event>
<event>
 7    1  0.2746803E-013  0.5052886E+02  0.7816164E-02  0.1300439E+00
        -11   -1    0    0    0    0  0.00000000000E+00  0.00000000000E+00  0.45593999997E+02  0.45594000000E+02  0.51100000000E-03 0.  1.
         11   -1    0    0    0    0 -0.00000000000E+00 -0.00000000000E+00 -0.45593999997E+02  0.45594000000E+02  0.51100000000E-03 0. -1.
    9900012    2    1    2    0    0 -0.36052966689E+02 -0.82366617942E+01  0.16896933338E+02  0.50528863747E+02  0.30000011845E+02 0.  0.
         12    1    1    2    0    0  0.36052966689E+02  0.82366617942E+01 -0.16896933338E+02  0.40659136253E+02  0.00000000000E+00 0. -1.
         11    1    3    3    0    0  0.17745390479E+01 -0.28683729510E+01  0.46924810765E+01  0.57789212776E+01  0.51100000000E-03 0.  1.
        -11    1    3    3    0    0 -0.72974597190E+01 -0.77630512406E+01 -0.22449243676E+01  0.10888414420E+02  0.51100000000E-03 0. -1.
        -12    1    3    3    0    0 -0.30530046018E+02  0.23947623973E+01  0.14449376629E+02  0.33861528049E+02  0.00000000000E+00 0.  1.
</event>
<event>
 7    1  0.2746803E-013  0.5052886E+02  0.7816164E-02  0.1300439E+00
        -11   -1    0    0    0    0  0.00000000000E+00  0.00000000000E+00  0.45593999997E+02  0.45594000000E+02  0.51100000000E-03 0.  1.
         11   -1    0    0    0    0 -0.00000000000E+00 -0.00000000000E+00 -0.45593999997E+02  0.45594000000E+02  0.51100000000E-03 0. -1.
    9900012    2    1    2    0    0 -0.13558447936E+01 -0.25411781465E+02  0.31710708586E+02  0.50528855993E+02  0.29999988277E+02 0.  0.
         12    1    1    2    0    0  0.13558447936E+01  0.25411781465E+02 -0.31710708586E+02  0.40659144007E+02  0.00000000000E+00 0. -1.
         11    1    3    3    0    0 -0.73728131184E+00  0.20018627360E+01  0.61831371878E+00  0.22211146441E+01  0.51100000000E-03 0. -1.
        -11    1    3    3    0    0  0.93084147912E+01 -0.74325955725E+01  0.20268642191E+02  0.23509740947E+02  0.51100000000E-03 0.  1.
        -12    1    3    3    0    0 -0.99269782729E+01 -0.19981048629E+02  0.10823752676E+02  0.24798000402E+02  0.00000000000E+00 0.  1.
</event>
<event>
 7    1  0.2746803E-013  0.5052886E+02  0.7816164E-02  0.1300439E+00
        -11   -1    0    0    0    0  0.00000000000E+00  0.00000000000E+00  0.45593999997E+02  0.45594000000E+02  0.51100000000E-03 0.  1.
         11   -1    0    0    0    0 -0.00000000000E+00 -0.00000000000E+00 -0.45593999997E+02  0.45594000000E+02  0.51100000000E-03 0. -1.
    9900012    2    1    2    0    0 -0.37777588687E+02 -0.13860520416E+01  0.14969901685E+02  0.50528864450E+02  0.30000013981E+02 0.  0.
         12    1    1    2    0    0  0.37777588687E+02  0.13860520416E+01 -0.14969901685E+02  0.40659135550E+02  0.00000000000E+00 0. -1.
         11    1    3    3    0    0  0.33337359708E+00 -0.29652347237E+01  0.17386018421E+01  0.34534752856E+01  0.51100000000E-03 0. -1.
        -11    1    3    3    0    0 -0.98983376266E+01  0.98265129857E+00 -0.71634396921E+01  0.12257959040E+02  0.51100000000E-03 0.  1.
        -12    1    3    3    0    0 -0.28212624657E+02  0.59653138354E+00  0.20394739535E+02  0.34817430124E+02  0.00000000000E+00 0.  1.
</event>
<event>
 7    1  0.2746803E-013  0.5052886E+02  0.7816164E-02  0.1300439E+00
        -11   -1    0    0    0    0  0.00000000000E+00  0.00000000000E+00  0.45593999997E+02  0.45594000000E+02  0.51100000000E-03 0.  1.
         11   -1    0    0    0    0 -0.00000000000E+00 -0.00000000000E+00 -0.45593999997E+02  0.45594000000E+02  0.51100000000E-03 0. -1.
    9900012    2    1    2    0    0 -0.21219948908E+02 -0.36674572814E+01  0.34488104129E+02  0.50528858334E+02  0.29999995392E+02 0.  0.
         12    1    1    2    0    0  0.21219948908E+02  0.36674572814E+01 -0.34488104129E+02  0.40659141666E+02  0.00000000000E+00 0. -1.
         11    1    3    3    0    0 -0.23961124351E+01 -0.15641972257E+01 -0.67038687188E+00  0.29389601191E+01  0.51100000000E-03 0. -1.
        -11    1    3    3    0    0  0.27376709787E-01  0.25741707198E+01 -0.34892126541E+01  0.43360938165E+01  0.51100000000E-03 0.  1.
        -12    1    3    3    0    0 -0.18851213183E+02 -0.46774307755E+01  0.38647703655E+02  0.43253804398E+02  0.00000000000E+00 0.  1.
</event>
<event>
 7    1  0.2746803E-013  0.5052884E+02  0.7816164E-02  0.1300439E+00
        -11   -1    0    0    0    0  0.00000000000E+00  0.00000000000E+00  0.45593999997E+02  0.45594000000E+02  0.51100000000E-03 0. -1.
         11   -1    0    0    0    0 -0.00000000000E+00 -0.00000000000E+00 -0.45593999997E+02  0.45594000000E+02  0.51100000000E-03 0.  1.
    9900012    2    1    2    0    0 -0.35375777526E+02  0.13950420237E+02 -0.14391238539E+02  0.50528836125E+02  0.29999927885E+02 0.  0.
         12    1    1    2    0    0  0.35375777526E+02 -0.13950420237E+02  0.14391238539E+02  0.40659163875E+02  0.00000000000E+00 0. -1.
         11    1    3    3    0    0  0.15814494042E+01  0.78472687804E+01 -0.43860648931E+01  0.91278789999E+01  0.51100000000E-03 0. -1.
        -11    1    3    3    0    0 -0.25845609546E+02  0.95785474169E+01 -0.11084148982E+02  0.29708626060E+02  0.51100000000E-03 0.  1.
         12    1    3    3    0    0 -0.11111617384E+02 -0.34753959605E+01  0.10789753362E+01  0.11692331065E+02  0.00000000000E+00 0. -1.
</event>
<event>
 7    1  0.2746803E-013  0.5052885E+02  0.7816164E-02  0.1300439E+00
        -11   -1    0    0    0    0  0.00000000000E+00  0.00000000000E+00  0.45593999997E+02  0.45594000000E+02  0.51100000000E-03 0.  1.
         11   -1    0    0    0    0 -0.00000000000E+00 -0.00000000000E+00 -0.45593999997E+02  0.45594000000E+02  0.51100000000E-03 0. -1.
    9900012    2    1    2    0    0  0.15515437442E+02  0.30976816257E+02  0.21280857637E+02  0.50528845481E+02  0.29999956323E+02 0.  0.
         12    1    1    2    0    0 -0.15515437442E+02 -0.30976816257E+02 -0.21280857637E+02  0.40659154519E+02  0.00000000000E+00 0. -1.
         11    1    3    3    0    0 -0.92168970023E+00  0.14741856227E+01  0.72465967793E+01  0.74522412935E+01  0.51100000000E-03 0.  1.
        -11    1    3    3    0    0  0.53763122814E+01 -0.18177414448E+01 -0.22233923832E+01  0.60952761757E+01  0.51100000000E-03 0. -1.
         12    1    3    3    0    0  0.11060814861E+02  0.31320372079E+02  0.16257653241E+02  0.36981328011E+02  0.00000000000E+00 0. -1.
</event>
<event>
 7    1  0.2746803E-013  0.5052886E+02  0.7816164E-02  0.1300439E+00
        -11   -1    0    0    0    0  0.00000000000E+00  0.00000000000E+00  0.45593999997E+02  0.45594000000E+02  0.51100000000E-03 0.  1.
         11   -1    0    0    0    0 -0.00000000000E+00 -0.00000000000E+00 -0.45593999997E+02  0.45594000000E+02  0.51100000000E-03 0. -1.
    9900012    2    1    2    0    0 -0.27679334947E+02 -0.28715996021E+02  0.79001178791E+01  0.50528857448E+02  0.29999992698E+02 0.  0.
         12    1    1    2    0    0  0.27679334947E+02  0.28715996021E+02 -0.79001178791E+01  0.40659142552E+02  0.00000000000E+00 0. -1.
         11    1    3    3    0    0  0.70366893793E+00 -0.22141746031E+01 -0.27178322083E+01  0.35755183290E+01  0.51100000000E-03 0. -1.
        -11    1    3    3    0    0 -0.19117387872E+02 -0.25654167995E+02 -0.10729149487E+01  0.32011904057E+02  0.51100000000E-03 0.  1.
         12    1    3    3    0    0 -0.92656160130E+01 -0.84765342219E+00  0.11690865036E+02  0.14941435062E+02  0.00000000000E+00 0. -1.
</event>
<event>
 7    1  0.2746803E-013  0.5052885E+02  0.7816164E-02  0.1300439E+00
        -11   -1    0    0    0    0  0.00000000000E+00  0.00000000000E+00  0.45593999997E+02  0.45594000000E+02  0.51100000000E-03 0. -1.
         11   -1    0    0    0    0 -0.00000000000E+00 -0.00000000000E+00 -0.45593999997E+02  0.45594000000E+02  0.51100000000E-03 0.  1.
    9900012    2    1    2    0    0  0.23322232859E+02  0.26377314934E+02  0.20334131652E+02  0.50528853444E+02  0.29999980527E+02 0.  0.
         12    1    1    2    0    0 -0.23322232859E+02 -0.26377314934E+02 -0.20334131652E+02  0.40659146556E+02  0.00000000000E+00 0. -1.
         11    1    3    3    0    0  0.35465814744E+01  0.18586186147E+02  0.15748446209E+01  0.18986961091E+02  0.51100000000E-03 0. -1.
        -11    1    3    3    0    0  0.10198166294E+02  0.10991025039E+02  0.89375494310E+01  0.17455228937E+02  0.51100000000E-03 0.  1.
        -12    1    3    3    0    0  0.95774850907E+01 -0.31998962516E+01  0.98217376000E+01  0.14086663415E+02  0.00000000000E+00 0.  1.
</event>
<event>
 7    1  0.2746803E-013  0.5052883E+02  0.7816164E-02  0.1300439E+00
        -11   -1    0    0    0    0  0.00000000000E+00  0.00000000000E+00  0.45593999997E+02  0.45594000000E+02  0.51100000000E-03 0.  1.
         11   -1    0    0    0    0 -0.00000000000E+00 -0.00000000000E+00 -0.45593999997E+02  0.45594000000E+02  0.51100000000E-03 0. -1.
    9900012    2    1    2    0    0 -0.10609465952E+02 -0.17892385362E+02  0.34935221476E+02  0.50528832260E+02  0.29999916137E+02 0.  0.
         12    1    1    2    0    0  0.10609465952E+02  0.17892385362E+02 -0.34935221476E+02  0.40659167740E+02  0.00000000000E+00 0. -1.
         11    1    3    3    0    0 -0.27679263242E+01 -0.74276978669E+01 -0.27740128080E+01  0.83980509083E+01  0.51100000000E-03 0. -1.
        -11    1    3    3    0    0  0.22393797852E+00  0.11547853495E+01  0.17066914963E+02  0.17107403779E+02  0.51100000000E-03 0.  1.
        -12    1    3    3    0    0 -0.80654776065E+01 -0.11619472845E+02  0.20642319321E+02  0.25023377573E+02  0.00000000000E+00 0.  1.
</event>
<event>
 7    1  0.2746803E-013  0.5052887E+02  0.7816164E-02  0.1300439E+00
        -11   -1    0    0    0    0  0.00000000000E+00  0.00000000000E+00  0.45593999997E+02  0.45594000000E+02  0.51100000000E-03 0.  1.
         11   -1    0    0    0    0 -0.00000000000E+00 -0.00000000000E+00 -0.45593999997E+02  0.45594000000E+02  0.51100000000E-03 0. -1.
    9900012    2    1    2    0    0  0.13097590366E+02 -0.90507137357E+00  0.38481146262E+02  0.50528872547E+02  0.30000038595E+02 0.  0.
         12    1    1    2    0    0 -0.13097590366E+02  0.90507137357E+00 -0.38481146262E+02  0.40659127453E+02  0.00000000000E+00 0. -1.
         11    1    3    3    0    0 -0.64279252811E+01 -0.32708148331E+01  0.89295152116E+01  0.11478357690E+02  0.51100000000E-03 0. -1.
        -11    1    3    3    0    0  0.17243806859E+01  0.27178924935E+01  0.16911984128E+02  0.17215563765E+02  0.51100000000E-03 0.  1.
         12    1    3    3    0    0  0.17801134961E+02 -0.35214903392E+00  0.12639646923E+02  0.21834951092E+02  0.00000000000E+00 0. -1.
</event>
<event>
 7    1  0.2746803E-013  0.5052887E+02  0.7816164E-02  0.1300439E+00
        -11   -1    0    0    0    0  0.00000000000E+00  0.00000000000E+00  0.45593999997E+02  0.45594000000E+02  0.51100000000E-03 0.  1.
         11   -1    0    0    0    0 -0.00000000000E+00 -0.00000000000E+00 -0.45593999997E+02  0.45594000000E+02  0.51100000000E-03 0. -1.
    9900012    2    1    2    0    0 -0.85788776715E+01  0.12600917032E+01  0.39723795246E+02  0.50528869636E+02  0.30000029745E+02 0.  0.
         12    1    1    2    0    0  0.85788776715E+01 -0.12600917032E+01 -0.39723795246E+02  0.40659130364E+02  0.00000000000E+00 0. -1.
         11    1    3    3    0    0 -0.11248448301E+01  0.12651574847E+02  0.15117732497E+02  0.19745213550E+02  0.51100000000E-03 0. -1.
        -11    1    3    3    0    0 -0.16976405433E+01 -0.31352552666E+00 -0.12094936740E+01  0.21078797116E+01  0.51100000000E-03 0.  1.
        -12    1    3    3    0    0 -0.57563922981E+01 -0.11077957617E+02  0.25815556423E+02  0.28675776374E+02  0.00000000000E+00 0.  1.
</event>
<event>
 7    1  0.2746803E-013  0.5052887E+02  0.7816164E-02  0.1300439E+00
        -11   -1    0    0    0    0  0.00000000000E+00  0.00000000000E+00  0.45593999997E+02  0.45594000000E+02  0.51100000000E-03 0.  1.
         11   -1    0    0    0    0 -0.00000000000E+00 -0.00000000000E+00 -0.45593999997E+02  0.45594000000E+02  0.51100000000E-03 0. -1.
    9900012    2    1    2    0    0  0.21495690802E+02 -0.14243754641E+02  0.31435901353E+02  0.50528866177E+02  0.30000019232E+02 0.  0.
         12    1    1    2    0    0 -0.21495690802E+02  0.14243754641E+02 -0.31435901353E+02  0.40659133823E+02  0.00000000000E+00 0. -1.
         11    1    3    3    0    0  0.76311479283E+01 -0.82246948806E+01  0.29901058484E+01  0.11611234122E+02  0.51100000000E-03 0. -1.
        -11    1    3    3    0    0 -0.54876343488E+01 -0.16779316583E+01  0.24989816483E+01  0.62589531821E+01  0.51100000000E-03 0.  1.
         12    1    3    3    0    0  0.19352177223E+02 -0.43411281017E+01  0.25946813856E+02  0.32658678873E+02  0.00000000000E+00 0. -1.
</event>
<event>
 7    1  0.2746803E-013  0.5052885E+02  0.7816164E-02  0.1300439E+00
        -11   -1    0    0    0    0  0.00000000000E+00  0.00000000000E+00  0.45593999997E+02  0.45594000000E+02  0.51100000000E-03 0.  1.
         11   -1    0    0    0    0 -0.00000000000E+00 -0.00000000000E+00 -0.45593999997E+02  0.45594000000E+02  0.51100000000E-03 0. -1.
    9900012    2    1    2    0    0 -0.40527288786E+01 -0.50207478368E+01  0.40143914043E+02  0.50528851523E+02  0.29999974689E+02 0.  0.
         12    1    1    2    0    0  0.40527288786E+01  0.50207478368E+01 -0.40143914043E+02  0.40659148477E+02  0.00000000000E+00 0. -1.
         11    1    3    3    0    0  0.51705561967E+00  0.95438919745E+01  0.14520817296E+02  0.17384112164E+02  0.51100000000E-03 0. -1.
        -11    1    3    3    0    0 -0.46369474588E+01 -0.11690154752E+01  0.15869341318E+02  0.16574192984E+02  0.51100000000E-03 0.  1.
         12    1    3    3    0    0  0.67162960512E-01 -0.13395624336E+02  0.97537554282E+01  0.16570546375E+02  0.00000000000E+00 0. -1.
</event>
<event>
 7    1  0.2746803E-013  0.5052884E+02  0.7816164E-02  0.1300439E+00
        -11   -1    0    0    0    0  0.00000000000E+00  0.00000000000E+00  0.45593999997E+02  0.45594000000E+02  0.51100000000E-03 0. -1.
         11   -1    0    0    0    0 -0.00000000000E+00 -0.00000000000E+00 -0.45593999997E+02  0.45594000000E+02  0.51100000000E-03 0.  1.
    9900012    2    1    2    0    0 -0.32797822035E+02  0.95436570072E+01  0.22054226514E+02  0.50528838346E+02  0.29999934636E+02 0.  0.
         12    1    1    2    0    0  0.32797822035E+02 -0.95436570072E+01 -0.22054226514E+02  0.40659161654E+02  0.00000000000E+00 0. -1.
         11    1    3    3    0    0 -0.59651329298E+01 -0.17812714684E+00  0.81796872068E+00  0.60235880703E+01  0.51100000000E-03 0.  1.
        -11    1    3    3    0    0 -0.44419463009E+01  0.15365079818E+02  0.78850842591E+01  0.17832305481E+02  0.51100000000E-03 0. -1.
         12    1    3    3    0    0 -0.22390742804E+02 -0.56432956637E+01  0.13351173534E+02  0.26672944794E+02  0.00000000000E+00 0. -1.
</event>
<event>
 7    1  0.2746803E-013  0.5052888E+02  0.7816164E-02  0.1300439E+00
        -11   -1    0    0    0    0  0.00000000000E+00  0.00000000000E+00  0.45593999997E+02  0.45594000000E+02  0.51100000000E-03 0.  1.
         11   -1    0    0    0    0 -0.00000000000E+00 -0.00000000000E+00 -0.45593999997E+02  0.45594000000E+02  0.51100000000E-03 0. -1.
    9900012    2    1    2    0    0  0.18752423966E+02  0.34819253910E+02  0.94408990148E+01  0.50528875297E+02  0.30000046953E+02 0.  0.
         12    1    1    2    0    0 -0.18752423966E+02 -0.34819253910E+02 -0.94408990148E+01  0.40659124703E+02  0.00000000000E+00 0. -1.
         11    1    3    3    0    0  0.10699912978E+02  0.20409747918E+01  0.84872604256E+01  0.13808957442E+02  0.51100000000E-03 0.  1.
        -11    1    3    3    0    0 -0.26631323444E+01  0.30701134509E+01 -0.27716223461E+01  0.49193252764E+01  0.51100000000E-03 0. -1.
        -12    1    3    3    0    0  0.10715643332E+02  0.29708165667E+02  0.37252609354E+01  0.31800592579E+02  0.00000000000E+00 0.  1.
</event>
<event>
 7    1  0.2746803E-013  0.5052886E+02  0.7816164E-02  0.1300439E+00
        -11   -1    0    0    0    0  0.00000000000E+00  0.00000000000E+00  0.45593999997E+02  0.45594000000E+02  0.51100000000E-03 0.  1.
         11   -1    0    0    0    0 -0.00000000000E+00 -0.00000000000E+00 -0.45593999997E+02  0.45594000000E+02  0.51100000000E-03 0. -1.
    9900012    2    1    2    0    0  0.17845142711E+02 -0.33476140076E+02 -0.14630954685E+02  0.50528857021E+02  0.29999991402E+02 0.  0.
         12    1    1    2    0    0 -0.17845142711E+02  0.33476140076E+02  0.14630954685E+02  0.40659142979E+02  0.00000000000E+00 0. -1.
         11    1    3    3    0    0  0.11800804262E+02 -0.87897747665E+01 -0.27319826158E-01  0.14714614107E+02  0.51100000000E-03 0. -1.
        -11    1    3    3    0    0  0.11128294515E+02 -0.68222444813E+01 -0.10598198594E+02  0.16813797080E+02  0.51100000000E-03 0.  1.
        -12    1    3    3    0    0 -0.50839560654E+01 -0.17864120828E+02 -0.40054362654E+01  0.19000445834E+02  0.00000000000E+00 0.  1.
</event>
<event>
 7    1  0.2746803E-013  0.5052886E+02  0.7816164E-02  0.1300439E+00
        -11   -1    0    0    0    0  0.00000000000E+00  0.00000000000E+00  0.45593999997E+02  0.45594000000E+02  0.51100000000E-03 0.  1.
         11   -1    0    0    0    0 -0.00000000000E+00 -0.00000000000E+00 -0.45593999997E+02  0.45594000000E+02  0.51100000000E-03 0. -1.
    9900012    2    1    2    0    0 -0.13476245117E+02 -0.31989700141E+02  0.21171106608E+02  0.50528857700E+02  0.29999993464E+02 0.  0.
         12    1    1    2    0    0  0.13476245117E+02  0.31989700141E+02 -0.21171106608E+02  0.40659142300E+02  0.00000000000E+00 0. -1.
         11    1    3    3    0    0  0.27702970786E+01 -0.75987974909E+00 -0.83253824644E+00  0.29908332166E+01  0.51100000000E-03 0. -1.
        -11    1    3    3    0    0 -0.20017686476E+02 -0.27823787378E+02  0.11997423960E+02  0.36315411299E+02  0.51100000000E-03 0.  1.
         12    1    3    3    0    0  0.37711442803E+01 -0.34060330135E+01  0.10006220895E+02  0.11222613184E+02  0.00000000000E+00 0. -1.
</event>
<event>
 7    1  0.2746803E-013  0.5052886E+02  0.7816164E-02  0.1300439E+00
        -11   -1    0    0    0    0  0.00000000000E+00  0.00000000000E+00  0.45593999997E+02  0.45594000000E+02  0.51100000000E-03 0.  1.
         11   -1    0    0    0    0 -0.00000000000E+00 -0.00000000000E+00 -0.45593999997E+02  0.45594000000E+02  0.51100000000E-03 0. -1.
    9900012    2    1    2    0    0 -0.19656707097E+02  0.13001288576E+02  0.33132252857E+02  0.50528858126E+02  0.29999994760E+02 0.  0.
         12    1    1    2    0    0  0.19656707097E+02 -0.13001288576E+02 -0.33132252857E+02  0.40659141874E+02  0.00000000000E+00 0. -1.
         11    1    3    3    0    0  0.10977666893E+01 -0.18804961366E+01  0.22052314039E+01  0.30990971637E+01  0.51100000000E-03 0. -1.
        -11    1    3    3    0    0 -0.95803724205E+01  0.10636176447E+02  0.44757306634E-01  0.14314810114E+02  0.51100000000E-03 0.  1.
        -12    1    3    3    0    0 -0.11174101366E+02  0.42456082657E+01  0.30882264146E+02  0.33114950848E+02  0.00000000000E+00 0.  1.
</event>
<event>
 7    1  0.2746803E-013  0.5052886E+02  0.7816164E-02  0.1300439E+00
        -11   -1    0    0    0    0  0.00000000000E+00  0.00000000000E+00  0.45593999997E+02  0.45594000000E+02  0.51100000000E-03 0.  1.
         11   -1    0    0    0    0 -0.00000000000E+00 -0.00000000000E+00 -0.45593999997E+02  0.45594000000E+02  0.51100000000E-03 0. -1.
    9900012    2    1    2    0    0 -0.23842480170E+02 -0.93901295839E+01  0.31567820220E+02  0.50528859974E+02  0.30000000376E+02 0.  0.
         12    1    1    2    0    0  0.23842480170E+02  0.93901295839E+01 -0.31567820220E+02  0.40659140026E+02  0.00000000000E+00 0. -1.
         11    1    3    3    0    0 -0.48904316077E+01  0.45658213663E+00  0.11131982441E+02  0.12167408182E+02  0.51100000000E-03 0. -1.
        -11    1    3    3    0    0 -0.24875254935E+02 -0.71930586769E+01  0.17390023567E+02  0.31191847030E+02  0.51100000000E-03 0.  1.
        -12    1    3    3    0    0  0.59232063732E+01 -0.26536530437E+01  0.30458142126E+01  0.71696047613E+01  0.00000000000E+00 0.  1.
</event>
<event>
 7    1  0.2746803E-013  0.5052886E+02  0.7816164E-02  0.1300439E+00
        -11   -1    0    0    0    0  0.00000000000E+00  0.00000000000E+00  0.45593999997E+02  0.45594000000E+02  0.51100000000E-03 0.  1.
         11   -1    0    0    0    0 -0.00000000000E+00 -0.00000000000E+00 -0.45593999997E+02  0.45594000000E+02  0.51100000000E-03 0. -1.
    9900012    2    1    2    0    0  0.32828439484E+00  0.14141221598E+02  0.38119335496E+02  0.50528860098E+02  0.30000000754E+02 0.  0.
         12    1    1    2    0    0 -0.32828439484E+00 -0.14141221598E+02 -0.38119335496E+02  0.40659139902E+02  0.00000000000E+00 0. -1.
         11    1    3    3    0    0  0.21276931395E+01  0.24212367958E+01 -0.35314324677E+01  0.47812635623E+01  0.51100000000E-03 0. -1.
        -11    1    3    3    0    0  0.53630309278E+01  0.13931685102E+01  0.72633729892E+01  0.91356229493E+01  0.51100000000E-03 0.  1.
         12    1    3    3    0    0 -0.71624396724E+01  0.10326816292E+02  0.34387394974E+02  0.36611973587E+02  0.00000000000E+00 0. -1.
</event>
<event>
 7    1  0.2746803E-013  0.5052887E+02  0.7816164E-02  0.1300439E+00
        -11   -1    0    0    0    0  0.00000000000E+00  0.00000000000E+00  0.45593999997E+02  0.45594000000E+02  0.51100000000E-03 0.  1.
         11   -1    0    0    0    0 -0.00000000000E+00 -0.00000000000E+00 -0.45593999997E+02  0.45594000000E+02  0.51100000000E-03 0. -1.
    9900012    2    1    2    0    0  0.12228927548E+02 -0.37736682920E+02  0.89197154820E+01  0.50528865343E+02  0.30000016697E+02 0.  0.
         12    1    1    2    0    0 -0.12228927548E+02  0.37736682920E+02 -0.89197154820E+01  0.40659134657E+02  0.00000000000E+00 0. -1.
         11    1    3    3    0    0  0.45961081757E-01  0.18985322704E+01 -0.13089366883E+01  0.23064805913E+01  0.51100000000E-03 0. -1.
        -11    1    3    3    0    0  0.46346809566E+01 -0.28822605800E+02 -0.32412660052E+01  0.29372243330E+02  0.51100000000E-03 0.  1.
         12    1    3    3    0    0  0.75482855097E+01 -0.10812609390E+02  0.13469918176E+02  0.18850141422E+02  0.00000000000E+00 0. -1.
</event>
<event>
 7    1  0.2746803E-013  0.5052886E+02  0.7816164E-02  0.1300439E+00
        -11   -1    0    0    0    0  0.00000000000E+00  0.00000000000E+00  0.45593999997E+02  0.45594000000E+02  0.51100000000E-03 0.  1.
         11   -1    0    0    0    0 -0.00000000000E+00 -0.00000000000E+00 -0.45593999997E+02  0.45594000000E+02  0.51100000000E-03 0. -1.
    9900012    2    1    2    0    0 -0.14712064548E+01  0.40448716371E+02  0.38604009125E+01  0.50528858350E+02  0.29999995442E+02 0.  0.
         12    1    1    2    0    0  0.14712064548E+01 -0.40448716371E+02 -0.38604009125E+01  0.40659141650E+02  0.00000000000E+00 0. -1.
         11    1    3    3    0    0 -0.45987024225E+01  0.26618642493E+02  0.68048881760E+01  0.27856896732E+02  0.51100000000E-03 0.  1.
        -11    1    3    3    0    0  0.22346367940E+01 -0.35188481640E+01  0.19811262639E+01  0.46152741562E+01  0.51100000000E-03 0. -1.
         12    1    3    3    0    0  0.89285917371E+00  0.17348922041E+02 -0.49256135274E+01  0.18056687463E+02  0.00000000000E+00 0. -1.
</event>
<event>
 7    1  0.2746803E-013  0.5052886E+02  0.7816164E-02  0.1300439E+00
        -11   -1    0    0    0    0  0.00000000000E+00  0.00000000000E+00  0.45593999997E+02  0.45594000000E+02  0.51100000000E-03 0. -1.
         11   -1    0    0    0    0 -0.00000000000E+00 -0.00000000000E+00 -0.45593999997E+02  0.45594000000E+02  0.51100000000E-03 0.  1.
    9900012    2    1    2    0    0  0.10553957957E+02  0.29300350219E+01 -0.39156029272E+02  0.50528858812E+02  0.29999996845E+02 0.  0.
         12    1    1    2    0    0 -0.10553957957E+02 -0.29300350219E+01  0.39156029272E+02  0.40659141188E+02  0.00000000000E+00 0. -1.
         11    1    3    3    0    0  0.90142729341E+01  0.60869074733E+01 -0.18025332846E+02  0.21052795149E+02  0.51100000000E-03 0. -1.
        -11    1    3    3    0    0 -0.69621094525E+00  0.25413615482E+01 -0.22941742821E+02  0.23092570063E+02  0.51100000000E-03 0.  1.
         12    1    3    3    0    0  0.22358959686E+01 -0.56982339995E+01  0.18110463946E+01  0.63834935999E+01  0.00000000000E+00 0. -1.
</event>
<event>
 7    1  0.2746803E-013  0.5052886E+02  0.7816164E-02  0.1300439E+00
        -11   -1    0    0    0    0  0.00000000000E+00  0.00000000000E+00  0.45593999997E+02  0.45594000000E+02  0.51100000000E-03 0.  1.
         11   -1    0    0    0    0 -0.00000000000E+00 -0.00000000000E+00 -0.45593999997E+02  0.45594000000E+02  0.51100000000E-03 0. -1.
    9900012    2    1    2    0    0  0.10072384948E+02 -0.27199722140E+01  0.39297768728E+02  0.50528858170E+02  0.29999994893E+02 0.  0.
         12    1    1    2    0    0 -0.10072384948E+02  0.27199722140E+01 -0.39297768728E+02  0.40659141830E+02  0.00000000000E+00 0. -1.
         11    1    3    3    0    0 -0.47586786205E+01 -0.45289611689E-01  0.92402518391E+00  0.48477722888E+01  0.51100000000E-03 0. -1.
        -11    1    3    3    0    0 -0.18221022594E+01  0.18146987513E+00 -0.15052232969E+01  0.23703766354E+01  0.51100000000E-03 0.  1.
        -12    1    3    3    0    0  0.16653165828E+02 -0.28561524775E+01  0.39878966841E+02  0.43310709246E+02  0.00000000000E+00 0.  1.
</event>
<event>
 7    1  0.2746803E-013  0.5052886E+02  0.7816164E-02  0.1300439E+00
        -11   -1    0    0    0    0  0.00000000000E+00  0.00000000000E+00  0.45593999997E+02  0.45594000000E+02  0.51100000000E-03 0.  1.
         11   -1    0    0    0    0 -0.00000000000E+00 -0.00000000000E+00 -0.45593999997E+02  0.45594000000E+02  0.51100000000E-03 0. -1.
    9900012    2    1    2    0    0  0.30180458231E+02 -0.21110279999E+02  0.17223864062E+02  0.50528862357E+02  0.30000007620E+02 0.  0.
         12    1    1    2    0    0 -0.30180458231E+02  0.21110279999E+02 -0.17223864062E+02  0.40659137643E+02  0.00000000000E+00 0. -1.
         11    1    3    3    0    0  0.86223606699E+01  0.74195114915E+00 -0.28569607479E+01  0.91136063118E+01  0.51100000000E-03 0. -1.
        -11    1    3    3    0    0  0.12340393276E+01 -0.12289774871E+02  0.18558470316E+01  0.12490219690E+02  0.51100000000E-03 0.  1.
        -12    1    3    3    0    0  0.20324058233E+02 -0.95624562771E+01  0.18224977778E+02  0.28925036355E+02  0.00000000000E+00 0.  1.
</event>
<event>
 7    1  0.2746803E-013  0.5052886E+02  0.7816164E-02  0.1300439E+00
        -11   -1    0    0    0    0  0.00000000000E+00  0.00000000000E+00  0.45593999997E+02  0.45594000000E+02  0.51100000000E-03 0.  1.
         11   -1    0    0    0    0 -0.00000000000E+00 -0.00000000000E+00 -0.45593999997E+02  0.45594000000E+02  0.51100000000E-03 0. -1.
    9900012    2    1    2    0    0  0.38349681009E+02  0.35351318177E+01  0.13037280744E+02  0.50528857367E+02  0.29999992453E+02 0.  0.
         12    1    1    2    0    0 -0.38349681009E+02 -0.35351318177E+01 -0.13037280744E+02  0.40659142633E+02  0.00000000000E+00 0. -1.
         11    1    3    3    0    0  0.12833790560E+02 -0.29490821518E+01  0.11540391524E+02  0.17509537471E+02  0.51100000000E-03 0. -1.
        -11    1    3    3    0    0  0.17462347473E+02 -0.54130807517E+01 -0.14990877361E+01  0.18343453514E+02  0.51100000000E-03 0.  1.
         12    1    3    3    0    0  0.80535429757E+01  0.11897294721E+02  0.29959769568E+01  0.14675866382E+02  0.00000000000E+00 0. -1.
</event>
<event>
 7    1  0.2746803E-013  0.5052886E+02  0.7816164E-02  0.1300439E+00
        -11   -1    0    0    0    0  0.00000000000E+00  0.00000000000E+00  0.45593999997E+02  0.45594000000E+02  0.51100000000E-03 0.  1.
         11   -1    0    0    0    0 -0.00000000000E+00 -0.00000000000E+00 -0.45593999997E+02  0.45594000000E+02  0.51100000000E-03 0. -1.
    9900012    2    1    2    0    0 -0.38744672580E+02 -0.12115043037E+02  0.22894108652E+01  0.50528864210E+02  0.30000013252E+02 0.  0.
         12    1    1    2    0    0  0.38744672580E+02  0.12115043037E+02 -0.22894108652E+01  0.40659135790E+02  0.00000000000E+00 0. -1.
         11    1    3    3    0    0 -0.19870672405E+02  0.83383386939E+00  0.48723772814E+01  0.20476302434E+02  0.51100000000E-03 0.  1.
        -11    1    3    3    0    0 -0.83373782494E+01 -0.92407241613E+01  0.78936883651E+01  0.14738153730E+02  0.51100000000E-03 0. -1.
         12    1    3    3    0    0 -0.10536621925E+02 -0.37081527449E+01 -0.10476654781E+02  0.15314408046E+02  0.00000000000E+00 0. -1.
</event>
<event>
 7    1  0.2746803E-013  0.5052886E+02  0.7816164E-02  0.1300439E+00
        -11   -1    0    0    0    0  0.00000000000E+00  0.00000000000E+00  0.45593999997E+02  0.45594000000E+02  0.51100000000E-03 0.  1.
         11   -1    0    0    0    0 -0.00000000000E+00 -0.00000000000E+00 -0.45593999997E+02  0.45594000000E+02  0.51100000000E-03 0. -1.
    9900012    2    1    2    0    0 -0.37774870124E+02 -0.73207802824E+01  0.13138908844E+02  0.50528861268E+02  0.30000004309E+02 0.  0.
         12    1    1    2    0    0  0.37774870124E+02  0.73207802824E+01 -0.13138908844E+02  0.40659138732E+02  0.00000000000E+00 0. -1.
         11    1    3    3    0    0 -0.48323380730E+01 -0.73281292108E+01  0.75353256304E+01  0.11568668964E+02  0.51100000000E-03 0. -1.
        -11    1    3    3    0    0 -0.86745719316E+01  0.22322556500E+01  0.10811763719E+02  0.14040135272E+02  0.51100000000E-03 0.  1.
         12    1    3    3    0    0 -0.24267960120E+02 -0.22249067217E+01 -0.52081805052E+01  0.24920057032E+02  0.00000000000E+00 0. -1.
</event>
<event>
 7    1  0.2746803E-013  0.5052884E+02  0.7816164E-02  0.1300439E+00
        -11   -1    0    0    0    0  0.00000000000E+00  0.00000000000E+00  0.45593999997E+02  0.45594000000E+02  0.51100000000E-03 0.  1.
         11   -1    0    0    0    0 -0.00000000000E+00 -0.00000000000E+00 -0.45593999997E+02  0.45594000000E+02  0.51100000000E-03 0. -1.
    9900012    2    1    2    0    0  0.31269956801E+02  0.19199949885E+02 -0.17513394391E+02  0.50528840429E+02  0.29999940967E+02 0.  0.
         12    1    1    2    0    0 -0.31269956801E+02 -0.19199949885E+02  0.17513394391E+02  0.40659159571E+02  0.00000000000E+00 0. -1.
         11    1    3    3    0    0  0.23693973632E+00  0.48967770943E+01 -0.56888421488E+01  0.75098263365E+01  0.51100000000E-03 0. -1.
        -11    1    3    3    0    0  0.25124403333E+02  0.17406905687E+02 -0.16628475214E+02  0.34795720953E+02  0.51100000000E-03 0.  1.
        -12    1    3    3    0    0  0.59086137324E+01 -0.31037328961E+01  0.48039229726E+01  0.82232931393E+01  0.00000000000E+00 0.  1.
</event>
<event>
 7    1  0.2746803E-013  0.5052886E+02  0.7816164E-02  0.1300439E+00
        -11   -1    0    0    0    0  0.00000000000E+00  0.00000000000E+00  0.45593999997E+02  0.45594000000E+02  0.51100000000E-03 0.  1.
         11   -1    0    0    0    0 -0.00000000000E+00 -0.00000000000E+00 -0.45593999997E+02  0.45594000000E+02  0.51100000000E-03 0. -1.
    9900012    2    1    2    0    0 -0.33503943375E+02  0.20853596368E+02  0.97866912154E+01  0.50528855542E+02  0.29999986905E+02 0.  0.
         12    1    1    2    0    0  0.33503943375E+02 -0.20853596368E+02 -0.97866912154E+01  0.40659144458E+02  0.00000000000E+00 0. -1.
         11    1    3    3    0    0 -0.39811358594E+01  0.11824907928E+02 -0.58282663763E+01  0.13771222874E+02  0.51100000000E-03 0. -1.
        -11    1    3    3    0    0 -0.20418654983E+02  0.94850368415E+01  0.55695604770E+01  0.23192830775E+02  0.51100000000E-03 0.  1.
        -12    1    3    3    0    0 -0.91041525319E+01 -0.45634840123E+00  0.10045397115E+02  0.13564801892E+02  0.00000000000E+00 0.  1.
</event>
<event>
 7    1  0.2746803E-013  0.5052885E+02  0.7816164E-02  0.1300439E+00
        -11   -1    0    0    0    0  0.00000000000E+00  0.00000000000E+00  0.45593999997E+02  0.45594000000E+02  0.51100000000E-03 0.  1.
         11   -1    0    0    0    0 -0.00000000000E+00 -0.00000000000E+00 -0.45593999997E+02  0.45594000000E+02  0.51100000000E-03 0. -1.
    9900012    2    1    2    0    0 -0.39664815155E+02  0.83417325872E+01  0.32068931438E+01  0.50528853090E+02  0.29999979453E+02 0.  0.
         12    1    1    2    0    0  0.39664815155E+02 -0.83417325872E+01 -0.32068931438E+01  0.40659146910E+02  0.00000000000E+00 0. -1.
         11    1    3    3    0    0 -0.31325576771E+01 -0.38097246454E+01 -0.45991505474E+01  0.67438197998E+01  0.51100000000E-03 0. -1.
        -11    1    3    3    0    0 -0.24272221782E+02 -0.21735930063E+00 -0.95118647704E+00  0.24291824783E+02  0.51100000000E-03 0.  1.
         12    1    3    3    0    0 -0.12260035695E+02  0.12368816533E+02  0.87572301683E+01  0.19493208507E+02  0.00000000000E+00 0. -1.
</event>
<event>
 7    1  0.2746803E-013  0.5052887E+02  0.7816164E-02  0.1300439E+00
        -11   -1    0    0    0    0  0.00000000000E+00  0.00000000000E+00  0.45593999997E+02  0.45594000000E+02  0.51100000000E-03 0. -1.
         11   -1    0    0    0    0 -0.00000000000E+00 -0.00000000000E+00 -0.45593999997E+02  0.45594000000E+02  0.51100000000E-03 0.  1.
    9900012    2    1    2    0    0  0.22556281558E+02 -0.54864424204E+01 -0.33380807567E+02  0.50528865701E+02  0.30000017785E+02 0.  0.
         12    1    1    2    0    0 -0.22556281558E+02  0.54864424204E+01  0.33380807567E+02  0.40659134299E+02  0.00000000000E+00 0. -1.
         11    1    3    3    0    0  0.54743383507E+01  0.80834587397E+01 -0.42656785862E+01  0.10653952301E+02  0.51100000000E-03 0. -1.
        -11    1    3    3    0    0  0.64763072935E+01 -0.28332563184E+01  0.13483426133E-01  0.70689518027E+01  0.51100000000E-03 0.  1.
        -12    1    3    3    0    0  0.10605635913E+02 -0.10736644842E+02 -0.29128612407E+02  0.32805961597E+02  0.00000000000E+00 0.  1.
</event>
<event>
 7    1  0.2746803E-013  0.5052887E+02  0.7816164E-02  0.1300439E+00
        -11   -1    0    0    0    0  0.00000000000E+00  0.00000000000E+00  0.45593999997E+02  0.45594000000E+02  0.51100000000E-03 0.  1.
         11   -1    0    0    0    0 -0.00000000000E+00 -0.00000000000E+00 -0.45593999997E+02  0.45594000000E+02  0.51100000000E-03 0. -1.
    9900012    2    1    2    0    0 -0.33280845961E+02 -0.23356688939E+02  0.12355651721E+00  0.50528869509E+02  0.30000029360E+02 0.  0.
         12    1    1    2    0    0  0.33280845961E+02  0.23356688939E+02 -0.12355651721E+00  0.40659130491E+02  0.00000000000E+00 0. -1.
         11    1    3    3    0    0  0.12450992009E+01  0.20172708174E+01  0.37134937933E+00  0.23994904028E+01  0.51100000000E-03 0. -1.
        -11    1    3    3    0    0 -0.14885787530E+02 -0.36648855239E+01  0.85599551060E+01  0.17558214259E+02  0.51100000000E-03 0.  1.
         12    1    3    3    0    0 -0.19640157631E+02 -0.21709074233E+02 -0.88077479681E+01  0.30571164847E+02  0.00000000000E+00 0. -1.
</event>
<event>
 7    1  0.2746803E-013  0.5052882E+02  0.7816164E-02  0.1300439E+00
        -11   -1    0    0    0    0  0.00000000000E+00  0.00000000000E+00  0.45593999997E+02  0.45594000000E+02  0.51100000000E-03 0.  1.
         11   -1    0    0    0    0 -0.00000000000E+00 -0.00000000000E+00 -0.45593999997E+02  0.45594000000E+02  0.51100000000E-03 0. -1.
    9900012    2    1    2    0    0  0.25270684693E+02  0.77873431676E+01  0.30885571110E+02  0.50528822423E+02  0.29999886236E+02 0.  0.
         12    1    1    2    0    0 -0.25270684693E+02 -0.77873431676E+01 -0.30885571110E+02  0.40659177577E+02  0.00000000000E+00 0. -1.
         11    1    3    3    0    0  0.13610687408E+02  0.77430555719E+00  0.30039752938E+02  0.32988439151E+02  0.51100000000E-03 0. -1.
        -11    1    3    3    0    0  0.24344954872E+01 -0.15837350574E+01  0.36076122255E+01  0.46313984109E+01  0.51100000000E-03 0.  1.
         12    1    3    3    0    0  0.92255017986E+01  0.85967726678E+01 -0.27617940534E+01  0.12908984861E+02  0.00000000000E+00 0. -1.
</event>
<event>
 7    1  0.2746803E-013  0.5052886E+02  0.7816164E-02  0.1300439E+00
        -11   -1    0    0    0    0  0.00000000000E+00  0.00000000000E+00  0.45593999997E+02  0.45594000000E+02  0.51100000000E-03 0.  1.
         11   -1    0    0    0    0 -0.00000000000E+00 -0.00000000000E+00 -0.45593999997E+02  0.45594000000E+02  0.51100000000E-03 0. -1.
    9900012    2    1    2    0    0 -0.25510877678E+02 -0.30553423257E+02  0.82975339747E+01  0.50528860527E+02  0.30000002059E+02 0.  0.
         12    1    1    2    0    0  0.25510877678E+02  0.30553423257E+02 -0.82975339747E+01  0.40659139473E+02  0.00000000000E+00 0. -1.
         11    1    3    3    0    0 -0.31953408011E+01 -0.25171132039E+01 -0.33980169302E+01  0.53002434883E+01  0.51100000000E-03 0. -1.
        -11    1    3    3    0    0  0.39569360794E+01 -0.11476169936E+02  0.64043631558E+01  0.13725002267E+02  0.51100000000E-03 0.  1.
        -12    1    3    3    0    0 -0.26272472956E+02 -0.16560140117E+02  0.52911877491E+01  0.31503614772E+02  0.00000000000E+00 0.  1.
</event>
<event>
 7    1  0.2746803E-013  0.5052885E+02  0.7816164E-02  0.1300439E+00
        -11   -1    0    0    0    0  0.00000000000E+00  0.00000000000E+00  0.45593999997E+02  0.45594000000E+02  0.51100000000E-03 0. -1.
         11   -1    0    0    0    0 -0.00000000000E+00 -0.00000000000E+00 -0.45593999997E+02  0.45594000000E+02  0.51100000000E-03 0.  1.
    9900012    2    1    2    0    0  0.24402676042E+02  0.26689710096E+02  0.18583204330E+02  0.50528847203E+02  0.29999961558E+02 0.  0.
         12    1    1    2    0    0 -0.24402676042E+02 -0.26689710096E+02 -0.18583204330E+02  0.40659152797E+02  0.00000000000E+00 0. -1.
         11    1    3    3    0    0  0.12531804854E+02  0.43542656324E+01  0.13708803039E+01  0.13337356378E+02  0.51100000000E-03 0. -1.
        -11    1    3    3    0    0  0.11684635793E+01  0.65375416906E+01 -0.46994237652E+01  0.81356832828E+01  0.51100000000E-03 0.  1.
         12    1    3    3    0    0  0.10702407609E+02  0.15797902773E+02  0.21911747791E+02  0.29055807542E+02  0.00000000000E+00 0. -1.
</event>
<event>
 7    1  0.2746803E-013  0.5052886E+02  0.7816164E-02  0.1300439E+00
        -11   -1    0    0    0    0  0.00000000000E+00  0.00000000000E+00  0.45593999997E+02  0.45594000000E+02  0.51100000000E-03 0.  1.
         11   -1    0    0    0    0 -0.00000000000E+00 -0.00000000000E+00 -0.45593999997E+02  0.45594000000E+02  0.51100000000E-03 0. -1.
    9900012    2    1    2    0    0  0.12405066203E+02  0.38706442657E+02 -0.10447962910E+01  0.50528856257E+02  0.29999989079E+02 0.  0.
         12    1    1    2    0    0 -0.12405066203E+02 -0.38706442657E+02  0.10447962910E+01  0.40659143743E+02  0.00000000000E+00 0. -1.
         11    1    3    3    0    0  0.80721457594E+01 -0.30800770772E+00  0.21605709661E+01  0.83619658616E+01  0.51100000000E-03 0.  1.
        -11    1    3    3    0    0 -0.47238471333E+01  0.59768836985E+01  0.87465531669E+00  0.76683044194E+01  0.51100000000E-03 0. -1.
        -12    1    3    3    0    0  0.90567675770E+01  0.33037566666E+02 -0.40800225738E+01  0.34498585976E+02  0.00000000000E+00 0.  1.
</event>
<event>
 7    1  0.2746803E-013  0.5052885E+02  0.7816164E-02  0.1300439E+00
        -11   -1    0    0    0    0  0.00000000000E+00  0.00000000000E+00  0.45593999997E+02  0.45594000000E+02  0.51100000000E-03 0.  1.
         11   -1    0    0    0    0 -0.00000000000E+00 -0.00000000000E+00 -0.45593999997E+02  0.45594000000E+02  0.51100000000E-03 0. -1.
    9900012    2    1    2    0    0 -0.14828099608E+02  0.37095349072E+02  0.75649937363E+01  0.50528848619E+02  0.29999965863E+02 0.  0.
         12    1    1    2    0    0  0.14828099608E+02 -0.37095349072E+02 -0.75649937363E+01  0.40659151381E+02  0.00000000000E+00 0. -1.
         11    1    3    3    0    0 -0.78729512534E+01  0.71018308108E+01  0.37291238407E+01  0.11239471837E+02  0.51100000000E-03 0. -1.
        -11    1    3    3    0    0 -0.14937324329E+02  0.25675065195E+02  0.50591394436E+01  0.30131835706E+02  0.51100000000E-03 0.  1.
         12    1    3    3    0    0  0.79821759737E+01  0.43184530665E+01 -0.12232695480E+01  0.91575410755E+01  0.00000000000E+00 0. -1.
</event>
<event>
 7    1  0.2746803E-013  0.5052886E+02  0.7816164E-02  0.1300439E+00
        -11   -1    0    0    0    0  0.00000000000E+00  0.00000000000E+00  0.45593999997E+02  0.45594000000E+02  0.51100000000E-03 0.  1.
         11   -1    0    0    0    0 -0.00000000000E+00 -0.00000000000E+00 -0.45593999997E+02  0.45594000000E+02  0.51100000000E-03 0. -1.
    9900012    2    1    2    0    0  0.97907630134E+01  0.12091581014E+02  0.37564613519E+02  0.50528861290E+02  0.30000004378E+02 0.  0.
         12    1    1    2    0    0 -0.97907630134E+01 -0.12091581014E+02 -0.37564613519E+02  0.40659138710E+02  0.00000000000E+00 0. -1.
         11    1    3    3    0    0  0.34421441050E+01 -0.17785761090E+01  0.13580667473E+01  0.41056101333E+01  0.51100000000E-03 0. -1.
        -11    1    3    3    0    0  0.10963713172E+02  0.19139896729E+01  0.30361938931E+02  0.32337496794E+02  0.51100000000E-03 0.  1.
        -12    1    3    3    0    0 -0.46150942639E+01  0.11956167450E+02  0.58446078401E+01  0.14085754363E+02  0.00000000000E+00 0.  1.
</event>
<event>
 7    1  0.2746803E-013  0.5052885E+02  0.7816164E-02  0.1300439E+00
        -11   -1    0    0    0    0  0.00000000000E+00  0.00000000000E+00  0.45593999997E+02  0.45594000000E+02  0.51100000000E-03 0.  1.
         11   -1    0    0    0    0 -0.00000000000E+00 -0.00000000000E+00 -0.45593999997E+02  0.45594000000E+02  0.51100000000E-03 0. -1.
    9900012    2    1    2    0    0 -0.14547747895E+02  0.37949338970E+02 -0.11734748044E+01  0.50528851703E+02  0.29999975238E+02 0.  0.
         12    1    1    2    0    0  0.14547747895E+02 -0.37949338970E+02  0.11734748044E+01  0.40659148297E+02  0.00000000000E+00 0. -1.
         11    1    3    3    0    0 -0.50484647842E+01  0.16381576101E+02 -0.47603813224E+01  0.17790566680E+02  0.51100000000E-03 0. -1.
        -11    1    3    3    0    0  0.14156262087E+01  0.58441514272E+01 -0.82682327134E+01  0.10223589190E+02  0.51100000000E-03 0.  1.
        -12    1    3    3    0    0 -0.10914909319E+02  0.15723611443E+02  0.11855139231E+02  0.22514695833E+02  0.00000000000E+00 0.  1.
</event>
<event>
 7    1  0.2746803E-013  0.5052886E+02  0.7816164E-02  0.1300439E+00
        -11   -1    0    0    0    0  0.00000000000E+00  0.00000000000E+00  0.45593999997E+02  0.45594000000E+02  0.51100000000E-03 0. -1.
         11   -1    0    0    0    0 -0.00000000000E+00 -0.00000000000E+00 -0.45593999997E+02  0.45594000000E+02  0.51100000000E-03 0.  1.
    9900012    2    1    2    0    0  0.36685807496E+02 -0.16727249745E+02 -0.52455640999E+01  0.50528864516E+02  0.30000014181E+02 0.  0.
         12    1    1    2    0    0 -0.36685807496E+02  0.16727249745E+02  0.52455640999E+01  0.40659135484E+02  0.00000000000E+00 0. -1.
         11    1    3    3    0    0  0.32943078752E+01 -0.20655576964E+01 -0.36583181674E+01  0.53387531362E+01  0.51100000000E-03 0. -1.
        -11    1    3    3    0    0  0.82358964090E+01 -0.14349544079E+02 -0.91677988669E+01  0.18915283272E+02  0.51100000000E-03 0.  1.
         12    1    3    3    0    0  0.25155603211E+02 -0.31214796903E+00  0.75805529343E+01  0.26274828107E+02  0.00000000000E+00 0. -1.
</event>
<event>
 7    1  0.2746803E-013  0.5052887E+02  0.7816164E-02  0.1300439E+00
        -11   -1    0    0    0    0  0.00000000000E+00  0.00000000000E+00  0.45593999997E+02  0.45594000000E+02  0.51100000000E-03 0.  1.
         11   -1    0    0    0    0 -0.00000000000E+00 -0.00000000000E+00 -0.45593999997E+02  0.45594000000E+02  0.51100000000E-03 0. -1.
    9900012    2    1    2    0    0 -0.23608724922E+02  0.15511169903E+02  0.29243749332E+02  0.50528866227E+02  0.30000019382E+02 0.  0.
         12    1    1    2    0    0  0.23608724922E+02 -0.15511169903E+02 -0.29243749332E+02  0.40659133773E+02  0.00000000000E+00 0. -1.
         11    1    3    3    0    0 -0.17754433597E+02  0.11829620379E+02  0.10558401525E+02  0.23804194455E+02  0.51100000000E-03 0. -1.
        -11    1    3    3    0    0 -0.34782981466E+01  0.10686845671E+02  0.14062506831E+02  0.18001703448E+02  0.51100000000E-03 0.  1.
         12    1    3    3    0    0 -0.23759931787E+01 -0.70052961464E+01  0.46228409761E+01  0.87229683235E+01  0.00000000000E+00 0. -1.
</event>
<event>
 7    1  0.2746803E-013  0.5052887E+02  0.7816164E-02  0.1300439E+00
        -11   -1    0    0    0    0  0.00000000000E+00  0.00000000000E+00  0.45593999997E+02  0.45594000000E+02  0.51100000000E-03 0. -1.
         11   -1    0    0    0    0 -0.00000000000E+00 -0.00000000000E+00 -0.45593999997E+02  0.45594000000E+02  0.51100000000E-03 0.  1.
    9900012    2    1    2    0    0 -0.11635123406E+02  0.34102999460E+02 -0.18835459665E+02  0.50528865606E+02  0.30000017497E+02 0.  0.
         12    1    1    2    0    0  0.11635123406E+02 -0.34102999460E+02  0.18835459665E+02  0.40659134394E+02  0.00000000000E+00 0. -1.
         11    1    3    3    0    0 -0.11288467085E+02  0.21343495963E+02 -0.10815485955E+02  0.26456550149E+02  0.51100000000E-03 0. -1.
        -11    1    3    3    0    0  0.10896950457E+00  0.87094359418E+01 -0.14206441838E+02  0.16664007283E+02  0.51100000000E-03 0.  1.
         12    1    3    3    0    0 -0.45562582521E+00  0.40500675556E+01  0.61864681289E+01  0.74083081745E+01  0.00000000000E+00 0. -1.
</event>
<event>
 7    1  0.2746803E-013  0.5052886E+02  0.7816164E-02  0.1300439E+00
        -11   -1    0    0    0    0  0.00000000000E+00  0.00000000000E+00  0.45593999997E+02  0.45594000000E+02  0.51100000000E-03 0.  1.
         11   -1    0    0    0    0 -0.00000000000E+00 -0.00000000000E+00 -0.45593999997E+02  0.45594000000E+02  0.51100000000E-03 0. -1.
    9900012    2    1    2    0    0  0.12950574028E+02  0.23886452692E+02  0.30247074198E+02  0.50528862190E+02  0.30000007114E+02 0.  0.
         12    1    1    2    0    0 -0.12950574028E+02 -0.23886452692E+02 -0.30247074198E+02  0.40659137810E+02  0.00000000000E+00 0. -1.
         11    1    3    3    0    0  0.53595803613E+01  0.94523993883E-01 -0.10954546867E+01  0.54712025796E+01  0.51100000000E-03 0. -1.
        -11    1    3    3    0    0  0.74964333774E+01  0.22048490473E+01  0.18144456122E+02  0.19755484326E+02  0.51100000000E-03 0.  1.
         12    1    3    3    0    0  0.94560289548E-01  0.21587079651E+02  0.13198072762E+02  0.25302175285E+02  0.00000000000E+00 0. -1.
</event>
<event>
 7    1  0.2746803E-013  0.5052887E+02  0.7816164E-02  0.1300439E+00
        -11   -1    0    0    0    0  0.00000000000E+00  0.00000000000E+00  0.45593999997E+02  0.45594000000E+02  0.51100000000E-03 0. -1.
         11   -1    0    0    0    0 -0.00000000000E+00 -0.00000000000E+00 -0.45593999997E+02  0.45594000000E+02  0.51100000000E-03 0.  1.
    9900012    2    1    2    0    0 -0.13268785342E+02  0.37832789163E+02  0.67664054786E+01  0.50528870110E+02  0.30000031185E+02 0.  0.
         12    1    1    2    0    0  0.13268785342E+02 -0.37832789163E+02 -0.67664054786E+01  0.40659129890E+02  0.00000000000E+00 0. -1.
         11    1    3    3    0    0 -0.49901390106E+00  0.17941100882E+02  0.65473214955E+01  0.19104960998E+02  0.51100000000E-03 0. -1.
        -11    1    3    3    0    0  0.57305690997E+00  0.11172269247E+02 -0.77444229105E+01  0.13606031046E+02  0.51100000000E-03 0.  1.
        -12    1    3    3    0    0 -0.13342828351E+02  0.87194190346E+01  0.79635068936E+01  0.17817878065E+02  0.00000000000E+00 0.  1.
</event>
<event>
 7    1  0.2746803E-013  0.5052887E+02  0.7816164E-02  0.1300439E+00
        -11   -1    0    0    0    0  0.00000000000E+00  0.00000000000E+00  0.45593999997E+02  0.45594000000E+02  0.51100000000E-03 0. -1.
         11   -1    0    0    0    0 -0.00000000000E+00 -0.00000000000E+00 -0.45593999997E+02  0.45594000000E+02  0.51100000000E-03 0.  1.
    9900012    2    1    2    0    0 -0.30775060360E+02 -0.20304805422E+02 -0.17139888524E+02  0.50528865208E+02  0.30000016286E+02 0.  0.
         12    1    1    2    0    0  0.30775060360E+02  0.20304805422E+02  0.17139888524E+02  0.40659134792E+02  0.00000000000E+00 0. -1.
         11    1    3    3    0    0 -0.44911277314E+00 -0.92670570277E+01  0.24632113811E+01  0.95993467906E+01  0.51100000000E-03 0. -1.
        -11    1    3    3    0    0 -0.11807221589E+02 -0.11759919559E+02 -0.51968995764E+01  0.17456057835E+02  0.51100000000E-03 0.  1.
         12    1    3    3    0    0 -0.18518725998E+02  0.72217116452E+00 -0.14406200329E+02  0.23473460582E+02  0.00000000000E+00 0. -1.
</event>
<event>
 7    1  0.2746803E-013  0.5052886E+02  0.7816164E-02  0.1300439E+00
        -11   -1    0    0    0    0  0.00000000000E+00  0.00000000000E+00  0.45593999997E+02  0.45594000000E+02  0.51100000000E-03 0.  1.
         11   -1    0    0    0    0 -0.00000000000E+00 -0.00000000000E+00 -0.45593999997E+02  0.45594000000E+02  0.51100000000E-03 0. -1.
    9900012    2    1    2    0    0  0.53090875311E+01  0.40245356428E+02  0.23002058459E+01  0.50528855010E+02  0.29999985287E+02 0.  0.
         12    1    1    2    0    0 -0.53090875311E+01 -0.40245356428E+02 -0.23002058459E+01  0.40659144990E+02  0.00000000000E+00 0. -1.
         11    1    3    3    0    0  0.17728170295E+01  0.21091860723E+02  0.51662739381E+01  0.21787607846E+02  0.51100000000E-03 0. -1.
        -11    1    3    3    0    0 -0.58943427104E+01  0.65282317937E+01  0.60119707102E+01  0.10653866830E+02  0.51100000000E-03 0.  1.
         12    1    3    3    0    0  0.94306132121E+01  0.12625263911E+02 -0.88780388024E+01  0.18087380334E+02  0.00000000000E+00 0. -1.
</event>
<event>
 7    1  0.2746803E-013  0.5052886E+02  0.7816164E-02  0.1300439E+00
        -11   -1    0    0    0    0  0.00000000000E+00  0.00000000000E+00  0.45593999997E+02  0.45594000000E+02  0.51100000000E-03 0. -1.
         11   -1    0    0    0    0 -0.00000000000E+00 -0.00000000000E+00 -0.45593999997E+02  0.45594000000E+02  0.51100000000E-03 0.  1.
    9900012    2    1    2    0    0  0.13474263333E+02  0.36630988163E+02  0.11392134878E+02  0.50528858307E+02  0.29999995309E+02 0.  0.
         12    1    1    2    0    0 -0.13474263333E+02 -0.36630988163E+02 -0.11392134878E+02  0.40659141693E+02  0.00000000000E+00 0. -1.
         11    1    3    3    0    0  0.59578067195E+01  0.12757093035E+02  0.57201259596E+01  0.15197326241E+02  0.51100000000E-03 0. -1.
        -11    1    3    3    0    0  0.13190573333E+02  0.63609016854E+01 -0.30534581049E+01  0.14959141077E+02  0.51100000000E-03 0.  1.
         12    1    3    3    0    0 -0.56741167189E+01  0.17512993443E+02  0.87254670232E+01  0.20372390990E+02  0.00000000000E+00 0. -1.
</event>
<event>
 7    1  0.2746803E-013  0.5052886E+02  0.7816164E-02  0.1300439E+00
        -11   -1    0    0    0    0  0.00000000000E+00  0.00000000000E+00  0.45593999997E+02  0.45594000000E+02  0.51100000000E-03 0. -1.
         11   -1    0    0    0    0 -0.00000000000E+00 -0.00000000000E+00 -0.45593999997E+02  0.45594000000E+02  0.51100000000E-03 0.  1.
    9900012    2    1    2    0    0 -0.18347938094E+02  0.14348941040E+02 -0.33326064730E+02  0.50528861646E+02  0.30000005460E+02 0.  0.
         12    1    1    2    0    0  0.18347938094E+02 -0.14348941040E+02  0.33326064730E+02  0.40659138354E+02  0.00000000000E+00 0. -1.
         11    1    3    3    0    0  0.59310382070E+01 -0.84208551556E+00 -0.56026287080E+01  0.82021808642E+01  0.51100000000E-03 0.  1.
        -11    1    3    3    0    0 -0.19096848240E+01  0.58291174190E+01 -0.11851540328E+02  0.13344831000E+02  0.51100000000E-03 0. -1.
        -12    1    3    3    0    0 -0.22369291477E+02  0.93619091368E+01 -0.15871895694E+02  0.28981849782E+02  0.00000000000E+00 0.  1.
</event>
<event>
 7    1  0.2746803E-013  0.5052886E+02  0.7816164E-02  0.1300439E+00
        -11   -1    0    0    0    0  0.00000000000E+00  0.00000000000E+00  0.45593999997E+02  0.45594000000E+02  0.51100000000E-03 0. -1.
         11   -1    0    0    0    0 -0.00000000000E+00 -0.00000000000E+00 -0.45593999997E+02  0.45594000000E+02  0.51100000000E-03 0.  1.
    9900012    2    1    2    0    0  0.15345704150E+02  0.33836516617E+02 -0.16515594597E+02  0.50528863788E+02  0.30000011969E+02 0.  0.
         12    1    1    2    0    0 -0.15345704150E+02 -0.33836516617E+02  0.16515594597E+02  0.40659136212E+02  0.00000000000E+00 0. -1.
         11    1    3    3    0    0 -0.25944116672E+01  0.16638356954E+02  0.28922995412E+01  0.17085996925E+02  0.51100000000E-03 0. -1.
        -11    1    3    3    0    0  0.10531653294E+01  0.40988759975E+01 -0.83925545731E+01  0.93991975284E+01  0.51100000000E-03 0.  1.
        -12    1    3    3    0    0  0.16886950487E+02  0.13099283666E+02 -0.11015339565E+02  0.24043669334E+02  0.00000000000E+00 0.  1.
</event>
<event>
 7    1  0.2746803E-013  0.5052887E+02  0.7816164E-02  0.1300439E+00
        -11   -1    0    0    0    0  0.00000000000E+00  0.00000000000E+00  0.45593999997E+02  0.45594000000E+02  0.51100000000E-03 0. -1.
         11   -1    0    0    0    0 -0.00000000000E+00 -0.00000000000E+00 -0.45593999997E+02  0.45594000000E+02  0.51100000000E-03 0.  1.
    9900012    2    1    2    0    0  0.29300705721E+02 -0.82208891279E+01 -0.26963876349E+02  0.50528868165E+02  0.30000025274E+02 0.  0.
         12    1    1    2    0    0 -0.29300705721E+02  0.82208891279E+01  0.26963876349E+02  0.40659131835E+02  0.00000000000E+00 0. -1.
         11    1    3    3    0    0  0.15971762992E+02 -0.84584893824E+00 -0.48604144332E+01  0.16716348352E+02  0.51100000000E-03 0.  1.
        -11    1    3    3    0    0  0.68109267412E+01  0.70419553204E+00  0.23561481275E+01  0.72412739681E+01  0.51100000000E-03 0. -1.
         12    1    3    3    0    0  0.65180159877E+01 -0.80792357217E+01 -0.24459610044E+02  0.26571245845E+02  0.00000000000E+00 0. -1.
</event>
<event>
 7    1  0.2746803E-013  0.5052886E+02  0.7816164E-02  0.1300439E+00
        -11   -1    0    0    0    0  0.00000000000E+00  0.00000000000E+00  0.45593999997E+02  0.45594000000E+02  0.51100000000E-03 0.  1.
         11   -1    0    0    0    0 -0.00000000000E+00 -0.00000000000E+00 -0.45593999997E+02  0.45594000000E+02  0.51100000000E-03 0. -1.
    9900012    2    1    2    0    0 -0.35566689956E+02 -0.18341762205E+02  0.71941422271E+01  0.50528863787E+02  0.30000011968E+02 0.  0.
         12    1    1    2    0    0  0.35566689956E+02  0.18341762205E+02 -0.71941422271E+01  0.40659136213E+02  0.00000000000E+00 0. -1.
         11    1    3    3    0    0  0.17986864108E+01  0.73827024144E+00  0.38620432469E+00  0.19822890292E+01  0.51100000000E-03 0. -1.
        -11    1    3    3    0    0 -0.14183382956E+02 -0.14476646398E+02 -0.66735788787E+01  0.21337251424E+02  0.51100000000E-03 0.  1.
        -12    1    3    3    0    0 -0.23181993411E+02 -0.46033860477E+01  0.13481516781E+02  0.27209323334E+02  0.00000000000E+00 0.  1.
</event>
<event>
 7    1  0.2746803E-013  0.5052886E+02  0.7816164E-02  0.1300439E+00
        -11   -1    0    0    0    0  0.00000000000E+00  0.00000000000E+00  0.45593999997E+02  0.45594000000E+02  0.51100000000E-03 0.  1.
         11   -1    0    0    0    0 -0.00000000000E+00 -0.00000000000E+00 -0.45593999997E+02  0.45594000000E+02  0.51100000000E-03 0. -1.
    9900012    2    1    2    0    0  0.13668707526E+02 -0.17583587348E+02  0.34016900108E+02  0.50528860776E+02  0.30000002814E+02 0.  0.
         12    1    1    2    0    0 -0.13668707526E+02  0.17583587348E+02 -0.34016900108E+02  0.40659139224E+02  0.00000000000E+00 0. -1.
         11    1    3    3    0    0  0.13408510876E+02  0.10054564648E+00  0.14070385597E+02  0.19436409762E+02  0.51100000000E-03 0. -1.
        -11    1    3    3    0    0  0.39951560202E+01 -0.10880420388E+02  0.20241738002E+02  0.23325367673E+02  0.51100000000E-03 0.  1.
        -12    1    3    3    0    0 -0.37349593694E+01 -0.68037126064E+01 -0.29522349049E+00  0.77670833413E+01  0.00000000000E+00 0.  1.
</event>
<event>
 7    1  0.2746803E-013  0.5052885E+02  0.7816164E-02  0.1300439E+00
        -11   -1    0    0    0    0  0.00000000000E+00  0.00000000000E+00  0.45593999997E+02  0.45594000000E+02  0.51100000000E-03 0.  1.
         11   -1    0    0    0    0 -0.00000000000E+00 -0.00000000000E+00 -0.45593999997E+02  0.45594000000E+02  0.51100000000E-03 0. -1.
    9900012    2    1    2    0    0 -0.36235288065E+02 -0.49133047926E+01  0.17777219500E+02  0.50528853449E+02  0.29999980544E+02 0.  0.
         12    1    1    2    0    0  0.36235288065E+02  0.49133047926E+01 -0.17777219500E+02  0.40659146551E+02  0.00000000000E+00 0. -1.
         11    1    3    3    0    0  0.32913020754E+01 -0.84705301523E+00 -0.14531120429E+01  0.36961741074E+01  0.51100000000E-03 0. -1.
        -11    1    3    3    0    0 -0.12178963886E+02  0.47456382339E+01  0.17158689731E+01  0.13183036455E+02  0.51100000000E-03 0.  1.
        -12    1    3    3    0    0 -0.27347626255E+02 -0.88118900113E+01  0.17514462569E+02  0.33649642887E+02  0.00000000000E+00 0.  1.
</event>
<event>
 7    1  0.2746803E-013  0.5052889E+02  0.7816164E-02  0.1300439E+00
        -11   -1    0    0    0    0  0.00000000000E+00  0.00000000000E+00  0.45593999997E+02  0.45594000000E+02  0.51100000000E-03 0.  1.
         11   -1    0    0    0    0 -0.00000000000E+00 -0.00000000000E+00 -0.45593999997E+02  0.45594000000E+02  0.51100000000E-03 0. -1.
    9900012    2    1    2    0    0 -0.16248378500E+02 -0.34042435923E+02 -0.15174519977E+02  0.50528889041E+02  0.30000088728E+02 0.  0.
         12    1    1    2    0    0  0.16248378500E+02  0.34042435923E+02  0.15174519977E+02  0.40659110959E+02  0.00000000000E+00 0. -1.
         11    1    3    3    0    0 -0.11521050112E+02 -0.21617299789E+02 -0.65863656918E+01  0.25365773379E+02  0.51100000000E-03 0. -1.
        -11    1    3    3    0    0 -0.33927743149E+00 -0.11748033763E+02  0.35182363660E+01  0.12268227006E+02  0.51100000000E-03 0.  1.
         12    1    3    3    0    0 -0.43880509571E+01 -0.67710237049E+00 -0.12106390652E+02  0.12894888655E+02  0.00000000000E+00 0. -1.
</event>
<event>
 7    1  0.2746803E-013  0.5052885E+02  0.7816164E-02  0.1300439E+00
        -11   -1    0    0    0    0  0.00000000000E+00  0.00000000000E+00  0.45593999997E+02  0.45594000000E+02  0.51100000000E-03 0.  1.
         11   -1    0    0    0    0 -0.00000000000E+00 -0.00000000000E+00 -0.45593999997E+02  0.45594000000E+02  0.51100000000E-03 0. -1.
    9900012    2    1    2    0    0  0.38126215107E+02 -0.12767966768E+02 -0.60446126082E+01  0.50528848566E+02  0.29999965700E+02 0.  0.
         12    1    1    2    0    0 -0.38126215107E+02  0.12767966768E+02  0.60446126082E+01  0.40659151434E+02  0.00000000000E+00 0. -1.
         11    1    3    3    0    0  0.89578756249E+01 -0.49517269669E+01 -0.33783916300E+01  0.10778528004E+02  0.51100000000E-03 0. -1.
        -11    1    3    3    0    0  0.11494089149E+02 -0.12637556355E+02  0.76587563676E+01  0.18721070091E+02  0.51100000000E-03 0.  1.
         12    1    3    3    0    0  0.17674250333E+02  0.48213165541E+01 -0.10324977346E+02  0.21029250470E+02  0.00000000000E+00 0. -1.
</event>
<event>
 7    1  0.2746803E-013  0.5052885E+02  0.7816164E-02  0.1300439E+00
        -11   -1    0    0    0    0  0.00000000000E+00  0.00000000000E+00  0.45593999997E+02  0.45594000000E+02  0.51100000000E-03 0.  1.
         11   -1    0    0    0    0 -0.00000000000E+00 -0.00000000000E+00 -0.45593999997E+02  0.45594000000E+02  0.51100000000E-03 0. -1.
    9900012    2    1    2    0    0 -0.43429678408E+00 -0.21669901385E+02  0.34400478734E+02  0.50528853712E+02  0.29999981342E+02 0.  0.
         12    1    1    2    0    0  0.43429678408E+00  0.21669901385E+02 -0.34400478734E+02  0.40659146288E+02  0.00000000000E+00 0. -1.
         11    1    3    3    0    0 -0.42914628540E+01 -0.59213113440E+01  0.23173191327E+02  0.24299699134E+02  0.51100000000E-03 0. -1.
        -11    1    3    3    0    0  0.91436158513E+01 -0.87253054411E+01  0.11969901477E+02  0.17407332004E+02  0.51100000000E-03 0.  1.
         12    1    3    3    0    0 -0.52864497813E+01 -0.70232846000E+01 -0.74261406943E+00  0.88218225735E+01  0.00000000000E+00 0. -1.
</event>
<event>
 7    1  0.2746803E-013  0.5052884E+02  0.7816164E-02  0.1300439E+00
        -11   -1    0    0    0    0  0.00000000000E+00  0.00000000000E+00  0.45593999997E+02  0.45594000000E+02  0.51100000000E-03 0. -1.
         11   -1    0    0    0    0 -0.00000000000E+00 -0.00000000000E+00 -0.45593999997E+02  0.45594000000E+02  0.51100000000E-03 0.  1.
    9900012    2    1    2    0    0 -0.16166137517E+02  0.37222216871E+02 -0.25158655983E+01  0.50528843457E+02  0.29999950173E+02 0.  0.
         12    1    1    2    0    0  0.16166137517E+02 -0.37222216871E+02  0.25158655983E+01  0.40659156543E+02  0.00000000000E+00 0. -1.
         11    1    3    3    0    0 -0.35243296702E+01  0.40388112453E+01 -0.99238771602E+01  0.11279017424E+02  0.51100000000E-03 0. -1.
        -11    1    3    3    0    0  0.25397013629E-01  0.12490027285E+02 -0.30059979089E+01  0.12846690246E+02  0.51100000000E-03 0.  1.
        -12    1    3    3    0    0 -0.12667204860E+02  0.20693378341E+02  0.10414009471E+02  0.26403135787E+02  0.00000000000E+00 0.  1.
</event>
<event>
 7    1  0.2746803E-013  0.5052886E+02  0.7816164E-02  0.1300439E+00
        -11   -1    0    0    0    0  0.00000000000E+00  0.00000000000E+00  0.45593999997E+02  0.45594000000E+02  0.51100000000E-03 0. -1.
         11   -1    0    0    0    0 -0.00000000000E+00 -0.00000000000E+00 -0.45593999997E+02  0.45594000000E+02  0.51100000000E-03 0.  1.
    9900012    2    1    2    0    0  0.26281675026E+02  0.32519368272E+01 -0.30852295612E+02  0.50528859824E+02  0.29999999920E+02 0.  0.
         12    1    1    2    0    0 -0.26281675026E+02 -0.32519368272E+01  0.30852295612E+02  0.40659140176E+02  0.00000000000E+00 0. -1.
         11    1    3    3    0    0  0.13466531684E+01 -0.26011131434E+01 -0.39550918443E+01  0.49215867460E+01  0.51100000000E-03 0. -1.
        -11    1    3    3    0    0  0.29914500711E+02  0.44271429041E+01 -0.26830653224E+02  0.40427229682E+02  0.51100000000E-03 0.  1.
         12    1    3    3    0    0 -0.49794788527E+01  0.14259070665E+01 -0.66550544060E-01  0.51800433957E+01  0.00000000000E+00 0. -1.
</event>
<event>
 7    1  0.2746803E-013  0.5052885E+02  0.7816164E-02  0.1300439E+00
        -11   -1    0    0    0    0  0.00000000000E+00  0.00000000000E+00  0.45593999997E+02  0.45594000000E+02  0.51100000000E-03 0.  1.
         11   -1    0    0    0    0 -0.00000000000E+00 -0.00000000000E+00 -0.45593999997E+02  0.45594000000E+02  0.51100000000E-03 0. -1.
    9900012    2    1    2    0    0  0.97771933780E+01  0.38878115738E+02  0.67871105819E+01  0.50528852644E+02  0.29999978097E+02 0.  0.
         12    1    1    2    0    0 -0.97771933780E+01 -0.38878115738E+02 -0.67871105819E+01  0.40659147356E+02  0.00000000000E+00 0. -1.
         11    1    3    3    0    0  0.16176433524E+02  0.25505472189E+02  0.81491765853E+01  0.31282825838E+02  0.51100000000E-03 0. -1.
        -11    1    3    3    0    0  0.52350567849E+00  0.12143666947E+02 -0.11882797561E+01  0.12212891310E+02  0.51100000000E-03 0.  1.
         12    1    3    3    0    0 -0.69227458245E+01  0.12289766014E+01 -0.17378624733E+00  0.70331354955E+01  0.00000000000E+00 0. -1.
</event>
<event>
 7    1  0.2746803E-013  0.5052882E+02  0.7816164E-02  0.1300439E+00
        -11   -1    0    0    0    0  0.00000000000E+00  0.00000000000E+00  0.45593999997E+02  0.45594000000E+02  0.51100000000E-03 0.  1.
         11   -1    0    0    0    0 -0.00000000000E+00 -0.00000000000E+00 -0.45593999997E+02  0.45594000000E+02  0.51100000000E-03 0. -1.
    9900012    2    1    2    0    0  0.24818984073E+02 -0.11647811412E+02  0.30025240595E+02  0.50528824481E+02  0.29999892492E+02 0.  0.
         12    1    1    2    0    0 -0.24818984073E+02  0.11647811412E+02 -0.30025240595E+02  0.40659175519E+02  0.00000000000E+00 0. -1.
         11    1    3    3    0    0 -0.13683607320E+01  0.26473334097E+01 -0.14517374288E+01  0.33148645671E+01  0.51100000000E-03 0. -1.
        -11    1    3    3    0    0  0.10838031680E+02  0.13628224824E+01  0.19185600854E+02  0.22077307268E+02  0.51100000000E-03 0.  1.
         12    1    3    3    0    0  0.15349313125E+02 -0.15657967304E+02  0.12291377170E+02  0.25136652646E+02  0.00000000000E+00 0. -1.
</event>
<event>
 7    1  0.2746803E-013  0.5052886E+02  0.7816164E-02  0.1300439E+00
        -11   -1    0    0    0    0  0.00000000000E+00  0.00000000000E+00  0.45593999997E+02  0.45594000000E+02  0.51100000000E-03 0. -1.
         11   -1    0    0    0    0 -0.00000000000E+00 -0.00000000000E+00 -0.45593999997E+02  0.45594000000E+02  0.51100000000E-03 0.  1.
    9900012    2    1    2    0    0 -0.27971220693E+02 -0.25007887169E+02 -0.15664674556E+02  0.50528860356E+02  0.30000001537E+02 0.  0.
         12    1    1    2    0    0  0.27971220693E+02  0.25007887169E+02  0.15664674556E+02  0.40659139644E+02  0.00000000000E+00 0. -1.
         11    1    3    3    0    0  0.36077759929E+01 -0.38715644693E+01 -0.23584160066E+01  0.57937194768E+01  0.51100000000E-03 0. -1.
        -11    1    3    3    0    0 -0.10790947832E+02 -0.54251591271E+01  0.48084082478E+01  0.12999911415E+02  0.51100000000E-03 0.  1.
        -12    1    3    3    0    0 -0.20788048854E+02 -0.15711163573E+02 -0.18114666797E+02  0.31735229464E+02  0.00000000000E+00 0.  1.
</event>
<event>
 7    1  0.2746803E-013  0.5052885E+02  0.7816164E-02  0.1300439E+00
        -11   -1    0    0    0    0  0.00000000000E+00  0.00000000000E+00  0.45593999997E+02  0.45594000000E+02  0.51100000000E-03 0.  1.
         11   -1    0    0    0    0 -0.00000000000E+00 -0.00000000000E+00 -0.45593999997E+02  0.45594000000E+02  0.51100000000E-03 0. -1.
    9900012    2    1    2    0    0 -0.40551763410E+02  0.63480695978E+00  0.28841130908E+01  0.50528848461E+02  0.29999965383E+02 0.  0.
         12    1    1    2    0    0  0.40551763410E+02 -0.63480695978E+00 -0.28841130908E+01  0.40659151539E+02  0.00000000000E+00 0. -1.
         11    1    3    3    0    0 -0.82527404870E+01  0.21860049003E+00 -0.61459019113E+01  0.10292114568E+02  0.51100000000E-03 0.  1.
        -11    1    3    3    0    0 -0.30704999505E+01  0.83470528345E+01  0.27251313547E+01  0.93020214001E+01  0.51100000000E-03 0. -1.
        -12    1    3    3    0    0 -0.29228522973E+02 -0.79308463647E+01  0.63048836473E+01  0.30934712493E+02  0.00000000000E+00 0.  1.
</event>
<event>
 7    1  0.2746803E-013  0.5052885E+02  0.7816164E-02  0.1300439E+00
        -11   -1    0    0    0    0  0.00000000000E+00  0.00000000000E+00  0.45593999997E+02  0.45594000000E+02  0.51100000000E-03 0.  1.
         11   -1    0    0    0    0 -0.00000000000E+00 -0.00000000000E+00 -0.45593999997E+02  0.45594000000E+02  0.51100000000E-03 0. -1.
    9900012    2    1    2    0    0  0.22226931122E+02  0.11475422183E+02  0.32053775624E+02  0.50528852036E+02  0.29999976250E+02 0.  0.
         12    1    1    2    0    0 -0.22226931122E+02 -0.11475422183E+02 -0.32053775624E+02  0.40659147964E+02  0.00000000000E+00 0. -1.
         11    1    3    3    0    0 -0.23307705380E+01  0.64014356983E+00  0.82320843723E+01  0.85795972204E+01  0.51100000000E-03 0. -1.
        -11    1    3    3    0    0  0.47820643541E+01  0.13698169397E+02  0.90469431304E+01  0.17098396550E+02  0.51100000000E-03 0.  1.
         12    1    3    3    0    0  0.19775637306E+02 -0.28628907841E+01  0.14774748121E+02  0.24850858266E+02  0.00000000000E+00 0. -1.
</event>
<event>
 7    1  0.2746803E-013  0.5052887E+02  0.7816164E-02  0.1300439E+00
        -11   -1    0    0    0    0  0.00000000000E+00  0.00000000000E+00  0.45593999997E+02  0.45594000000E+02  0.51100000000E-03 0. -1.
         11   -1    0    0    0    0 -0.00000000000E+00 -0.00000000000E+00 -0.45593999997E+02  0.45594000000E+02  0.51100000000E-03 0.  1.
    9900012    2    1    2    0    0  0.32993207899E+01  0.21010828929E+02 -0.34652910833E+02  0.50528872130E+02  0.30000037325E+02 0.  0.
         12    1    1    2    0    0 -0.32993207899E+01 -0.21010828929E+02  0.34652910833E+02  0.40659127870E+02  0.00000000000E+00 0. -1.
         11    1    3    3    0    0  0.27495193177E+01  0.16566426106E+02 -0.22785115616E+02  0.28304908131E+02  0.51100000000E-03 0. -1.
        -11    1    3    3    0    0  0.73355284319E+01  0.75181179049E+01 -0.36204453849E+01  0.11110341995E+02  0.51100000000E-03 0.  1.
         12    1    3    3    0    0 -0.67857269598E+01 -0.30737150816E+01 -0.82473498324E+01  0.11113622003E+02  0.00000000000E+00 0. -1.
</event>
<event>
 7    1  0.2746803E-013  0.5052878E+02  0.7816164E-02  0.1300439E+00
        -11   -1    0    0    0    0  0.00000000000E+00  0.00000000000E+00  0.45593999997E+02  0.45594000000E+02  0.51100000000E-03 0.  1.
         11   -1    0    0    0    0 -0.00000000000E+00 -0.00000000000E+00 -0.45593999997E+02  0.45594000000E+02  0.51100000000E-03 0. -1.
    9900012    2    1    2    0    0  0.24689956654E+02  0.32295532829E+02  0.75938138460E+00  0.50528781361E+02  0.29999761423E+02 0.  0.
         12    1    1    2    0    0 -0.24689956654E+02 -0.32295532829E+02 -0.75938138460E+00  0.40659218639E+02  0.00000000000E+00 0. -1.
         11    1    3    3    0    0 -0.43884099514E+01  0.28616273491E+01  0.20176059509E+01  0.56140704503E+01  0.51100000000E-03 0. -1.
        -11    1    3    3    0    0  0.18171709740E+02  0.62403564232E+01  0.54794100471E+00  0.19221168611E+02  0.51100000000E-03 0.  1.
        -12    1    3    3    0    0  0.10906656866E+02  0.23193549057E+02 -0.18061655710E+01  0.25693542299E+02  0.00000000000E+00 0.  1.
</event>
<event>
 7    1  0.2746803E-013  0.5052888E+02  0.7816164E-02  0.1300439E+00
        -11   -1    0    0    0    0  0.00000000000E+00  0.00000000000E+00  0.45593999997E+02  0.45594000000E+02  0.51100000000E-03 0. -1.
         11   -1    0    0    0    0 -0.00000000000E+00 -0.00000000000E+00 -0.45593999997E+02  0.45594000000E+02  0.51100000000E-03 0.  1.
    9900012    2    1    2    0    0 -0.25114357315E+02  0.11709050915E+02 -0.29754514541E+02  0.50528881069E+02  0.30000064498E+02 0.  0.
         12    1    1    2    0    0  0.25114357315E+02 -0.11709050915E+02  0.29754514541E+02  0.40659118931E+02  0.00000000000E+00 0. -1.
         11    1    3    3    0    0 -0.78662841223E+01 -0.13217044240E+01 -0.13183791508E+02  0.15409013182E+02  0.51100000000E-03 0. -1.
        -11    1    3    3    0    0 -0.15851116189E+02 -0.18564768552E+01 -0.95774964947E+01  0.18612706147E+02  0.51100000000E-03 0.  1.
         12    1    3    3    0    0 -0.13969570038E+01  0.14887232195E+02 -0.69932265383E+01  0.16507161740E+02  0.00000000000E+00 0. -1.
</event>
<event>
 7    1  0.2746803E-013  0.5052885E+02  0.7816164E-02  0.1300439E+00
        -11   -1    0    0    0    0  0.00000000000E+00  0.00000000000E+00  0.45593999997E+02  0.45594000000E+02  0.51100000000E-03 0. -1.
         11   -1    0    0    0    0 -0.00000000000E+00 -0.00000000000E+00 -0.45593999997E+02  0.45594000000E+02  0.51100000000E-03 0.  1.
    9900012    2    1    2    0    0 -0.79817342203E+01 -0.15228843828E+02 -0.36844822243E+02  0.50528847382E+02  0.29999962101E+02 0.  0.
         12    1    1    2    0    0  0.79817342203E+01  0.15228843828E+02  0.36844822243E+02  0.40659152618E+02  0.00000000000E+00 0. -1.
         11    1    3    3    0    0 -0.11489550506E+02 -0.76809351272E+01 -0.11399617672E+02  0.17915295660E+02  0.51100000000E-03 0. -1.
        -11    1    3    3    0    0 -0.23125331853E+00  0.24689281710E+01 -0.20814843553E+02  0.20962032268E+02  0.51100000000E-03 0.  1.
         12    1    3    3    0    0  0.37390696040E+01 -0.10016836872E+02 -0.46303610186E+01  0.11651519454E+02  0.00000000000E+00 0. -1.
</event>
<event>
 7    1  0.2746803E-013  0.5052886E+02  0.7816164E-02  0.1300439E+00
        -11   -1    0    0    0    0  0.00000000000E+00  0.00000000000E+00  0.45593999997E+02  0.45594000000E+02  0.51100000000E-03 0. -1.
         11   -1    0    0    0    0 -0.00000000000E+00 -0.00000000000E+00 -0.45593999997E+02  0.45594000000E+02  0.51100000000E-03 0.  1.
    9900012    2    1    2    0    0 -0.22354915099E+01 -0.27744551102E+02 -0.29637952298E+02  0.50528858905E+02  0.29999997128E+02 0.  0.
         12    1    1    2    0    0  0.22354915099E+01  0.27744551102E+02  0.29637952298E+02  0.40659141095E+02  0.00000000000E+00 0. -1.
         11    1    3    3    0    0 -0.11288234617E+02 -0.95127411878E+01 -0.80874674747E+01  0.16832219583E+02  0.51100000000E-03 0.  1.
        -11    1    3    3    0    0  0.33667654138E+01 -0.33757139790E+01 -0.16241868520E+02  0.16927163008E+02  0.51100000000E-03 0. -1.
        -12    1    3    3    0    0  0.56859776936E+01 -0.14856095936E+02 -0.53086163026E+01  0.16769476314E+02  0.00000000000E+00 0.  1.
</event>
<event>
 7    1  0.2746803E-013  0.5052885E+02  0.7816164E-02  0.1300439E+00
        -11   -1    0    0    0    0  0.00000000000E+00  0.00000000000E+00  0.45593999997E+02  0.45594000000E+02  0.51100000000E-03 0.  1.
         11   -1    0    0    0    0 -0.00000000000E+00 -0.00000000000E+00 -0.45593999997E+02  0.45594000000E+02  0.51100000000E-03 0. -1.
    9900012    2    1    2    0    0  0.10247894184E+01  0.19344422809E+02  0.35747857715E+02  0.50528853202E+02  0.29999979792E+02 0.  0.
         12    1    1    2    0    0 -0.10247894184E+01 -0.19344422809E+02 -0.35747857715E+02  0.40659146798E+02  0.00000000000E+00 0. -1.
         11    1    3    3    0    0  0.32400215678E+00  0.82284910199E+01  0.23589796464E+02  0.24985826769E+02  0.51100000000E-03 0.  1.
        -11    1    3    3    0    0  0.37910418147E+01  0.15184995224E+02  0.13023278472E+02  0.20360792235E+02  0.51100000000E-03 0. -1.
         12    1    3    3    0    0 -0.30902545531E+01 -0.40690634348E+01 -0.86521722188E+00  0.51822341978E+01  0.00000000000E+00 0. -1.
</event>
<event>
 7    1  0.2746803E-013  0.5052886E+02  0.7816164E-02  0.1300439E+00
        -11   -1    0    0    0    0  0.00000000000E+00  0.00000000000E+00  0.45593999997E+02  0.45594000000E+02  0.51100000000E-03 0.  1.
         11   -1    0    0    0    0 -0.00000000000E+00 -0.00000000000E+00 -0.45593999997E+02  0.45594000000E+02  0.51100000000E-03 0. -1.
    9900012    2    1    2    0    0  0.15497815911E+02  0.30365098834E+02  0.22157259950E+02  0.50528859654E+02  0.29999999405E+02 0.  0.
         12    1    1    2    0    0 -0.15497815911E+02 -0.30365098834E+02 -0.22157259950E+02  0.40659140346E+02  0.00000000000E+00 0. -1.
         11    1    3    3    0    0  0.24350239806E+01  0.12573290270E+02  0.15898731282E+02  0.20415352718E+02  0.51100000000E-03 0.  1.
        -11    1    3    3    0    0  0.17198113688E+01  0.17730055484E+02  0.58991619827E+01  0.18764667089E+02  0.51100000000E-03 0. -1.
        -12    1    3    3    0    0  0.11342980561E+02  0.61753080170E-01  0.35936668562E+00  0.11348839847E+02  0.00000000000E+00 0.  1.
</event>
<event>
 7    1  0.2746803E-013  0.5052886E+02  0.7816164E-02  0.1300439E+00
        -11   -1    0    0    0    0  0.00000000000E+00  0.00000000000E+00  0.45593999997E+02  0.45594000000E+02  0.51100000000E-03 0. -1.
         11   -1    0    0    0    0 -0.00000000000E+00 -0.00000000000E+00 -0.45593999997E+02  0.45594000000E+02  0.51100000000E-03 0.  1.
    9900012    2    1    2    0    0 -0.37495271217E+02 -0.34320902894E+01  0.15345730813E+02  0.50528855130E+02  0.29999985653E+02 0.  0.
         12    1    1    2    0    0  0.37495271217E+02  0.34320902894E+01 -0.15345730813E+02  0.40659144870E+02  0.00000000000E+00 0. -1.
         11    1    3    3    0    0 -0.27904101102E+02 -0.37033733736E+01  0.16018909230E+02  0.32387640943E+02  0.51100000000E-03 0. -1.
        -11    1    3    3    0    0 -0.12812642607E+02 -0.14786089948E+01  0.26797269790E+01  0.13173117781E+02  0.51100000000E-03 0.  1.
        -12    1    3    3    0    0  0.32214724925E+01  0.17498920790E+01 -0.33529053955E+01  0.49680964060E+01  0.00000000000E+00 0.  1.
</event>
<event>
 7    1  0.2746803E-013  0.5052886E+02  0.7816164E-02  0.1300439E+00
        -11   -1    0    0    0    0  0.00000000000E+00  0.00000000000E+00  0.45593999997E+02  0.45594000000E+02  0.51100000000E-03 0.  1.
         11   -1    0    0    0    0 -0.00000000000E+00 -0.00000000000E+00 -0.45593999997E+02  0.45594000000E+02  0.51100000000E-03 0. -1.
    9900012    2    1    2    0    0 -0.63663575962E+01 -0.25239798093E+02  0.31234402853E+02  0.50528857874E+02  0.29999993994E+02 0.  0.
         12    1    1    2    0    0  0.63663575962E+01  0.25239798093E+02 -0.31234402853E+02  0.40659142126E+02  0.00000000000E+00 0. -1.
         11    1    3    3    0    0 -0.60397666289E+01 -0.64368070855E+01  0.70034506749E+00  0.88544762613E+01  0.51100000000E-03 0. -1.
        -11    1    3    3    0    0 -0.10042001708E+02 -0.49781522775E+01  0.14974299438E+02  0.18704369605E+02  0.51100000000E-03 0.  1.
        -12    1    3    3    0    0  0.97154107409E+01 -0.13824838730E+02  0.15559758347E+02  0.22970012007E+02  0.00000000000E+00 0.  1.
</event>
<event>
 7    1  0.2746803E-013  0.5052886E+02  0.7816164E-02  0.1300439E+00
        -11   -1    0    0    0    0  0.00000000000E+00  0.00000000000E+00  0.45593999997E+02  0.45594000000E+02  0.51100000000E-03 0.  1.
         11   -1    0    0    0    0 -0.00000000000E+00 -0.00000000000E+00 -0.45593999997E+02  0.45594000000E+02  0.51100000000E-03 0. -1.
    9900012    2    1    2    0    0 -0.18490824029E+02 -0.34581203193E+02  0.10742237735E+02  0.50528857620E+02  0.29999993221E+02 0.  0.
         12    1    1    2    0    0  0.18490824029E+02  0.34581203193E+02 -0.10742237735E+02  0.40659142380E+02  0.00000000000E+00 0. -1.
         11    1    3    3    0    0 -0.87296072774E+01 -0.47420094645E+01  0.25836596321E+01  0.10264891346E+02  0.51100000000E-03 0. -1.
        -11    1    3    3    0    0 -0.12447298036E+02 -0.10329695370E+02  0.12074428054E+02  0.20184886621E+02  0.51100000000E-03 0.  1.
        -12    1    3    3    0    0  0.26860812838E+01 -0.19509498359E+02 -0.39158499515E+01  0.20079079653E+02  0.00000000000E+00 0.  1.
</event>
<event>
 7    1  0.2746803E-013  0.5052885E+02  0.7816164E-02  0.1300439E+00
        -11   -1    0    0    0    0  0.00000000000E+00  0.00000000000E+00  0.45593999997E+02  0.45594000000E+02  0.51100000000E-03 0.  1.
         11   -1    0    0    0    0 -0.00000000000E+00 -0.00000000000E+00 -0.45593999997E+02  0.45594000000E+02  0.51100000000E-03 0. -1.
    9900012    2    1    2    0    0  0.72054067454E+01 -0.16288536787E+02  0.36550405441E+02  0.50528850292E+02  0.29999970949E+02 0.  0.
         12    1    1    2    0    0 -0.72054067454E+01  0.16288536787E+02 -0.36550405441E+02  0.40659149708E+02  0.00000000000E+00 0. -1.
         11    1    3    3    0    0  0.74169034267E+01  0.48846119623E+00  0.11535914067E+02  0.13723205325E+02  0.51100000000E-03 0. -1.
        -11    1    3    3    0    0  0.82139734049E+01 -0.14776225546E+02  0.21757830507E+02  0.27553754537E+02  0.51100000000E-03 0.  1.
         12    1    3    3    0    0 -0.84254700862E+01 -0.20007724375E+01  0.32566608678E+01  0.92518904300E+01  0.00000000000E+00 0. -1.
</event>
<event>
 7    1  0.2746803E-013  0.5052887E+02  0.7816164E-02  0.1300439E+00
        -11   -1    0    0    0    0  0.00000000000E+00  0.00000000000E+00  0.45593999997E+02  0.45594000000E+02  0.51100000000E-03 0.  1.
         11   -1    0    0    0    0 -0.00000000000E+00 -0.00000000000E+00 -0.45593999997E+02  0.45594000000E+02  0.51100000000E-03 0. -1.
    9900012    2    1    2    0    0 -0.15336757450E+02  0.36233064698E+02  0.10252500663E+02  0.50528869706E+02  0.30000029958E+02 0.  0.
         12    1    1    2    0    0  0.15336757450E+02 -0.36233064698E+02 -0.10252500663E+02  0.40659130294E+02  0.00000000000E+00 0. -1.
         11    1    3    3    0    0  0.12617192036E+01 -0.26674033488E+01 -0.19014426509E+01  0.35103362218E+01  0.51100000000E-03 0. -1.
        -11    1    3    3    0    0 -0.11045767688E+02  0.13452636593E+02 -0.17483833023E+01  0.17493977808E+02  0.51100000000E-03 0.  1.
        -12    1    3    3    0    0 -0.55527089655E+01  0.25447831454E+02  0.13902326616E+02  0.29524555676E+02  0.00000000000E+00 0.  1.
</event>
<event>
 7    1  0.2746803E-013  0.5052886E+02  0.7816164E-02  0.1300439E+00
        -11   -1    0    0    0    0  0.00000000000E+00  0.00000000000E+00  0.45593999997E+02  0.45594000000E+02  0.51100000000E-03 0.  1.
         11   -1    0    0    0    0 -0.00000000000E+00 -0.00000000000E+00 -0.45593999997E+02  0.45594000000E+02  0.51100000000E-03 0. -1.
    9900012    2    1    2    0    0 -0.16113156005E+02 -0.11142833321E+01  0.37313407053E+02  0.50528858720E+02  0.29999996564E+02 0.  0.
         12    1    1    2    0    0  0.16113156005E+02  0.11142833321E+01 -0.37313407053E+02  0.40659141280E+02  0.00000000000E+00 0. -1.
         11    1    3    3    0    0  0.18188267404E+01 -0.33532102061E+01  0.26732582610E+02  0.27003390947E+02  0.51100000000E-03 0. -1.
        -11    1    3    3    0    0 -0.12266525868E+02  0.40546272250E+01  0.11748817295E+02  0.17462599087E+02  0.51100000000E-03 0.  1.
        -12    1    3    3    0    0 -0.56654568774E+01 -0.18157003509E+01 -0.11679928514E+01  0.60628686853E+01  0.00000000000E+00 0.  1.
</event>
<event>
 7    1  0.2746803E-013  0.5052885E+02  0.7816164E-02  0.1300439E+00
        -11   -1    0    0    0    0  0.00000000000E+00  0.00000000000E+00  0.45593999997E+02  0.45594000000E+02  0.51100000000E-03 0.  1.
         11   -1    0    0    0    0 -0.00000000000E+00 -0.00000000000E+00 -0.45593999997E+02  0.45594000000E+02  0.51100000000E-03 0. -1.
    9900012    2    1    2    0    0 -0.28273825574E+02 -0.92458214780E+01  0.27717724295E+02  0.50528847678E+02  0.29999963003E+02 0.  0.
         12    1    1    2    0    0  0.28273825574E+02  0.92458214780E+01 -0.27717724295E+02  0.40659152322E+02  0.00000000000E+00 0. -1.
         11    1    3    3    0    0 -0.44748137905E+01 -0.10874501236E+02  0.13180400871E+01  0.11832834214E+02  0.51100000000E-03 0. -1.
        -11    1    3    3    0    0 -0.65640831088E+01 -0.59919028772E+01  0.12231283319E+02  0.15119337917E+02  0.51100000000E-03 0.  1.
        -12    1    3    3    0    0 -0.17234928675E+02  0.76205826356E+01  0.14168400889E+02  0.23576675548E+02  0.00000000000E+00 0.  1.
</event>
<event>
 7    1  0.2746803E-013  0.5052884E+02  0.7816164E-02  0.1300439E+00
        -11   -1    0    0    0    0  0.00000000000E+00  0.00000000000E+00  0.45593999997E+02  0.45594000000E+02  0.51100000000E-03 0. -1.
         11   -1    0    0    0    0 -0.00000000000E+00 -0.00000000000E+00 -0.45593999997E+02  0.45594000000E+02  0.51100000000E-03 0.  1.
    9900012    2    1    2    0    0 -0.68189139460E+01 -0.25752650869E+02 -0.30715963626E+02  0.50528843151E+02  0.29999949242E+02 0.  0.
         12    1    1    2    0    0  0.68189139460E+01  0.25752650869E+02  0.30715963626E+02  0.40659156849E+02  0.00000000000E+00 0. -1.
         11    1    3    3    0    0  0.85473814535E+00  0.93261317490E+00  0.36855278312E+00  0.13176403326E+01  0.51100000000E-03 0. -1.
        -11    1    3    3    0    0  0.83808603011E+01 -0.15956087226E+02 -0.20094813526E+02  0.26993278235E+02  0.51100000000E-03 0.  1.
        -12    1    3    3    0    0 -0.16054512392E+02 -0.10729176817E+02 -0.10989702883E+02  0.22217924583E+02  0.00000000000E+00 0.  1.
</event>
<event>
 7    1  0.2746803E-013  0.5052886E+02  0.7816164E-02  0.1300439E+00
        -11   -1    0    0    0    0  0.00000000000E+00  0.00000000000E+00  0.45593999997E+02  0.45594000000E+02  0.51100000000E-03 0.  1.
         11   -1    0    0    0    0 -0.00000000000E+00 -0.00000000000E+00 -0.45593999997E+02  0.45594000000E+02  0.51100000000E-03 0. -1.
    9900012    2    1    2    0    0 -0.64949314835E+01 -0.34221654070E+02  0.20972843501E+02  0.50528857034E+02  0.29999991440E+02 0.  0.
         12    1    1    2    0    0  0.64949314835E+01  0.34221654070E+02 -0.20972843501E+02  0.40659142966E+02  0.00000000000E+00 0. -1.
         11    1    3    3    0    0  0.79273639478E+00 -0.23438130418E+02  0.93693789752E+01  0.25253903681E+02  0.51100000000E-03 0.  1.
        -11    1    3    3    0    0 -0.10820286515E+02 -0.12513248365E+02  0.13064092865E+02  0.21079148644E+02  0.51100000000E-03 0. -1.
        -12    1    3    3    0    0  0.35326186364E+01  0.17297247132E+01 -0.14606283391E+01  0.41958047093E+01  0.00000000000E+00 0.  1.
</event>
<event>
 7    1  0.2746803E-013  0.5052886E+02  0.7816164E-02  0.1300439E+00
        -11   -1    0    0    0    0  0.00000000000E+00  0.00000000000E+00  0.45593999997E+02  0.45594000000E+02  0.51100000000E-03 0.  1.
         11   -1    0    0    0    0 -0.00000000000E+00 -0.00000000000E+00 -0.45593999997E+02  0.45594000000E+02  0.51100000000E-03 0. -1.
    9900012    2    1    2    0    0 -0.32197878531E+02 -0.16075471599E+02  0.18921991895E+02  0.50528856548E+02  0.29999989962E+02 0.  0.
         12    1    1    2    0    0  0.32197878531E+02  0.16075471599E+02 -0.18921991895E+02  0.40659143452E+02  0.00000000000E+00 0. -1.
         11    1    3    3    0    0 -0.70120181060E+01 -0.77287839981E+01  0.27628254923E+01  0.10795170447E+02  0.51100000000E-03 0. -1.
        -11    1    3    3    0    0 -0.11934999663E+02 -0.15553039496E+02  0.14848724760E+02  0.24593208042E+02  0.51100000000E-03 0.  1.
         12    1    3    3    0    0 -0.13250860762E+02  0.72063518955E+01  0.13104416430E+01  0.15140478059E+02  0.00000000000E+00 0. -1.
</event>
<event>
 7    1  0.2746803E-013  0.5052886E+02  0.7816164E-02  0.1300439E+00
        -11   -1    0    0    0    0  0.00000000000E+00  0.00000000000E+00  0.45593999997E+02  0.45594000000E+02  0.51100000000E-03 0.  1.
         11   -1    0    0    0    0 -0.00000000000E+00 -0.00000000000E+00 -0.45593999997E+02  0.45594000000E+02  0.51100000000E-03 0. -1.
    9900012    2    1    2    0    0  0.27509558994E+02 -0.19185521096E+02  0.22984898485E+02  0.50528860633E+02  0.30000002379E+02 0.  0.
         12    1    1    2    0    0 -0.27509558994E+02  0.19185521096E+02 -0.22984898485E+02  0.40659139367E+02  0.00000000000E+00 0. -1.
         11    1    3    3    0    0  0.47237914370E+00 -0.61763678640E+01  0.13402150242E+02  0.14764426620E+02  0.51100000000E-03 0. -1.
        -11    1    3    3    0    0  0.83315478294E+01  0.38833014561E-01  0.99206326005E+01  0.12955120559E+02  0.51100000000E-03 0.  1.
         12    1    3    3    0    0  0.18705632021E+02 -0.13047986247E+02 -0.33788435809E+00  0.22809313454E+02  0.00000000000E+00 0. -1.
</event>
<event>
 7    1  0.2746803E-013  0.5052886E+02  0.7816164E-02  0.1300439E+00
        -11   -1    0    0    0    0  0.00000000000E+00  0.00000000000E+00  0.45593999997E+02  0.45594000000E+02  0.51100000000E-03 0.  1.
         11   -1    0    0    0    0 -0.00000000000E+00 -0.00000000000E+00 -0.45593999997E+02  0.45594000000E+02  0.51100000000E-03 0. -1.
    9900012    2    1    2    0    0  0.30880395523E+02  0.25283081623E+02  0.77673943617E+01  0.50528862538E+02  0.30000008171E+02 0.  0.
         12    1    1    2    0    0 -0.30880395523E+02 -0.25283081623E+02 -0.77673943617E+01  0.40659137462E+02  0.00000000000E+00 0. -1.
         11    1    3    3    0    0  0.14778452895E+01  0.17887476417E+01  0.83622133574E+01  0.86781482657E+01  0.51100000000E-03 0. -1.
        -11    1    3    3    0    0  0.94852610384E+00  0.53358303180E+01 -0.55236459671E+01  0.77383106673E+01  0.51100000000E-03 0.  1.
        -12    1    3    3    0    0  0.28454024129E+02  0.18158503663E+02  0.49288269714E+01  0.34112403605E+02  0.00000000000E+00 0.  1.
</event>
<event>
 7    1  0.2746803E-013  0.5052886E+02  0.7816164E-02  0.1300439E+00
        -11   -1    0    0    0    0  0.00000000000E+00  0.00000000000E+00  0.45593999997E+02  0.45594000000E+02  0.51100000000E-03 0.  1.
         11   -1    0    0    0    0 -0.00000000000E+00 -0.00000000000E+00 -0.45593999997E+02  0.45594000000E+02  0.51100000000E-03 0. -1.
    9900012    2    1    2    0    0  0.18229743738E+02  0.26808506617E+01  0.36244377931E+02  0.50528862668E+02  0.30000008565E+02 0.  0.
         12    1    1    2    0    0 -0.18229743738E+02 -0.26808506617E+01 -0.36244377931E+02  0.40659137332E+02  0.00000000000E+00 0. -1.
         11    1    3    3    0    0 -0.53080522292E+01 -0.37860031332E+01  0.52419588322E+01  0.83658454954E+01  0.51100000000E-03 0. -1.
        -11    1    3    3    0    0 -0.12450453156E+01 -0.19065513218E+01  0.14671570925E+01  0.27088052672E+01  0.51100000000E-03 0.  1.
        -12    1    3    3    0    0  0.24782841283E+02  0.83734051167E+01  0.29535262006E+02  0.39454211905E+02  0.00000000000E+00 0.  1.
</event>
<event>
 7    1  0.2746803E-013  0.5052886E+02  0.7816164E-02  0.1300439E+00
        -11   -1    0    0    0    0  0.00000000000E+00  0.00000000000E+00  0.45593999997E+02  0.45594000000E+02  0.51100000000E-03 0. -1.
         11   -1    0    0    0    0 -0.00000000000E+00 -0.00000000000E+00 -0.45593999997E+02  0.45594000000E+02  0.51100000000E-03 0.  1.
    9900012    2    1    2    0    0  0.37256016513E+02  0.60268337480E+01 -0.15127194985E+02  0.50528861796E+02  0.30000005914E+02 0.  0.
         12    1    1    2    0    0 -0.37256016513E+02 -0.60268337480E+01  0.15127194985E+02  0.40659138204E+02  0.00000000000E+00 0. -1.
         11    1    3    3    0    0  0.10286543364E+02 -0.21971624623E+00 -0.52077524806E+01  0.11531779385E+02  0.51100000000E-03 0. -1.
        -11    1    3    3    0    0  0.11585895727E+02  0.14734677310E+02 -0.10369742717E+02  0.21421373894E+02  0.51100000000E-03 0.  1.
         12    1    3    3    0    0  0.15383577421E+02 -0.84881273153E+01  0.45030021318E+00  0.17575708517E+02  0.00000000000E+00 0. -1.
</event>
<event>
 7    1  0.2746803E-013  0.5052886E+02  0.7816164E-02  0.1300439E+00
        -11   -1    0    0    0    0  0.00000000000E+00  0.00000000000E+00  0.45593999997E+02  0.45594000000E+02  0.51100000000E-03 0. -1.
         11   -1    0    0    0    0 -0.00000000000E+00 -0.00000000000E+00 -0.45593999997E+02  0.45594000000E+02  0.51100000000E-03 0.  1.
    9900012    2    1    2    0    0  0.24530740803E+02 -0.32217900492E+02 -0.36626840206E+01  0.50528860675E+02  0.30000002506E+02 0.  0.
         12    1    1    2    0    0 -0.24530740803E+02  0.32217900492E+02  0.36626840206E+01  0.40659139325E+02  0.00000000000E+00 0. -1.
         11    1    3    3    0    0 -0.26407044543E-02  0.43293219572E+01 -0.34495804993E+01  0.55355795961E+01  0.51100000000E-03 0. -1.
        -11    1    3    3    0    0  0.17595046104E+01 -0.11283349234E+01 -0.19363405829E+01  0.28492825917E+01  0.51100000000E-03 0.  1.
        -12    1    3    3    0    0  0.22773876897E+02 -0.35418887526E+02  0.17232370616E+01  0.42143998487E+02  0.00000000000E+00 0.  1.
</event>
<event>
 7    1  0.2746803E-013  0.5052885E+02  0.7816164E-02  0.1300439E+00
        -11   -1    0    0    0    0  0.00000000000E+00  0.00000000000E+00  0.45593999997E+02  0.45594000000E+02  0.51100000000E-03 0.  1.
         11   -1    0    0    0    0 -0.00000000000E+00 -0.00000000000E+00 -0.45593999997E+02  0.45594000000E+02  0.51100000000E-03 0. -1.
    9900012    2    1    2    0    0  0.20332990472E+02  0.37039850205E+01  0.35014512804E+02  0.50528854492E+02  0.29999983713E+02 0.  0.
         12    1    1    2    0    0 -0.20332990472E+02 -0.37039850205E+01 -0.35014512804E+02  0.40659145508E+02  0.00000000000E+00 0. -1.
         11    1    3    3    0    0  0.71782024103E+01 -0.63102793159E+01  0.75375506141E+01  0.12172135573E+02  0.51100000000E-03 0. -1.
        -11    1    3    3    0    0  0.90313161901E+01  0.98944744935E+00  0.26927949758E+02  0.28419327170E+02  0.51100000000E-03 0.  1.
        -12    1    3    3    0    0  0.41234718716E+01  0.90248168870E+01  0.54901243208E+00  0.99373917488E+01  0.00000000000E+00 0.  1.
</event>
<event>
 7    1  0.2746803E-013  0.5052886E+02  0.7816164E-02  0.1300439E+00
        -11   -1    0    0    0    0  0.00000000000E+00  0.00000000000E+00  0.45593999997E+02  0.45594000000E+02  0.51100000000E-03 0.  1.
         11   -1    0    0    0    0 -0.00000000000E+00 -0.00000000000E+00 -0.45593999997E+02  0.45594000000E+02  0.51100000000E-03 0. -1.
    9900012    2    1    2    0    0  0.50112738172E+01  0.65262243498E+01  0.39817846861E+02  0.50528863288E+02  0.30000010450E+02 0.  0.
         12    1    1    2    0    0 -0.50112738172E+01 -0.65262243498E+01 -0.39817846861E+02  0.40659136712E+02  0.00000000000E+00 0. -1.
         11    1    3    3    0    0 -0.42683961259E+01  0.13647654708E+01  0.35467426682E+01  0.57149955462E+01  0.51100000000E-03 0. -1.
        -11    1    3    3    0    0  0.41393729283E+01  0.14035463668E+02  0.28173513706E+02  0.31747055350E+02  0.51100000000E-03 0.  1.
        -12    1    3    3    0    0  0.51402970148E+01 -0.88740047886E+01  0.80975904864E+01  0.13066812391E+02  0.00000000000E+00 0.  1.
</event>
<event>
 7    1  0.2746803E-013  0.5052886E+02  0.7816164E-02  0.1300439E+00
        -11   -1    0    0    0    0  0.00000000000E+00  0.00000000000E+00  0.45593999997E+02  0.45594000000E+02  0.51100000000E-03 0.  1.
         11   -1    0    0    0    0 -0.00000000000E+00 -0.00000000000E+00 -0.45593999997E+02  0.45594000000E+02  0.51100000000E-03 0. -1.
    9900012    2    1    2    0    0  0.30459427291E+02  0.12666809052E+02  0.23768490265E+02  0.50528857216E+02  0.29999991993E+02 0.  0.
         12    1    1    2    0    0 -0.30459427291E+02 -0.12666809052E+02 -0.23768490265E+02  0.40659142784E+02  0.00000000000E+00 0. -1.
         11    1    3    3    0    0 -0.38038590573E+01 -0.23249601362E+01  0.21321905934E+01  0.49417628788E+01  0.51100000000E-03 0. -1.
        -11    1    3    3    0    0  0.13355940661E+02  0.13623598244E+02  0.87478733240E+01  0.20988303124E+02  0.51100000000E-03 0.  1.
        -12    1    3    3    0    0  0.20907345688E+02  0.13681709444E+01  0.12888426348E+02  0.24598791213E+02  0.00000000000E+00 0.  1.
</event>
<event>
 7    1  0.2746803E-013  0.5052886E+02  0.7816164E-02  0.1300439E+00
        -11   -1    0    0    0    0  0.00000000000E+00  0.00000000000E+00  0.45593999997E+02  0.45594000000E+02  0.51100000000E-03 0.  1.
         11   -1    0    0    0    0 -0.00000000000E+00 -0.00000000000E+00 -0.45593999997E+02  0.45594000000E+02  0.51100000000E-03 0. -1.
    9900012    2    1    2    0    0 -0.33485638819E+02 -0.20325162069E+02 -0.10897961543E+02  0.50528858519E+02  0.29999995953E+02 0.  0.
         12    1    1    2    0    0  0.33485638819E+02  0.20325162069E+02  0.10897961543E+02  0.40659141481E+02  0.00000000000E+00 0. -1.
         11    1    3    3    0    0 -0.26007223694E+02 -0.18112871301E+02  0.10982741302E+01  0.31712111210E+02  0.51100000000E-03 0.  1.
        -11    1    3    3    0    0 -0.82328443347E+01 -0.58495103708E+01 -0.59533263948E+01  0.11723420697E+02  0.51100000000E-03 0. -1.
        -12    1    3    3    0    0  0.75442921054E+00  0.36372196028E+01 -0.60429092785E+01  0.70933266117E+01  0.00000000000E+00 0.  1.
</event>
<event>
 7    1  0.2746803E-013  0.5052887E+02  0.7816164E-02  0.1300439E+00
        -11   -1    0    0    0    0  0.00000000000E+00  0.00000000000E+00  0.45593999997E+02  0.45594000000E+02  0.51100000000E-03 0.  1.
         11   -1    0    0    0    0 -0.00000000000E+00 -0.00000000000E+00 -0.45593999997E+02  0.45594000000E+02  0.51100000000E-03 0. -1.
    9900012    2    1    2    0    0 -0.30209531899E+02  0.27065191329E+02  0.28327648104E+01  0.50528868729E+02  0.30000026990E+02 0.  0.
         12    1    1    2    0    0  0.30209531899E+02 -0.27065191329E+02 -0.28327648104E+01  0.40659131271E+02  0.00000000000E+00 0. -1.
         11    1    3    3    0    0 -0.69767849252E+01 -0.11827099466E+01  0.30888043283E+01  0.77210778489E+01  0.51100000000E-03 0. -1.
        -11    1    3    3    0    0 -0.22420214576E+02  0.11566565723E+02 -0.43791841337E+01  0.25605247864E+02  0.51100000000E-03 0.  1.
        -12    1    3    3    0    0 -0.81253239791E+00  0.16681335552E+02  0.41231446158E+01  0.17202543016E+02  0.00000000000E+00 0.  1.
</event>
<event>
 7    1  0.2746803E-013  0.5052887E+02  0.7816164E-02  0.1300439E+00
        -11   -1    0    0    0    0  0.00000000000E+00  0.00000000000E+00  0.45593999997E+02  0.45594000000E+02  0.51100000000E-03 0. -1.
         11   -1    0    0    0    0 -0.00000000000E+00 -0.00000000000E+00 -0.45593999997E+02  0.45594000000E+02  0.51100000000E-03 0.  1.
    9900012    2    1    2    0    0  0.73555963551E+01  0.87479408616E+00 -0.39978678110E+02  0.50528871064E+02  0.30000034087E+02 0.  0.
         12    1    1    2    0    0 -0.73555963551E+01 -0.87479408616E+00  0.39978678110E+02  0.40659128936E+02  0.00000000000E+00 0. -1.
         11    1    3    3    0    0  0.54872132389E+01 -0.67056933304E+01 -0.16159827756E+02  0.18336190050E+02  0.51100000000E-03 0. -1.
        -11    1    3    3    0    0  0.24897922346E+01 -0.42001350808E+01  0.74853602314E+00  0.49396868836E+01  0.51100000000E-03 0.  1.
        -12    1    3    3    0    0 -0.62140911843E+00  0.11780622497E+02 -0.24567386377E+02  0.27252994131E+02  0.00000000000E+00 0.  1.
</event>
<event>
 7    1  0.2746803E-013  0.5052884E+02  0.7816164E-02  0.1300439E+00
        -11   -1    0    0    0    0  0.00000000000E+00  0.00000000000E+00  0.45593999997E+02  0.45594000000E+02  0.51100000000E-03 0.  1.
         11   -1    0    0    0    0 -0.00000000000E+00 -0.00000000000E+00 -0.45593999997E+02  0.45594000000E+02  0.51100000000E-03 0. -1.
    9900012    2    1    2    0    0 -0.38440822573E+02  0.89671560334E+01  0.97498959922E+01  0.50528841139E+02  0.29999943126E+02 0.  0.
         12    1    1    2    0    0  0.38440822573E+02 -0.89671560334E+01 -0.97498959922E+01  0.40659158861E+02  0.00000000000E+00 0. -1.
         11    1    3    3    0    0 -0.84237826634E+01  0.92013917719E+01  0.60761928565E+00  0.12489792887E+02  0.51100000000E-03 0. -1.
        -11    1    3    3    0    0 -0.24532284528E+02 -0.15579105421E+01  0.15869302025E+02  0.29259098012E+02  0.51100000000E-03 0.  1.
         12    1    3    3    0    0 -0.54847553816E+01  0.13236748035E+01 -0.67270253187E+01  0.87799502402E+01  0.00000000000E+00 0. -1.
</event>
<event>
 7    1  0.2746803E-013  0.5052886E+02  0.7816164E-02  0.1300439E+00
        -11   -1    0    0    0    0  0.00000000000E+00  0.00000000000E+00  0.45593999997E+02  0.45594000000E+02  0.51100000000E-03 0.  1.
         11   -1    0    0    0    0 -0.00000000000E+00 -0.00000000000E+00 -0.45593999997E+02  0.45594000000E+02  0.51100000000E-03 0. -1.
    9900012    2    1    2    0    0  0.50589911431E+01  0.32213701076E+02  0.24286817780E+02  0.50528862696E+02  0.30000008650E+02 0.  0.
         12    1    1    2    0    0 -0.50589911431E+01 -0.32213701076E+02 -0.24286817780E+02  0.40659137304E+02  0.00000000000E+00 0. -1.
         11    1    3    3    0    0  0.11947689149E+01  0.23188542208E+02  0.67105666230E+01  0.24169560756E+02  0.51100000000E-03 0. -1.
        -11    1    3    3    0    0  0.98842817391E+01  0.89618087987E+01  0.99537291267E+01  0.16646013524E+02  0.51100000000E-03 0.  1.
         12    1    3    3    0    0 -0.60200595110E+01  0.63350069990E-01  0.76225220306E+01  0.97132884161E+01  0.00000000000E+00 0. -1.
</event>
<event>
 7    1  0.2746803E-013  0.5052886E+02  0.7816164E-02  0.1300439E+00
        -11   -1    0    0    0    0  0.00000000000E+00  0.00000000000E+00  0.45593999997E+02  0.45594000000E+02  0.51100000000E-03 0.  1.
         11   -1    0    0    0    0 -0.00000000000E+00 -0.00000000000E+00 -0.45593999997E+02  0.45594000000E+02  0.51100000000E-03 0. -1.
    9900012    2    1    2    0    0  0.29387832520E+02  0.24173198617E+02  0.14324022120E+02  0.50528857839E+02  0.29999993886E+02 0.  0.
         12    1    1    2    0    0 -0.29387832520E+02 -0.24173198617E+02 -0.14324022120E+02  0.40659142161E+02  0.00000000000E+00 0. -1.
         11    1    3    3    0    0 -0.10936229318E+01  0.15058925594E+01  0.38212000884E+01  0.42503286807E+01  0.51100000000E-03 0. -1.
        -11    1    3    3    0    0  0.19239210224E+02  0.26251185071E+02  0.11299102755E+02  0.34452019549E+02  0.51100000000E-03 0.  1.
         12    1    3    3    0    0  0.11242245228E+02 -0.35838790131E+01 -0.79628072375E+00  0.11826509609E+02  0.00000000000E+00 0. -1.
</event>
<event>
 7    1  0.2746803E-013  0.5052885E+02  0.7816164E-02  0.1300439E+00
        -11   -1    0    0    0    0  0.00000000000E+00  0.00000000000E+00  0.45593999997E+02  0.45594000000E+02  0.51100000000E-03 0.  1.
         11   -1    0    0    0    0 -0.00000000000E+00 -0.00000000000E+00 -0.45593999997E+02  0.45594000000E+02  0.51100000000E-03 0. -1.
    9900012    2    1    2    0    0 -0.22888371393E+02 -0.23020556147E+02  0.24481488479E+02  0.50528845699E+02  0.29999956987E+02 0.  0.
         12    1    1    2    0    0  0.22888371393E+02  0.23020556147E+02 -0.24481488479E+02  0.40659154301E+02  0.00000000000E+00 0. -1.
         11    1    3    3    0    0 -0.52452012745E+01 -0.74186915196E+01  0.19137111139E+02  0.21184384421E+02  0.51100000000E-03 0.  1.
        -11    1    3    3    0    0 -0.12230230335E+02 -0.10789904175E+02  0.11404179295E+02  0.19901152525E+02  0.51100000000E-03 0. -1.
         12    1    3    3    0    0 -0.54129397833E+01 -0.48119604515E+01 -0.60598019550E+01  0.94433087537E+01  0.00000000000E+00 0. -1.
</event>
<event>
 7    1  0.2746803E-013  0.5052890E+02  0.7816164E-02  0.1300439E+00
        -11   -1    0    0    0    0  0.00000000000E+00  0.00000000000E+00  0.45593999997E+02  0.45594000000E+02  0.51100000000E-03 0.  1.
         11   -1    0    0    0    0 -0.00000000000E+00 -0.00000000000E+00 -0.45593999997E+02  0.45594000000E+02  0.51100000000E-03 0. -1.
    9900012    2    1    2    0    0 -0.34264975593E+02  0.10821158325E+02  0.19025679528E+02  0.50528898911E+02  0.30000118730E+02 0.  0.
         12    1    1    2    0    0  0.34264975593E+02 -0.10821158325E+02 -0.19025679528E+02  0.40659101089E+02  0.00000000000E+00 0. -1.
         11    1    3    3    0    0 -0.10458344655E+02 -0.24966049647E+01  0.71702628551E+01  0.12923725428E+02  0.51100000000E-03 0. -1.
        -11    1    3    3    0    0 -0.19394100017E+02  0.81047911213E+01 -0.30214040453E+01  0.21235527713E+02  0.51100000000E-03 0.  1.
         12    1    3    3    0    0 -0.44125309213E+01  0.52129721682E+01  0.14876820718E+02  0.16369645770E+02  0.00000000000E+00 0. -1.
</event>
<event>
 7    1  0.2746803E-013  0.5052886E+02  0.7816164E-02  0.1300439E+00
        -11   -1    0    0    0    0  0.00000000000E+00  0.00000000000E+00  0.45593999997E+02  0.45594000000E+02  0.51100000000E-03 0.  1.
         11   -1    0    0    0    0 -0.00000000000E+00 -0.00000000000E+00 -0.45593999997E+02  0.45594000000E+02  0.51100000000E-03 0. -1.
    9900012    2    1    2    0    0 -0.12958132016E+02 -0.23179783438E+02  0.30788800980E+02  0.50528858207E+02  0.29999995006E+02 0.  0.
         12    1    1    2    0    0  0.12958132016E+02  0.23179783438E+02 -0.30788800980E+02  0.40659141793E+02  0.00000000000E+00 0. -1.
         11    1    3    3    0    0 -0.89151582231E+00 -0.63364151973E+01 -0.28903201767E+01  0.70213181810E+01  0.51100000000E-03 0. -1.
        -11    1    3    3    0    0 -0.11591767726E+02 -0.34302125767E+01  0.78920860982E+01  0.14436774590E+02  0.51100000000E-03 0.  1.
         12    1    3    3    0    0 -0.47484846824E+00 -0.13413155664E+02  0.25787035058E+02  0.29070765436E+02  0.00000000000E+00 0. -1.
</event>
<event>
 7    1  0.2746803E-013  0.5052886E+02  0.7816164E-02  0.1300439E+00
        -11   -1    0    0    0    0  0.00000000000E+00  0.00000000000E+00  0.45593999997E+02  0.45594000000E+02  0.51100000000E-03 0.  1.
         11   -1    0    0    0    0 -0.00000000000E+00 -0.00000000000E+00 -0.45593999997E+02  0.45594000000E+02  0.51100000000E-03 0. -1.
    9900012    2    1    2    0    0  0.27095219433E+02 -0.26587052287E+02  0.14565153453E+02  0.50528856372E+02  0.29999989429E+02 0.  0.
         12    1    1    2    0    0 -0.27095219433E+02  0.26587052287E+02 -0.14565153453E+02  0.40659143628E+02  0.00000000000E+00 0. -1.
         11    1    3    3    0    0 -0.43805341560E+01 -0.14544114753E+01  0.14358563981E+01  0.48338469244E+01  0.51100000000E-03 0. -1.
        -11    1    3    3    0    0  0.60426000045E+01  0.69958108644E+00 -0.20144403813E+01  0.64078388574E+01  0.51100000000E-03 0.  1.
         12    1    3    3    0    0  0.25433153585E+02 -0.25832221898E+02  0.15143737436E+02  0.39287170590E+02  0.00000000000E+00 0. -1.
</event>
<event>
 7    1  0.2746803E-013  0.5052886E+02  0.7816164E-02  0.1300439E+00
        -11   -1    0    0    0    0  0.00000000000E+00  0.00000000000E+00  0.45593999997E+02  0.45594000000E+02  0.51100000000E-03 0.  1.
         11   -1    0    0    0    0 -0.00000000000E+00 -0.00000000000E+00 -0.45593999997E+02  0.45594000000E+02  0.51100000000E-03 0. -1.
    9900012    2    1    2    0    0  0.20024371294E+02  0.17287479397E+02  0.30876097333E+02  0.50528858640E+02  0.29999996322E+02 0.  0.
         12    1    1    2    0    0 -0.20024371294E+02 -0.17287479397E+02 -0.30876097333E+02  0.40659141360E+02  0.00000000000E+00 0. -1.
         11    1    3    3    0    0  0.40594071324E+00 -0.24254752243E+01  0.73106143692E+01  0.77131576312E+01  0.51100000000E-03 0. -1.
        -11    1    3    3    0    0  0.43686772584E+01  0.19913789854E+02  0.15120931870E+02  0.25382808123E+02  0.51100000000E-03 0.  1.
        -12    1    3    3    0    0  0.15249753322E+02 -0.20083523307E+00  0.84445510943E+01  0.17432892886E+02  0.00000000000E+00 0.  1.
</event>
<event>
 7    1  0.2746803E-013  0.5052883E+02  0.7816164E-02  0.1300439E+00
        -11   -1    0    0    0    0  0.00000000000E+00  0.00000000000E+00  0.45593999997E+02  0.45594000000E+02  0.51100000000E-03 0.  1.
         11   -1    0    0    0    0 -0.00000000000E+00 -0.00000000000E+00 -0.45593999997E+02  0.45594000000E+02  0.51100000000E-03 0. -1.
    9900012    2    1    2    0    0 -0.33941743220E+02 -0.15502371111E+02  0.16149380160E+02  0.50528832246E+02  0.29999916096E+02 0.  0.
         12    1    1    2    0    0  0.33941743220E+02  0.15502371111E+02 -0.16149380160E+02  0.40659167754E+02  0.00000000000E+00 0. -1.
         11    1    3    3    0    0 -0.10275066401E+02 -0.17597023510E+02  0.30901537351E+01  0.20610222617E+02  0.51100000000E-03 0. -1.
        -11    1    3    3    0    0 -0.13023990526E+02 -0.39345129506E+01  0.26583662654E+01  0.13862598344E+02  0.51100000000E-03 0.  1.
         12    1    3    3    0    0 -0.10642686293E+02  0.60291653498E+01  0.10400860159E+02  0.16056011285E+02  0.00000000000E+00 0. -1.
</event>
<event>
 7    1  0.2746803E-013  0.5052886E+02  0.7816164E-02  0.1300439E+00
        -11   -1    0    0    0    0  0.00000000000E+00  0.00000000000E+00  0.45593999997E+02  0.45594000000E+02  0.51100000000E-03 0.  1.
         11   -1    0    0    0    0 -0.00000000000E+00 -0.00000000000E+00 -0.45593999997E+02  0.45594000000E+02  0.51100000000E-03 0. -1.
    9900012    2    1    2    0    0 -0.26800485760E+02 -0.27935540613E+02  0.12430009335E+02  0.50528860826E+02  0.30000002968E+02 0.  0.
         12    1    1    2    0    0  0.26800485760E+02  0.27935540613E+02 -0.12430009335E+02  0.40659139174E+02  0.00000000000E+00 0. -1.
         11    1    3    3    0    0 -0.10238002329E+02  0.28049316509E+01  0.47594747334E+01  0.11633440302E+02  0.51100000000E-03 0. -1.
        -11    1    3    3    0    0 -0.74483958589E+01 -0.94728866207E+01  0.99741484605E+01  0.15642820065E+02  0.51100000000E-03 0.  1.
        -12    1    3    3    0    0 -0.91140875716E+01 -0.21267585643E+02 -0.23036138586E+01  0.23252600460E+02  0.00000000000E+00 0.  1.
</event>
<event>
 7    1  0.2746803E-013  0.5052885E+02  0.7816164E-02  0.1300439E+00
        -11   -1    0    0    0    0  0.00000000000E+00  0.00000000000E+00  0.45593999997E+02  0.45594000000E+02  0.51100000000E-03 0.  1.
         11   -1    0    0    0    0 -0.00000000000E+00 -0.00000000000E+00 -0.45593999997E+02  0.45594000000E+02  0.51100000000E-03 0. -1.
    9900012    2    1    2    0    0 -0.14531361672E+02  0.25697160976E+02  0.27958221362E+02  0.50528847328E+02  0.29999961938E+02 0.  0.
         12    1    1    2    0    0  0.14531361672E+02 -0.25697160976E+02 -0.27958221362E+02  0.40659152672E+02  0.00000000000E+00 0. -1.
         11    1    3    3    0    0 -0.87809909998E+01  0.18425637615E+01  0.85846014166E+01  0.12417577296E+02  0.51100000000E-03 0. -1.
        -11    1    3    3    0    0 -0.11198300087E+02  0.23020691746E+02  0.20105811717E+02  0.32551464458E+02  0.51100000000E-03 0.  1.
         12    1    3    3    0    0  0.54479294142E+01  0.83390546801E+00 -0.73219177156E+00  0.55598055742E+01  0.00000000000E+00 0. -1.
</event>
<event>
 7    1  0.2746803E-013  0.5052886E+02  0.7816164E-02  0.1300439E+00
        -11   -1    0    0    0    0  0.00000000000E+00  0.00000000000E+00  0.45593999997E+02  0.45594000000E+02  0.51100000000E-03 0. -1.
         11   -1    0    0    0    0 -0.00000000000E+00 -0.00000000000E+00 -0.45593999997E+02  0.45594000000E+02  0.51100000000E-03 0.  1.
    9900012    2    1    2    0    0  0.29249976099E+02  0.17734655292E+02 -0.21979234489E+02  0.50528857746E+02  0.29999993605E+02 0.  0.
         12    1    1    2    0    0 -0.29249976099E+02 -0.17734655292E+02  0.21979234489E+02  0.40659142254E+02  0.00000000000E+00 0. -1.
         11    1    3    3    0    0  0.10944792177E+02  0.11629011930E+02  0.24427331769E+01  0.16155164496E+02  0.51100000000E-03 0.  1.
        -11    1    3    3    0    0  0.13872527418E+02  0.10251374805E+01 -0.67548005312E+01  0.15463675317E+02  0.51100000000E-03 0. -1.
        -12    1    3    3    0    0  0.44326565041E+01  0.50805058821E+01 -0.17667167134E+02  0.18910017934E+02  0.00000000000E+00 0.  1.
</event>
<event>
 7    1  0.2746803E-013  0.5052885E+02  0.7816164E-02  0.1300439E+00
        -11   -1    0    0    0    0  0.00000000000E+00  0.00000000000E+00  0.45593999997E+02  0.45594000000E+02  0.51100000000E-03 0.  1.
         11   -1    0    0    0    0 -0.00000000000E+00 -0.00000000000E+00 -0.45593999997E+02  0.45594000000E+02  0.51100000000E-03 0. -1.
    9900012    2    1    2    0    0  0.39851085403E+02 -0.79935758214E+01 -0.10771279316E+01  0.50528850147E+02  0.29999970506E+02 0.  0.
         12    1    1    2    0    0 -0.39851085403E+02  0.79935758214E+01  0.10771279316E+01  0.40659149853E+02  0.00000000000E+00 0. -1.
         11    1    3    3    0    0  0.35052663457E+01  0.44499431168E+01 -0.68836692949E+01  0.89148072957E+01  0.51100000000E-03 0. -1.
        -11    1    3    3    0    0  0.49324403068E+01 -0.63828236614E+01  0.52347572803E+01  0.96162409140E+01  0.51100000000E-03 0.  1.
        -12    1    3    3    0    0  0.31413378751E+02 -0.60606952768E+01  0.57178408299E+00  0.31997801937E+02  0.00000000000E+00 0.  1.
</event>
<event>
 7    1  0.2746803E-013  0.5052885E+02  0.7816164E-02  0.1300439E+00
        -11   -1    0    0    0    0  0.00000000000E+00  0.00000000000E+00  0.45593999997E+02  0.45594000000E+02  0.51100000000E-03 0. -1.
         11   -1    0    0    0    0 -0.00000000000E+00 -0.00000000000E+00 -0.45593999997E+02  0.45594000000E+02  0.51100000000E-03 0.  1.
    9900012    2    1    2    0    0  0.28508030076E+02 -0.73592010619E+01  0.28041054065E+02  0.50528851802E+02  0.29999975538E+02 0.  0.
         12    1    1    2    0    0 -0.28508030076E+02  0.73592010619E+01 -0.28041054065E+02  0.40659148198E+02  0.00000000000E+00 0. -1.
         11    1    3    3    0    0  0.11590403473E+02 -0.71208249008E+01  0.53218922679E+01  0.14607057798E+02  0.51100000000E-03 0. -1.
        -11    1    3    3    0    0  0.10478917912E+02  0.74422232580E+01  0.21371508379E+01  0.13029267884E+02  0.51100000000E-03 0.  1.
         12    1    3    3    0    0  0.64387086908E+01 -0.76805994191E+01  0.20582010959E+02  0.22892526120E+02  0.00000000000E+00 0. -1.
</event>
<event>
 7    1  0.2746803E-013  0.5052886E+02  0.7816164E-02  0.1300439E+00
        -11   -1    0    0    0    0  0.00000000000E+00  0.00000000000E+00  0.45593999997E+02  0.45594000000E+02  0.51100000000E-03 0. -1.
         11   -1    0    0    0    0 -0.00000000000E+00 -0.00000000000E+00 -0.45593999997E+02  0.45594000000E+02  0.51100000000E-03 0.  1.
    9900012    2    1    2    0    0  0.40285249382E+02 -0.29915853943E+01  0.46168088644E+01  0.50528858039E+02  0.29999994495E+02 0.  0.
         12    1    1    2    0    0 -0.40285249382E+02  0.29915853943E+01 -0.46168088644E+01  0.40659141961E+02  0.00000000000E+00 0. -1.
         11    1    3    3    0    0  0.12864111250E+02 -0.10340322563E+02  0.31410872778E+01  0.16801013616E+02  0.51100000000E-03 0. -1.
        -11    1    3    3    0    0  0.16702811098E+02 -0.14919871715E+01 -0.61709438157E+01  0.17868700908E+02  0.51100000000E-03 0.  1.
         12    1    3    3    0    0  0.10718327034E+02  0.88407243405E+01  0.76466654022E+01  0.15859143515E+02  0.00000000000E+00 0. -1.
</event>
<event>
 7    1  0.2746803E-013  0.5052886E+02  0.7816164E-02  0.1300439E+00
        -11   -1    0    0    0    0  0.00000000000E+00  0.00000000000E+00  0.45593999997E+02  0.45594000000E+02  0.51100000000E-03 0. -1.
         11   -1    0    0    0    0 -0.00000000000E+00 -0.00000000000E+00 -0.45593999997E+02  0.45594000000E+02  0.51100000000E-03 0.  1.
    9900012    2    1    2    0    0 -0.16039290690E+02 -0.18170040226E+02 -0.32645930680E+02  0.50528855916E+02  0.29999988043E+02 0.  0.
         12    1    1    2    0    0  0.16039290690E+02  0.18170040226E+02  0.32645930680E+02  0.40659144084E+02  0.00000000000E+00 0. -1.
         11    1    3    3    0    0 -0.11682639019E+02  0.37380460429E+01 -0.13344101905E+02  0.18125178581E+02  0.51100000000E-03 0. -1.
        -11    1    3    3    0    0  0.43160585504E+01 -0.85085410735E+01 -0.10457928744E+02  0.14155984829E+02  0.51100000000E-03 0.  1.
        -12    1    3    3    0    0 -0.86727102217E+01 -0.13399545196E+02 -0.88439000309E+01  0.18247692506E+02  0.00000000000E+00 0.  1.
</event>
<event>
 7    1  0.2746803E-013  0.5052889E+02  0.7816164E-02  0.1300439E+00
        -11   -1    0    0    0    0  0.00000000000E+00  0.00000000000E+00  0.45593999997E+02  0.45594000000E+02  0.51100000000E-03 0.  1.
         11   -1    0    0    0    0 -0.00000000000E+00 -0.00000000000E+00 -0.45593999997E+02  0.45594000000E+02  0.51100000000E-03 0. -1.
    9900012    2    1    2    0    0  0.35350891816E+02 -0.11618620914E+02  0.16385517226E+02  0.50528891809E+02  0.30000097143E+02 0.  0.
         12    1    1    2    0    0 -0.35350891816E+02  0.11618620914E+02 -0.16385517226E+02  0.40659108191E+02  0.00000000000E+00 0. -1.
         11    1    3    3    0    0  0.16917003061E+02  0.51041216174E+01  0.56444938721E+01  0.18549861492E+02  0.51100000000E-03 0. -1.
        -11    1    3    3    0    0  0.13673352935E+01  0.22707180726E+00  0.75954414318E+01  0.77208741873E+01  0.51100000000E-03 0.  1.
         12    1    3    3    0    0  0.17066553462E+02 -0.16949814339E+02  0.31455819223E+01  0.24258156130E+02  0.00000000000E+00 0. -1.
</event>
<event>
 7    1  0.2746803E-013  0.5052885E+02  0.7816164E-02  0.1300439E+00
        -11   -1    0    0    0    0  0.00000000000E+00  0.00000000000E+00  0.45593999997E+02  0.45594000000E+02  0.51100000000E-03 0.  1.
         11   -1    0    0    0    0 -0.00000000000E+00 -0.00000000000E+00 -0.45593999997E+02  0.45594000000E+02  0.51100000000E-03 0. -1.
    9900012    2    1    2    0    0  0.21145946818E+02 -0.33144518424E+02 -0.10366114842E+02  0.50528849673E+02  0.29999969067E+02 0.  0.
         12    1    1    2    0    0 -0.21145946818E+02  0.33144518424E+02  0.10366114842E+02  0.40659150327E+02  0.00000000000E+00 0. -1.
         11    1    3    3    0    0 -0.74108161625E+00 -0.92031102754E+01  0.15790437854E+01  0.93669536265E+01  0.51100000000E-03 0. -1.
        -11    1    3    3    0    0  0.22214792021E+02 -0.14012483597E+02 -0.86336786223E+00  0.26279118810E+02  0.51100000000E-03 0.  1.
         12    1    3    3    0    0 -0.32776358712E+00 -0.99289245512E+01 -0.11081790765E+02  0.14882777237E+02  0.00000000000E+00 0. -1.
</event>
<event>
 7    1  0.2746803E-013  0.5052887E+02  0.7816164E-02  0.1300439E+00
        -11   -1    0    0    0    0  0.00000000000E+00  0.00000000000E+00  0.45593999997E+02  0.45594000000E+02  0.51100000000E-03 0.  1.
         11   -1    0    0    0    0 -0.00000000000E+00 -0.00000000000E+00 -0.45593999997E+02  0.45594000000E+02  0.51100000000E-03 0. -1.
    9900012    2    1    2    0    0 -0.20020879002E+02  0.24387188900E+02  0.25643604561E+02  0.50528867775E+02  0.30000024089E+02 0.  0.
         12    1    1    2    0    0  0.20020879002E+02 -0.24387188900E+02 -0.25643604561E+02  0.40659132225E+02  0.00000000000E+00 0. -1.
         11    1    3    3    0    0 -0.56528605616E+01 -0.23771777645E+01  0.17334913309E+01  0.63726602850E+01  0.51100000000E-03 0. -1.
        -11    1    3    3    0    0 -0.56535916002E+01  0.35690863235E+01  0.17247167888E+02  0.18497737040E+02  0.51100000000E-03 0.  1.
        -12    1    3    3    0    0 -0.87144268397E+01  0.23195280341E+02  0.66629453420E+01  0.25658470450E+02  0.00000000000E+00 0.  1.
</event>
<event>
 7    1  0.2746803E-013  0.5052885E+02  0.7816164E-02  0.1300439E+00
        -11   -1    0    0    0    0  0.00000000000E+00  0.00000000000E+00  0.45593999997E+02  0.45594000000E+02  0.51100000000E-03 0.  1.
         11   -1    0    0    0    0 -0.00000000000E+00 -0.00000000000E+00 -0.45593999997E+02  0.45594000000E+02  0.51100000000E-03 0. -1.
    9900012    2    1    2    0    0 -0.18893210798E+02 -0.28288401836E+02  0.22270595601E+02  0.50528849479E+02  0.29999968476E+02 0.  0.
         12    1    1    2    0    0  0.18893210798E+02  0.28288401836E+02 -0.22270595601E+02  0.40659150521E+02  0.00000000000E+00 0. -1.
         11    1    3    3    0    0 -0.28857635045E+01  0.25697269392E+01  0.67432726906E-01  0.38646700997E+01  0.51100000000E-03 0. -1.
        -11    1    3    3    0    0  0.44223979297E+01 -0.94255153466E+01  0.10612116119E+02  0.14866571621E+02  0.51100000000E-03 0.  1.
         12    1    3    3    0    0 -0.20429845223E+02 -0.21432613429E+02  0.11591046755E+02  0.31797607758E+02  0.00000000000E+00 0. -1.
</event>
<event>
 7    1  0.2746803E-013  0.5052885E+02  0.7816164E-02  0.1300439E+00
        -11   -1    0    0    0    0  0.00000000000E+00  0.00000000000E+00  0.45593999997E+02  0.45594000000E+02  0.51100000000E-03 0. -1.
         11   -1    0    0    0    0 -0.00000000000E+00 -0.00000000000E+00 -0.45593999997E+02  0.45594000000E+02  0.51100000000E-03 0.  1.
    9900012    2    1    2    0    0 -0.23079925941E+02  0.26645682394E+02 -0.20260575141E+02  0.50528852484E+02  0.29999977610E+02 0.  0.
         12    1    1    2    0    0  0.23079925941E+02 -0.26645682394E+02  0.20260575141E+02  0.40659147516E+02  0.00000000000E+00 0. -1.
         11    1    3    3    0    0 -0.21439537378E+02  0.22632224049E+02 -0.10443570705E+02  0.32877644346E+02  0.51100000000E-03 0. -1.
        -11    1    3    3    0    0 -0.30853412915E+01  0.69598440519E+01 -0.11631414169E+02  0.13901386835E+02  0.51100000000E-03 0.  1.
         12    1    3    3    0    0  0.14449527282E+01 -0.29463857071E+01  0.18144097333E+01  0.37498213026E+01  0.00000000000E+00 0. -1.
</event>
<event>
 7    1  0.2746803E-013  0.5052887E+02  0.7816164E-02  0.1300439E+00
        -11   -1    0    0    0    0  0.00000000000E+00  0.00000000000E+00  0.45593999997E+02  0.45594000000E+02  0.51100000000E-03 0. -1.
         11   -1    0    0    0    0 -0.00000000000E+00 -0.00000000000E+00 -0.45593999997E+02  0.45594000000E+02  0.51100000000E-03 0.  1.
    9900012    2    1    2    0    0  0.26192456785E+02  0.24310085199E+02  0.19394317035E+02  0.50528873497E+02  0.30000041480E+02 0.  0.
         12    1    1    2    0    0 -0.26192456785E+02 -0.24310085199E+02 -0.19394317035E+02  0.40659126503E+02  0.00000000000E+00 0. -1.
         11    1    3    3    0    0  0.17697694082E+02  0.22728977816E+02  0.12083441765E+02  0.31238187744E+02  0.51100000000E-03 0. -1.
        -11    1    3    3    0    0  0.64361528946E+01  0.81718042128E+01  0.66687777198E+01  0.12356174356E+02  0.51100000000E-03 0.  1.
         12    1    3    3    0    0  0.20586098081E+01 -0.65906968300E+01  0.64209754945E+00  0.69345113966E+01  0.00000000000E+00 0. -1.
</event>
<event>
 7    1  0.2746803E-013  0.5052886E+02  0.7816164E-02  0.1300439E+00
        -11   -1    0    0    0    0  0.00000000000E+00  0.00000000000E+00  0.45593999997E+02  0.45594000000E+02  0.51100000000E-03 0.  1.
         11   -1    0    0    0    0 -0.00000000000E+00 -0.00000000000E+00 -0.45593999997E+02  0.45594000000E+02  0.51100000000E-03 0. -1.
    9900012    2    1    2    0    0 -0.33413042164E+02 -0.16379778014E+02 -0.16384063035E+02  0.50528855445E+02  0.29999986610E+02 0.  0.
         12    1    1    2    0    0  0.33413042164E+02  0.16379778014E+02  0.16384063035E+02  0.40659144555E+02  0.00000000000E+00 0. -1.
         11    1    3    3    0    0 -0.17824241359E+01 -0.29588039962E+01  0.30360839765E+01  0.45988436657E+01  0.51100000000E-03 0. -1.
        -11    1    3    3    0    0 -0.30840244033E+02 -0.14403381251E+02 -0.86948798694E+01  0.35130883559E+02  0.51100000000E-03 0.  1.
         12    1    3    3    0    0 -0.79037399539E+00  0.98240723367E+00 -0.10725267142E+02  0.10799128220E+02  0.00000000000E+00 0. -1.
</event>
<event>
 7    1  0.2746803E-013  0.5052887E+02  0.7816164E-02  0.1300439E+00
        -11   -1    0    0    0    0  0.00000000000E+00  0.00000000000E+00  0.45593999997E+02  0.45594000000E+02  0.51100000000E-03 0.  1.
         11   -1    0    0    0    0 -0.00000000000E+00 -0.00000000000E+00 -0.45593999997E+02  0.45594000000E+02  0.51100000000E-03 0. -1.
    9900012    2    1    2    0    0  0.15692021297E+02  0.27792904955E+02  0.25188881713E+02  0.50528869904E+02  0.30000030560E+02 0.  0.
         12    1    1    2    0    0 -0.15692021297E+02 -0.27792904955E+02 -0.25188881713E+02  0.40659130096E+02  0.00000000000E+00 0. -1.
         11    1    3    3    0    0  0.54033744294E+01  0.70340741471E+01 -0.84026669111E-01  0.88702714205E+01  0.51100000000E-03 0. -1.
        -11    1    3    3    0    0 -0.49319676125E+00  0.21169094761E+02  0.11289367084E+02  0.23996325249E+02  0.51100000000E-03 0.  1.
        -12    1    3    3    0    0  0.10781843629E+02 -0.41026395348E+00  0.13983541298E+02  0.17662273234E+02  0.00000000000E+00 0.  1.
</event>
<event>
 7    1  0.2746803E-013  0.5052887E+02  0.7816164E-02  0.1300439E+00
        -11   -1    0    0    0    0  0.00000000000E+00  0.00000000000E+00  0.45593999997E+02  0.45594000000E+02  0.51100000000E-03 0.  1.
         11   -1    0    0    0    0 -0.00000000000E+00 -0.00000000000E+00 -0.45593999997E+02  0.45594000000E+02  0.51100000000E-03 0. -1.
    9900012    2    1    2    0    0 -0.56493204854E+01  0.35189082592E+02  0.19569844837E+02  0.50528865940E+02  0.30000018511E+02 0.  0.
         12    1    1    2    0    0  0.56493204854E+01 -0.35189082592E+02 -0.19569844837E+02  0.40659134060E+02  0.00000000000E+00 0. -1.
         11    1    3    3    0    0 -0.93541955531E+01  0.17032534481E+02  0.10520896856E+02  0.22097454066E+02  0.51100000000E-03 0. -1.
        -11    1    3    3    0    0  0.59271767774E+01  0.20990269301E+02  0.39138844406E+01  0.22159452194E+02  0.51100000000E-03 0.  1.
         12    1    3    3    0    0 -0.22223017097E+01 -0.28337211895E+01  0.51350635399E+01  0.62719596800E+01  0.00000000000E+00 0. -1.
</event>
<event>
 7    1  0.2746803E-013  0.5052888E+02  0.7816164E-02  0.1300439E+00
        -11   -1    0    0    0    0  0.00000000000E+00  0.00000000000E+00  0.45593999997E+02  0.45594000000E+02  0.51100000000E-03 0.  1.
         11   -1    0    0    0    0 -0.00000000000E+00 -0.00000000000E+00 -0.45593999997E+02  0.45594000000E+02  0.51100000000E-03 0. -1.
    9900012    2    1    2    0    0 -0.41623595641E+01  0.40146263358E+02 -0.49108452531E+01  0.50528879254E+02  0.30000058979E+02 0.  0.
         12    1    1    2    0    0  0.41623595641E+01 -0.40146263358E+02  0.49108452531E+01  0.40659120746E+02  0.00000000000E+00 0. -1.
         11    1    3    3    0    0  0.34027264129E+01  0.32809699101E+02 -0.11349622176E+02  0.34883646971E+02  0.51100000000E-03 0. -1.
        -11    1    3    3    0    0 -0.57728339543E+01  0.95348029930E+01  0.63047958772E+01  0.12805800689E+02  0.51100000000E-03 0.  1.
        -12    1    3    3    0    0 -0.17922520227E+01 -0.21982387362E+01  0.13398104600E+00  0.28394315936E+01  0.00000000000E+00 0.  1.
</event>
<event>
 7    1  0.2746803E-013  0.5052886E+02  0.7816164E-02  0.1300439E+00
        -11   -1    0    0    0    0  0.00000000000E+00  0.00000000000E+00  0.45593999997E+02  0.45594000000E+02  0.51100000000E-03 0.  1.
         11   -1    0    0    0    0 -0.00000000000E+00 -0.00000000000E+00 -0.45593999997E+02  0.45594000000E+02  0.51100000000E-03 0. -1.
    9900012    2    1    2    0    0  0.14166226455E+02 -0.35704722904E+01  0.37943840816E+02  0.50528864493E+02  0.30000014112E+02 0.  0.
         12    1    1    2    0    0 -0.14166226455E+02  0.35704722904E+01 -0.37943840816E+02  0.40659135507E+02  0.00000000000E+00 0. -1.
         11    1    3    3    0    0  0.43185775965E+01  0.82146133160E+01  0.61731839934E+01  0.11146218429E+02  0.51100000000E-03 0. -1.
        -11    1    3    3    0    0  0.27817310638E+01  0.31385439460E+00  0.22290618201E+02  0.22465711481E+02  0.51100000000E-03 0.  1.
        -12    1    3    3    0    0  0.70659177941E+01 -0.12098940001E+02  0.94800386210E+01  0.16916934583E+02  0.00000000000E+00 0.  1.
</event>
<event>
 7    1  0.2746803E-013  0.5052886E+02  0.7816164E-02  0.1300439E+00
        -11   -1    0    0    0    0  0.00000000000E+00  0.00000000000E+00  0.45593999997E+02  0.45594000000E+02  0.51100000000E-03 0.  1.
         11   -1    0    0    0    0 -0.00000000000E+00 -0.00000000000E+00 -0.45593999997E+02  0.45594000000E+02  0.51100000000E-03 0. -1.
    9900012    2    1    2    0    0 -0.68628501759E+01  0.28507553677E+02  0.28167113436E+02  0.50528860701E+02  0.30000002587E+02 0.  0.
         12    1    1    2    0    0  0.68628501759E+01 -0.28507553677E+02 -0.28167113436E+02  0.40659139299E+02  0.00000000000E+00 0. -1.
         11    1    3    3    0    0  0.38492541583E+01  0.82229939704E+01  0.12519353745E+01  0.91652457608E+01  0.51100000000E-03 0. -1.
        -11    1    3    3    0    0  0.53267154551E+01  0.39625495242E+01  0.12957706101E+02  0.14559458916E+02  0.51100000000E-03 0.  1.
         12    1    3    3    0    0 -0.16038819789E+02  0.16322010183E+02  0.13957471960E+02  0.26804156024E+02  0.00000000000E+00 0. -1.
</event>
<event>
 7    1  0.2746803E-013  0.5052886E+02  0.7816164E-02  0.1300439E+00
        -11   -1    0    0    0    0  0.00000000000E+00  0.00000000000E+00  0.45593999997E+02  0.45594000000E+02  0.51100000000E-03 0.  1.
         11   -1    0    0    0    0 -0.00000000000E+00 -0.00000000000E+00 -0.45593999997E+02  0.45594000000E+02  0.51100000000E-03 0. -1.
    9900012    2    1    2    0    0  0.15993069486E+02  0.29989790451E+02  0.22315907052E+02  0.50528861908E+02  0.30000006255E+02 0.  0.
         12    1    1    2    0    0 -0.15993069486E+02 -0.29989790451E+02 -0.22315907052E+02  0.40659138092E+02  0.00000000000E+00 0. -1.
         11    1    3    3    0    0  0.70717544930E+01  0.25551160921E+01 -0.91867229513E+00  0.75751098276E+01  0.51100000000E-03 0. -1.
        -11    1    3    3    0    0  0.12875246839E+02  0.12199144980E+02  0.41502770479E+01  0.18215815086E+02  0.51100000000E-03 0.  1.
         12    1    3    3    0    0 -0.39539318460E+01  0.15235529379E+02  0.19084302299E+02  0.24737936994E+02  0.00000000000E+00 0. -1.
</event>
<event>
 7    1  0.2746803E-013  0.5052886E+02  0.7816164E-02  0.1300439E+00
        -11   -1    0    0    0    0  0.00000000000E+00  0.00000000000E+00  0.45593999997E+02  0.45594000000E+02  0.51100000000E-03 0.  1.
         11   -1    0    0    0    0 -0.00000000000E+00 -0.00000000000E+00 -0.45593999997E+02  0.45594000000E+02  0.51100000000E-03 0. -1.
    9900012    2    1    2    0    0 -0.11871478679E+02  0.32643758019E+01  0.38750191724E+02  0.50528861863E+02  0.30000006118E+02 0.  0.
         12    1    1    2    0    0  0.11871478679E+02 -0.32643758019E+01 -0.38750191724E+02  0.40659138137E+02  0.00000000000E+00 0. -1.
         11    1    3    3    0    0 -0.81940256081E+01 -0.20064839767E+01  0.78178604189E+00  0.84722619937E+01  0.51100000000E-03 0. -1.
        -11    1    3    3    0    0  0.20704699144E+01 -0.55000933282E+01  0.12626388931E+02  0.13927080455E+02  0.51100000000E-03 0.  1.
        -12    1    3    3    0    0 -0.57479229853E+01  0.10770953107E+02  0.25342016751E+02  0.28129519414E+02  0.00000000000E+00 0.  1.
</event>
<event>
 7    1  0.2746803E-013  0.5052885E+02  0.7816164E-02  0.1300439E+00
        -11   -1    0    0    0    0  0.00000000000E+00  0.00000000000E+00  0.45593999997E+02  0.45594000000E+02  0.51100000000E-03 0.  1.
         11   -1    0    0    0    0 -0.00000000000E+00 -0.00000000000E+00 -0.45593999997E+02  0.45594000000E+02  0.51100000000E-03 0. -1.
    9900012    2    1    2    0    0  0.58705021343E+01 -0.31949780185E+02 -0.24452297389E+02  0.50528854697E+02  0.29999984337E+02 0.  0.
         12    1    1    2    0    0 -0.58705021343E+01  0.31949780185E+02  0.24452297389E+02  0.40659145303E+02  0.00000000000E+00 0. -1.
         11    1    3    3    0    0 -0.47354317565E+01 -0.10399865184E+02 -0.18072155817E+02  0.21381869093E+02  0.51100000000E-03 0. -1.
        -11    1    3    3    0    0 -0.32524542309E+01 -0.76796717590E+01  0.53253078386E+00  0.83569974361E+01  0.51100000000E-03 0.  1.
         12    1    3    3    0    0  0.13858388122E+02 -0.13870243242E+02 -0.69126723555E+01  0.20789988168E+02  0.00000000000E+00 0. -1.
</event>
<event>
 7    1  0.2746803E-013  0.5052889E+02  0.7816164E-02  0.1300439E+00
        -11   -1    0    0    0    0  0.00000000000E+00  0.00000000000E+00  0.45593999997E+02  0.45594000000E+02  0.51100000000E-03 0. -1.
         11   -1    0    0    0    0 -0.00000000000E+00 -0.00000000000E+00 -0.45593999997E+02  0.45594000000E+02  0.51100000000E-03 0.  1.
    9900012    2    1    2    0    0 -0.56180937113E+01 -0.20742642707E+02 -0.34515835259E+02  0.50528891708E+02  0.30000096837E+02 0.  0.
         12    1    1    2    0    0  0.56180937113E+01  0.20742642707E+02  0.34515835259E+02  0.40659108292E+02  0.00000000000E+00 0. -1.
         11    1    3    3    0    0 -0.10107671638E+01  0.19015133115E+01  0.16758060114E+01  0.27286863474E+01  0.51100000000E-03 0. -1.
        -11    1    3    3    0    0  0.27071457239E+01 -0.23196809640E+02 -0.31004114216E+02  0.38815920883E+02  0.51100000000E-03 0.  1.
         12    1    3    3    0    0 -0.73144722715E+01  0.55265362137E+00 -0.51875270547E+01  0.89842844779E+01  0.00000000000E+00 0. -1.
</event>
<event>
 7    1  0.2746803E-013  0.5052889E+02  0.7816164E-02  0.1300439E+00
        -11   -1    0    0    0    0  0.00000000000E+00  0.00000000000E+00  0.45593999997E+02  0.45594000000E+02  0.51100000000E-03 0. -1.
         11   -1    0    0    0    0 -0.00000000000E+00 -0.00000000000E+00 -0.45593999997E+02  0.45594000000E+02  0.51100000000E-03 0.  1.
    9900012    2    1    2    0    0 -0.47787412127E+01 -0.79663633559E+01 -0.39583631895E+02  0.50528889991E+02  0.30000091618E+02 0.  0.
         12    1    1    2    0    0  0.47787412127E+01  0.79663633559E+01  0.39583631895E+02  0.40659110009E+02  0.00000000000E+00 0. -1.
         11    1    3    3    0    0  0.61250077505E+01  0.45921244778E+01 -0.11437094408E+02  0.13762647126E+02  0.51100000000E-03 0. -1.
        -11    1    3    3    0    0 -0.90777037942E+01 -0.29991351623E+01 -0.24626344757E+02  0.26416971330E+02  0.51100000000E-03 0.  1.
        -12    1    3    3    0    0 -0.18260451690E+01 -0.95593526714E+01 -0.35201927298E+01  0.10349271535E+02  0.00000000000E+00 0.  1.
</event>
<event>
 7    1  0.2746803E-013  0.5052885E+02  0.7816164E-02  0.1300439E+00
        -11   -1    0    0    0    0  0.00000000000E+00  0.00000000000E+00  0.45593999997E+02  0.45594000000E+02  0.51100000000E-03 0. -1.
         11   -1    0    0    0    0 -0.00000000000E+00 -0.00000000000E+00 -0.45593999997E+02  0.45594000000E+02  0.51100000000E-03 0.  1.
    9900012    2    1    2    0    0  0.26502617838E+01 -0.51436245077E+01 -0.40245323841E+02  0.50528845414E+02  0.29999956121E+02 0.  0.
         12    1    1    2    0    0 -0.26502617838E+01  0.51436245077E+01  0.40245323841E+02  0.40659154586E+02  0.00000000000E+00 0. -1.
         11    1    3    3    0    0  0.45996542025E+01 -0.14249162780E+02 -0.28177288565E+02  0.31908541957E+02  0.51100000000E-03 0. -1.
        -11    1    3    3    0    0  0.31771034263E+01  0.38926571905E+01 -0.97188292967E+01  0.10940859625E+02  0.51100000000E-03 0.  1.
        -12    1    3    3    0    0 -0.51264958450E+01  0.52128810822E+01 -0.23492059791E+01  0.76794438313E+01  0.00000000000E+00 0.  1.
</event>
<event>
 7    1  0.2746803E-013  0.5052890E+02  0.7816164E-02  0.1300439E+00
        -11   -1    0    0    0    0  0.00000000000E+00  0.00000000000E+00  0.45593999997E+02  0.45594000000E+02  0.51100000000E-03 0.  1.
         11   -1    0    0    0    0 -0.00000000000E+00 -0.00000000000E+00 -0.45593999997E+02  0.45594000000E+02  0.51100000000E-03 0. -1.
    9900012    2    1    2    0    0  0.12625182277E+02  0.37763254715E+02  0.82282541513E+01  0.50528895231E+02  0.30000107545E+02 0.  0.
         12    1    1    2    0    0 -0.12625182277E+02 -0.37763254715E+02 -0.82282541513E+01  0.40659104769E+02  0.00000000000E+00 0. -1.
         11    1    3    3    0    0  0.89260442708E+01  0.10999437809E+02  0.44129519555E+01  0.14836982296E+02  0.51100000000E-03 0. -1.
        -11    1    3    3    0    0  0.89851183558E+01  0.33136469944E+01  0.63946272981E+01  0.11515375235E+02  0.51100000000E-03 0.  1.
         12    1    3    3    0    0 -0.52859803494E+01  0.23450169912E+02 -0.25793251022E+01  0.24176537700E+02  0.00000000000E+00 0. -1.
</event>
<event>
 7    1  0.2746803E-013  0.5052876E+02  0.7816164E-02  0.1300439E+00
        -11   -1    0    0    0    0  0.00000000000E+00  0.00000000000E+00  0.45593999997E+02  0.45594000000E+02  0.51100000000E-03 0.  1.
         11   -1    0    0    0    0 -0.00000000000E+00 -0.00000000000E+00 -0.45593999997E+02  0.45594000000E+02  0.51100000000E-03 0. -1.
    9900012    2    1    2    0    0 -0.26949473657E+02  0.29298636461E+02  0.82758290250E+01  0.50528762736E+02  0.29999704810E+02 0.  0.
         12    1    1    2    0    0  0.26949473657E+02 -0.29298636461E+02 -0.82758290250E+01  0.40659237264E+02  0.00000000000E+00 0. -1.
         11    1    3    3    0    0 -0.49498210328E+01  0.22758625461E+02 -0.47274387534E+01  0.23765614627E+02  0.51100000000E-03 0. -1.
        -11    1    3    3    0    0 -0.45815903848E+01  0.33609767320E+01  0.33707513745E+01  0.66067465622E+01  0.51100000000E-03 0.  1.
         12    1    3    3    0    0 -0.17418062239E+02  0.31790342676E+01  0.96325164039E+01  0.20156401547E+02  0.00000000000E+00 0. -1.
</event>
<event>
 7    1  0.2746803E-013  0.5052886E+02  0.7816164E-02  0.1300439E+00
        -11   -1    0    0    0    0  0.00000000000E+00  0.00000000000E+00  0.45593999997E+02  0.45594000000E+02  0.51100000000E-03 0.  1.
         11   -1    0    0    0    0 -0.00000000000E+00 -0.00000000000E+00 -0.45593999997E+02  0.45594000000E+02  0.51100000000E-03 0. -1.
    9900012    2    1    2    0    0  0.12404727481E+02  0.79771848569E+01  0.37890011703E+02  0.50528859220E+02  0.29999998085E+02 0.  0.
         12    1    1    2    0    0 -0.12404727481E+02 -0.79771848569E+01 -0.37890011703E+02  0.40659140780E+02  0.00000000000E+00 0. -1.
         11    1    3    3    0    0  0.75584247378E+01  0.14086830893E+02  0.14354641580E+02  0.21485444475E+02  0.51100000000E-03 0. -1.
        -11    1    3    3    0    0  0.13124762043E+00  0.47825930914E+01  0.42557605847E+01  0.64032742430E+01  0.51100000000E-03 0.  1.
         12    1    3    3    0    0  0.47150551230E+01 -0.10892239127E+02  0.19279609538E+02  0.22640140502E+02  0.00000000000E+00 0. -1.
</event>
<event>
 7    1  0.2746803E-013  0.5052887E+02  0.7816164E-02  0.1300439E+00
        -11   -1    0    0    0    0  0.00000000000E+00  0.00000000000E+00  0.45593999997E+02  0.45594000000E+02  0.51100000000E-03 0. -1.
         11   -1    0    0    0    0 -0.00000000000E+00 -0.00000000000E+00 -0.45593999997E+02  0.45594000000E+02  0.51100000000E-03 0.  1.
    9900012    2    1    2    0    0  0.16937536318E+01  0.34077654888E+02 -0.22113560858E+02  0.50528868949E+02  0.30000027657E+02 0.  0.
         12    1    1    2    0    0 -0.16937536318E+01 -0.34077654888E+02  0.22113560858E+02  0.40659131051E+02  0.00000000000E+00 0. -1.
         11    1    3    3    0    0  0.56125764298E+01  0.48683049640E+01 -0.12699225436E+02  0.14712978432E+02  0.51100000000E-03 0. -1.
        -11    1    3    3    0    0 -0.18139275876E+01 -0.90484317917E+00 -0.48868591850E+01  0.52906018020E+01  0.51100000000E-03 0.  1.
         12    1    3    3    0    0 -0.21048952104E+01  0.30114193103E+02 -0.45274762371E+01  0.30525288715E+02  0.00000000000E+00 0. -1.
</event>
<event>
 7    1  0.2746803E-013  0.5052886E+02  0.7816164E-02  0.1300439E+00
        -11   -1    0    0    0    0  0.00000000000E+00  0.00000000000E+00  0.45593999997E+02  0.45594000000E+02  0.51100000000E-03 0.  1.
         11   -1    0    0    0    0 -0.00000000000E+00 -0.00000000000E+00 -0.45593999997E+02  0.45594000000E+02  0.51100000000E-03 0. -1.
    9900012    2    1    2    0    0 -0.43587172736E+01  0.85418585177E+01  0.39512074823E+02  0.50528858100E+02  0.29999994680E+02 0.  0.
         12    1    1    2    0    0  0.43587172736E+01 -0.85418585177E+01 -0.39512074823E+02  0.40659141900E+02  0.00000000000E+00 0. -1.
         11    1    3    3    0    0  0.22222108819E+01  0.81218069114E+01  0.17660412189E+02  0.19565074180E+02  0.51100000000E-03 0. -1.
        -11    1    3    3    0    0 -0.11984544879E+02  0.63584098247E+01  0.11006321721E+02  0.17469911549E+02  0.51100000000E-03 0.  1.
         12    1    3    3    0    0  0.54036167236E+01 -0.59383582184E+01  0.10845340914E+02  0.13493872371E+02  0.00000000000E+00 0. -1.
</event>
<event>
 7    1  0.2746803E-013  0.5052883E+02  0.7816164E-02  0.1300439E+00
        -11   -1    0    0    0    0  0.00000000000E+00  0.00000000000E+00  0.45593999997E+02  0.45594000000E+02  0.51100000000E-03 0.  1.
         11   -1    0    0    0    0 -0.00000000000E+00 -0.00000000000E+00 -0.45593999997E+02  0.45594000000E+02  0.51100000000E-03 0. -1.
    9900012    2    1    2    0    0 -0.35910510792E+02 -0.15136827374E+02 -0.11596543371E+02  0.50528829491E+02  0.29999907722E+02 0.  0.
         12    1    1    2    0    0  0.35910510792E+02  0.15136827374E+02  0.11596543371E+02  0.40659170509E+02  0.00000000000E+00 0. -1.
         11    1    3    3    0    0 -0.35246712146E+01 -0.16242305489E+01 -0.66891036698E+01  0.77334041802E+01  0.51100000000E-03 0. -1.
        -11    1    3    3    0    0 -0.18431257852E+02 -0.15732223638E+02 -0.11937387108E+02  0.27013243749E+02  0.51100000000E-03 0.  1.
        -12    1    3    3    0    0 -0.13954581725E+02  0.22196268128E+01  0.70299474074E+01  0.15782181562E+02  0.00000000000E+00 0.  1.
</event>
<event>
 7    1  0.2746803E-013  0.5052887E+02  0.7816164E-02  0.1300439E+00
        -11   -1    0    0    0    0  0.00000000000E+00  0.00000000000E+00  0.45593999997E+02  0.45594000000E+02  0.51100000000E-03 0.  1.
         11   -1    0    0    0    0 -0.00000000000E+00 -0.00000000000E+00 -0.45593999997E+02  0.45594000000E+02  0.51100000000E-03 0. -1.
    9900012    2    1    2    0    0  0.46723345344E+01  0.23722127794E+02  0.32689368030E+02  0.50528870161E+02  0.30000031341E+02 0.  0.
         12    1    1    2    0    0 -0.46723345344E+01 -0.23722127794E+02 -0.32689368030E+02  0.40659129839E+02  0.00000000000E+00 0. -1.
         11    1    3    3    0    0 -0.48690039850E+01  0.14355732401E+02  0.10358789192E+02  0.18360249627E+02  0.51100000000E-03 0. -1.
        -11    1    3    3    0    0  0.66787822921E+01  0.14105461178E+02  0.96939474569E+01  0.18372337508E+02  0.51100000000E-03 0.  1.
        -12    1    3    3    0    0  0.28625562273E+01 -0.47390657853E+01  0.12636631381E+02  0.13796283026E+02  0.00000000000E+00 0.  1.
</event>
<event>
 7    1  0.2746803E-013  0.5052886E+02  0.7816164E-02  0.1300439E+00
        -11   -1    0    0    0    0  0.00000000000E+00  0.00000000000E+00  0.45593999997E+02  0.45594000000E+02  0.51100000000E-03 0.  1.
         11   -1    0    0    0    0 -0.00000000000E+00 -0.00000000000E+00 -0.45593999997E+02  0.45594000000E+02  0.51100000000E-03 0. -1.
    9900012    2    1    2    0    0  0.97517613079E+01  0.66551701313E+01  0.38907289627E+02  0.50528864198E+02  0.30000013215E+02 0.  0.
         12    1    1    2    0    0 -0.97517613079E+01 -0.66551701313E+01 -0.38907289627E+02  0.40659135802E+02  0.00000000000E+00 0. -1.
         11    1    3    3    0    0  0.77025211105E+00 -0.39262857388E+01  0.16444995562E+01  0.43258972560E+01  0.51100000000E-03 0. -1.
        -11    1    3    3    0    0  0.57979556817E+01  0.79902990197E+01  0.12431638119E+01  0.99502072861E+01  0.51100000000E-03 0.  1.
        -12    1    3    3    0    0  0.31835535152E+01  0.25911568504E+01  0.36019626259E+02  0.36252759655E+02  0.00000000000E+00 0.  1.
</event>
<event>
 7    1  0.2746803E-013  0.5052886E+02  0.7816164E-02  0.1300439E+00
        -11   -1    0    0    0    0  0.00000000000E+00  0.00000000000E+00  0.45593999997E+02  0.45594000000E+02  0.51100000000E-03 0.  1.
         11   -1    0    0    0    0 -0.00000000000E+00 -0.00000000000E+00 -0.45593999997E+02  0.45594000000E+02  0.51100000000E-03 0. -1.
    9900012    2    1    2    0    0 -0.17997891157E+02  0.33274362498E+02  0.14901620339E+02  0.50528861120E+02  0.30000003861E+02 0.  0.
         12    1    1    2    0    0  0.17997891157E+02 -0.33274362498E+02 -0.14901620339E+02  0.40659138880E+02  0.00000000000E+00 0. -1.
         11    1    3    3    0    0 -0.17899115869E+02  0.13867078061E+02  0.10994590489E+02  0.25170522901E+02  0.51100000000E-03 0. -1.
        -11    1    3    3    0    0 -0.59817398244E+01  0.14080661065E+02 -0.20498721137E+01  0.15435290839E+02  0.51100000000E-03 0.  1.
         12    1    3    3    0    0  0.58829645367E+01  0.53266233719E+01  0.59569019643E+01  0.99230473796E+01  0.00000000000E+00 0. -1.
</event>
<event>
 7    1  0.2746803E-013  0.5052882E+02  0.7816164E-02  0.1300439E+00
        -11   -1    0    0    0    0  0.00000000000E+00  0.00000000000E+00  0.45593999997E+02  0.45594000000E+02  0.51100000000E-03 0. -1.
         11   -1    0    0    0    0 -0.00000000000E+00 -0.00000000000E+00 -0.45593999997E+02  0.45594000000E+02  0.51100000000E-03 0.  1.
    9900012    2    1    2    0    0 -0.19657038966E+02  0.35372524729E+02  0.39439013618E+01  0.50528818447E+02  0.29999874151E+02 0.  0.
         12    1    1    2    0    0  0.19657038966E+02 -0.35372524729E+02 -0.39439013618E+01  0.40659181553E+02  0.00000000000E+00 0. -1.
         11    1    3    3    0    0 -0.10243546992E+02  0.55103769522E+01 -0.12344734401E+01  0.11696941227E+02  0.51100000000E-03 0. -1.
        -11    1    3    3    0    0 -0.12112945369E+02  0.24997361603E+02 -0.40349314664E+01  0.28069061345E+02  0.51100000000E-03 0.  1.
         12    1    3    3    0    0  0.26994533946E+01  0.48647861739E+01  0.92133062683E+01  0.10762815874E+02  0.00000000000E+00 0. -1.
</event>
<event>
 7    1  0.2746803E-013  0.5052887E+02  0.7816164E-02  0.1300439E+00
        -11   -1    0    0    0    0  0.00000000000E+00  0.00000000000E+00  0.45593999997E+02  0.45594000000E+02  0.51100000000E-03 0.  1.
         11   -1    0    0    0    0 -0.00000000000E+00 -0.00000000000E+00 -0.45593999997E+02  0.45594000000E+02  0.51100000000E-03 0. -1.
    9900012    2    1    2    0    0  0.72361174531E+01  0.39395571921E+02  0.69851819770E+01  0.50528865109E+02  0.30000015986E+02 0.  0.
         12    1    1    2    0    0 -0.72361174531E+01 -0.39395571921E+02 -0.69851819770E+01  0.40659134891E+02  0.00000000000E+00 0. -1.
         11    1    3    3    0    0 -0.44422414435E+01 -0.83296365110E+00  0.42265290628E+01  0.61879629658E+01  0.51100000000E-03 0. -1.
        -11    1    3    3    0    0  0.15127741519E+01  0.34957215152E+01 -0.41207537131E+01  0.56115208252E+01  0.51100000000E-03 0.  1.
        -12    1    3    3    0    0  0.10165584745E+02  0.36732814057E+02  0.68794066272E+01  0.38729381318E+02  0.00000000000E+00 0.  1.
</event>
<event>
 7    1  0.2746803E-013  0.5052886E+02  0.7816164E-02  0.1300439E+00
        -11   -1    0    0    0    0  0.00000000000E+00  0.00000000000E+00  0.45593999997E+02  0.45594000000E+02  0.51100000000E-03 0. -1.
         11   -1    0    0    0    0 -0.00000000000E+00 -0.00000000000E+00 -0.45593999997E+02  0.45594000000E+02  0.51100000000E-03 0.  1.
    9900012    2    1    2    0    0  0.34877549454E+02  0.17478429766E+02 -0.11455420166E+02  0.50528860631E+02  0.30000002375E+02 0.  0.
         12    1    1    2    0    0 -0.34877549454E+02 -0.17478429766E+02  0.11455420166E+02  0.40659139369E+02  0.00000000000E+00 0. -1.
         11    1    3    3    0    0  0.65521750023E+00 -0.30392808171E+01  0.25788799054E+01  0.40394504188E+01  0.51100000000E-03 0. -1.
        -11    1    3    3    0    0  0.27542527208E+02  0.57840843657E+01 -0.88925785582E+01  0.29514816459E+02  0.51100000000E-03 0.  1.
         12    1    3    3    0    0  0.66798047460E+01  0.14733626218E+02 -0.51417215132E+01  0.16974593753E+02  0.00000000000E+00 0. -1.
</event>
<event>
 7    1  0.2746803E-013  0.5052886E+02  0.7816164E-02  0.1300439E+00
        -11   -1    0    0    0    0  0.00000000000E+00  0.00000000000E+00  0.45593999997E+02  0.45594000000E+02  0.51100000000E-03 0.  1.
         11   -1    0    0    0    0 -0.00000000000E+00 -0.00000000000E+00 -0.45593999997E+02  0.45594000000E+02  0.51100000000E-03 0. -1.
    9900012    2    1    2    0    0 -0.85625603650E+00  0.29396699060E+02  0.28076084052E+02  0.50528860981E+02  0.30000003439E+02 0.  0.
         12    1    1    2    0    0  0.85625603650E+00 -0.29396699060E+02 -0.28076084052E+02  0.40659139019E+02  0.00000000000E+00 0. -1.
         11    1    3    3    0    0  0.64258924331E+01  0.57480420988E+01  0.53727067917E+01  0.10158644598E+02  0.51100000000E-03 0. -1.
        -11    1    3    3    0    0 -0.20076919054E-01  0.25501007733E+02  0.19980482108E+02  0.32396318680E+02  0.51100000000E-03 0.  1.
         12    1    3    3    0    0 -0.72620715505E+01 -0.18523507714E+01  0.27228951525E+01  0.79738977042E+01  0.00000000000E+00 0. -1.
</event>
<event>
 7    1  0.2746803E-013  0.5052886E+02  0.7816164E-02  0.1300439E+00
        -11   -1    0    0    0    0  0.00000000000E+00  0.00000000000E+00  0.45593999997E+02  0.45594000000E+02  0.51100000000E-03 0. -1.
         11   -1    0    0    0    0 -0.00000000000E+00 -0.00000000000E+00 -0.45593999997E+02  0.45594000000E+02  0.51100000000E-03 0.  1.
    9900012    2    1    2    0    0  0.22252081181E+02 -0.22205696328E+02 -0.25785996173E+02  0.50528860008E+02  0.30000000480E+02 0.  0.
         12    1    1    2    0    0 -0.22252081181E+02  0.22205696328E+02  0.25785996173E+02  0.40659139992E+02  0.00000000000E+00 0. -1.
         11    1    3    3    0    0  0.20075420124E+01 -0.34653538953E+01  0.22941221103E+01  0.46153980402E+01  0.51100000000E-03 0. -1.
        -11    1    3    3    0    0  0.90922203088E+00  0.37623529939E+01 -0.11041534866E+02  0.11700319535E+02  0.51100000000E-03 0.  1.
        -12    1    3    3    0    0  0.19335317138E+02 -0.22502695426E+02 -0.17038583417E+02  0.34213142433E+02  0.00000000000E+00 0.  1.
</event>
<event>
 7    1  0.2746803E-013  0.5052884E+02  0.7816164E-02  0.1300439E+00
        -11   -1    0    0    0    0  0.00000000000E+00  0.00000000000E+00  0.45593999997E+02  0.45594000000E+02  0.51100000000E-03 0.  1.
         11   -1    0    0    0    0 -0.00000000000E+00 -0.00000000000E+00 -0.45593999997E+02  0.45594000000E+02  0.51100000000E-03 0. -1.
    9900012    2    1    2    0    0 -0.69545399636E+01  0.39344677530E+02  0.75364542019E+01  0.50528838449E+02  0.29999934951E+02 0.  0.
         12    1    1    2    0    0  0.69545399636E+01 -0.39344677530E+02 -0.75364542019E+01  0.40659161551E+02  0.00000000000E+00 0. -1.
         11    1    3    3    0    0 -0.11948706999E+01  0.13790670001E+02 -0.40837469067E+01  0.14432161450E+02  0.51100000000E-03 0. -1.
        -11    1    3    3    0    0  0.41940369313E+00  0.17992694750E+02 -0.32679433826E+01  0.18291867539E+02  0.51100000000E-03 0.  1.
        -12    1    3    3    0    0 -0.61790729568E+01  0.75613127793E+01  0.14888144491E+02  0.17804809461E+02  0.00000000000E+00 0.  1.
</event>
<event>
 7    1  0.2746803E-013  0.5052884E+02  0.7816164E-02  0.1300439E+00
        -11   -1    0    0    0    0  0.00000000000E+00  0.00000000000E+00  0.45593999997E+02  0.45594000000E+02  0.51100000000E-03 0. -1.
         11   -1    0    0    0    0 -0.00000000000E+00 -0.00000000000E+00 -0.45593999997E+02  0.45594000000E+02  0.51100000000E-03 0.  1.
    9900012    2    1    2    0    0  0.71974639156E+01  0.23982030656E+02 -0.32034767351E+02  0.50528836206E+02  0.29999928132E+02 0.  0.
         12    1    1    2    0    0 -0.71974639156E+01 -0.23982030656E+02  0.32034767351E+02  0.40659163794E+02  0.00000000000E+00 0. -1.
         11    1    3    3    0    0 -0.25556605564E+01 -0.36028355943E+01 -0.12988187078E+02  0.13718776514E+02  0.51100000000E-03 0. -1.
        -11    1    3    3    0    0 -0.15620362552E+01  0.10393624791E+02 -0.37198962302E+01  0.11149216196E+02  0.51100000000E-03 0.  1.
        -12    1    3    3    0    0  0.11315160727E+02  0.17191241460E+02 -0.15326684042E+02  0.25660843496E+02  0.00000000000E+00 0.  1.
</event>
<event>
 7    1  0.2746803E-013  0.5052888E+02  0.7816164E-02  0.1300439E+00
        -11   -1    0    0    0    0  0.00000000000E+00  0.00000000000E+00  0.45593999997E+02  0.45594000000E+02  0.51100000000E-03 0.  1.
         11   -1    0    0    0    0 -0.00000000000E+00 -0.00000000000E+00 -0.45593999997E+02  0.45594000000E+02  0.51100000000E-03 0. -1.
    9900012    2    1    2    0    0 -0.63533889016E+01  0.31862201201E+02  0.24445824854E+02  0.50528883326E+02  0.30000071358E+02 0.  0.
         12    1    1    2    0    0  0.63533889016E+01 -0.31862201201E+02 -0.24445824854E+02  0.40659116674E+02  0.00000000000E+00 0. -1.
         11    1    3    3    0    0  0.15002939529E+01  0.24186233882E+02  0.64326309204E+01  0.25071967058E+02  0.51100000000E-03 0. -1.
        -11    1    3    3    0    0 -0.81577651758E+01  0.45117693340E+01  0.25421706505E+01  0.96627028861E+01  0.51100000000E-03 0.  1.
         12    1    3    3    0    0  0.30408232130E+00  0.31641979855E+01  0.15471023283E+02  0.15794213382E+02  0.00000000000E+00 0. -1.
</event>
<event>
 7    1  0.2746803E-013  0.5052886E+02  0.7816164E-02  0.1300439E+00
        -11   -1    0    0    0    0  0.00000000000E+00  0.00000000000E+00  0.45593999997E+02  0.45594000000E+02  0.51100000000E-03 0.  1.
         11   -1    0    0    0    0 -0.00000000000E+00 -0.00000000000E+00 -0.45593999997E+02  0.45594000000E+02  0.51100000000E-03 0. -1.
    9900012    2    1    2    0    0 -0.30832643975E+02 -0.14134230206E+02  0.22421803099E+02  0.50528860164E+02  0.30000000954E+02 0.  0.
         12    1    1    2    0    0  0.30832643975E+02  0.14134230206E+02 -0.22421803099E+02  0.40659139836E+02  0.00000000000E+00 0. -1.
         11    1    3    3    0    0 -0.12155297204E+02 -0.12356566111E+02  0.10918247921E+02  0.20485216965E+02  0.51100000000E-03 0. -1.
        -11    1    3    3    0    0 -0.14335746052E+02 -0.78347109764E+01 -0.17505693354E-03  0.16336961506E+02  0.51100000000E-03 0.  1.
         12    1    3    3    0    0 -0.43416007192E+01  0.60570468810E+01  0.11503730235E+02  0.13706681693E+02  0.00000000000E+00 0. -1.
</event>
<event>
 7    1  0.2746803E-013  0.5052886E+02  0.7816164E-02  0.1300439E+00
        -11   -1    0    0    0    0  0.00000000000E+00  0.00000000000E+00  0.45593999997E+02  0.45594000000E+02  0.51100000000E-03 0.  1.
         11   -1    0    0    0    0 -0.00000000000E+00 -0.00000000000E+00 -0.45593999997E+02  0.45594000000E+02  0.51100000000E-03 0. -1.
    9900012    2    1    2    0    0  0.15814710145E+02  0.33794525111E+02  0.16155216566E+02  0.50528855804E+02  0.29999987702E+02 0.  0.
         12    1    1    2    0    0 -0.15814710145E+02 -0.33794525111E+02 -0.16155216566E+02  0.40659144196E+02  0.00000000000E+00 0. -1.
         11    1    3    3    0    0 -0.46019693966E+01  0.17429014207E+02  0.30881884108E+01  0.18288946565E+02  0.51100000000E-03 0. -1.
        -11    1    3    3    0    0  0.52013279603E+01 -0.17798538454E+01  0.75178406824E+00  0.55485918761E+01  0.51100000000E-03 0.  1.
        -12    1    3    3    0    0  0.15215351581E+02  0.18145364749E+02  0.12315244087E+02  0.26691317363E+02  0.00000000000E+00 0.  1.
</event>
<event>
 7    1  0.2746803E-013  0.5052886E+02  0.7816164E-02  0.1300439E+00
        -11   -1    0    0    0    0  0.00000000000E+00  0.00000000000E+00  0.45593999997E+02  0.45594000000E+02  0.51100000000E-03 0.  1.
         11   -1    0    0    0    0 -0.00000000000E+00 -0.00000000000E+00 -0.45593999997E+02  0.45594000000E+02  0.51100000000E-03 0. -1.
    9900012    2    1    2    0    0 -0.78402653124E+01 -0.15385499440E+02  0.36810089811E+02  0.50528855087E+02  0.29999985522E+02 0.  0.
         12    1    1    2    0    0  0.78402653124E+01  0.15385499440E+02 -0.36810089811E+02  0.40659144913E+02  0.00000000000E+00 0. -1.
         11    1    3    3    0    0 -0.73557060874E+01 -0.64010967614E+01  0.76473547640E+01  0.12392033205E+02  0.51100000000E-03 0. -1.
        -11    1    3    3    0    0  0.20166248832E+01  0.45110465267E+01 -0.96076675063E+00  0.50338245595E+01  0.51100000000E-03 0.  1.
         12    1    3    3    0    0 -0.25011841082E+01 -0.13495449205E+02  0.30123501798E+02  0.33102997323E+02  0.00000000000E+00 0. -1.
</event>
<event>
 7    1  0.2746803E-013  0.5052885E+02  0.7816164E-02  0.1300439E+00
        -11   -1    0    0    0    0  0.00000000000E+00  0.00000000000E+00  0.45593999997E+02  0.45594000000E+02  0.51100000000E-03 0. -1.
         11   -1    0    0    0    0 -0.00000000000E+00 -0.00000000000E+00 -0.45593999997E+02  0.45594000000E+02  0.51100000000E-03 0.  1.
    9900012    2    1    2    0    0  0.11242632281E+02 -0.31203155723E+02 -0.23518773983E+02  0.50528850509E+02  0.29999971607E+02 0.  0.
         12    1    1    2    0    0 -0.11242632281E+02  0.31203155723E+02  0.23518773983E+02  0.40659149491E+02  0.00000000000E+00 0. -1.
         11    1    3    3    0    0  0.15691404136E+02 -0.17447377830E+02 -0.17529249305E+02  0.29290027968E+02  0.51100000000E-03 0. -1.
        -11    1    3    3    0    0 -0.43644323174E+01 -0.12895369517E+02 -0.10155243139E+02  0.16984339490E+02  0.51100000000E-03 0.  1.
        -12    1    3    3    0    0 -0.84339537421E-01 -0.86040837516E+00  0.41657184615E+01  0.42544830508E+01  0.00000000000E+00 0.  1.
</event>
<event>
 7    1  0.2746803E-013  0.5052886E+02  0.7816164E-02  0.1300439E+00
        -11   -1    0    0    0    0  0.00000000000E+00  0.00000000000E+00  0.45593999997E+02  0.45594000000E+02  0.51100000000E-03 0.  1.
         11   -1    0    0    0    0 -0.00000000000E+00 -0.00000000000E+00 -0.45593999997E+02  0.45594000000E+02  0.51100000000E-03 0. -1.
    9900012    2    1    2    0    0 -0.29955421202E+02 -0.27394934882E+02  0.23142740485E+01  0.50528861040E+02  0.30000003618E+02 0.  0.
         12    1    1    2    0    0  0.29955421202E+02  0.27394934882E+02 -0.23142740485E+01  0.40659138960E+02  0.00000000000E+00 0. -1.
         11    1    3    3    0    0 -0.11129319655E+02 -0.20327304349E+02  0.37925517617E+01  0.23482855601E+02  0.51100000000E-03 0. -1.
        -11    1    3    3    0    0 -0.19597775594E+01  0.20963106475E+01  0.58369610909E+01  0.65042571790E+01  0.51100000000E-03 0.  1.
         12    1    3    3    0    0 -0.16866323987E+02 -0.91639411813E+01 -0.73152388041E+01  0.20541748260E+02  0.00000000000E+00 0. -1.
</event>
<event>
 7    1  0.2746803E-013  0.5052886E+02  0.7816164E-02  0.1300439E+00
        -11   -1    0    0    0    0  0.00000000000E+00  0.00000000000E+00  0.45593999997E+02  0.45594000000E+02  0.51100000000E-03 0. -1.
         11   -1    0    0    0    0 -0.00000000000E+00 -0.00000000000E+00 -0.45593999997E+02  0.45594000000E+02  0.51100000000E-03 0.  1.
    9900012    2    1    2    0    0 -0.20374586207E+02 -0.35185395707E+02 -0.17192901726E+00  0.50528863343E+02  0.30000010616E+02 0.  0.
         12    1    1    2    0    0  0.20374586207E+02  0.35185395707E+02  0.17192901726E+00  0.40659136657E+02  0.00000000000E+00 0. -1.
         11    1    3    3    0    0  0.94724887422E+00  0.20681027236E+01  0.60716224882E+01  0.64837434562E+01  0.51100000000E-03 0. -1.
        -11    1    3    3    0    0 -0.34660100094E+01 -0.45855117274E+01 -0.34661849236E+01  0.67122709550E+01  0.51100000000E-03 0.  1.
         12    1    3    3    0    0 -0.17855825072E+02 -0.32667986703E+02 -0.27773665819E+01  0.37332848931E+02  0.00000000000E+00 0. -1.
</event>
<event>
 7    1  0.2746803E-013  0.5052885E+02  0.7816164E-02  0.1300439E+00
        -11   -1    0    0    0    0  0.00000000000E+00  0.00000000000E+00  0.45593999997E+02  0.45594000000E+02  0.51100000000E-03 0.  1.
         11   -1    0    0    0    0 -0.00000000000E+00 -0.00000000000E+00 -0.45593999997E+02  0.45594000000E+02  0.51100000000E-03 0. -1.
    9900012    2    1    2    0    0 -0.21146680854E+02 -0.12022267467E+00  0.34727076635E+02  0.50528850768E+02  0.29999972395E+02 0.  0.
         12    1    1    2    0    0  0.21146680854E+02  0.12022267467E+00 -0.34727076635E+02  0.40659149232E+02  0.00000000000E+00 0. -1.
         11    1    3    3    0    0 -0.18276088374E+02  0.19346555518E+01  0.92274550684E+01  0.20564635315E+02  0.51100000000E-03 0.  1.
        -11    1    3    3    0    0 -0.84799314224E+01  0.20015681435E+01  0.15872693637E+02  0.18106847200E+02  0.51100000000E-03 0. -1.
         12    1    3    3    0    0  0.56093389426E+01 -0.40564463700E+01  0.96269279298E+01  0.11857368253E+02  0.00000000000E+00 0. -1.
</event>
<event>
 7    1  0.2746803E-013  0.5052886E+02  0.7816164E-02  0.1300439E+00
        -11   -1    0    0    0    0  0.00000000000E+00  0.00000000000E+00  0.45593999997E+02  0.45594000000E+02  0.51100000000E-03 0. -1.
         11   -1    0    0    0    0 -0.00000000000E+00 -0.00000000000E+00 -0.45593999997E+02  0.45594000000E+02  0.51100000000E-03 0.  1.
    9900012    2    1    2    0    0 -0.20209894651E+02  0.35097418632E+02 -0.35912218548E+01  0.50528861902E+02  0.30000006238E+02 0.  0.
         12    1    1    2    0    0  0.20209894651E+02 -0.35097418632E+02  0.35912218548E+01  0.40659138098E+02  0.00000000000E+00 0. -1.
         11    1    3    3    0    0  0.21202504890E+01  0.17448878893E+02  0.72567254829E+01  0.19016279914E+02  0.51100000000E-03 0. -1.
        -11    1    3    3    0    0 -0.50786209242E+01  0.86989965868E+01 -0.48027094183E+01  0.11159343624E+02  0.51100000000E-03 0.  1.
        -12    1    3    3    0    0 -0.17251524216E+02  0.89495431519E+01 -0.60452379194E+01  0.20353238364E+02  0.00000000000E+00 0.  1.
</event>
<event>
 7    1  0.2746803E-013  0.5052886E+02  0.7816164E-02  0.1300439E+00
        -11   -1    0    0    0    0  0.00000000000E+00  0.00000000000E+00  0.45593999997E+02  0.45594000000E+02  0.51100000000E-03 0. -1.
         11   -1    0    0    0    0 -0.00000000000E+00 -0.00000000000E+00 -0.45593999997E+02  0.45594000000E+02  0.51100000000E-03 0.  1.
    9900012    2    1    2    0    0  0.60305685898E+01 -0.17740624291E+02 -0.36084183437E+02  0.50528858321E+02  0.29999995351E+02 0.  0.
         12    1    1    2    0    0 -0.60305685898E+01  0.17740624291E+02  0.36084183437E+02  0.40659141679E+02  0.00000000000E+00 0. -1.
         11    1    3    3    0    0 -0.25277060512E+01  0.22201310348E+01 -0.19367545264E+01  0.38819193770E+01  0.51100000000E-03 0. -1.
        -11    1    3    3    0    0  0.31333130497E+01 -0.13652183940E+02 -0.28914287760E+01  0.14302452155E+02  0.51100000000E-03 0.  1.
        -12    1    3    3    0    0  0.54249615912E+01 -0.63085713860E+01 -0.31256000135E+02  0.32344486789E+02  0.00000000000E+00 0.  1.
</event>
<event>
 7    1  0.2746803E-013  0.5052888E+02  0.7816164E-02  0.1300439E+00
        -11   -1    0    0    0    0  0.00000000000E+00  0.00000000000E+00  0.45593999997E+02  0.45594000000E+02  0.51100000000E-03 0.  1.
         11   -1    0    0    0    0 -0.00000000000E+00 -0.00000000000E+00 -0.45593999997E+02  0.45594000000E+02  0.51100000000E-03 0. -1.
    9900012    2    1    2    0    0  0.13329938761E+02  0.10467688356E+02  0.36958141928E+02  0.50528880215E+02  0.30000061902E+02 0.  0.
         12    1    1    2    0    0 -0.13329938761E+02 -0.10467688356E+02 -0.36958141928E+02  0.40659119785E+02  0.00000000000E+00 0. -1.
         11    1    3    3    0    0  0.12133821217E+02  0.93342901041E+01  0.79834043547E+01  0.17265379649E+02  0.51100000000E-03 0. -1.
        -11    1    3    3    0    0 -0.15912425710E+01 -0.35467871501E+01  0.10967474918E+00  0.38889305496E+01  0.51100000000E-03 0.  1.
         12    1    3    3    0    0  0.27873601150E+01  0.46801854018E+01  0.28865062824E+02  0.29374570016E+02  0.00000000000E+00 0. -1.
</event>
<event>
 7    1  0.2746803E-013  0.5052886E+02  0.7816164E-02  0.1300439E+00
        -11   -1    0    0    0    0  0.00000000000E+00  0.00000000000E+00  0.45593999997E+02  0.45594000000E+02  0.51100000000E-03 0.  1.
         11   -1    0    0    0    0 -0.00000000000E+00 -0.00000000000E+00 -0.45593999997E+02  0.45594000000E+02  0.51100000000E-03 0. -1.
    9900012    2    1    2    0    0 -0.34756400627E+01  0.24798047127E+02  0.32033457767E+02  0.50528860416E+02  0.30000001721E+02 0.  0.
         12    1    1    2    0    0  0.34756400627E+01 -0.24798047127E+02 -0.32033457767E+02  0.40659139584E+02  0.00000000000E+00 0. -1.
         11    1    3    3    0    0 -0.23748174084E+01  0.14824634791E+02  0.50062320596E+01  0.15826304499E+02  0.51100000000E-03 0. -1.
        -11    1    3    3    0    0 -0.62036675010E+01  0.12977690516E+02  0.24173089463E+02  0.28129063191E+02  0.51100000000E-03 0.  1.
         12    1    3    3    0    0  0.51028448467E+01 -0.30042781797E+01  0.28541362448E+01  0.65734927256E+01  0.00000000000E+00 0. -1.
</event>
<event>
 7    1  0.2746803E-013  0.5052886E+02  0.7816164E-02  0.1300439E+00
        -11   -1    0    0    0    0  0.00000000000E+00  0.00000000000E+00  0.45593999997E+02  0.45594000000E+02  0.51100000000E-03 0. -1.
         11   -1    0    0    0    0 -0.00000000000E+00 -0.00000000000E+00 -0.45593999997E+02  0.45594000000E+02  0.51100000000E-03 0.  1.
    9900012    2    1    2    0    0  0.14740172206E+01  0.31024980282E+02 -0.26238211044E+02  0.50528857768E+02  0.29999993672E+02 0.  0.
         12    1    1    2    0    0 -0.14740172206E+01 -0.31024980282E+02  0.26238211044E+02  0.40659142232E+02  0.00000000000E+00 0. -1.
         11    1    3    3    0    0  0.78926708302E+01  0.13410404609E+02 -0.66575339538E+01  0.16925009991E+02  0.51100000000E-03 0.  1.
        -11    1    3    3    0    0 -0.13014230591E+00 -0.32095731921E+01  0.12866001602E+01  0.34602943991E+01  0.51100000000E-03 0. -1.
        -12    1    3    3    0    0 -0.62885113037E+01  0.20824148865E+02 -0.20867277250E+02  0.30143553378E+02  0.00000000000E+00 0.  1.
</event>
<event>
 7    1  0.2746803E-013  0.5052887E+02  0.7816164E-02  0.1300439E+00
        -11   -1    0    0    0    0  0.00000000000E+00  0.00000000000E+00  0.45593999997E+02  0.45594000000E+02  0.51100000000E-03 0.  1.
         11   -1    0    0    0    0 -0.00000000000E+00 -0.00000000000E+00 -0.45593999997E+02  0.45594000000E+02  0.51100000000E-03 0. -1.
    9900012    2    1    2    0    0 -0.25977523805E+01 -0.47956668999E+01  0.40291665729E+02  0.50528867377E+02  0.30000022878E+02 0.  0.
         12    1    1    2    0    0  0.25977523805E+01  0.47956668999E+01 -0.40291665729E+02  0.40659132623E+02  0.00000000000E+00 0. -1.
         11    1    3    3    0    0  0.43876638687E+00  0.53263728624E+01  0.14062309659E+02  0.15043647065E+02  0.51100000000E-03 0. -1.
        -11    1    3    3    0    0  0.57543399596E+01 -0.66497098832E+01  0.24294990979E+02  0.25837524201E+02  0.51100000000E-03 0.  1.
         12    1    3    3    0    0 -0.87908587270E+01 -0.34723298791E+01  0.19343650917E+01  0.96476961113E+01  0.00000000000E+00 0. -1.
</event>
<event>
 7    1  0.2746803E-013  0.5052886E+02  0.7816164E-02  0.1300439E+00
        -11   -1    0    0    0    0  0.00000000000E+00  0.00000000000E+00  0.45593999997E+02  0.45594000000E+02  0.51100000000E-03 0.  1.
         11   -1    0    0    0    0 -0.00000000000E+00 -0.00000000000E+00 -0.45593999997E+02  0.45594000000E+02  0.51100000000E-03 0. -1.
    9900012    2    1    2    0    0 -0.36378330081E+02 -0.69009860893E+01  0.16797598415E+02  0.50528858088E+02  0.29999994645E+02 0.  0.
         12    1    1    2    0    0  0.36378330081E+02  0.69009860893E+01 -0.16797598415E+02  0.40659141912E+02  0.00000000000E+00 0. -1.
         11    1    3    3    0    0 -0.85334910488E+01 -0.19889396630E+01 -0.47900056663E+01  0.99860154720E+01  0.51100000000E-03 0. -1.
        -11    1    3    3    0    0 -0.17672338468E+02  0.63614173133E+01  0.90394504898E+01  0.20844443926E+02  0.51100000000E-03 0.  1.
        -12    1    3    3    0    0 -0.10172500564E+02 -0.11273463740E+02  0.12548153591E+02  0.19698398691E+02  0.00000000000E+00 0.  1.
</event>
<event>
 7    1  0.2746803E-013  0.5052886E+02  0.7816164E-02  0.1300439E+00
        -11   -1    0    0    0    0  0.00000000000E+00  0.00000000000E+00  0.45593999997E+02  0.45594000000E+02  0.51100000000E-03 0.  1.
         11   -1    0    0    0    0 -0.00000000000E+00 -0.00000000000E+00 -0.45593999997E+02  0.45594000000E+02  0.51100000000E-03 0. -1.
    9900012    2    1    2    0    0  0.30390332795E+02 -0.26886249412E+02 -0.25928909713E+01  0.50528858120E+02  0.29999994742E+02 0.  0.
         12    1    1    2    0    0 -0.30390332795E+02  0.26886249412E+02  0.25928909713E+01  0.40659141880E+02  0.00000000000E+00 0. -1.
         11    1    3    3    0    0  0.12863287264E+00 -0.34843862473E+01 -0.35817108763E+01  0.49986145079E+01  0.51100000000E-03 0. -1.
        -11    1    3    3    0    0  0.25299993716E+02 -0.26890120038E+02 -0.46945567728E+01  0.37218370481E+02  0.51100000000E-03 0.  1.
        -12    1    3    3    0    0  0.49617062065E+01  0.34882568736E+01  0.56833766779E+01  0.83118731318E+01  0.00000000000E+00 0.  1.
</event>
<event>
 7    1  0.2746803E-013  0.5052880E+02  0.7816164E-02  0.1300439E+00
        -11   -1    0    0    0    0  0.00000000000E+00  0.00000000000E+00  0.45593999997E+02  0.45594000000E+02  0.51100000000E-03 0.  1.
         11   -1    0    0    0    0 -0.00000000000E+00 -0.00000000000E+00 -0.45593999997E+02  0.45594000000E+02  0.51100000000E-03 0. -1.
    9900012    2    1    2    0    0 -0.40514063848E+01 -0.20775276591E+02  0.34715185937E+02  0.50528804905E+02  0.29999832988E+02 0.  0.
         12    1    1    2    0    0  0.40514063848E+01  0.20775276591E+02 -0.34715185937E+02  0.40659195095E+02  0.00000000000E+00 0. -1.
         11    1    3    3    0    0 -0.97368838387E+01 -0.45742175106E+01  0.40195654374E+01  0.11484218706E+02  0.51100000000E-03 0. -1.
        -11    1    3    3    0    0 -0.21077186191E+01 -0.13149903334E+02  0.97989267850E+01  0.16534249359E+02  0.51100000000E-03 0.  1.
        -12    1    3    3    0    0  0.77931960731E+01 -0.30511557463E+01  0.20896693715E+02  0.22510336840E+02  0.00000000000E+00 0.  1.
</event>
<event>
 7    1  0.2746803E-013  0.5052886E+02  0.7816164E-02  0.1300439E+00
        -11   -1    0    0    0    0  0.00000000000E+00  0.00000000000E+00  0.45593999997E+02  0.45594000000E+02  0.51100000000E-03 0.  1.
         11   -1    0    0    0    0 -0.00000000000E+00 -0.00000000000E+00 -0.45593999997E+02  0.45594000000E+02  0.51100000000E-03 0. -1.
    9900012    2    1    2    0    0 -0.12125051235E+02  0.90167383597E+01  0.37747151657E+02  0.50528857162E+02  0.29999991829E+02 0.  0.
         12    1    1    2    0    0  0.12125051235E+02 -0.90167383597E+01 -0.37747151657E+02  0.40659142838E+02  0.00000000000E+00 0. -1.
         11    1    3    3    0    0 -0.53457926599E+01  0.14234358130E+01 -0.13972559990E+01  0.57057859462E+01  0.51100000000E-03 0. -1.
        -11    1    3    3    0    0  0.19043780489E+01  0.86450683043E+01  0.63818011145E+01  0.10912893634E+02  0.51100000000E-03 0.  1.
         12    1    3    3    0    0 -0.86836366242E+01 -0.10517657577E+01  0.32762606542E+02  0.33910177582E+02  0.00000000000E+00 0. -1.
</event>
<event>
 7    1  0.2746803E-013  0.5052887E+02  0.7816164E-02  0.1300439E+00
        -11   -1    0    0    0    0  0.00000000000E+00  0.00000000000E+00  0.45593999997E+02  0.45594000000E+02  0.51100000000E-03 0.  1.
         11   -1    0    0    0    0 -0.00000000000E+00 -0.00000000000E+00 -0.45593999997E+02  0.45594000000E+02  0.51100000000E-03 0. -1.
    9900012    2    1    2    0    0 -0.65602458948E+01 -0.38816063734E+02  0.10170625780E+02  0.50528865003E+02  0.30000015662E+02 0.  0.
         12    1    1    2    0    0  0.65602458948E+01  0.38816063734E+02 -0.10170625780E+02  0.40659134997E+02  0.00000000000E+00 0. -1.
         11    1    3    3    0    0 -0.40113844801E+01 -0.12836071695E+02  0.11106879489E+01  0.13494056839E+02  0.51100000000E-03 0.  1.
        -11    1    3    3    0    0  0.30710226992E+01 -0.21019699805E+02  0.16174877168E+02  0.26699917827E+02  0.51100000000E-03 0. -1.
         12    1    3    3    0    0 -0.56198841139E+01 -0.49602922336E+01 -0.71149393368E+01  0.10334890336E+02  0.00000000000E+00 0. -1.
</event>
<event>
 7    1  0.2746803E-013  0.5052886E+02  0.7816164E-02  0.1300439E+00
        -11   -1    0    0    0    0  0.00000000000E+00  0.00000000000E+00  0.45593999997E+02  0.45594000000E+02  0.51100000000E-03 0.  1.
         11   -1    0    0    0    0 -0.00000000000E+00 -0.00000000000E+00 -0.45593999997E+02  0.45594000000E+02  0.51100000000E-03 0. -1.
    9900012    2    1    2    0    0  0.19280558680E+02 -0.35541043794E+02  0.42731624348E+01  0.50528860140E+02  0.30000000881E+02 0.  0.
         12    1    1    2    0    0 -0.19280558680E+02  0.35541043794E+02 -0.42731624348E+01  0.40659139860E+02  0.00000000000E+00 0. -1.
         11    1    3    3    0    0  0.10489676344E+02 -0.81890573110E+01  0.15410773796E+01  0.13396599911E+02  0.51100000000E-03 0. -1.
        -11    1    3    3    0    0  0.99671804034E+01 -0.30760558622E+02  0.52168596913E+01  0.32753202549E+02  0.51100000000E-03 0.  1.
         12    1    3    3    0    0 -0.11762980667E+01  0.34085721388E+01 -0.24847746360E+01  0.43790576794E+01  0.00000000000E+00 0. -1.
</event>
<event>
 7    1  0.2746803E-013  0.5052884E+02  0.7816164E-02  0.1300439E+00
        -11   -1    0    0    0    0  0.00000000000E+00  0.00000000000E+00  0.45593999997E+02  0.45594000000E+02  0.51100000000E-03 0.  1.
         11   -1    0    0    0    0 -0.00000000000E+00 -0.00000000000E+00 -0.45593999997E+02  0.45594000000E+02  0.51100000000E-03 0. -1.
    9900012    2    1    2    0    0  0.26058762994E+02  0.18123912483E+02  0.25409282497E+02  0.50528843965E+02  0.29999951715E+02 0.  0.
         12    1    1    2    0    0 -0.26058762994E+02 -0.18123912483E+02 -0.25409282497E+02  0.40659156035E+02  0.00000000000E+00 0. -1.
         11    1    3    3    0    0  0.11241316855E+02 -0.43899088938E+01  0.86073076371E+01  0.14823098521E+02  0.51100000000E-03 0. -1.
        -11    1    3    3    0    0  0.16153282052E+02  0.10180690661E+02  0.10534338082E+02  0.21807046166E+02  0.51100000000E-03 0.  1.
        -12    1    3    3    0    0 -0.13358359134E+01  0.12333130716E+02  0.62676367773E+01  0.13898699278E+02  0.00000000000E+00 0.  1.
</event>
<event>
 7    1  0.2746803E-013  0.5052886E+02  0.7816164E-02  0.1300439E+00
        -11   -1    0    0    0    0  0.00000000000E+00  0.00000000000E+00  0.45593999997E+02  0.45594000000E+02  0.51100000000E-03 0.  1.
         11   -1    0    0    0    0 -0.00000000000E+00 -0.00000000000E+00 -0.45593999997E+02  0.45594000000E+02  0.51100000000E-03 0. -1.
    9900012    2    1    2    0    0 -0.35537671395E+02 -0.11828685464E+02  0.15821551088E+02  0.50528863674E+02  0.30000011624E+02 0.  0.
         12    1    1    2    0    0  0.35537671395E+02  0.11828685464E+02 -0.15821551088E+02  0.40659136326E+02  0.00000000000E+00 0. -1.
         11    1    3    3    0    0 -0.21915521439E+02 -0.50232499436E+01  0.15972918186E+02  0.27580015149E+02  0.51100000000E-03 0. -1.
        -11    1    3    3    0    0 -0.93663880534E+01  0.45532307753E+01  0.20678118903E+01  0.10617767276E+02  0.51100000000E-03 0.  1.
         12    1    3    3    0    0 -0.42557619019E+01 -0.11358666296E+02 -0.22191789892E+01  0.12331081249E+02  0.00000000000E+00 0. -1.
</event>
<event>
 7    1  0.2746803E-013  0.5052888E+02  0.7816164E-02  0.1300439E+00
        -11   -1    0    0    0    0  0.00000000000E+00  0.00000000000E+00  0.45593999997E+02  0.45594000000E+02  0.51100000000E-03 0.  1.
         11   -1    0    0    0    0 -0.00000000000E+00 -0.00000000000E+00 -0.45593999997E+02  0.45594000000E+02  0.51100000000E-03 0. -1.
    9900012    2    1    2    0    0 -0.29430039789E+02 -0.15226472876E+02  0.23562503096E+02  0.50528877157E+02  0.30000052607E+02 0.  0.
         12    1    1    2    0    0  0.29430039789E+02  0.15226472876E+02 -0.23562503096E+02  0.40659122843E+02  0.00000000000E+00 0. -1.
         11    1    3    3    0    0  0.18250002153E+01  0.28354257971E+01 -0.20567841965E+01  0.39497628699E+01  0.51100000000E-03 0. -1.
        -11    1    3    3    0    0 -0.64613476449E+00 -0.59452614629E+01  0.40304203042E+01  0.72116511345E+01  0.51100000000E-03 0.  1.
        -12    1    3    3    0    0 -0.30608905239E+02 -0.12116637210E+02  0.21588866988E+02  0.39367463153E+02  0.00000000000E+00 0.  1.
</event>
<event>
 7    1  0.2746803E-013  0.5052886E+02  0.7816164E-02  0.1300439E+00
        -11   -1    0    0    0    0  0.00000000000E+00  0.00000000000E+00  0.45593999997E+02  0.45594000000E+02  0.51100000000E-03 0. -1.
         11   -1    0    0    0    0 -0.00000000000E+00 -0.00000000000E+00 -0.45593999997E+02  0.45594000000E+02  0.51100000000E-03 0.  1.
    9900012    2    1    2    0    0  0.36959056946E+01  0.40409632097E+02 -0.25626753001E+01  0.50528863390E+02  0.30000010762E+02 0.  0.
         12    1    1    2    0    0 -0.36959056946E+01 -0.40409632097E+02  0.25626753001E+01  0.40659136610E+02  0.00000000000E+00 0. -1.
         11    1    3    3    0    0  0.10124482668E+02  0.31632615914E+02 -0.40694553054E+01  0.33461739428E+02  0.51100000000E-03 0. -1.
        -11    1    3    3    0    0 -0.38784913403E+01  0.12088079444E+02  0.22976962809E+00  0.12697131726E+02  0.51100000000E-03 0.  1.
         12    1    3    3    0    0 -0.25500856327E+01 -0.33110632598E+01  0.12770103772E+01  0.43699922366E+01  0.00000000000E+00 0. -1.
</event>
<event>
 7    1  0.2746803E-013  0.5052885E+02  0.7816164E-02  0.1300439E+00
        -11   -1    0    0    0    0  0.00000000000E+00  0.00000000000E+00  0.45593999997E+02  0.45594000000E+02  0.51100000000E-03 0.  1.
         11   -1    0    0    0    0 -0.00000000000E+00 -0.00000000000E+00 -0.45593999997E+02  0.45594000000E+02  0.51100000000E-03 0. -1.
    9900012    2    1    2    0    0  0.27787694232E+02  0.28540863173E+02 -0.81504158596E+01  0.50528854656E+02  0.29999984213E+02 0.  0.
         12    1    1    2    0    0 -0.27787694232E+02 -0.28540863173E+02  0.81504158596E+01  0.40659145344E+02  0.00000000000E+00 0. -1.
         11    1    3    3    0    0  0.94789003956E+01  0.51936581194E+01 -0.12022086369E+02  0.16166452867E+02  0.51100000000E-03 0.  1.
        -11    1    3    3    0    0 -0.14407736715E+01 -0.17100934336E+01  0.36096476249E+00  0.22650704504E+01  0.51100000000E-03 0. -1.
        -12    1    3    3    0    0  0.19749567508E+02  0.25057298488E+02  0.35107057471E+01  0.32097331339E+02  0.00000000000E+00 0.  1.
</event>
<event>
 7    1  0.2746803E-013  0.5052885E+02  0.7816164E-02  0.1300439E+00
        -11   -1    0    0    0    0  0.00000000000E+00  0.00000000000E+00  0.45593999997E+02  0.45594000000E+02  0.51100000000E-03 0.  1.
         11   -1    0    0    0    0 -0.00000000000E+00 -0.00000000000E+00 -0.45593999997E+02  0.45594000000E+02  0.51100000000E-03 0. -1.
    9900012    2    1    2    0    0  0.84713781872E+00  0.37145279765E+02  0.16512925227E+02  0.50528854032E+02  0.29999982317E+02 0.  0.
         12    1    1    2    0    0 -0.84713781872E+00 -0.37145279765E+02 -0.16512925227E+02  0.40659145968E+02  0.00000000000E+00 0. -1.
         11    1    3    3    0    0  0.43855709351E+00 -0.24599059570E+01  0.15408754826E+01  0.29356033716E+01  0.51100000000E-03 0. -1.
        -11    1    3    3    0    0 -0.79984878851E+01  0.17026233696E+02  0.14055599937E+02  0.23482511198E+02  0.51100000000E-03 0.  1.
         12    1    3    3    0    0  0.84070686103E+01  0.22578952026E+02  0.91644980716E+00  0.24110739463E+02  0.00000000000E+00 0. -1.
</event>
<event>
 7    1  0.2746803E-013  0.5052880E+02  0.7816164E-02  0.1300439E+00
        -11   -1    0    0    0    0  0.00000000000E+00  0.00000000000E+00  0.45593999997E+02  0.45594000000E+02  0.51100000000E-03 0. -1.
         11   -1    0    0    0    0 -0.00000000000E+00 -0.00000000000E+00 -0.45593999997E+02  0.45594000000E+02  0.51100000000E-03 0.  1.
    9900012    2    1    2    0    0  0.81027115591E+01 -0.37618935759E+02 -0.13127535506E+02  0.50528801155E+02  0.29999821589E+02 0.  0.
         12    1    1    2    0    0 -0.81027115591E+01  0.37618935759E+02  0.13127535506E+02  0.40659198845E+02  0.00000000000E+00 0. -1.
         11    1    3    3    0    0 -0.74344782620E+01 -0.24541212311E+02 -0.39665860325E+01  0.25947569708E+02  0.51100000000E-03 0. -1.
        -11    1    3    3    0    0  0.40033821727E+01 -0.10141327190E+02 -0.46555507847E+01  0.11855283184E+02  0.51100000000E-03 0.  1.
         12    1    3    3    0    0  0.11533807648E+02 -0.29363962587E+01 -0.45053986890E+01  0.12725948263E+02  0.00000000000E+00 0. -1.
</event>
<event>
 7    1  0.2746803E-013  0.5052886E+02  0.7816164E-02  0.1300439E+00
        -11   -1    0    0    0    0  0.00000000000E+00  0.00000000000E+00  0.45593999997E+02  0.45594000000E+02  0.51100000000E-03 0. -1.
         11   -1    0    0    0    0 -0.00000000000E+00 -0.00000000000E+00 -0.45593999997E+02  0.45594000000E+02  0.51100000000E-03 0.  1.
    9900012    2    1    2    0    0  0.16867931534E+02 -0.23990097031E+02 -0.28162278027E+02  0.50528858673E+02  0.29999996422E+02 0.  0.
         12    1    1    2    0    0 -0.16867931534E+02  0.23990097031E+02  0.28162278027E+02  0.40659141327E+02  0.00000000000E+00 0. -1.
         11    1    3    3    0    0  0.64878704565E+01  0.25959982182E+01 -0.34720940097E+01  0.78030190876E+01  0.51100000000E-03 0. -1.
        -11    1    3    3    0    0  0.80161555825E+01  0.13978607750E+00 -0.63284522609E+01  0.10214088249E+02  0.51100000000E-03 0.  1.
        -12    1    3    3    0    0  0.23639054947E+01 -0.26725881327E+02 -0.18361731757E+02  0.32511751337E+02  0.00000000000E+00 0.  1.
</event>
<event>
 7    1  0.2746803E-013  0.5052886E+02  0.7816164E-02  0.1300439E+00
        -11   -1    0    0    0    0  0.00000000000E+00  0.00000000000E+00  0.45593999997E+02  0.45594000000E+02  0.51100000000E-03 0.  1.
         11   -1    0    0    0    0 -0.00000000000E+00 -0.00000000000E+00 -0.45593999997E+02  0.45594000000E+02  0.51100000000E-03 0. -1.
    9900012    2    1    2    0    0 -0.28078417247E+02 -0.21261587158E+02  0.20315338099E+02  0.50528861229E+02  0.30000004191E+02 0.  0.
         12    1    1    2    0    0  0.28078417247E+02  0.21261587158E+02 -0.20315338099E+02  0.40659138771E+02  0.00000000000E+00 0. -1.
         11    1    3    3    0    0 -0.27232757924E+01 -0.77460603813E+01 -0.58864258515E+01  0.10102855638E+02  0.51100000000E-03 0. -1.
        -11    1    3    3    0    0 -0.86730168901E+00  0.10270807453E+01  0.42787074131E+01  0.44849129830E+01  0.51100000000E-03 0.  1.
        -12    1    3    3    0    0 -0.24487839766E+02 -0.14542607522E+02  0.21923056537E+02  0.35941092608E+02  0.00000000000E+00 0.  1.
</event>
<event>
 7    1  0.2746803E-013  0.5052886E+02  0.7816164E-02  0.1300439E+00
        -11   -1    0    0    0    0  0.00000000000E+00  0.00000000000E+00  0.45593999997E+02  0.45594000000E+02  0.51100000000E-03 0. -1.
         11   -1    0    0    0    0 -0.00000000000E+00 -0.00000000000E+00 -0.45593999997E+02  0.45594000000E+02  0.51100000000E-03 0.  1.
    9900012    2    1    2    0    0  0.20975122604E+02 -0.11978483704E+02 -0.32706667776E+02  0.50528856415E+02  0.29999989558E+02 0.  0.
         12    1    1    2    0    0 -0.20975122604E+02  0.11978483704E+02  0.32706667776E+02  0.40659143585E+02  0.00000000000E+00 0. -1.
         11    1    3    3    0    0 -0.63427932708E+01 -0.23343110876E+01 -0.97013273278E+01  0.11823526839E+02  0.51100000000E-03 0. -1.
        -11    1    3    3    0    0  0.47886752196E+01 -0.44648428386E+01 -0.10629491865E+02  0.12484083046E+02  0.51100000000E-03 0.  1.
         12    1    3    3    0    0  0.22529240655E+02 -0.51793297778E+01 -0.12375848583E+02  0.26221246530E+02  0.00000000000E+00 0. -1.
</event>
<event>
 7    1  0.2746803E-013  0.5052886E+02  0.7816164E-02  0.1300439E+00
        -11   -1    0    0    0    0  0.00000000000E+00  0.00000000000E+00  0.45593999997E+02  0.45594000000E+02  0.51100000000E-03 0.  1.
         11   -1    0    0    0    0 -0.00000000000E+00 -0.00000000000E+00 -0.45593999997E+02  0.45594000000E+02  0.51100000000E-03 0. -1.
    9900012    2    1    2    0    0  0.74302187555E+00 -0.90981219373E+01  0.39621179255E+02  0.50528858964E+02  0.29999997306E+02 0.  0.
         12    1    1    2    0    0 -0.74302187555E+00  0.90981219373E+01 -0.39621179255E+02  0.40659141036E+02  0.00000000000E+00 0. -1.
         11    1    3    3    0    0  0.50751416165E+01 -0.13279718348E+01 -0.56662626097E+00  0.52765175260E+01  0.51100000000E-03 0. -1.
        -11    1    3    3    0    0 -0.37071404128E+01  0.59761275204E+01  0.12976705910E+02  0.14759806460E+02  0.51100000000E-03 0.  1.
        -12    1    3    3    0    0 -0.62497932819E+00 -0.13746277623E+02  0.27211099605E+02  0.30492534978E+02  0.00000000000E+00 0.  1.
</event>
<event>
 7    1  0.2746803E-013  0.5052886E+02  0.7816164E-02  0.1300439E+00
        -11   -1    0    0    0    0  0.00000000000E+00  0.00000000000E+00  0.45593999997E+02  0.45594000000E+02  0.51100000000E-03 0.  1.
         11   -1    0    0    0    0 -0.00000000000E+00 -0.00000000000E+00 -0.45593999997E+02  0.45594000000E+02  0.51100000000E-03 0. -1.
    9900012    2    1    2    0    0 -0.30718278212E+02 -0.92800565875E+01  0.24968658621E+02  0.50528856134E+02  0.29999988705E+02 0.  0.
         12    1    1    2    0    0  0.30718278212E+02  0.92800565875E+01 -0.24968658621E+02  0.40659143866E+02  0.00000000000E+00 0. -1.
         11    1    3    3    0    0  0.21370117226E-01  0.20535134659E+01 -0.16355234914E+01  0.26253212353E+01  0.51100000000E-03 0. -1.
        -11    1    3    3    0    0 -0.23927431900E+02  0.28186530408E+01  0.15084867694E+02  0.28425693235E+02  0.51100000000E-03 0.  1.
         12    1    3    3    0    0 -0.68122164293E+01 -0.14152223094E+02  0.11519314419E+02  0.19477841664E+02  0.00000000000E+00 0. -1.
</event>
<event>
 7    1  0.2746803E-013  0.5052886E+02  0.7816164E-02  0.1300439E+00
        -11   -1    0    0    0    0  0.00000000000E+00  0.00000000000E+00  0.45593999997E+02  0.45594000000E+02  0.51100000000E-03 0.  1.
         11   -1    0    0    0    0 -0.00000000000E+00 -0.00000000000E+00 -0.45593999997E+02  0.45594000000E+02  0.51100000000E-03 0. -1.
    9900012    2    1    2    0    0 -0.24889997158E+02 -0.98091402508E+01  0.30617550951E+02  0.50528860594E+02  0.30000002263E+02 0.  0.
         12    1    1    2    0    0  0.24889997158E+02  0.98091402508E+01 -0.30617550951E+02  0.40659139406E+02  0.00000000000E+00 0. -1.
         11    1    3    3    0    0  0.33421426352E-01 -0.44118412935E+01 -0.18134335774E+01  0.47701155323E+01  0.51100000000E-03 0. -1.
        -11    1    3    3    0    0 -0.19947770346E+01 -0.85311527128E+01  0.12203745668E+02  0.15023019358E+02  0.51100000000E-03 0.  1.
         12    1    3    3    0    0 -0.22928641549E+02  0.31338537555E+01  0.20227238860E+02  0.30735725704E+02  0.00000000000E+00 0. -1.
</event>
<event>
 7    1  0.2746803E-013  0.5052886E+02  0.7816164E-02  0.1300439E+00
        -11   -1    0    0    0    0  0.00000000000E+00  0.00000000000E+00  0.45593999997E+02  0.45594000000E+02  0.51100000000E-03 0. -1.
         11   -1    0    0    0    0 -0.00000000000E+00 -0.00000000000E+00 -0.45593999997E+02  0.45594000000E+02  0.51100000000E-03 0.  1.
    9900012    2    1    2    0    0 -0.33782742136E+02  0.17939510180E+02 -0.13786427967E+02  0.50528864646E+02  0.30000014577E+02 0.  0.
         12    1    1    2    0    0  0.33782742136E+02 -0.17939510180E+02  0.13786427967E+02  0.40659135354E+02  0.00000000000E+00 0. -1.
         11    1    3    3    0    0 -0.15558812579E+02  0.12280829897E+02 -0.18919145576E+02  0.27401268245E+02  0.51100000000E-03 0.  1.
        -11    1    3    3    0    0 -0.10177287656E+02  0.54447884589E+01 -0.27456062762E+01  0.11864285039E+02  0.51100000000E-03 0. -1.
         12    1    3    3    0    0 -0.80466419006E+01  0.21389182351E+00  0.78783238858E+01  0.11263311362E+02  0.00000000000E+00 0. -1.
</event>
<event>
 7    1  0.2746803E-013  0.5052886E+02  0.7816164E-02  0.1300439E+00
        -11   -1    0    0    0    0  0.00000000000E+00  0.00000000000E+00  0.45593999997E+02  0.45594000000E+02  0.51100000000E-03 0. -1.
         11   -1    0    0    0    0 -0.00000000000E+00 -0.00000000000E+00 -0.45593999997E+02  0.45594000000E+02  0.51100000000E-03 0.  1.
    9900012    2    1    2    0    0  0.16029637531E+02  0.16609980494E+02 -0.33471260220E+02  0.50528855984E+02  0.29999988249E+02 0.  0.
         12    1    1    2    0    0 -0.16029637531E+02 -0.16609980494E+02  0.33471260220E+02  0.40659144016E+02  0.00000000000E+00 0. -1.
         11    1    3    3    0    0 -0.53675492939E+00  0.12587162403E+02 -0.14672208141E+02  0.19339039666E+02  0.51100000000E-03 0. -1.
        -11    1    3    3    0    0 -0.48945345822E+00 -0.49164104941E+01 -0.11586066252E+01  0.50747439746E+01  0.51100000000E-03 0.  1.
        -12    1    3    3    0    0  0.17055845918E+02  0.89392285853E+01 -0.17640445454E+02  0.26115072344E+02  0.00000000000E+00 0.  1.
</event>
<event>
 7    1  0.2746803E-013  0.5052886E+02  0.7816164E-02  0.1300439E+00
        -11   -1    0    0    0    0  0.00000000000E+00  0.00000000000E+00  0.45593999997E+02  0.45594000000E+02  0.51100000000E-03 0.  1.
         11   -1    0    0    0    0 -0.00000000000E+00 -0.00000000000E+00 -0.45593999997E+02  0.45594000000E+02  0.51100000000E-03 0. -1.
    9900012    2    1    2    0    0  0.17948025467E+01  0.40598842682E+02 -0.12955919666E+01  0.50528857094E+02  0.29999991622E+02 0.  0.
         12    1    1    2    0    0 -0.17948025467E+01 -0.40598842682E+02  0.12955919666E+01  0.40659142906E+02  0.00000000000E+00 0. -1.
         11    1    3    3    0    0  0.10758967605E+02  0.13484243709E+02 -0.67523031574E+01  0.18524951026E+02  0.51100000000E-03 0. -1.
        -11    1    3    3    0    0 -0.11979500740E+01 -0.14301579200E+01  0.90459094870E+00  0.20733357426E+01  0.51100000000E-03 0.  1.
        -12    1    3    3    0    0 -0.77662149840E+01  0.28544756894E+02  0.45521202422E+01  0.29930570325E+02  0.00000000000E+00 0.  1.
</event>
<event>
 7    1  0.2746803E-013  0.5052886E+02  0.7816164E-02  0.1300439E+00
        -11   -1    0    0    0    0  0.00000000000E+00  0.00000000000E+00  0.45593999997E+02  0.45594000000E+02  0.51100000000E-03 0.  1.
         11   -1    0    0    0    0 -0.00000000000E+00 -0.00000000000E+00 -0.45593999997E+02  0.45594000000E+02  0.51100000000E-03 0. -1.
    9900012    2    1    2    0    0 -0.31039760517E+02  0.91193967917E+01  0.24627934898E+02  0.50528864395E+02  0.30000013814E+02 0.  0.
         12    1    1    2    0    0  0.31039760517E+02 -0.91193967917E+01 -0.24627934898E+02  0.40659135605E+02  0.00000000000E+00 0. -1.
         11    1    3    3    0    0 -0.13173788510E+02  0.16375390936E+02  0.11685091839E+02  0.24046694233E+02  0.51100000000E-03 0. -1.
        -11    1    3    3    0    0 -0.40119114265E+01 -0.28609418653E+01 -0.22847979670E+01  0.54314568636E+01  0.51100000000E-03 0.  1.
        -12    1    3    3    0    0 -0.13854060581E+02 -0.43950522790E+01  0.15227641026E+02  0.21050713298E+02  0.00000000000E+00 0.  1.
</event>
<event>
 7    1  0.2746803E-013  0.5052886E+02  0.7816164E-02  0.1300439E+00
        -11   -1    0    0    0    0  0.00000000000E+00  0.00000000000E+00  0.45593999997E+02  0.45594000000E+02  0.51100000000E-03 0. -1.
         11   -1    0    0    0    0 -0.00000000000E+00 -0.00000000000E+00 -0.45593999997E+02  0.45594000000E+02  0.51100000000E-03 0.  1.
    9900012    2    1    2    0    0 -0.23430042113E+02  0.31134197425E+02 -0.11612930126E+02  0.50528864879E+02  0.30000015285E+02 0.  0.
         12    1    1    2    0    0  0.23430042113E+02 -0.31134197425E+02  0.11612930126E+02  0.40659135121E+02  0.00000000000E+00 0. -1.
         11    1    3    3    0    0  0.51453330531E+01  0.93348556676E+01  0.49645283378E+00  0.10670541141E+02  0.51100000000E-03 0. -1.
        -11    1    3    3    0    0 -0.15580483199E+02  0.18392454050E+02 -0.48478370583E+01  0.24587300525E+02  0.51100000000E-03 0.  1.
        -12    1    3    3    0    0 -0.12994891967E+02  0.34068877071E+01 -0.72615459011E+01  0.15271023212E+02  0.00000000000E+00 0.  1.
</event>
<event>
 7    1  0.2746803E-013  0.5052886E+02  0.7816164E-02  0.1300439E+00
        -11   -1    0    0    0    0  0.00000000000E+00  0.00000000000E+00  0.45593999997E+02  0.45594000000E+02  0.51100000000E-03 0.  1.
         11   -1    0    0    0    0 -0.00000000000E+00 -0.00000000000E+00 -0.45593999997E+02  0.45594000000E+02  0.51100000000E-03 0. -1.
    9900012    2    1    2    0    0 -0.25937507356E+02  0.46411257769E+01  0.30965652715E+02  0.50528856079E+02  0.29999988538E+02 0.  0.
         12    1    1    2    0    0  0.25937507356E+02 -0.46411257769E+01 -0.30965652715E+02  0.40659143921E+02  0.00000000000E+00 0. -1.
         11    1    3    3    0    0 -0.68153977047E+01 -0.28996949488E+01 -0.19277011114E+01  0.76533592954E+01  0.51100000000E-03 0. -1.
        -11    1    3    3    0    0 -0.16109720285E+02 -0.13388413201E+01  0.12515769663E+02  0.20444071861E+02  0.51100000000E-03 0.  1.
         12    1    3    3    0    0 -0.30123893667E+01  0.88796620458E+01  0.20377584163E+02  0.22431424923E+02  0.00000000000E+00 0. -1.
</event>
<event>
 7    1  0.2746803E-013  0.5052891E+02  0.7816164E-02  0.1300439E+00
        -11   -1    0    0    0    0  0.00000000000E+00  0.00000000000E+00  0.45593999997E+02  0.45594000000E+02  0.51100000000E-03 0.  1.
         11   -1    0    0    0    0 -0.00000000000E+00 -0.00000000000E+00 -0.45593999997E+02  0.45594000000E+02  0.51100000000E-03 0. -1.
    9900012    2    1    2    0    0 -0.14264668701E+00  0.40648598008E+02  0.91262477401E+00  0.50528908125E+02  0.30000146738E+02 0.  0.
         12    1    1    2    0    0  0.14264668701E+00 -0.40648598008E+02 -0.91262477401E+00  0.40659091875E+02  0.00000000000E+00 0. -1.
         11    1    3    3    0    0 -0.30563363945E+01  0.31280675350E+02  0.43734282463E+01  0.31732455269E+02  0.51100000000E-03 0.  1.
        -11    1    3    3    0    0 -0.64340184673E+01  0.30524092424E+01 -0.53162720473E+00  0.71411780237E+01  0.51100000000E-03 0. -1.
        -12    1    3    3    0    0  0.93477081747E+01  0.63155134158E+01 -0.29291762675E+01  0.11655274833E+02  0.00000000000E+00 0.  1.
</event>
<event>
 7    1  0.2746803E-013  0.5052886E+02  0.7816164E-02  0.1300439E+00
        -11   -1    0    0    0    0  0.00000000000E+00  0.00000000000E+00  0.45593999997E+02  0.45594000000E+02  0.51100000000E-03 0.  1.
         11   -1    0    0    0    0 -0.00000000000E+00 -0.00000000000E+00 -0.45593999997E+02  0.45594000000E+02  0.51100000000E-03 0. -1.
    9900012    2    1    2    0    0  0.30694831808E+02 -0.16893523764E+02 -0.20630113784E+02  0.50528862778E+02  0.30000008900E+02 0.  0.
         12    1    1    2    0    0 -0.30694831808E+02  0.16893523764E+02  0.20630113784E+02  0.40659137222E+02  0.00000000000E+00 0. -1.
         11    1    3    3    0    0  0.14921448268E+02  0.22668927630E+01 -0.50725653587E+00  0.15101183088E+02  0.51100000000E-03 0. -1.
        -11    1    3    3    0    0  0.17592785644E+02 -0.13372232941E+02 -0.11576863578E+02  0.24946873374E+02  0.51100000000E-03 0.  1.
        -12    1    3    3    0    0 -0.18194021033E+01 -0.57881835859E+01 -0.85459936693E+01  0.10480806316E+02  0.00000000000E+00 0.  1.
</event>
<event>
 7    1  0.2746803E-013  0.5052881E+02  0.7816164E-02  0.1300439E+00
        -11   -1    0    0    0    0  0.00000000000E+00  0.00000000000E+00  0.45593999997E+02  0.45594000000E+02  0.51100000000E-03 0. -1.
         11   -1    0    0    0    0 -0.00000000000E+00 -0.00000000000E+00 -0.45593999997E+02  0.45594000000E+02  0.51100000000E-03 0.  1.
    9900012    2    1    2    0    0  0.33085452758E+02  0.22914895820E+02 -0.57818463864E+01  0.50528814294E+02  0.29999861529E+02 0.  0.
         12    1    1    2    0    0 -0.33085452758E+02 -0.22914895820E+02  0.57818463864E+01  0.40659185706E+02  0.00000000000E+00 0. -1.
         11    1    3    3    0    0  0.84379740119E+01 -0.21114588572E+01 -0.79402158301E+01  0.11777295599E+02  0.51100000000E-03 0. -1.
        -11    1    3    3    0    0  0.55576833534E+01  0.90517905469E+01 -0.64338231752E+01  0.12418407195E+02  0.51100000000E-03 0.  1.
        -12    1    3    3    0    0  0.19089795392E+02  0.15974564130E+02  0.85921926189E+01  0.26333111500E+02  0.00000000000E+00 0.  1.
</event>
<event>
 7    1  0.2746803E-013  0.5052886E+02  0.7816164E-02  0.1300439E+00
        -11   -1    0    0    0    0  0.00000000000E+00  0.00000000000E+00  0.45593999997E+02  0.45594000000E+02  0.51100000000E-03 0. -1.
         11   -1    0    0    0    0 -0.00000000000E+00 -0.00000000000E+00 -0.45593999997E+02  0.45594000000E+02  0.51100000000E-03 0.  1.
    9900012    2    1    2    0    0 -0.83445387444E+00  0.18011878410E+02 -0.36442305315E+02  0.50528859652E+02  0.29999999398E+02 0.  0.
         12    1    1    2    0    0  0.83445387444E+00 -0.18011878410E+02  0.36442305315E+02  0.40659140348E+02  0.00000000000E+00 0. -1.
         11    1    3    3    0    0 -0.30498522852E+01 -0.37400895034E+01 -0.80684731657E+01  0.94016024135E+01  0.51100000000E-03 0. -1.
        -11    1    3    3    0    0  0.60845877820E+01  0.37642446160E+01 -0.19357937672E+02  0.20637865616E+02  0.51100000000E-03 0.  1.
         12    1    3    3    0    0 -0.38691893713E+01  0.17987723298E+02 -0.90158944777E+01  0.20489391622E+02  0.00000000000E+00 0. -1.
</event>
<event>
 7    1  0.2746803E-013  0.5052887E+02  0.7816164E-02  0.1300439E+00
        -11   -1    0    0    0    0  0.00000000000E+00  0.00000000000E+00  0.45593999997E+02  0.45594000000E+02  0.51100000000E-03 0.  1.
         11   -1    0    0    0    0 -0.00000000000E+00 -0.00000000000E+00 -0.45593999997E+02  0.45594000000E+02  0.51100000000E-03 0. -1.
    9900012    2    1    2    0    0 -0.38112125335E+01 -0.23452696174E+02  0.32994092856E+02  0.50528874798E+02  0.30000045435E+02 0.  0.
         12    1    1    2    0    0  0.38112125335E+01  0.23452696174E+02 -0.32994092856E+02  0.40659125202E+02  0.00000000000E+00 0. -1.
         11    1    3    3    0    0 -0.37599319895E+01 -0.33343470313E+01 -0.12875907850E+01  0.51877595339E+01  0.51100000000E-03 0. -1.
        -11    1    3    3    0    0  0.71073194175E+01  0.11543023001E+01  0.74795024958E+01  0.10382165523E+02  0.51100000000E-03 0.  1.
        -12    1    3    3    0    0 -0.71585999615E+01 -0.21272651443E+02  0.26802181145E+02  0.34958949741E+02  0.00000000000E+00 0.  1.
</event>
<event>
 7    1  0.2746803E-013  0.5052887E+02  0.7816164E-02  0.1300439E+00
        -11   -1    0    0    0    0  0.00000000000E+00  0.00000000000E+00  0.45593999997E+02  0.45594000000E+02  0.51100000000E-03 0. -1.
         11   -1    0    0    0    0 -0.00000000000E+00 -0.00000000000E+00 -0.45593999997E+02  0.45594000000E+02  0.51100000000E-03 0.  1.
    9900012    2    1    2    0    0  0.16732147588E+02 -0.47728943488E+01 -0.36748051300E+02  0.50528873623E+02  0.30000041864E+02 0.  0.
         12    1    1    2    0    0 -0.16732147588E+02  0.47728943488E+01  0.36748051300E+02  0.40659126377E+02  0.00000000000E+00 0. -1.
         11    1    3    3    0    0  0.38899795830E+01  0.43053061055E+01 -0.48352919480E+01  0.75529894944E+01  0.51100000000E-03 0. -1.
        -11    1    3    3    0    0  0.35431599863E+01 -0.35746357827E+01 -0.31773225548E+02  0.32169393305E+02  0.51100000000E-03 0.  1.
        -12    1    3    3    0    0  0.92990080188E+01 -0.55035646717E+01 -0.13953380447E+00  0.10806490823E+02  0.00000000000E+00 0.  1.
</event>
<event>
 7    1  0.2746803E-013  0.5052886E+02  0.7816164E-02  0.1300439E+00
        -11   -1    0    0    0    0  0.00000000000E+00  0.00000000000E+00  0.45593999997E+02  0.45594000000E+02  0.51100000000E-03 0.  1.
         11   -1    0    0    0    0 -0.00000000000E+00 -0.00000000000E+00 -0.45593999997E+02  0.45594000000E+02  0.51100000000E-03 0. -1.
    9900012    2    1    2    0    0 -0.26411574294E+02  0.16136023699E+02  0.26367079447E+02  0.50528863313E+02  0.30000010527E+02 0.  0.
         12    1    1    2    0    0  0.26411574294E+02 -0.16136023699E+02 -0.26367079447E+02  0.40659136687E+02  0.00000000000E+00 0. -1.
         11    1    3    3    0    0 -0.97771995209E+00  0.64655057783E+01  0.13687594184E+02  0.15169341980E+02  0.51100000000E-03 0. -1.
        -11    1    3    3    0    0  0.26248528979E+01  0.17627464961E+01  0.36767867930E+01  0.48493184395E+01  0.51100000000E-03 0.  1.
         12    1    3    3    0    0 -0.28058707240E+02  0.79077714249E+01  0.90026984700E+01  0.30510202894E+02  0.00000000000E+00 0. -1.
</event>
<event>
 7    1  0.2746803E-013  0.5052887E+02  0.7816164E-02  0.1300439E+00
        -11   -1    0    0    0    0  0.00000000000E+00  0.00000000000E+00  0.45593999997E+02  0.45594000000E+02  0.51100000000E-03 0.  1.
         11   -1    0    0    0    0 -0.00000000000E+00 -0.00000000000E+00 -0.45593999997E+02  0.45594000000E+02  0.51100000000E-03 0. -1.
    9900012    2    1    2    0    0  0.86622646862E+01 -0.29765983907E+02  0.26308106628E+02  0.50528866932E+02  0.30000021528E+02 0.  0.
         12    1    1    2    0    0 -0.86622646862E+01  0.29765983907E+02 -0.26308106628E+02  0.40659133068E+02  0.00000000000E+00 0. -1.
         11    1    3    3    0    0 -0.62625201381E+01  0.35193511185E+00  0.24906313406E+01  0.67487970438E+01  0.51100000000E-03 0. -1.
        -11    1    3    3    0    0  0.24839524275E+01 -0.38803855028E+01  0.11217095145E+02  0.12126443628E+02  0.51100000000E-03 0.  1.
        -12    1    3    3    0    0  0.12440832397E+02 -0.26237533516E+02  0.12600380143E+02  0.31653626261E+02  0.00000000000E+00 0.  1.
</event>
<event>
 7    1  0.2746803E-013  0.5052886E+02  0.7816164E-02  0.1300439E+00
        -11   -1    0    0    0    0  0.00000000000E+00  0.00000000000E+00  0.45593999997E+02  0.45594000000E+02  0.51100000000E-03 0. -1.
         11   -1    0    0    0    0 -0.00000000000E+00 -0.00000000000E+00 -0.45593999997E+02  0.45594000000E+02  0.51100000000E-03 0.  1.
    9900012    2    1    2    0    0 -0.16559817071E+02 -0.34708666871E+02 -0.13200247833E+02  0.50528860311E+02  0.30000001403E+02 0.  0.
         12    1    1    2    0    0  0.16559817071E+02  0.34708666871E+02  0.13200247833E+02  0.40659139689E+02  0.00000000000E+00 0. -1.
         11    1    3    3    0    0 -0.32122304796E+01 -0.24001294319E+01  0.52503077531E+01  0.66064194317E+01  0.51100000000E-03 0. -1.
        -11    1    3    3    0    0 -0.86124574166E+00 -0.25655373120E+02 -0.10934219008E+02  0.27901560167E+02  0.51100000000E-03 0.  1.
        -12    1    3    3    0    0 -0.12486340850E+02 -0.66531643184E+01 -0.75163365778E+01  0.16020880713E+02  0.00000000000E+00 0.  1.
</event>
<event>
 7    1  0.2746803E-013  0.5052887E+02  0.7816164E-02  0.1300439E+00
        -11   -1    0    0    0    0  0.00000000000E+00  0.00000000000E+00  0.45593999997E+02  0.45594000000E+02  0.51100000000E-03 0.  1.
         11   -1    0    0    0    0 -0.00000000000E+00 -0.00000000000E+00 -0.45593999997E+02  0.45594000000E+02  0.51100000000E-03 0. -1.
    9900012    2    1    2    0    0 -0.15559723751E+02  0.18209145530E+02  0.32855550100E+02  0.50528866260E+02  0.30000019483E+02 0.  0.
         12    1    1    2    0    0  0.15559723751E+02 -0.18209145530E+02 -0.32855550100E+02  0.40659133740E+02  0.00000000000E+00 0. -1.
         11    1    3    3    0    0  0.32154659581E+01  0.15461744590E+00  0.30021254621E+01  0.44018047928E+01  0.51100000000E-03 0. -1.
        -11    1    3    3    0    0 -0.75430568046E+01  0.72238645137E+01  0.28630338505E+02  0.30475862706E+02  0.51100000000E-03 0.  1.
         12    1    3    3    0    0 -0.11232132905E+02  0.10830663571E+02  0.12230861325E+01  0.15651198761E+02  0.00000000000E+00 0. -1.
</event>
<event>
 7    1  0.2746803E-013  0.5052887E+02  0.7816164E-02  0.1300439E+00
        -11   -1    0    0    0    0  0.00000000000E+00  0.00000000000E+00  0.45593999997E+02  0.45594000000E+02  0.51100000000E-03 0.  1.
         11   -1    0    0    0    0 -0.00000000000E+00 -0.00000000000E+00 -0.45593999997E+02  0.45594000000E+02  0.51100000000E-03 0. -1.
    9900012    2    1    2    0    0  0.83949552354E+01  0.37615565470E+02  0.12952163429E+02  0.50528873392E+02  0.30000041163E+02 0.  0.
         12    1    1    2    0    0 -0.83949552354E+01 -0.37615565470E+02 -0.12952163429E+02  0.40659126608E+02  0.00000000000E+00 0. -1.
         11    1    3    3    0    0  0.18284804174E+01 -0.30049846901E+01  0.38830353939E+00  0.35389339531E+01  0.51100000000E-03 0. -1.
        -11    1    3    3    0    0  0.28183871190E+01  0.15288925837E+02  0.14566423067E+02  0.21304347923E+02  0.51100000000E-03 0.  1.
        -12    1    3    3    0    0  0.37480876991E+01  0.25331624323E+02 -0.20025631774E+01  0.25685591516E+02  0.00000000000E+00 0.  1.
</event>
<event>
 7    1  0.2746803E-013  0.5052886E+02  0.7816164E-02  0.1300439E+00
        -11   -1    0    0    0    0  0.00000000000E+00  0.00000000000E+00  0.45593999997E+02  0.45594000000E+02  0.51100000000E-03 0. -1.
         11   -1    0    0    0    0 -0.00000000000E+00 -0.00000000000E+00 -0.45593999997E+02  0.45594000000E+02  0.51100000000E-03 0.  1.
    9900012    2    1    2    0    0 -0.13602546561E+02 -0.40247475844E+01 -0.38104305785E+02  0.50528856066E+02  0.29999988498E+02 0.  0.
         12    1    1    2    0    0  0.13602546561E+02  0.40247475844E+01  0.38104305785E+02  0.40659143934E+02  0.00000000000E+00 0. -1.
         11    1    3    3    0    0 -0.21481863333E+01  0.26677473265E+01  0.31428012478E+01  0.46485245256E+01  0.51100000000E-03 0. -1.
        -11    1    3    3    0    0 -0.71537958489E+01  0.34830612069E+01 -0.10264844645E+02  0.12987515015E+02  0.51100000000E-03 0.  1.
        -12    1    3    3    0    0 -0.43005643794E+01 -0.10175556118E+02 -0.30982262388E+02  0.32892816525E+02  0.00000000000E+00 0.  1.
</event>
<event>
 7    1  0.2746803E-013  0.5052882E+02  0.7816164E-02  0.1300439E+00
        -11   -1    0    0    0    0  0.00000000000E+00  0.00000000000E+00  0.45593999997E+02  0.45594000000E+02  0.51100000000E-03 0. -1.
         11   -1    0    0    0    0 -0.00000000000E+00 -0.00000000000E+00 -0.45593999997E+02  0.45594000000E+02  0.51100000000E-03 0.  1.
    9900012    2    1    2    0    0 -0.21927559251E+02  0.34161733783E+02  0.23079818936E+01  0.50528822805E+02  0.29999887397E+02 0.  0.
         12    1    1    2    0    0  0.21927559251E+02 -0.34161733783E+02 -0.23079818936E+01  0.40659177195E+02  0.00000000000E+00 0. -1.
         11    1    3    3    0    0  0.26528296704E+00  0.72599122464E+01 -0.13064052788E+01  0.73812868723E+01  0.51100000000E-03 0. -1.
        -11    1    3    3    0    0 -0.24585205173E+02  0.30047379483E+02  0.45411994416E+01  0.39088359134E+02  0.51100000000E-03 0.  1.
         12    1    3    3    0    0  0.23923629550E+01 -0.31455579458E+01 -0.92681226917E+00  0.40591767985E+01  0.00000000000E+00 0. -1.
</event>
<event>
 7    1  0.2746803E-013  0.5052887E+02  0.7816164E-02  0.1300439E+00
        -11   -1    0    0    0    0  0.00000000000E+00  0.00000000000E+00  0.45593999997E+02  0.45594000000E+02  0.51100000000E-03 0.  1.
         11   -1    0    0    0    0 -0.00000000000E+00 -0.00000000000E+00 -0.45593999997E+02  0.45594000000E+02  0.51100000000E-03 0. -1.
    9900012    2    1    2    0    0 -0.24427687696E+01  0.40371471654E+02  0.41643959076E+01  0.50528867741E+02  0.30000023986E+02 0.  0.
         12    1    1    2    0    0  0.24427687696E+01 -0.40371471654E+02 -0.41643959076E+01  0.40659132259E+02  0.00000000000E+00 0. -1.
         11    1    3    3    0    0 -0.65603354714E+01 -0.15172608754E+01  0.42833871584E+01  0.79804440899E+01  0.51100000000E-03 0. -1.
        -11    1    3    3    0    0 -0.91791293322E-01  0.11523210783E+02  0.24634742368E+01  0.11783951713E+02  0.51100000000E-03 0.  1.
        -12    1    3    3    0    0  0.42093579952E+01  0.30365521746E+02 -0.25824654876E+01  0.30764471939E+02  0.00000000000E+00 0.  1.
</event>
<event>
 7    1  0.2746803E-013  0.5052886E+02  0.7816164E-02  0.1300439E+00
        -11   -1    0    0    0    0  0.00000000000E+00  0.00000000000E+00  0.45593999997E+02  0.45594000000E+02  0.51100000000E-03 0. -1.
         11   -1    0    0    0    0 -0.00000000000E+00 -0.00000000000E+00 -0.45593999997E+02  0.45594000000E+02  0.51100000000E-03 0.  1.
    9900012    2    1    2    0    0  0.17399203349E+02 -0.18989889607E+01 -0.36699148729E+02  0.50528856457E+02  0.29999989686E+02 0.  0.
         12    1    1    2    0    0 -0.17399203349E+02  0.18989889607E+01  0.36699148729E+02  0.40659143543E+02  0.00000000000E+00 0. -1.
         11    1    3    3    0    0  0.88185067212E+01  0.12115924379E+02 -0.18529835373E+02  0.23830998375E+02  0.51100000000E-03 0. -1.
        -11    1    3    3    0    0 -0.92637969247E+00 -0.55609646794E+01 -0.10290516448E+02  0.11733594357E+02  0.51100000000E-03 0.  1.
        -12    1    3    3    0    0  0.95070763200E+01 -0.84539486606E+01 -0.78787969072E+01  0.14964263724E+02  0.00000000000E+00 0.  1.
</event>
<event>
 7    1  0.2746803E-013  0.5052885E+02  0.7816164E-02  0.1300439E+00
        -11   -1    0    0    0    0  0.00000000000E+00  0.00000000000E+00  0.45593999997E+02  0.45594000000E+02  0.51100000000E-03 0.  1.
         11   -1    0    0    0    0 -0.00000000000E+00 -0.00000000000E+00 -0.45593999997E+02  0.45594000000E+02  0.51100000000E-03 0. -1.
    9900012    2    1    2    0    0  0.38046259440E+01  0.31306939342E+02  0.25662556799E+02  0.50528850341E+02  0.29999971097E+02 0.  0.
         12    1    1    2    0    0 -0.38046259440E+01 -0.31306939342E+02 -0.25662556799E+02  0.40659149659E+02  0.00000000000E+00 0. -1.
         11    1    3    3    0    0  0.88572622180E+00  0.19269533987E+02  0.13572394635E+02  0.23586210960E+02  0.51100000000E-03 0. -1.
        -11    1    3    3    0    0  0.56328847151E+01  0.11938408534E+02 -0.13142953386E+01  0.13265834351E+02  0.51100000000E-03 0.  1.
         12    1    3    3    0    0 -0.27139849929E+01  0.98996820908E-01  0.13404457502E+02  0.13676805030E+02  0.00000000000E+00 0. -1.
</event>
<event>
 7    1  0.2746803E-013  0.5052887E+02  0.7816164E-02  0.1300439E+00
        -11   -1    0    0    0    0  0.00000000000E+00  0.00000000000E+00  0.45593999997E+02  0.45594000000E+02  0.51100000000E-03 0.  1.
         11   -1    0    0    0    0 -0.00000000000E+00 -0.00000000000E+00 -0.45593999997E+02  0.45594000000E+02  0.51100000000E-03 0. -1.
    9900012    2    1    2    0    0  0.49611360166E+01 -0.15782223378E+02  0.37141268029E+02  0.50528865280E+02  0.30000016506E+02 0.  0.
         12    1    1    2    0    0 -0.49611360166E+01  0.15782223378E+02 -0.37141268029E+02  0.40659134720E+02  0.00000000000E+00 0. -1.
         11    1    3    3    0    0 -0.85060914109E+01 -0.12716621311E+01  0.55916816402E+01  0.10258538858E+02  0.51100000000E-03 0. -1.
        -11    1    3    3    0    0  0.32918447699E+01  0.28231887674E+01  0.94493554447E+01  0.10396968567E+02  0.51100000000E-03 0.  1.
         12    1    3    3    0    0  0.10175382658E+02 -0.17333750014E+02  0.22100230944E+02  0.29873357856E+02  0.00000000000E+00 0. -1.
</event>
<event>
 7    1  0.2746803E-013  0.5052886E+02  0.7816164E-02  0.1300439E+00
        -11   -1    0    0    0    0  0.00000000000E+00  0.00000000000E+00  0.45593999997E+02  0.45594000000E+02  0.51100000000E-03 0.  1.
         11   -1    0    0    0    0 -0.00000000000E+00 -0.00000000000E+00 -0.45593999997E+02  0.45594000000E+02  0.51100000000E-03 0. -1.
    9900012    2    1    2    0    0  0.16331530590E+02  0.29328370047E+02  0.22941079311E+02  0.50528864483E+02  0.30000014083E+02 0.  0.
         12    1    1    2    0    0 -0.16331530590E+02 -0.29328370047E+02 -0.22941079311E+02  0.40659135517E+02  0.00000000000E+00 0. -1.
         11    1    3    3    0    0  0.95545540392E+00  0.31427119030E+01 -0.39168724869E+01  0.51118904012E+01  0.51100000000E-03 0. -1.
        -11    1    3    3    0    0  0.14018326632E+02  0.19179763214E+02  0.77003983486E+01  0.24973444566E+02  0.51100000000E-03 0.  1.
        -12    1    3    3    0    0  0.13577485546E+01  0.70058949304E+01  0.19157553449E+02  0.20443529516E+02  0.00000000000E+00 0.  1.
</event>
<event>
 7    1  0.2746803E-013  0.5052887E+02  0.7816164E-02  0.1300439E+00
        -11   -1    0    0    0    0  0.00000000000E+00  0.00000000000E+00  0.45593999997E+02  0.45594000000E+02  0.51100000000E-03 0.  1.
         11   -1    0    0    0    0 -0.00000000000E+00 -0.00000000000E+00 -0.45593999997E+02  0.45594000000E+02  0.51100000000E-03 0. -1.
    9900012    2    1    2    0    0  0.77581905011E+01 -0.14679843768E+02  0.37114385042E+02  0.50528869292E+02  0.30000028700E+02 0.  0.
         12    1    1    2    0    0 -0.77581905011E+01  0.14679843768E+02 -0.37114385042E+02  0.40659130708E+02  0.00000000000E+00 0. -1.
         11    1    3    3    0    0  0.47826484229E+01 -0.18778806861E+02  0.17014045681E+02  0.25787498207E+02  0.51100000000E-03 0. -1.
        -11    1    3    3    0    0  0.32647423274E+01 -0.39102864133E+01  0.31432733455E+01  0.59857372047E+01  0.51100000000E-03 0.  1.
         12    1    3    3    0    0 -0.28920024927E+00  0.80092495060E+01  0.16957066015E+02  0.18755633880E+02  0.00000000000E+00 0. -1.
</event>
<event>
 7    1  0.2746803E-013  0.5052887E+02  0.7816164E-02  0.1300439E+00
        -11   -1    0    0    0    0  0.00000000000E+00  0.00000000000E+00  0.45593999997E+02  0.45594000000E+02  0.51100000000E-03 0. -1.
         11   -1    0    0    0    0 -0.00000000000E+00 -0.00000000000E+00 -0.45593999997E+02  0.45594000000E+02  0.51100000000E-03 0.  1.
    9900012    2    1    2    0    0 -0.15811861990E+02  0.51543926943E+01 -0.37102315830E+02  0.50528873306E+02  0.30000040900E+02 0.  0.
         12    1    1    2    0    0  0.15811861990E+02 -0.51543926943E+01  0.37102315830E+02  0.40659126694E+02  0.00000000000E+00 0. -1.
         11    1    3    3    0    0  0.44242470567E+01  0.57137693146E+01 -0.66157847696E+01  0.97974348775E+01  0.51100000000E-03 0. -1.
        -11    1    3    3    0    0 -0.71051152342E+01  0.22068960200E+01 -0.25255722210E+02  0.26328778117E+02  0.51100000000E-03 0.  1.
         12    1    3    3    0    0 -0.13130993812E+02 -0.27662726404E+01 -0.52308088498E+01  0.14402660311E+02  0.00000000000E+00 0. -1.
</event>
<event>
 7    1  0.2746803E-013  0.5052886E+02  0.7816164E-02  0.1300439E+00
        -11   -1    0    0    0    0  0.00000000000E+00  0.00000000000E+00  0.45593999997E+02  0.45594000000E+02  0.51100000000E-03 0. -1.
         11   -1    0    0    0    0 -0.00000000000E+00 -0.00000000000E+00 -0.45593999997E+02  0.45594000000E+02  0.51100000000E-03 0.  1.
    9900012    2    1    2    0    0  0.13702493712E+02  0.12689100935E+02 -0.36116391944E+02  0.50528863468E+02  0.30000010997E+02 0.  0.
         12    1    1    2    0    0 -0.13702493712E+02 -0.12689100935E+02  0.36116391944E+02  0.40659136532E+02  0.00000000000E+00 0. -1.
         11    1    3    3    0    0 -0.70592513088E+00  0.31556619545E+01 -0.22522015674E+02  0.22752971739E+02  0.51100000000E-03 0. -1.
        -11    1    3    3    0    0  0.21291075300E+01  0.10931102881E+02 -0.98364065353E+01  0.14858566649E+02  0.51100000000E-03 0.  1.
         12    1    3    3    0    0  0.12279311313E+02 -0.13976639006E+01 -0.37579697349E+01  0.12917325080E+02  0.00000000000E+00 0. -1.
</event>
<event>
 7    1  0.2746803E-013  0.5052888E+02  0.7816164E-02  0.1300439E+00
        -11   -1    0    0    0    0  0.00000000000E+00  0.00000000000E+00  0.45593999997E+02  0.45594000000E+02  0.51100000000E-03 0.  1.
         11   -1    0    0    0    0 -0.00000000000E+00 -0.00000000000E+00 -0.45593999997E+02  0.45594000000E+02  0.51100000000E-03 0. -1.
    9900012    2    1    2    0    0  0.77956448201E+01  0.47950560698E+01  0.39615648058E+02  0.50528877876E+02  0.30000054792E+02 0.  0.
         12    1    1    2    0    0 -0.77956448201E+01 -0.47950560698E+01 -0.39615648058E+02  0.40659122124E+02  0.00000000000E+00 0. -1.
         11    1    3    3    0    0  0.41769640846E+00 -0.49205995243E+00  0.18854877796E+02  0.18865921930E+02  0.51100000000E-03 0. -1.
        -11    1    3    3    0    0  0.10113707344E+02 -0.61044493355E+01  0.76176383241E+01  0.14056307902E+02  0.51100000000E-03 0.  1.
         12    1    3    3    0    0 -0.27357589325E+01  0.11391565358E+02  0.13143131937E+02  0.17606648044E+02  0.00000000000E+00 0. -1.
</event>
<event>
 7    1  0.2746803E-013  0.5052885E+02  0.7816164E-02  0.1300439E+00
        -11   -1    0    0    0    0  0.00000000000E+00  0.00000000000E+00  0.45593999997E+02  0.45594000000E+02  0.51100000000E-03 0.  1.
         11   -1    0    0    0    0 -0.00000000000E+00 -0.00000000000E+00 -0.45593999997E+02  0.45594000000E+02  0.51100000000E-03 0. -1.
    9900012    2    1    2    0    0 -0.38536187072E+02 -0.41990227125E+01  0.12267718566E+02  0.50528850666E+02  0.29999972084E+02 0.  0.
         12    1    1    2    0    0  0.38536187072E+02  0.41990227125E+01 -0.12267718566E+02  0.40659149334E+02  0.00000000000E+00 0. -1.
         11    1    3    3    0    0 -0.57511467236E+01 -0.26778905193E+01  0.34370185746E+01  0.72152535100E+01  0.51100000000E-03 0. -1.
        -11    1    3    3    0    0 -0.13936381168E+02  0.97602121553E+01  0.12407103729E+02  0.21057556473E+02  0.51100000000E-03 0.  1.
         12    1    3    3    0    0 -0.18848659180E+02 -0.11281344349E+02 -0.35764037384E+01  0.22256040683E+02  0.00000000000E+00 0. -1.
</event>
<event>
 7    1  0.2746803E-013  0.5052885E+02  0.7816164E-02  0.1300439E+00
        -11   -1    0    0    0    0  0.00000000000E+00  0.00000000000E+00  0.45593999997E+02  0.45594000000E+02  0.51100000000E-03 0.  1.
         11   -1    0    0    0    0 -0.00000000000E+00 -0.00000000000E+00 -0.45593999997E+02  0.45594000000E+02  0.51100000000E-03 0. -1.
    9900012    2    1    2    0    0 -0.26562962651E+02  0.17691039997E+02  0.25191324063E+02  0.50528847414E+02  0.29999962199E+02 0.  0.
         12    1    1    2    0    0  0.26562962651E+02 -0.17691039997E+02 -0.25191324063E+02  0.40659152586E+02  0.00000000000E+00 0. -1.
         11    1    3    3    0    0 -0.73320860545E+00 -0.11560989954E+01 -0.45383473035E+01  0.47403329265E+01  0.51100000000E-03 0. -1.
        -11    1    3    3    0    0 -0.18778593712E+01  0.52878520789E+01  0.11440234300E+02  0.12742319119E+02  0.51100000000E-03 0.  1.
        -12    1    3    3    0    0 -0.23951894674E+02  0.13559286914E+02  0.18289437067E+02  0.33046195368E+02  0.00000000000E+00 0.  1.
</event>
<event>
 7    1  0.2746803E-013  0.5052886E+02  0.7816164E-02  0.1300439E+00
        -11   -1    0    0    0    0  0.00000000000E+00  0.00000000000E+00  0.45593999997E+02  0.45594000000E+02  0.51100000000E-03 0. -1.
         11   -1    0    0    0    0 -0.00000000000E+00 -0.00000000000E+00 -0.45593999997E+02  0.45594000000E+02  0.51100000000E-03 0.  1.
    9900012    2    1    2    0    0  0.38444441005E+01 -0.23052678686E+02 -0.33271002832E+02  0.50528863579E+02  0.30000011335E+02 0.  0.
         12    1    1    2    0    0 -0.38444441005E+01  0.23052678686E+02  0.33271002832E+02  0.40659136421E+02  0.00000000000E+00 0. -1.
         11    1    3    3    0    0  0.13576394067E+01 -0.17017901526E+01  0.61765337595E+00  0.22629119373E+01  0.51100000000E-03 0. -1.
        -11    1    3    3    0    0 -0.60142886821E+01 -0.25454174144E+01  0.20313412898E+01  0.68393834417E+01  0.51100000000E-03 0.  1.
        -12    1    3    3    0    0  0.85010933759E+01 -0.18805471119E+02 -0.35919997498E+02  0.41426568200E+02  0.00000000000E+00 0.  1.
</event>
<event>
 7    1  0.2746803E-013  0.5052886E+02  0.7816164E-02  0.1300439E+00
        -11   -1    0    0    0    0  0.00000000000E+00  0.00000000000E+00  0.45593999997E+02  0.45594000000E+02  0.51100000000E-03 0.  1.
         11   -1    0    0    0    0 -0.00000000000E+00 -0.00000000000E+00 -0.45593999997E+02  0.45594000000E+02  0.51100000000E-03 0. -1.
    9900012    2    1    2    0    0 -0.83881488183E+01  0.78693751075E+01  0.38998430352E+02  0.50528859882E+02  0.30000000099E+02 0.  0.
         12    1    1    2    0    0  0.83881488183E+01 -0.78693751075E+01 -0.38998430352E+02  0.40659140118E+02  0.00000000000E+00 0. -1.
         11    1    3    3    0    0 -0.11929321042E+02  0.12750720011E+02  0.13379655741E+02  0.21997835106E+02  0.51100000000E-03 0. -1.
        -11    1    3    3    0    0 -0.45864717160E+00  0.30163751020E+01  0.11228899704E+02  0.11636024442E+02  0.51100000000E-03 0.  1.
         12    1    3    3    0    0  0.39998193956E+01 -0.78977200056E+01  0.14389874907E+02  0.16895000335E+02  0.00000000000E+00 0. -1.
</event>
<event>
 7    1  0.2746803E-013  0.5052884E+02  0.7816164E-02  0.1300439E+00
        -11   -1    0    0    0    0  0.00000000000E+00  0.00000000000E+00  0.45593999997E+02  0.45594000000E+02  0.51100000000E-03 0. -1.
         11   -1    0    0    0    0 -0.00000000000E+00 -0.00000000000E+00 -0.45593999997E+02  0.45594000000E+02  0.51100000000E-03 0.  1.
    9900012    2    1    2    0    0 -0.38104462597E+02 -0.12664856194E+02 -0.63889418656E+01  0.50528840756E+02  0.29999941963E+02 0.  0.
         12    1    1    2    0    0  0.38104462597E+02  0.12664856194E+02  0.63889418656E+01  0.40659159244E+02  0.00000000000E+00 0. -1.
         11    1    3    3    0    0  0.75362802376E+00 -0.27829410499E+01  0.10165089582E+00  0.28849695407E+01  0.51100000000E-03 0. -1.
        -11    1    3    3    0    0 -0.26777686871E+02 -0.88489497608E+01  0.74490532125E+01  0.29169107290E+02  0.51100000000E-03 0.  1.
        -12    1    3    3    0    0 -0.12080403750E+02 -0.10329653831E+01 -0.13939645974E+02  0.18474763926E+02  0.00000000000E+00 0.  1.
</event>
<event>
 7    1  0.2746803E-013  0.5052886E+02  0.7816164E-02  0.1300439E+00
        -11   -1    0    0    0    0  0.00000000000E+00  0.00000000000E+00  0.45593999997E+02  0.45594000000E+02  0.51100000000E-03 0. -1.
         11   -1    0    0    0    0 -0.00000000000E+00 -0.00000000000E+00 -0.45593999997E+02  0.45594000000E+02  0.51100000000E-03 0.  1.
    9900012    2    1    2    0    0 -0.16343601816E+02  0.10676780244E+02 -0.35665932336E+02  0.50528859747E+02  0.29999999688E+02 0.  0.
         12    1    1    2    0    0  0.16343601816E+02 -0.10676780244E+02  0.35665932336E+02  0.40659140253E+02  0.00000000000E+00 0. -1.
         11    1    3    3    0    0  0.19954762115E+01  0.65968271335E+01 -0.91894286967E+01  0.11486759925E+02  0.51100000000E-03 0. -1.
        -11    1    3    3    0    0 -0.15496749724E+02  0.32167557731E+01 -0.30309363626E+02  0.34192898289E+02  0.51100000000E-03 0.  1.
         12    1    3    3    0    0 -0.28423283042E+01  0.86319733745E+00  0.38328599870E+01  0.48492015335E+01  0.00000000000E+00 0. -1.
</event>
<event>
 7    1  0.2746803E-013  0.5052886E+02  0.7816164E-02  0.1300439E+00
        -11   -1    0    0    0    0  0.00000000000E+00  0.00000000000E+00  0.45593999997E+02  0.45594000000E+02  0.51100000000E-03 0. -1.
         11   -1    0    0    0    0 -0.00000000000E+00 -0.00000000000E+00 -0.45593999997E+02  0.45594000000E+02  0.51100000000E-03 0.  1.
    9900012    2    1    2    0    0  0.97438013132E+00  0.11160798186E+00 -0.40647313086E+02  0.50528856698E+02  0.29999990418E+02 0.  0.
         12    1    1    2    0    0 -0.97438013132E+00 -0.11160798186E+00  0.40647313086E+02  0.40659143302E+02  0.00000000000E+00 0. -1.
         11    1    3    3    0    0  0.21405168192E+01 -0.17331461983E+01  0.16962309865E+01  0.32346263800E+01  0.51100000000E-03 0. -1.
        -11    1    3    3    0    0 -0.11018079479E+02  0.64625950233E-01 -0.20800270787E+02  0.23538341424E+02  0.51100000000E-03 0.  1.
         12    1    3    3    0    0  0.98519427910E+01  0.17801282299E+01 -0.21543273286E+02  0.23755888894E+02  0.00000000000E+00 0. -1.
</event>
<event>
 7    1  0.2746803E-013  0.5052886E+02  0.7816164E-02  0.1300439E+00
        -11   -1    0    0    0    0  0.00000000000E+00  0.00000000000E+00  0.45593999997E+02  0.45594000000E+02  0.51100000000E-03 0.  1.
         11   -1    0    0    0    0 -0.00000000000E+00 -0.00000000000E+00 -0.45593999997E+02  0.45594000000E+02  0.51100000000E-03 0. -1.
    9900012    2    1    2    0    0  0.20818449483E+02  0.15446991932E+02  0.31323288801E+02  0.50528858101E+02  0.29999994684E+02 0.  0.
         12    1    1    2    0    0 -0.20818449483E+02 -0.15446991932E+02 -0.31323288801E+02  0.40659141899E+02  0.00000000000E+00 0. -1.
         11    1    3    3    0    0  0.90930640583E+01  0.80855377586E+01 -0.32542030713E+00  0.12172330650E+02  0.51100000000E-03 0. -1.
        -11    1    3    3    0    0 -0.70765485802E+00 -0.30534524519E+01  0.41353486587E+00  0.31615437085E+01  0.51100000000E-03 0.  1.
        -12    1    3    3    0    0  0.12433040283E+02  0.10414906625E+02  0.31235174243E+02  0.35194983743E+02  0.00000000000E+00 0.  1.
</event>
<event>
 7    1  0.2746803E-013  0.5052886E+02  0.7816164E-02  0.1300439E+00
        -11   -1    0    0    0    0  0.00000000000E+00  0.00000000000E+00  0.45593999997E+02  0.45594000000E+02  0.51100000000E-03 0. -1.
         11   -1    0    0    0    0 -0.00000000000E+00 -0.00000000000E+00 -0.45593999997E+02  0.45594000000E+02  0.51100000000E-03 0.  1.
    9900012    2    1    2    0    0 -0.17973370683E+02  0.30663552388E+02 -0.19745132627E+02  0.50528858824E+02  0.29999996880E+02 0.  0.
         12    1    1    2    0    0  0.17973370683E+02 -0.30663552388E+02  0.19745132627E+02  0.40659141176E+02  0.00000000000E+00 0. -1.
         11    1    3    3    0    0 -0.20144683412E+00  0.14601108401E+02 -0.54973615292E+01  0.15603010332E+02  0.51100000000E-03 0. -1.
        -11    1    3    3    0    0 -0.55326585406E+01  0.17524715335E+02 -0.13054137590E+02  0.22541882498E+02  0.51100000000E-03 0.  1.
         12    1    3    3    0    0 -0.12239265308E+02 -0.14622713478E+01 -0.11936335074E+01  0.12383965994E+02  0.00000000000E+00 0. -1.
</event>
<event>
 7    1  0.2746803E-013  0.5052885E+02  0.7816164E-02  0.1300439E+00
        -11   -1    0    0    0    0  0.00000000000E+00  0.00000000000E+00  0.45593999997E+02  0.45594000000E+02  0.51100000000E-03 0.  1.
         11   -1    0    0    0    0 -0.00000000000E+00 -0.00000000000E+00 -0.45593999997E+02  0.45594000000E+02  0.51100000000E-03 0. -1.
    9900012    2    1    2    0    0 -0.27055753769E+02  0.26705437806E+02 -0.14421229957E+02  0.50528854732E+02  0.29999984444E+02 0.  0.
         12    1    1    2    0    0  0.27055753769E+02 -0.26705437806E+02  0.14421229957E+02  0.40659145268E+02  0.00000000000E+00 0. -1.
         11    1    3    3    0    0 -0.16392807965E+01  0.40632604991E+01 -0.45424152869E+01  0.63111698055E+01  0.51100000000E-03 0. -1.
        -11    1    3    3    0    0 -0.25152953368E+02  0.18275341533E+02  0.23991882326E+01  0.31183573812E+02  0.51100000000E-03 0.  1.
         12    1    3    3    0    0 -0.26351960502E+00  0.43668357736E+01 -0.12278002903E+02  0.13034111115E+02  0.00000000000E+00 0. -1.
</event>
<event>
 7    1  0.2746803E-013  0.5052885E+02  0.7816164E-02  0.1300439E+00
        -11   -1    0    0    0    0  0.00000000000E+00  0.00000000000E+00  0.45593999997E+02  0.45594000000E+02  0.51100000000E-03 0. -1.
         11   -1    0    0    0    0 -0.00000000000E+00 -0.00000000000E+00 -0.45593999997E+02  0.45594000000E+02  0.51100000000E-03 0.  1.
    9900012    2    1    2    0    0 -0.16771573552E+02 -0.33941187524E+02  0.14828240398E+02  0.50528848469E+02  0.29999965406E+02 0.  0.
         12    1    1    2    0    0  0.16771573552E+02  0.33941187524E+02 -0.14828240398E+02  0.40659151531E+02  0.00000000000E+00 0. -1.
         11    1    3    3    0    0 -0.10148636337E+02 -0.16912655338E+02  0.11391061847E+02  0.22776940539E+02  0.51100000000E-03 0. -1.
        -11    1    3    3    0    0 -0.84907577405E+01 -0.20958509182E+02  0.72524947260E+00  0.22624722345E+02  0.51100000000E-03 0.  1.
         12    1    3    3    0    0  0.18678205251E+01  0.39299769954E+01  0.27119290778E+01  0.51271855849E+01  0.00000000000E+00 0. -1.
</event>
<event>
 7    1  0.2746803E-013  0.5052886E+02  0.7816164E-02  0.1300439E+00
        -11   -1    0    0    0    0  0.00000000000E+00  0.00000000000E+00  0.45593999997E+02  0.45594000000E+02  0.51100000000E-03 0.  1.
         11   -1    0    0    0    0 -0.00000000000E+00 -0.00000000000E+00 -0.45593999997E+02  0.45594000000E+02  0.51100000000E-03 0. -1.
    9900012    2    1    2    0    0  0.26104836818E+02  0.24662500660E+02  0.19064736929E+02  0.50528860335E+02  0.30000001475E+02 0.  0.
         12    1    1    2    0    0 -0.26104836818E+02 -0.24662500660E+02 -0.19064736929E+02  0.40659139665E+02  0.00000000000E+00 0. -1.
         11    1    3    3    0    0  0.54476386790E+00  0.11775430300E+02  0.73116161261E+01  0.13871454756E+02  0.51100000000E-03 0.  1.
        -11    1    3    3    0    0 -0.20009258342E+01  0.57434023235E+01  0.34838579315E+01  0.70091112698E+01  0.51100000000E-03 0. -1.
        -12    1    3    3    0    0  0.27560998784E+02  0.71436680362E+01  0.82692628714E+01  0.29648294309E+02  0.00000000000E+00 0.  1.
</event>
<event>
 7    1  0.2746803E-013  0.5052886E+02  0.7816164E-02  0.1300439E+00
        -11   -1    0    0    0    0  0.00000000000E+00  0.00000000000E+00  0.45593999997E+02  0.45594000000E+02  0.51100000000E-03 0.  1.
         11   -1    0    0    0    0 -0.00000000000E+00 -0.00000000000E+00 -0.45593999997E+02  0.45594000000E+02  0.51100000000E-03 0. -1.
    9900012    2    1    2    0    0 -0.32326906587E+02 -0.24658445419E+02 -0.31308796777E+00  0.50528857804E+02  0.29999993782E+02 0.  0.
         12    1    1    2    0    0  0.32326906587E+02  0.24658445419E+02  0.31308796777E+00  0.40659142196E+02  0.00000000000E+00 0. -1.
         11    1    3    3    0    0 -0.38045631865E+01  0.19239887788E+01  0.72706844747E+01  0.84284806966E+01  0.51100000000E-03 0. -1.
        -11    1    3    3    0    0 -0.43956650787E+00  0.15566815882E+01  0.53908512773E-01  0.16184507008E+01  0.51100000000E-03 0.  1.
        -12    1    3    3    0    0 -0.28082776893E+02 -0.28139115786E+02 -0.76376809553E+01  0.40481926407E+02  0.00000000000E+00 0.  1.
</event>
<event>
 7    1  0.2746803E-013  0.5052889E+02  0.7816164E-02  0.1300439E+00
        -11   -1    0    0    0    0  0.00000000000E+00  0.00000000000E+00  0.45593999997E+02  0.45594000000E+02  0.51100000000E-03 0.  1.
         11   -1    0    0    0    0 -0.00000000000E+00 -0.00000000000E+00 -0.45593999997E+02  0.45594000000E+02  0.51100000000E-03 0. -1.
    9900012    2    1    2    0    0  0.34721762559E+02 -0.12954335003E+02  0.16725658799E+02  0.50528889670E+02  0.30000090642E+02 0.  0.
         12    1    1    2    0    0 -0.34721762559E+02  0.12954335003E+02 -0.16725658799E+02  0.40659110330E+02  0.00000000000E+00 0. -1.
         11    1    3    3    0    0  0.49347510834E+01 -0.12180339775E+02  0.10991171952E+02  0.17132375971E+02  0.51100000000E-03 0. -1.
        -11    1    3    3    0    0  0.12329241971E+02 -0.41851484927E+01  0.82761938794E+01  0.15427931192E+02  0.51100000000E-03 0.  1.
         12    1    3    3    0    0  0.17457769504E+02  0.34111532651E+01 -0.25417070322E+01  0.17968582507E+02  0.00000000000E+00 0. -1.
</event>
<event>
 7    1  0.2746803E-013  0.5052886E+02  0.7816164E-02  0.1300439E+00
        -11   -1    0    0    0    0  0.00000000000E+00  0.00000000000E+00  0.45593999997E+02  0.45594000000E+02  0.51100000000E-03 0.  1.
         11   -1    0    0    0    0 -0.00000000000E+00 -0.00000000000E+00 -0.45593999997E+02  0.45594000000E+02  0.51100000000E-03 0. -1.
    9900012    2    1    2    0    0 -0.30940385280E+02 -0.46799937404E+01  0.25960664399E+02  0.50528857378E+02  0.29999992486E+02 0.  0.
         12    1    1    2    0    0  0.30940385280E+02  0.46799937404E+01 -0.25960664399E+02  0.40659142622E+02  0.00000000000E+00 0. -1.
         11    1    3    3    0    0  0.33232185582E+01  0.30488838556E+01  0.35928246477E+01  0.57660960416E+01  0.51100000000E-03 0. -1.
        -11    1    3    3    0    0 -0.11578146664E+02  0.42271874344E+01  0.31625129498E+01  0.12724939379E+02  0.51100000000E-03 0.  1.
        -12    1    3    3    0    0 -0.22685457174E+02 -0.11956065030E+02  0.19205326802E+02  0.32037821958E+02  0.00000000000E+00 0.  1.
</event>
<event>
 7    1  0.2746803E-013  0.5052891E+02  0.7816164E-02  0.1300439E+00
        -11   -1    0    0    0    0  0.00000000000E+00  0.00000000000E+00  0.45593999997E+02  0.45594000000E+02  0.51100000000E-03 0. -1.
         11   -1    0    0    0    0 -0.00000000000E+00 -0.00000000000E+00 -0.45593999997E+02  0.45594000000E+02  0.51100000000E-03 0.  1.
    9900012    2    1    2    0    0  0.85562412069E+01 -0.39636460705E+02  0.29838518290E+01  0.50528909349E+02  0.30000150458E+02 0.  0.
         12    1    1    2    0    0 -0.85562412069E+01  0.39636460705E+02 -0.29838518290E+01  0.40659090651E+02  0.00000000000E+00 0. -1.
         11    1    3    3    0    0 -0.26989388927E+01 -0.33045773738E+00 -0.14832818221E+01  0.30973534974E+01  0.51100000000E-03 0. -1.
        -11    1    3    3    0    0  0.12796071920E+02 -0.16043981671E+02 -0.66919718633E+01  0.21585441671E+02  0.51100000000E-03 0.  1.
         12    1    3    3    0    0 -0.15408918203E+01 -0.23262021296E+02  0.11159105514E+02  0.25846114181E+02  0.00000000000E+00 0. -1.
</event>
<event>
 7    1  0.2746803E-013  0.5052887E+02  0.7816164E-02  0.1300439E+00
        -11   -1    0    0    0    0  0.00000000000E+00  0.00000000000E+00  0.45593999997E+02  0.45594000000E+02  0.51100000000E-03 0.  1.
         11   -1    0    0    0    0 -0.00000000000E+00 -0.00000000000E+00 -0.45593999997E+02  0.45594000000E+02  0.51100000000E-03 0. -1.
    9900012    2    1    2    0    0  0.31354337018E+02  0.12026193627E+02  0.22922508881E+02  0.50528865769E+02  0.30000017993E+02 0.  0.
         12    1    1    2    0    0 -0.31354337018E+02 -0.12026193627E+02 -0.22922508881E+02  0.40659134231E+02  0.00000000000E+00 0. -1.
         11    1    3    3    0    0  0.12432401584E+02 -0.11062509910E+01  0.10899841868E+02  0.16570906837E+02  0.51100000000E-03 0. -1.
        -11    1    3    3    0    0  0.16903195422E+02  0.31028358173E+00  0.12410214266E+02  0.20972069754E+02  0.51100000000E-03 0.  1.
         12    1    3    3    0    0  0.20187400120E+01  0.12822161037E+02 -0.38754725284E+00  0.12985889179E+02  0.00000000000E+00 0. -1.
</event>
<event>
 7    1  0.2746803E-013  0.5052884E+02  0.7816164E-02  0.1300439E+00
        -11   -1    0    0    0    0  0.00000000000E+00  0.00000000000E+00  0.45593999997E+02  0.45594000000E+02  0.51100000000E-03 0.  1.
         11   -1    0    0    0    0 -0.00000000000E+00 -0.00000000000E+00 -0.45593999997E+02  0.45594000000E+02  0.51100000000E-03 0. -1.
    9900012    2    1    2    0    0 -0.37180785246E+02 -0.16421534363E+02  0.10437417328E+01  0.50528843846E+02  0.29999951354E+02 0.  0.
         12    1    1    2    0    0  0.37180785246E+02  0.16421534363E+02 -0.10437417328E+01  0.40659156154E+02  0.00000000000E+00 0. -1.
         11    1    3    3    0    0  0.14300520662E+00 -0.58675252615E+01 -0.41067496464E+00  0.58836177112E+01  0.51100000000E-03 0. -1.
        -11    1    3    3    0    0 -0.26207100321E+02 -0.10936755981E+02 -0.85791564094E+01  0.29665243359E+02  0.51100000000E-03 0.  1.
        -12    1    3    3    0    0 -0.11116690132E+02  0.38274687948E+00  0.10033573107E+02  0.14979982775E+02  0.00000000000E+00 0.  1.
</event>
<event>
 7    1  0.2746803E-013  0.5052895E+02  0.7816164E-02  0.1300438E+00
        -11   -1    0    0    0    0  0.00000000000E+00  0.00000000000E+00  0.45593999997E+02  0.45594000000E+02  0.51100000000E-03 0.  1.
         11   -1    0    0    0    0 -0.00000000000E+00 -0.00000000000E+00 -0.45593999997E+02  0.45594000000E+02  0.51100000000E-03 0. -1.
    9900012    2    1    2    0    0 -0.17652555911E+02  0.13260599592E+02  0.34142381973E+02  0.50528948382E+02  0.30000269100E+02 0.  0.
         12    1    1    2    0    0  0.17652555911E+02 -0.13260599592E+02 -0.34142381973E+02  0.40659051618E+02  0.00000000000E+00 0. -1.
         11    1    3    3    0    0  0.38351484611E+01  0.88174880039E+01  0.55096406354E+01  0.11082084579E+02  0.51100000000E-03 0. -1.
        -11    1    3    3    0    0 -0.11392012152E+00 -0.40591359276E+01  0.33347174535E+01  0.52545126348E+01  0.51100000000E-03 0.  1.
        -12    1    3    3    0    0 -0.21373784250E+02  0.85022475157E+01  0.25298023884E+02  0.34192351168E+02  0.00000000000E+00 0.  1.
</event>
<event>
 7    1  0.2746803E-013  0.5052884E+02  0.7816164E-02  0.1300439E+00
        -11   -1    0    0    0    0  0.00000000000E+00  0.00000000000E+00  0.45593999997E+02  0.45594000000E+02  0.51100000000E-03 0.  1.
         11   -1    0    0    0    0 -0.00000000000E+00 -0.00000000000E+00 -0.45593999997E+02  0.45594000000E+02  0.51100000000E-03 0. -1.
    9900012    2    1    2    0    0 -0.37174491783E+02 -0.16461235872E+02 -0.50228249164E+00  0.50528838505E+02  0.29999935120E+02 0.  0.
         12    1    1    2    0    0  0.37174491783E+02  0.16461235872E+02  0.50228249164E+00  0.40659161495E+02  0.00000000000E+00 0. -1.
         11    1    3    3    0    0  0.36687963295E+01 -0.34458519760E+01  0.32049119553E+00  0.50434786819E+01  0.51100000000E-03 0. -1.
        -11    1    3    3    0    0 -0.25618173970E+02 -0.82700104123E+01  0.68650774261E+01  0.27781526202E+02  0.51100000000E-03 0.  1.
        -12    1    3    3    0    0 -0.15225114142E+02 -0.47453734837E+01 -0.76878511133E+01  0.17703833621E+02  0.00000000000E+00 0.  1.
</event>
<event>
 7    1  0.2746803E-013  0.5052892E+02  0.7816164E-02  0.1300439E+00
        -11   -1    0    0    0    0  0.00000000000E+00  0.00000000000E+00  0.45593999997E+02  0.45594000000E+02  0.51100000000E-03 0.  1.
         11   -1    0    0    0    0 -0.00000000000E+00 -0.00000000000E+00 -0.45593999997E+02  0.45594000000E+02  0.51100000000E-03 0. -1.
    9900012    2    1    2    0    0 -0.38657528386E+02 -0.11081339050E+02  0.59967014231E+01  0.50528917325E+02  0.30000174700E+02 0.  0.
         12    1    1    2    0    0  0.38657528386E+02  0.11081339050E+02 -0.59967014231E+01  0.40659082675E+02  0.00000000000E+00 0. -1.
         11    1    3    3    0    0 -0.10937474437E+02  0.46157872120E+01 -0.70011244727E+01  0.13782219807E+02  0.51100000000E-03 0. -1.
        -11    1    3    3    0    0 -0.10949025445E+02 -0.13487681184E+02  0.53100969645E+01  0.18165787402E+02  0.51100000000E-03 0.  1.
        -12    1    3    3    0    0 -0.16771028504E+02 -0.22094450776E+01  0.76877289314E+01  0.18580910116E+02  0.00000000000E+00 0.  1.
</event>
<event>
 7    1  0.2746803E-013  0.5052886E+02  0.7816164E-02  0.1300439E+00
        -11   -1    0    0    0    0  0.00000000000E+00  0.00000000000E+00  0.45593999997E+02  0.45594000000E+02  0.51100000000E-03 0. -1.
         11   -1    0    0    0    0 -0.00000000000E+00 -0.00000000000E+00 -0.45593999997E+02  0.45594000000E+02  0.51100000000E-03 0.  1.
    9900012    2    1    2    0    0 -0.37786599282E+02  0.13861086047E+02  0.57626919521E+01  0.50528863140E+02  0.30000010000E+02 0.  0.
         12    1    1    2    0    0  0.37786599282E+02 -0.13861086047E+02 -0.57626919521E+01  0.40659136860E+02  0.00000000000E+00 0. -1.
         11    1    3    3    0    0 -0.27126050273E+02 -0.25785950844E+01  0.10866968489E+02  0.29335350013E+02  0.51100000000E-03 0. -1.
        -11    1    3    3    0    0 -0.42538464135E+01  0.48551874229E+01  0.11428183344E+01  0.65554624724E+01  0.51100000000E-03 0.  1.
         12    1    3    3    0    0 -0.64067025954E+01  0.11584493709E+02 -0.62470948710E+01  0.14638050654E+02  0.00000000000E+00 0. -1.
</event>
<event>
 7    1  0.2746803E-013  0.5052887E+02  0.7816164E-02  0.1300439E+00
        -11   -1    0    0    0    0  0.00000000000E+00  0.00000000000E+00  0.45593999997E+02  0.45594000000E+02  0.51100000000E-03 0.  1.
         11   -1    0    0    0    0 -0.00000000000E+00 -0.00000000000E+00 -0.45593999997E+02  0.45594000000E+02  0.51100000000E-03 0. -1.
    9900012    2    1    2    0    0 -0.26796429276E+02 -0.28603831401E+02  0.10813741073E+02  0.50528870782E+02  0.30000033229E+02 0.  0.
         12    1    1    2    0    0  0.26796429276E+02  0.28603831401E+02 -0.10813741073E+02  0.40659129218E+02  0.00000000000E+00 0. -1.
         11    1    3    3    0    0 -0.10443879310E+02 -0.15577375202E+02  0.10158545397E+02  0.21328977427E+02  0.51100000000E-03 0. -1.
        -11    1    3    3    0    0 -0.18456640386E+02 -0.60333002503E+01  0.58015525385E+01  0.20265890021E+02  0.51100000000E-03 0.  1.
         12    1    3    3    0    0  0.21040904195E+01 -0.69931559487E+01 -0.51463568625E+01  0.89340033340E+01  0.00000000000E+00 0. -1.
</event>
<event>
 7    1  0.2746803E-013  0.5052886E+02  0.7816164E-02  0.1300439E+00
        -11   -1    0    0    0    0  0.00000000000E+00  0.00000000000E+00  0.45593999997E+02  0.45594000000E+02  0.51100000000E-03 0.  1.
         11   -1    0    0    0    0 -0.00000000000E+00 -0.00000000000E+00 -0.45593999997E+02  0.45594000000E+02  0.51100000000E-03 0. -1.
    9900012    2    1    2    0    0  0.16007397440E+02 -0.14881469225E+02  0.34285138661E+02  0.50528860411E+02  0.30000001705E+02 0.  0.
         12    1    1    2    0    0 -0.16007397440E+02  0.14881469225E+02 -0.34285138661E+02  0.40659139589E+02  0.00000000000E+00 0. -1.
         11    1    3    3    0    0  0.28489506513E+01 -0.12080675348E+02  0.18382328279E+02  0.22180379390E+02  0.51100000000E-03 0. -1.
        -11    1    3    3    0    0  0.62904660271E+01  0.13904618579E+01  0.18740478831E+02  0.19816884066E+02  0.51100000000E-03 0.  1.
         12    1    3    3    0    0  0.68679807619E+01 -0.41912557348E+01 -0.28376684481E+01  0.85315969549E+01  0.00000000000E+00 0. -1.
</event>
<event>
 7    1  0.2746803E-013  0.5052888E+02  0.7816164E-02  0.1300439E+00
        -11   -1    0    0    0    0  0.00000000000E+00  0.00000000000E+00  0.45593999997E+02  0.45594000000E+02  0.51100000000E-03 0.  1.
         11   -1    0    0    0    0 -0.00000000000E+00 -0.00000000000E+00 -0.45593999997E+02  0.45594000000E+02  0.51100000000E-03 0. -1.
    9900012    2    1    2    0    0 -0.45192985081E+01 -0.17879333604E+02  0.36236299010E+02  0.50528880542E+02  0.30000062895E+02 0.  0.
         12    1    1    2    0    0  0.45192985081E+01  0.17879333604E+02 -0.36236299010E+02  0.40659119458E+02  0.00000000000E+00 0. -1.
         11    1    3    3    0    0  0.60265978730E+01 -0.77844549712E+01  0.23868406467E+01  0.10129887939E+02  0.51100000000E-03 0. -1.
        -11    1    3    3    0    0 -0.21980518196E+01 -0.12900036628E+02  0.17806174317E+02  0.22097561424E+02  0.51100000000E-03 0.  1.
         12    1    3    3    0    0 -0.83478445615E+01  0.28051579952E+01  0.16043284047E+02  0.18301431179E+02  0.00000000000E+00 0. -1.
</event>
<event>
 7    1  0.2746803E-013  0.5052886E+02  0.7816164E-02  0.1300439E+00
        -11   -1    0    0    0    0  0.00000000000E+00  0.00000000000E+00  0.45593999997E+02  0.45594000000E+02  0.51100000000E-03 0.  1.
         11   -1    0    0    0    0 -0.00000000000E+00 -0.00000000000E+00 -0.45593999997E+02  0.45594000000E+02  0.51100000000E-03 0. -1.
    9900012    2    1    2    0    0 -0.41504115587E+01 -0.18309037873E+02  0.36065483723E+02  0.50528857116E+02  0.29999991689E+02 0.  0.
         12    1    1    2    0    0  0.41504115587E+01  0.18309037873E+02 -0.36065483723E+02  0.40659142884E+02  0.00000000000E+00 0. -1.
         11    1    3    3    0    0  0.97120271669E+00  0.39871092035E+01  0.65656437918E+00  0.41558815626E+01  0.51100000000E-03 0. -1.
        -11    1    3    3    0    0  0.72953488426E+01 -0.59350133371E+01  0.11215149243E+02  0.14636463741E+02  0.51100000000E-03 0.  1.
        -12    1    3    3    0    0 -0.12416963118E+02 -0.16361133739E+02  0.24193770101E+02  0.31736511812E+02  0.00000000000E+00 0.  1.
</event>
<event>
 7    1  0.2746803E-013  0.5052886E+02  0.7816164E-02  0.1300439E+00
        -11   -1    0    0    0    0  0.00000000000E+00  0.00000000000E+00  0.45593999997E+02  0.45594000000E+02  0.51100000000E-03 0. -1.
         11   -1    0    0    0    0 -0.00000000000E+00 -0.00000000000E+00 -0.45593999997E+02  0.45594000000E+02  0.51100000000E-03 0.  1.
    9900012    2    1    2    0    0 -0.22281792331E+02  0.30385895077E+02 -0.15276939594E+02  0.50528858685E+02  0.29999996458E+02 0.  0.
         12    1    1    2    0    0  0.22281792331E+02 -0.30385895077E+02  0.15276939594E+02  0.40659141315E+02  0.00000000000E+00 0. -1.
         11    1    3    3    0    0 -0.83487831481E+01 -0.12561757305E+01 -0.37178675613E+01  0.92251123020E+01  0.51100000000E-03 0. -1.
        -11    1    3    3    0    0  0.14971677991E+01  0.33122624310E+01  0.40707296986E+01  0.54574201204E+01  0.51100000000E-03 0.  1.
        -12    1    3    3    0    0 -0.15430176982E+02  0.28329808377E+02 -0.15629801731E+02  0.35846326262E+02  0.00000000000E+00 0.  1.
</event>
<event>
 7    1  0.2746803E-013  0.5052886E+02  0.7816164E-02  0.1300439E+00
        -11   -1    0    0    0    0  0.00000000000E+00  0.00000000000E+00  0.45593999997E+02  0.45594000000E+02  0.51100000000E-03 0.  1.
         11   -1    0    0    0    0 -0.00000000000E+00 -0.00000000000E+00 -0.45593999997E+02  0.45594000000E+02  0.51100000000E-03 0. -1.
    9900012    2    1    2    0    0  0.33127968601E+02  0.57828071750E+01  0.22853064621E+02  0.50528859268E+02  0.29999998232E+02 0.  0.
         12    1    1    2    0    0 -0.33127968601E+02 -0.57828071750E+01 -0.22853064621E+02  0.40659140732E+02  0.00000000000E+00 0. -1.
         11    1    3    3    0    0  0.19816515768E+01 -0.50274610842E+00 -0.33355813522E+01  0.39122627518E+01  0.51100000000E-03 0. -1.
        -11    1    3    3    0    0  0.27489733981E+02 -0.93818429569E+00  0.11436288016E+02  0.29788493549E+02  0.51100000000E-03 0.  1.
        -12    1    3    3    0    0  0.36565830438E+01  0.72237375791E+01  0.14752357958E+02  0.16828102967E+02  0.00000000000E+00 0.  1.
</event>
<event>
 7    1  0.2746803E-013  0.5052886E+02  0.7816164E-02  0.1300439E+00
        -11   -1    0    0    0    0  0.00000000000E+00  0.00000000000E+00  0.45593999997E+02  0.45594000000E+02  0.51100000000E-03 0.  1.
         11   -1    0    0    0    0 -0.00000000000E+00 -0.00000000000E+00 -0.45593999997E+02  0.45594000000E+02  0.51100000000E-03 0. -1.
    9900012    2    1    2    0    0 -0.20445334317E+02  0.17749905124E+02  0.30333066819E+02  0.50528858717E+02  0.29999996556E+02 0.  0.
         12    1    1    2    0    0  0.20445334317E+02 -0.17749905124E+02 -0.30333066819E+02  0.40659141283E+02  0.00000000000E+00 0. -1.
         11    1    3    3    0    0 -0.12213472212E+02  0.12625488894E+02  0.90442049955E+01  0.19757771067E+02  0.51100000000E-03 0. -1.
        -11    1    3    3    0    0 -0.90294858011E+01 -0.50158365672E+01  0.16645288889E+02  0.19589687919E+02  0.51100000000E-03 0.  1.
         12    1    3    3    0    0  0.79762369563E+00  0.10140252797E+02  0.46435729338E+01  0.11181399731E+02  0.00000000000E+00 0. -1.
</event>
<event>
 7    1  0.2746803E-013  0.5052886E+02  0.7816164E-02  0.1300439E+00
        -11   -1    0    0    0    0  0.00000000000E+00  0.00000000000E+00  0.45593999997E+02  0.45594000000E+02  0.51100000000E-03 0. -1.
         11   -1    0    0    0    0 -0.00000000000E+00 -0.00000000000E+00 -0.45593999997E+02  0.45594000000E+02  0.51100000000E-03 0.  1.
    9900012    2    1    2    0    0 -0.26255395402E+02  0.60663922065E+01 -0.30446987200E+02  0.50528856728E+02  0.29999990509E+02 0.  0.
         12    1    1    2    0    0  0.26255395402E+02 -0.60663922065E+01  0.30446987200E+02  0.40659143272E+02  0.00000000000E+00 0. -1.
         11    1    3    3    0    0  0.15217279990E+01  0.65885679624E+01 -0.16762626172E+02  0.18075135417E+02  0.51100000000E-03 0. -1.
        -11    1    3    3    0    0 -0.71003248454E+01  0.29921586990E+01 -0.70831643087E+01  0.10466080617E+02  0.51100000000E-03 0.  1.
         12    1    3    3    0    0 -0.20676798555E+02 -0.35143344549E+01 -0.66011967187E+01  0.21987640694E+02  0.00000000000E+00 0. -1.
</event>
<event>
 7    1  0.2746803E-013  0.5052886E+02  0.7816164E-02  0.1300439E+00
        -11   -1    0    0    0    0  0.00000000000E+00  0.00000000000E+00  0.45593999997E+02  0.45594000000E+02  0.51100000000E-03 0.  1.
         11   -1    0    0    0    0 -0.00000000000E+00 -0.00000000000E+00 -0.45593999997E+02  0.45594000000E+02  0.51100000000E-03 0. -1.
    9900012    2    1    2    0    0 -0.90188273404E+01  0.27369004030E+02  0.28683869511E+02  0.50528855908E+02  0.29999988018E+02 0.  0.
         12    1    1    2    0    0  0.90188273404E+01 -0.27369004030E+02 -0.28683869511E+02  0.40659144092E+02  0.00000000000E+00 0. -1.
         11    1    3    3    0    0 -0.14032647694E+02  0.18850890264E+02  0.90166404556E+01  0.25170837699E+02  0.51100000000E-03 0. -1.
        -11    1    3    3    0    0  0.43017625755E+01  0.11406562135E+02  0.11880573363E+02  0.17022421822E+02  0.51100000000E-03 0.  1.
        -12    1    3    3    0    0  0.71205777854E+00 -0.28884483699E+01  0.77866556923E+01  0.83355963875E+01  0.00000000000E+00 0.  1.
</event>
<event>
 7    1  0.2746803E-013  0.5052888E+02  0.7816164E-02  0.1300439E+00
        -11   -1    0    0    0    0  0.00000000000E+00  0.00000000000E+00  0.45593999997E+02  0.45594000000E+02  0.51100000000E-03 0.  1.
         11   -1    0    0    0    0 -0.00000000000E+00 -0.00000000000E+00 -0.45593999997E+02  0.45594000000E+02  0.51100000000E-03 0. -1.
    9900012    2    1    2    0    0  0.38098977437E+02  0.10667038000E+02  0.93726519285E+01  0.50528875739E+02  0.30000048297E+02 0.  0.
         12    1    1    2    0    0 -0.38098977437E+02 -0.10667038000E+02 -0.93726519285E+01  0.40659124261E+02  0.00000000000E+00 0. -1.
         11    1    3    3    0    0  0.43851342374E+01 -0.47112168225E+01  0.55162037730E+01  0.84766426464E+01  0.51100000000E-03 0. -1.
        -11    1    3    3    0    0  0.12869576610E+02  0.61088469337E+01  0.11162753004E+02  0.18098371967E+02  0.51100000000E-03 0.  1.
         12    1    3    3    0    0  0.20844266590E+02  0.92694078891E+01 -0.73063048484E+01  0.23953861126E+02  0.00000000000E+00 0. -1.
</event>
<event>
 7    1  0.2746803E-013  0.5052887E+02  0.7816164E-02  0.1300439E+00
        -11   -1    0    0    0    0  0.00000000000E+00  0.00000000000E+00  0.45593999997E+02  0.45594000000E+02  0.51100000000E-03 0.  1.
         11   -1    0    0    0    0 -0.00000000000E+00 -0.00000000000E+00 -0.45593999997E+02  0.45594000000E+02  0.51100000000E-03 0. -1.
    9900012    2    1    2    0    0  0.34216474581E+02  0.16149364568E+02  0.14886093435E+02  0.50528869581E+02  0.30000029577E+02 0.  0.
         12    1    1    2    0    0 -0.34216474581E+02 -0.16149364568E+02 -0.14886093435E+02  0.40659130419E+02  0.00000000000E+00 0. -1.
         11    1    3    3    0    0  0.18039993784E+02  0.18902575893E+02  0.22254630656E+01  0.26224062180E+02  0.51100000000E-03 0. -1.
        -11    1    3    3    0    0  0.39986018344E+01 -0.45307889881E+01 -0.76593220955E+00  0.60912657055E+01  0.51100000000E-03 0.  1.
        -12    1    3    3    0    0  0.12177878962E+02  0.17775776632E+01  0.13426562579E+02  0.18213541695E+02  0.00000000000E+00 0.  1.
</event>
<event>
 7    1  0.2746803E-013  0.5052886E+02  0.7816164E-02  0.1300439E+00
        -11   -1    0    0    0    0  0.00000000000E+00  0.00000000000E+00  0.45593999997E+02  0.45594000000E+02  0.51100000000E-03 0.  1.
         11   -1    0    0    0    0 -0.00000000000E+00 -0.00000000000E+00 -0.45593999997E+02  0.45594000000E+02  0.51100000000E-03 0. -1.
    9900012    2    1    2    0    0  0.24879558764E+02  0.23026299278E+02  0.22449116901E+02  0.50528858932E+02  0.29999997211E+02 0.  0.
         12    1    1    2    0    0 -0.24879558764E+02 -0.23026299278E+02 -0.22449116901E+02  0.40659141068E+02  0.00000000000E+00 0. -1.
         11    1    3    3    0    0  0.14293608382E+02  0.13645839841E+02  0.91417145486E+01  0.21773541988E+02  0.51100000000E-03 0. -1.
        -11    1    3    3    0    0  0.17142318675E+02  0.68301848355E+01  0.94372506816E+01  0.20726123978E+02  0.51100000000E-03 0.  1.
         12    1    3    3    0    0 -0.65563682935E+01  0.25502746011E+01  0.38701516707E+01  0.80291929666E+01  0.00000000000E+00 0. -1.
</event>
<event>
 7    1  0.2746803E-013  0.5052885E+02  0.7816164E-02  0.1300439E+00
        -11   -1    0    0    0    0  0.00000000000E+00  0.00000000000E+00  0.45593999997E+02  0.45594000000E+02  0.51100000000E-03 0.  1.
         11   -1    0    0    0    0 -0.00000000000E+00 -0.00000000000E+00 -0.45593999997E+02  0.45594000000E+02  0.51100000000E-03 0. -1.
    9900012    2    1    2    0    0  0.46290285196E+01  0.21155038656E+02  0.34412248213E+02  0.50528851058E+02  0.29999973277E+02 0.  0.
         12    1    1    2    0    0 -0.46290285196E+01 -0.21155038656E+02 -0.34412248213E+02  0.40659148942E+02  0.00000000000E+00 0. -1.
         11    1    3    3    0    0  0.24005486412E+01  0.16077900651E+02  0.19615849237E+02  0.25476323610E+02  0.51100000000E-03 0. -1.
        -11    1    3    3    0    0  0.44551013228E+01  0.37615451450E+01  0.19133867723E+02  0.20002550937E+02  0.51100000000E-03 0.  1.
         12    1    3    3    0    0 -0.22266214444E+01  0.13155928602E+01 -0.43374687473E+01  0.50499765113E+01  0.00000000000E+00 0. -1.
</event>
<event>
 7    1  0.2746803E-013  0.5052886E+02  0.7816164E-02  0.1300439E+00
        -11   -1    0    0    0    0  0.00000000000E+00  0.00000000000E+00  0.45593999997E+02  0.45594000000E+02  0.51100000000E-03 0.  1.
         11   -1    0    0    0    0 -0.00000000000E+00 -0.00000000000E+00 -0.45593999997E+02  0.45594000000E+02  0.51100000000E-03 0. -1.
    9900012    2    1    2    0    0  0.35335180545E+02 -0.18874969517E+02  0.69516787449E+01  0.50528864546E+02  0.30000014275E+02 0.  0.
         12    1    1    2    0    0 -0.35335180545E+02  0.18874969517E+02 -0.69516787449E+01  0.40659135454E+02  0.00000000000E+00 0. -1.
         11    1    3    3    0    0  0.34498477758E+01  0.31636082114E+01 -0.14911055072E+01  0.49125617030E+01  0.51100000000E-03 0. -1.
        -11    1    3    3    0    0  0.10668350941E+02 -0.23483081344E+01  0.12259049822E+02  0.16419883242E+02  0.51100000000E-03 0.  1.
         12    1    3    3    0    0  0.21216981829E+02 -0.19690269594E+02 -0.38162655700E+01  0.29196419601E+02  0.00000000000E+00 0. -1.
</event>
<event>
 7    1  0.2746803E-013  0.5052886E+02  0.7816164E-02  0.1300439E+00
        -11   -1    0    0    0    0  0.00000000000E+00  0.00000000000E+00  0.45593999997E+02  0.45594000000E+02  0.51100000000E-03 0.  1.
         11   -1    0    0    0    0 -0.00000000000E+00 -0.00000000000E+00 -0.45593999997E+02  0.45594000000E+02  0.51100000000E-03 0. -1.
    9900012    2    1    2    0    0 -0.38363677350E+02 -0.88471612070E+00  0.13439180578E+02  0.50528855432E+02  0.29999986570E+02 0.  0.
         12    1    1    2    0    0  0.38363677350E+02  0.88471612070E+00 -0.13439180578E+02  0.40659144568E+02  0.00000000000E+00 0. -1.
         11    1    3    3    0    0 -0.10083492256E+01  0.43041157296E+01 -0.42583719396E+01  0.61380707240E+01  0.51100000000E-03 0. -1.
        -11    1    3    3    0    0 -0.18960773259E+02 -0.52700852874E+01  0.12567763228E+01  0.19719640172E+02  0.51100000000E-03 0.  1.
        -12    1    3    3    0    0 -0.18394554865E+02  0.81253437108E-01  0.16440776195E+02  0.24671144536E+02  0.00000000000E+00 0.  1.
</event>
<event>
 7    1  0.2746803E-013  0.5052886E+02  0.7816164E-02  0.1300439E+00
        -11   -1    0    0    0    0  0.00000000000E+00  0.00000000000E+00  0.45593999997E+02  0.45594000000E+02  0.51100000000E-03 0.  1.
         11   -1    0    0    0    0 -0.00000000000E+00 -0.00000000000E+00 -0.45593999997E+02  0.45594000000E+02  0.51100000000E-03 0. -1.
    9900012    2    1    2    0    0  0.14487742650E+01 -0.11104867473E+01  0.40618145353E+02  0.50528857613E+02  0.29999993202E+02 0.  0.
         12    1    1    2    0    0 -0.14487742650E+01  0.11104867473E+01 -0.40618145353E+02  0.40659142387E+02  0.00000000000E+00 0. -1.
         11    1    3    3    0    0  0.38608071520E+01 -0.47992935727E+01  0.23857328528E+02  0.24639626122E+02  0.51100000000E-03 0. -1.
        -11    1    3    3    0    0 -0.72022439494E+01 -0.49913793620E+01  0.12085264779E+02  0.14927820031E+02  0.51100000000E-03 0.  1.
         12    1    3    3    0    0  0.47902110625E+01  0.86801861874E+01  0.46755520457E+01  0.10961411460E+02  0.00000000000E+00 0. -1.
</event>
<event>
 7    1  0.2746803E-013  0.5052885E+02  0.7816164E-02  0.1300439E+00
        -11   -1    0    0    0    0  0.00000000000E+00  0.00000000000E+00  0.45593999997E+02  0.45594000000E+02  0.51100000000E-03 0. -1.
         11   -1    0    0    0    0 -0.00000000000E+00 -0.00000000000E+00 -0.45593999997E+02  0.45594000000E+02  0.51100000000E-03 0.  1.
    9900012    2    1    2    0    0 -0.18273838059E+02  0.14775310549E+02 -0.33180163659E+02  0.50528853186E+02  0.29999979745E+02 0.  0.
         12    1    1    2    0    0  0.18273838059E+02 -0.14775310549E+02  0.33180163659E+02  0.40659146814E+02  0.00000000000E+00 0. -1.
         11    1    3    3    0    0  0.70635539833E+01  0.15046235098E+01 -0.69350576989E+01  0.10012627644E+02  0.51100000000E-03 0. -1.
        -11    1    3    3    0    0  0.98130733553E-01 -0.14647210670E+01 -0.11257493636E+01  0.18499592795E+01  0.51100000000E-03 0.  1.
        -12    1    3    3    0    0 -0.25435522775E+02  0.14735408107E+02 -0.25119356596E+02  0.38666266263E+02  0.00000000000E+00 0.  1.
</event>
<event>
 7    1  0.2746803E-013  0.5052890E+02  0.7816164E-02  0.1300439E+00
        -11   -1    0    0    0    0  0.00000000000E+00  0.00000000000E+00  0.45593999997E+02  0.45594000000E+02  0.51100000000E-03 0. -1.
         11   -1    0    0    0    0 -0.00000000000E+00 -0.00000000000E+00 -0.45593999997E+02  0.45594000000E+02  0.51100000000E-03 0.  1.
    9900012    2    1    2    0    0 -0.73852155011E+01  0.13074981928E+02 -0.37784467874E+02  0.50528898031E+02  0.30000116055E+02 0.  0.
         12    1    1    2    0    0  0.73852155011E+01 -0.13074981928E+02  0.37784467874E+02  0.40659101969E+02  0.00000000000E+00 0. -1.
         11    1    3    3    0    0 -0.79768425012E+01  0.40688296597E+01 -0.98592340920E+01  0.13318779532E+02  0.51100000000E-03 0. -1.
        -11    1    3    3    0    0 -0.20696242951E+01 -0.75408348060E+01 -0.94495597937E+01  0.12265468391E+02  0.51100000000E-03 0.  1.
        -12    1    3    3    0    0  0.26612512951E+01  0.16546987074E+02 -0.18475673988E+02  0.24944650108E+02  0.00000000000E+00 0.  1.
</event>
<event>
 7    1  0.2746803E-013  0.5052886E+02  0.7816164E-02  0.1300439E+00
        -11   -1    0    0    0    0  0.00000000000E+00  0.00000000000E+00  0.45593999997E+02  0.45594000000E+02  0.51100000000E-03 0. -1.
         11   -1    0    0    0    0 -0.00000000000E+00 -0.00000000000E+00 -0.45593999997E+02  0.45594000000E+02  0.51100000000E-03 0.  1.
    9900012    2    1    2    0    0 -0.34752904318E+02  0.69521620108E+01  0.19926586245E+02  0.50528858906E+02  0.29999997131E+02 0.  0.
         12    1    1    2    0    0  0.34752904318E+02 -0.69521620108E+01 -0.19926586245E+02  0.40659141094E+02  0.00000000000E+00 0. -1.
         11    1    3    3    0    0 -0.10133904668E+02  0.12556365876E+01 -0.45214794907E+01  0.11167650787E+02  0.51100000000E-03 0.  1.
        -11    1    3    3    0    0 -0.85066605918E+01  0.88900874909E+01  0.36008139476E+01  0.12820405273E+02  0.51100000000E-03 0. -1.
         12    1    3    3    0    0 -0.16112339058E+02 -0.31935620677E+01  0.20847251788E+02  0.26540802846E+02  0.00000000000E+00 0. -1.
</event>
<event>
 7    1  0.2746803E-013  0.5052884E+02  0.7816164E-02  0.1300439E+00
        -11   -1    0    0    0    0  0.00000000000E+00  0.00000000000E+00  0.45593999997E+02  0.45594000000E+02  0.51100000000E-03 0.  1.
         11   -1    0    0    0    0 -0.00000000000E+00 -0.00000000000E+00 -0.45593999997E+02  0.45594000000E+02  0.51100000000E-03 0. -1.
    9900012    2    1    2    0    0 -0.25987234471E+02  0.25850178592E+02  0.17595432437E+02  0.50528839515E+02  0.29999938189E+02 0.  0.
         12    1    1    2    0    0  0.25987234471E+02 -0.25850178592E+02 -0.17595432437E+02  0.40659160485E+02  0.00000000000E+00 0. -1.
         11    1    3    3    0    0 -0.98780076291E+01 -0.26214443205E+00  0.19487598087E+01  0.10071813118E+02  0.51100000000E-03 0. -1.
        -11    1    3    3    0    0 -0.68269942028E+01  0.77978945212E-01 -0.26351711901E+01  0.73183371078E+01  0.51100000000E-03 0.  1.
        -12    1    3    3    0    0 -0.92822326394E+01  0.26034344079E+02  0.18281843819E+02  0.33138689289E+02  0.00000000000E+00 0.  1.
</event>
<event>
 7    1  0.2746803E-013  0.5052887E+02  0.7816164E-02  0.1300439E+00
        -11   -1    0    0    0    0  0.00000000000E+00  0.00000000000E+00  0.45593999997E+02  0.45594000000E+02  0.51100000000E-03 0.  1.
         11   -1    0    0    0    0 -0.00000000000E+00 -0.00000000000E+00 -0.45593999997E+02  0.45594000000E+02  0.51100000000E-03 0. -1.
    9900012    2    1    2    0    0  0.16122360690E+02  0.33344477621E+02  0.16774401642E+02  0.50528865079E+02  0.30000015895E+02 0.  0.
         12    1    1    2    0    0 -0.16122360690E+02 -0.33344477621E+02 -0.16774401642E+02  0.40659134921E+02  0.00000000000E+00 0. -1.
         11    1    3    3    0    0  0.12024697410E+02  0.27354971357E+02  0.13072164685E+02  0.32615476320E+02  0.51100000000E-03 0. -1.
        -11    1    3    3    0    0  0.34350142375E+00  0.10706478191E+02 -0.23227324162E+00  0.10714505103E+02  0.51100000000E-03 0.  1.
         12    1    3    3    0    0  0.37541618562E+01 -0.47169719267E+01  0.39345101986E+01  0.71988836567E+01  0.00000000000E+00 0. -1.
</event>
<event>
 7    1  0.2746803E-013  0.5052886E+02  0.7816164E-02  0.1300439E+00
        -11   -1    0    0    0    0  0.00000000000E+00  0.00000000000E+00  0.45593999997E+02  0.45594000000E+02  0.51100000000E-03 0.  1.
         11   -1    0    0    0    0 -0.00000000000E+00 -0.00000000000E+00 -0.45593999997E+02  0.45594000000E+02  0.51100000000E-03 0. -1.
    9900012    2    1    2    0    0  0.12258935588E+02 -0.25453454596E+02  0.29240484523E+02  0.50528858497E+02  0.29999995887E+02 0.  0.
         12    1    1    2    0    0 -0.12258935588E+02  0.25453454596E+02 -0.29240484523E+02  0.40659141503E+02  0.00000000000E+00 0. -1.
         11    1    3    3    0    0  0.66415901576E+01 -0.18957170601E+02  0.18631044502E+02  0.27397095768E+02  0.51100000000E-03 0. -1.
        -11    1    3    3    0    0 -0.62402218112E+01 -0.59531513377E+01  0.53476798174E+01  0.10147810542E+02  0.51100000000E-03 0.  1.
         12    1    3    3    0    0  0.11857567241E+02 -0.54313265793E+00  0.52617602034E+01  0.12983952187E+02  0.00000000000E+00 0. -1.
</event>
<event>
 7    1  0.2746803E-013  0.5052886E+02  0.7816164E-02  0.1300439E+00
        -11   -1    0    0    0    0  0.00000000000E+00  0.00000000000E+00  0.45593999997E+02  0.45594000000E+02  0.51100000000E-03 0.  1.
         11   -1    0    0    0    0 -0.00000000000E+00 -0.00000000000E+00 -0.45593999997E+02  0.45594000000E+02  0.51100000000E-03 0. -1.
    9900012    2    1    2    0    0 -0.28765080463E+02 -0.23740263622E+02  0.16190603009E+02  0.50528860846E+02  0.30000003029E+02 0.  0.
         12    1    1    2    0    0  0.28765080463E+02  0.23740263622E+02 -0.16190603009E+02  0.40659139154E+02  0.00000000000E+00 0. -1.
         11    1    3    3    0    0 -0.10634037558E+02  0.35679266548E+01  0.57202001453E+01  0.12591010498E+02  0.51100000000E-03 0. -1.
        -11    1    3    3    0    0 -0.18981000979E+01 -0.76127555333E+01  0.96025000208E+01  0.12400195067E+02  0.51100000000E-03 0.  1.
        -12    1    3    3    0    0 -0.16232942808E+02 -0.19695434743E+02  0.86790284293E+00  0.25537655282E+02  0.00000000000E+00 0.  1.
</event>
<event>
 7    1  0.2746803E-013  0.5052885E+02  0.7816164E-02  0.1300439E+00
        -11   -1    0    0    0    0  0.00000000000E+00  0.00000000000E+00  0.45593999997E+02  0.45594000000E+02  0.51100000000E-03 0.  1.
         11   -1    0    0    0    0 -0.00000000000E+00 -0.00000000000E+00 -0.45593999997E+02  0.45594000000E+02  0.51100000000E-03 0. -1.
    9900012    2    1    2    0    0  0.15424471861E+02 -0.10566201549E+02  0.36105509419E+02  0.50528846568E+02  0.29999959629E+02 0.  0.
         12    1    1    2    0    0 -0.15424471861E+02  0.10566201549E+02 -0.36105509419E+02  0.40659153432E+02  0.00000000000E+00 0. -1.
         11    1    3    3    0    0  0.12805306648E+02 -0.10999250123E+02  0.20319631845E+02  0.26416790497E+02  0.51100000000E-03 0. -1.
        -11    1    3    3    0    0  0.34357361392E+01  0.11703703147E+01  0.19707539176E+02  0.20038990746E+02  0.51100000000E-03 0.  1.
        -12    1    3    3    0    0 -0.81657092612E+00 -0.73732174146E+00 -0.39216616012E+01  0.40730653250E+01  0.00000000000E+00 0.  1.
</event>
<event>
 7    1  0.2746803E-013  0.5052887E+02  0.7816164E-02  0.1300439E+00
        -11   -1    0    0    0    0  0.00000000000E+00  0.00000000000E+00  0.45593999997E+02  0.45594000000E+02  0.51100000000E-03 0. -1.
         11   -1    0    0    0    0 -0.00000000000E+00 -0.00000000000E+00 -0.45593999997E+02  0.45594000000E+02  0.51100000000E-03 0.  1.
    9900012    2    1    2    0    0 -0.39763011652E+02  0.84478315778E+01  0.83767457381E+00  0.50528872455E+02  0.30000038315E+02 0.  0.
         12    1    1    2    0    0  0.39763011652E+02 -0.84478315778E+01 -0.83767457381E+00  0.40659127545E+02  0.00000000000E+00 0. -1.
         11    1    3    3    0    0 -0.95823376247E+01  0.44669998763E+01 -0.76895107582E+01  0.13073020241E+02  0.51100000000E-03 0. -1.
        -11    1    3    3    0    0 -0.93278817035E+01 -0.59011752309E+01 -0.33068561553E+01  0.11522523338E+02  0.51100000000E-03 0.  1.
         12    1    3    3    0    0 -0.20852792324E+02  0.98820069324E+01  0.11834041487E+02  0.25933328877E+02  0.00000000000E+00 0. -1.
</event>
<event>
 7    1  0.2746803E-013  0.5052887E+02  0.7816164E-02  0.1300439E+00
        -11   -1    0    0    0    0  0.00000000000E+00  0.00000000000E+00  0.45593999997E+02  0.45594000000E+02  0.51100000000E-03 0.  1.
         11   -1    0    0    0    0 -0.00000000000E+00 -0.00000000000E+00 -0.45593999997E+02  0.45594000000E+02  0.51100000000E-03 0. -1.
    9900012    2    1    2    0    0  0.37341121262E+02 -0.15927606460E+02  0.22621002218E+01  0.50528867175E+02  0.30000022265E+02 0.  0.
         12    1    1    2    0    0 -0.37341121262E+02  0.15927606460E+02 -0.22621002218E+01  0.40659132825E+02  0.00000000000E+00 0. -1.
         11    1    3    3    0    0  0.59045248784E+01  0.40409478252E+01  0.55446009803E+01  0.90518105183E+01  0.51100000000E-03 0.  1.
        -11    1    3    3    0    0  0.73771406592E+01 -0.10555506907E+02  0.57567549073E+01  0.14106068116E+02  0.51100000000E-03 0. -1.
        -12    1    3    3    0    0  0.24059455725E+02 -0.94130473785E+01 -0.90392556659E+01  0.27370988541E+02  0.00000000000E+00 0.  1.
</event>
<event>
 7    1  0.2746803E-013  0.5052886E+02  0.7816164E-02  0.1300439E+00
        -11   -1    0    0    0    0  0.00000000000E+00  0.00000000000E+00  0.45593999997E+02  0.45594000000E+02  0.51100000000E-03 0. -1.
         11   -1    0    0    0    0 -0.00000000000E+00 -0.00000000000E+00 -0.45593999997E+02  0.45594000000E+02  0.51100000000E-03 0.  1.
    9900012    2    1    2    0    0 -0.18269253619E+02  0.24116910551E+02  0.27162012537E+02  0.50528856780E+02  0.29999990669E+02 0.  0.
         12    1    1    2    0    0  0.18269253619E+02 -0.24116910551E+02 -0.27162012537E+02  0.40659143220E+02  0.00000000000E+00 0. -1.
         11    1    3    3    0    0 -0.48851525187E+01 -0.33485619285E+01  0.65682265936E+00  0.59589427239E+01  0.51100000000E-03 0. -1.
        -11    1    3    3    0    0 -0.10975783763E+01  0.16925766077E+01 -0.29331886173E+01  0.35599283126E+01  0.51100000000E-03 0.  1.
         12    1    3    3    0    0 -0.12286522724E+02  0.25772895872E+02  0.29438378495E+02  0.41009985743E+02  0.00000000000E+00 0. -1.
</event>
<event>
 7    1  0.2746803E-013  0.5052886E+02  0.7816164E-02  0.1300439E+00
        -11   -1    0    0    0    0  0.00000000000E+00  0.00000000000E+00  0.45593999997E+02  0.45594000000E+02  0.51100000000E-03 0.  1.
         11   -1    0    0    0    0 -0.00000000000E+00 -0.00000000000E+00 -0.45593999997E+02  0.45594000000E+02  0.51100000000E-03 0. -1.
    9900012    2    1    2    0    0  0.23895189435E+02 -0.29304866738E+02  0.14946914435E+02  0.50528861497E+02  0.30000005007E+02 0.  0.
         12    1    1    2    0    0 -0.23895189435E+02  0.29304866738E+02 -0.14946914435E+02  0.40659138503E+02  0.00000000000E+00 0. -1.
         11    1    3    3    0    0 -0.97406594565E+00 -0.14206654647E+01 -0.27941767638E+01  0.32824562263E+01  0.51100000000E-03 0. -1.
        -11    1    3    3    0    0  0.19606875790E+02 -0.15963943651E+02  0.61671779632E-01  0.25284004406E+02  0.51100000000E-03 0.  1.
        -12    1    3    3    0    0  0.52623795906E+01 -0.11920257622E+02  0.17679419419E+02  0.21962400864E+02  0.00000000000E+00 0.  1.
</event>
<event>
 7    1  0.2746803E-013  0.5052886E+02  0.7816164E-02  0.1300439E+00
        -11   -1    0    0    0    0  0.00000000000E+00  0.00000000000E+00  0.45593999997E+02  0.45594000000E+02  0.51100000000E-03 0. -1.
         11   -1    0    0    0    0 -0.00000000000E+00 -0.00000000000E+00 -0.45593999997E+02  0.45594000000E+02  0.51100000000E-03 0.  1.
    9900012    2    1    2    0    0  0.17026892016E+01 -0.59099563072E+00 -0.40619172096E+02  0.50528861198E+02  0.30000004098E+02 0.  0.
         12    1    1    2    0    0 -0.17026892016E+01  0.59099563072E+00  0.40619172096E+02  0.40659138802E+02  0.00000000000E+00 0. -1.
         11    1    3    3    0    0  0.85795286961E+01 -0.69138390587E+01 -0.20939420986E+02  0.23661547597E+02  0.51100000000E-03 0. -1.
        -11    1    3    3    0    0 -0.16562247096E+01  0.55529993252E+01 -0.20697166521E+02  0.21493058974E+02  0.51100000000E-03 0.  1.
         12    1    3    3    0    0 -0.52206147849E+01  0.76984410281E+00  0.10174154117E+01  0.53742546269E+01  0.00000000000E+00 0. -1.
</event>
<event>
 7    1  0.2746803E-013  0.5052884E+02  0.7816164E-02  0.1300439E+00
        -11   -1    0    0    0    0  0.00000000000E+00  0.00000000000E+00  0.45593999997E+02  0.45594000000E+02  0.51100000000E-03 0. -1.
         11   -1    0    0    0    0 -0.00000000000E+00 -0.00000000000E+00 -0.45593999997E+02  0.45594000000E+02  0.51100000000E-03 0.  1.
    9900012    2    1    2    0    0 -0.66430997816E+01  0.37435801467E+02 -0.14408246659E+02  0.50528836482E+02  0.29999928969E+02 0.  0.
         12    1    1    2    0    0  0.66430997816E+01 -0.37435801467E+02  0.14408246659E+02  0.40659163518E+02  0.00000000000E+00 0. -1.
         11    1    3    3    0    0 -0.62552548671E+01  0.17149866032E+02 -0.22992776327E+01  0.18399260753E+02  0.51100000000E-03 0. -1.
        -11    1    3    3    0    0 -0.66287415059E+01  0.18781426829E+02 -0.15151894672E+02  0.25025229672E+02  0.51100000000E-03 0.  1.
         12    1    3    3    0    0  0.62408965914E+01  0.15045086063E+01  0.30429256457E+01  0.71043460569E+01  0.00000000000E+00 0. -1.
</event>
<event>
 7    1  0.2746803E-013  0.5052886E+02  0.7816164E-02  0.1300439E+00
        -11   -1    0    0    0    0  0.00000000000E+00  0.00000000000E+00  0.45593999997E+02  0.45594000000E+02  0.51100000000E-03 0.  1.
         11   -1    0    0    0    0 -0.00000000000E+00 -0.00000000000E+00 -0.45593999997E+02  0.45594000000E+02  0.51100000000E-03 0. -1.
    9900012    2    1    2    0    0  0.15532193142E+02 -0.37505614993E+02 -0.22902548993E+01  0.50528862684E+02  0.30000008613E+02 0.  0.
         12    1    1    2    0    0 -0.15532193142E+02  0.37505614993E+02  0.22902548993E+01  0.40659137316E+02  0.00000000000E+00 0. -1.
         11    1    3    3    0    0 -0.26740012479E+01 -0.10801915654E+01 -0.77433222250E+00  0.29860822399E+01  0.51100000000E-03 0.  1.
        -11    1    3    3    0    0  0.55200837795E+01 -0.27187084950E+02 -0.10259297319E+02  0.29578067800E+02  0.51100000000E-03 0. -1.
        -12    1    3    3    0    0  0.12686110611E+02 -0.92383384770E+01  0.87433746423E+01  0.17964712644E+02  0.00000000000E+00 0.  1.
</event>
<event>
 7    1  0.2746803E-013  0.5052886E+02  0.7816164E-02  0.1300439E+00
        -11   -1    0    0    0    0  0.00000000000E+00  0.00000000000E+00  0.45593999997E+02  0.45594000000E+02  0.51100000000E-03 0. -1.
         11   -1    0    0    0    0 -0.00000000000E+00 -0.00000000000E+00 -0.45593999997E+02  0.45594000000E+02  0.51100000000E-03 0.  1.
    9900012    2    1    2    0    0  0.35529487657E+02 -0.19208721706E+02 -0.46740283432E+01  0.50528855596E+02  0.29999987068E+02 0.  0.
         12    1    1    2    0    0 -0.35529487657E+02  0.19208721706E+02  0.46740283432E+01  0.40659144404E+02  0.00000000000E+00 0. -1.
         11    1    3    3    0    0  0.96556285478E+01 -0.32984982921E+01  0.83541255685E+01  0.13187216079E+02  0.51100000000E-03 0. -1.
        -11    1    3    3    0    0 -0.79302254204E+00 -0.35449487876E+01 -0.61668497881E+01  0.71572049872E+01  0.51100000000E-03 0.  1.
        -12    1    3    3    0    0  0.26666881651E+02 -0.12365274627E+02 -0.68613041236E+01  0.30184434529E+02  0.00000000000E+00 0.  1.
</event>
<event>
 7    1  0.2746803E-013  0.5052891E+02  0.7816164E-02  0.1300439E+00
        -11   -1    0    0    0    0  0.00000000000E+00  0.00000000000E+00  0.45593999997E+02  0.45594000000E+02  0.51100000000E-03 0. -1.
         11   -1    0    0    0    0 -0.00000000000E+00 -0.00000000000E+00 -0.45593999997E+02  0.45594000000E+02  0.51100000000E-03 0.  1.
    9900012    2    1    2    0    0 -0.32991971184E+02 -0.54111220452E+01  0.23138960728E+02  0.50528906208E+02  0.30000140910E+02 0.  0.
         12    1    1    2    0    0  0.32991971184E+02  0.54111220452E+01 -0.23138960728E+02  0.40659093792E+02  0.00000000000E+00 0. -1.
         11    1    3    3    0    0 -0.10618253099E+02 -0.50354153060E+00  0.13589351379E+02  0.17253154034E+02  0.51100000000E-03 0.  1.
        -11    1    3    3    0    0  0.27912429276E+01  0.41552748459E+01  0.25990636324E+01  0.56402551496E+01  0.51100000000E-03 0. -1.
        -12    1    3    3    0    0 -0.25164961013E+02 -0.90628553605E+01  0.69505457164E+01  0.27635497025E+02  0.00000000000E+00 0.  1.
</event>
<event>
 7    1  0.2746803E-013  0.5052885E+02  0.7816164E-02  0.1300439E+00
        -11   -1    0    0    0    0  0.00000000000E+00  0.00000000000E+00  0.45593999997E+02  0.45594000000E+02  0.51100000000E-03 0. -1.
         11   -1    0    0    0    0 -0.00000000000E+00 -0.00000000000E+00 -0.45593999997E+02  0.45594000000E+02  0.51100000000E-03 0.  1.
    9900012    2    1    2    0    0  0.12303944473E+02 -0.29831910529E+02 -0.24735326000E+02  0.50528852349E+02  0.29999977200E+02 0.  0.
         12    1    1    2    0    0 -0.12303944473E+02  0.29831910529E+02  0.24735326000E+02  0.40659147651E+02  0.00000000000E+00 0. -1.
         11    1    3    3    0    0 -0.26940058025E+01 -0.12132866117E+02  0.57966798317E+00  0.12441869744E+02  0.51100000000E-03 0. -1.
        -11    1    3    3    0    0 -0.12122488437E+01 -0.12771577455E+01 -0.10542455494E+02  0.10688500703E+02  0.51100000000E-03 0.  1.
        -12    1    3    3    0    0  0.16210199119E+02 -0.16421886666E+02 -0.14772538489E+02  0.27398481902E+02  0.00000000000E+00 0.  1.
</event>
<event>
 7    1  0.2746803E-013  0.5052887E+02  0.7816164E-02  0.1300439E+00
        -11   -1    0    0    0    0  0.00000000000E+00  0.00000000000E+00  0.45593999997E+02  0.45594000000E+02  0.51100000000E-03 0.  1.
         11   -1    0    0    0    0 -0.00000000000E+00 -0.00000000000E+00 -0.45593999997E+02  0.45594000000E+02  0.51100000000E-03 0. -1.
    9900012    2    1    2    0    0  0.91041755910E+01  0.36450005021E+01  0.39458747523E+02  0.50528870669E+02  0.30000032887E+02 0.  0.
         12    1    1    2    0    0 -0.91041755910E+01 -0.36450005021E+01 -0.39458747523E+02  0.40659129331E+02  0.00000000000E+00 0. -1.
         11    1    3    3    0    0 -0.20248819865E+01  0.81925150582E+01  0.10679266751E+02  0.13611178811E+02  0.51100000000E-03 0.  1.
        -11    1    3    3    0    0  0.10107176407E+01 -0.94419882161E+01  0.21560850726E+02  0.23559350074E+02  0.51100000000E-03 0. -1.
         12    1    3    3    0    0  0.10118339937E+02  0.48944736600E+01  0.72186300465E+01  0.13358341785E+02  0.00000000000E+00 0. -1.
</event>
<event>
 7    1  0.2746803E-013  0.5052880E+02  0.7816164E-02  0.1300439E+00
        -11   -1    0    0    0    0  0.00000000000E+00  0.00000000000E+00  0.45593999997E+02  0.45594000000E+02  0.51100000000E-03 0. -1.
         11   -1    0    0    0    0 -0.00000000000E+00 -0.00000000000E+00 -0.45593999997E+02  0.45594000000E+02  0.51100000000E-03 0.  1.
    9900012    2    1    2    0    0 -0.37520575102E+02  0.12325955952E+02  0.96668399293E+01  0.50528800053E+02  0.29999818240E+02 0.  0.
         12    1    1    2    0    0  0.37520575102E+02 -0.12325955952E+02 -0.96668399293E+01  0.40659199947E+02  0.00000000000E+00 0. -1.
         11    1    3    3    0    0 -0.57376125598E+01 -0.26264651925E+01  0.28972321441E+01  0.69435201196E+01  0.51100000000E-03 0.  1.
        -11    1    3    3    0    0 -0.19132481778E+02  0.21447738602E+02  0.58829916408E+01  0.29337125644E+02  0.51100000000E-03 0. -1.
         12    1    3    3    0    0 -0.12650480765E+02 -0.64953174583E+01  0.88661614440E+00  0.14248154289E+02  0.00000000000E+00 0. -1.
</event>
<event>
 7    1  0.2746803E-013  0.5052886E+02  0.7816164E-02  0.1300439E+00
        -11   -1    0    0    0    0  0.00000000000E+00  0.00000000000E+00  0.45593999997E+02  0.45594000000E+02  0.51100000000E-03 0. -1.
         11   -1    0    0    0    0 -0.00000000000E+00 -0.00000000000E+00 -0.45593999997E+02  0.45594000000E+02  0.51100000000E-03 0.  1.
    9900012    2    1    2    0    0  0.14867943225E+02 -0.26496537413E+02 -0.27019315766E+02  0.50528860129E+02  0.30000000847E+02 0.  0.
         12    1    1    2    0    0 -0.14867943225E+02  0.26496537413E+02  0.27019315766E+02  0.40659139871E+02  0.00000000000E+00 0. -1.
         11    1    3    3    0    0 -0.11499963753E+01 -0.46440637067E+01  0.18968284169E-01  0.47843682375E+01  0.51100000000E-03 0. -1.
        -11    1    3    3    0    0  0.20520329081E+02 -0.10236307802E+02 -0.10993068194E+02  0.25430561370E+02  0.51100000000E-03 0.  1.
         12    1    3    3    0    0 -0.45023894808E+01 -0.11616165904E+02 -0.16045215856E+02  0.20313930521E+02  0.00000000000E+00 0. -1.
</event>
<event>
 7    1  0.2746803E-013  0.5052889E+02  0.7816164E-02  0.1300439E+00
        -11   -1    0    0    0    0  0.00000000000E+00  0.00000000000E+00  0.45593999997E+02  0.45594000000E+02  0.51100000000E-03 0.  1.
         11   -1    0    0    0    0 -0.00000000000E+00 -0.00000000000E+00 -0.45593999997E+02  0.45594000000E+02  0.51100000000E-03 0. -1.
    9900012    2    1    2    0    0  0.13513417823E+02 -0.18161240835E+01  0.38304730438E+02  0.50528891035E+02  0.30000094789E+02 0.  0.
         12    1    1    2    0    0 -0.13513417823E+02  0.18161240835E+01 -0.38304730438E+02  0.40659108965E+02  0.00000000000E+00 0. -1.
         11    1    3    3    0    0 -0.33292254371E+01  0.56631976813E+01 -0.16587771497E-01  0.65693093552E+01  0.51100000000E-03 0. -1.
        -11    1    3    3    0    0  0.49442748084E+01 -0.82463939316E+01  0.16927332505E+02  0.19467497329E+02  0.51100000000E-03 0.  1.
        -12    1    3    3    0    0  0.11898368452E+02  0.76707216673E+00  0.21393985705E+02  0.24492084351E+02  0.00000000000E+00 0.  1.
</event>
<event>
 7    1  0.2746803E-013  0.5052885E+02  0.7816164E-02  0.1300439E+00
        -11   -1    0    0    0    0  0.00000000000E+00  0.00000000000E+00  0.45593999997E+02  0.45594000000E+02  0.51100000000E-03 0.  1.
         11   -1    0    0    0    0 -0.00000000000E+00 -0.00000000000E+00 -0.45593999997E+02  0.45594000000E+02  0.51100000000E-03 0. -1.
    9900012    2    1    2    0    0 -0.14819016327E+02 -0.74483855591E+01  0.37122560222E+02  0.50528853799E+02  0.29999981607E+02 0.  0.
         12    1    1    2    0    0  0.14819016327E+02  0.74483855591E+01 -0.37122560222E+02  0.40659146201E+02  0.00000000000E+00 0. -1.
         11    1    3    3    0    0 -0.80879245070E+01 -0.41092989406E+01  0.65958859776E+01  0.11216352915E+02  0.51100000000E-03 0. -1.
        -11    1    3    3    0    0 -0.91088613809E+01 -0.12302615459E+02  0.16598777033E+02  0.22579749823E+02  0.51100000000E-03 0.  1.
        -12    1    3    3    0    0  0.23777695613E+01  0.89635288405E+01  0.13927897211E+02  0.16732751062E+02  0.00000000000E+00 0.  1.
</event>
<event>
 7    1  0.2746803E-013  0.5052887E+02  0.7816164E-02  0.1300439E+00
        -11   -1    0    0    0    0  0.00000000000E+00  0.00000000000E+00  0.45593999997E+02  0.45594000000E+02  0.51100000000E-03 0.  1.
         11   -1    0    0    0    0 -0.00000000000E+00 -0.00000000000E+00 -0.45593999997E+02  0.45594000000E+02  0.51100000000E-03 0. -1.
    9900012    2    1    2    0    0  0.85284041743E+01 -0.13899909428E+02  0.37245453514E+02  0.50528868586E+02  0.30000026555E+02 0.  0.
         12    1    1    2    0    0 -0.85284041743E+01  0.13899909428E+02 -0.37245453514E+02  0.40659131414E+02  0.00000000000E+00 0. -1.
         11    1    3    3    0    0  0.76030719028E+01  0.78864893877E+01  0.14324806103E+02  0.18033399218E+02  0.51100000000E-03 0. -1.
        -11    1    3    3    0    0  0.85094172205E+00 -0.54063354052E+00  0.37359742188E+01  0.38696110999E+01  0.51100000000E-03 0.  1.
         12    1    3    3    0    0  0.74390549408E-01 -0.21245765275E+02  0.19184673192E+02  0.28625858268E+02  0.00000000000E+00 0. -1.
</event>
<event>
 7    1  0.2746803E-013  0.5052886E+02  0.7816164E-02  0.1300439E+00
        -11   -1    0    0    0    0  0.00000000000E+00  0.00000000000E+00  0.45593999997E+02  0.45594000000E+02  0.51100000000E-03 0.  1.
         11   -1    0    0    0    0 -0.00000000000E+00 -0.00000000000E+00 -0.45593999997E+02  0.45594000000E+02  0.51100000000E-03 0. -1.
    9900012    2    1    2    0    0 -0.33230017562E+02  0.21529133435E+02  0.92427407409E+01  0.50528856994E+02  0.29999991318E+02 0.  0.
         12    1    1    2    0    0  0.33230017562E+02 -0.21529133435E+02 -0.92427407409E+01  0.40659143006E+02  0.00000000000E+00 0. -1.
         11    1    3    3    0    0 -0.78073415766E+01 -0.44524348553E+01 -0.15414767832E+01  0.91189313831E+01  0.51100000000E-03 0. -1.
        -11    1    3    3    0    0 -0.46202366100E+01 -0.41188217869E+00 -0.25051532460E+01  0.52718143279E+01  0.51100000000E-03 0.  1.
        -12    1    3    3    0    0 -0.20802439375E+02  0.26393450469E+02  0.13289370770E+02  0.36138111283E+02  0.00000000000E+00 0.  1.
</event>
<event>
 7    1  0.2746803E-013  0.5052886E+02  0.7816164E-02  0.1300439E+00
        -11   -1    0    0    0    0  0.00000000000E+00  0.00000000000E+00  0.45593999997E+02  0.45594000000E+02  0.51100000000E-03 0.  1.
         11   -1    0    0    0    0 -0.00000000000E+00 -0.00000000000E+00 -0.45593999997E+02  0.45594000000E+02  0.51100000000E-03 0. -1.
    9900012    2    1    2    0    0 -0.95046790693E+01  0.36823532899E+02  0.14382412849E+02  0.50528864511E+02  0.30000014167E+02 0.  0.
         12    1    1    2    0    0  0.95046790693E+01 -0.36823532899E+02 -0.14382412849E+02  0.40659135489E+02  0.00000000000E+00 0. -1.
         11    1    3    3    0    0 -0.74954267668E+01 -0.20897625802E+00  0.56612064706E+00  0.75196799361E+01  0.51100000000E-03 0. -1.
        -11    1    3    3    0    0 -0.89418083644E+01  0.18625961407E+02  0.40704804429E+01  0.21058280710E+02  0.51100000000E-03 0.  1.
         12    1    3    3    0    0  0.69325560619E+01  0.18406547750E+02  0.97458117593E+01  0.21950903865E+02  0.00000000000E+00 0. -1.
</event>
<event>
 7    1  0.2746803E-013  0.5052887E+02  0.7816164E-02  0.1300439E+00
        -11   -1    0    0    0    0  0.00000000000E+00  0.00000000000E+00  0.45593999997E+02  0.45594000000E+02  0.51100000000E-03 0.  1.
         11   -1    0    0    0    0 -0.00000000000E+00 -0.00000000000E+00 -0.45593999997E+02  0.45594000000E+02  0.51100000000E-03 0. -1.
    9900012    2    1    2    0    0  0.34788648221E+02  0.57398029462E+01  0.20247710946E+02  0.50528865953E+02  0.30000018551E+02 0.  0.
         12    1    1    2    0    0 -0.34788648221E+02 -0.57398029462E+01 -0.20247710946E+02  0.40659134047E+02  0.00000000000E+00 0. -1.
         11    1    3    3    0    0  0.17785841337E+02 -0.35015805714E+01  0.32773721175E+01  0.18421139672E+02  0.51100000000E-03 0. -1.
        -11    1    3    3    0    0  0.15866877350E+02  0.15014797836E+01  0.31782711656E+01  0.16251573655E+02  0.51100000000E-03 0.  1.
         12    1    3    3    0    0  0.11359295340E+01  0.77399037340E+01  0.13792067662E+02  0.15856152627E+02  0.00000000000E+00 0. -1.
</event>
<event>
 7    1  0.2746803E-013  0.5052885E+02  0.7816164E-02  0.1300439E+00
        -11   -1    0    0    0    0  0.00000000000E+00  0.00000000000E+00  0.45593999997E+02  0.45594000000E+02  0.51100000000E-03 0. -1.
         11   -1    0    0    0    0 -0.00000000000E+00 -0.00000000000E+00 -0.45593999997E+02  0.45594000000E+02  0.51100000000E-03 0.  1.
    9900012    2    1    2    0    0  0.31925367771E+02 -0.17474147204E+02 -0.18127105186E+02  0.50528845185E+02  0.29999955425E+02 0.  0.
         12    1    1    2    0    0 -0.31925367771E+02  0.17474147204E+02  0.18127105186E+02  0.40659154815E+02  0.00000000000E+00 0. -1.
         11    1    3    3    0    0  0.25318492978E+02 -0.20101432888E+02 -0.12599265868E+02  0.34696328214E+02  0.51100000000E-03 0.  1.
        -11    1    3    3    0    0  0.44199278339E+01 -0.25965077350E+01 -0.81213014152E+01  0.96038092137E+01  0.51100000000E-03 0. -1.
         12    1    3    3    0    0  0.21869469591E+01  0.52237934189E+01  0.25934620972E+01  0.62287077580E+01  0.00000000000E+00 0. -1.
</event>
<event>
 7    1  0.2746803E-013  0.5052887E+02  0.7816164E-02  0.1300439E+00
        -11   -1    0    0    0    0  0.00000000000E+00  0.00000000000E+00  0.45593999997E+02  0.45594000000E+02  0.51100000000E-03 0.  1.
         11   -1    0    0    0    0 -0.00000000000E+00 -0.00000000000E+00 -0.45593999997E+02  0.45594000000E+02  0.51100000000E-03 0. -1.
    9900012    2    1    2    0    0 -0.10512917442E+02  0.10918858798E+02  0.37728267242E+02  0.50528867450E+02  0.30000023101E+02 0.  0.
         12    1    1    2    0    0  0.10512917442E+02 -0.10918858798E+02 -0.37728267242E+02  0.40659132550E+02  0.00000000000E+00 0. -1.
         11    1    3    3    0    0 -0.24564234975E+01  0.62839821533E+01  0.10538026432E+02  0.12512891331E+02  0.51100000000E-03 0. -1.
        -11    1    3    3    0    0 -0.67001225191E+01  0.14555840136E+02  0.20294949348E+02  0.25858250001E+02  0.51100000000E-03 0.  1.
         12    1    3    3    0    0 -0.13563714250E+01 -0.99209634904E+01  0.68952914622E+01  0.12157726118E+02  0.00000000000E+00 0. -1.
</event>
<event>
 7    1  0.2746803E-013  0.5052886E+02  0.7816164E-02  0.1300439E+00
        -11   -1    0    0    0    0  0.00000000000E+00  0.00000000000E+00  0.45593999997E+02  0.45594000000E+02  0.51100000000E-03 0. -1.
         11   -1    0    0    0    0 -0.00000000000E+00 -0.00000000000E+00 -0.45593999997E+02  0.45594000000E+02  0.51100000000E-03 0.  1.
    9900012    2    1    2    0    0 -0.35223398927E+02  0.15325846978E+02  0.13326519278E+02  0.50528861622E+02  0.30000005387E+02 0.  0.
         12    1    1    2    0    0  0.35223398927E+02 -0.15325846978E+02 -0.13326519278E+02  0.40659138378E+02  0.00000000000E+00 0. -1.
         11    1    3    3    0    0 -0.11427813288E+02  0.13215050985E+02  0.48393891563E+01  0.18128766554E+02  0.51100000000E-03 0.  1.
        -11    1    3    3    0    0  0.55213980783E+00 -0.12074881092E+01  0.77011031380E+01  0.78147217292E+01  0.51100000000E-03 0. -1.
        -12    1    3    3    0    0 -0.24347725447E+02  0.33182841017E+01  0.78602698419E+00  0.24585373339E+02  0.00000000000E+00 0.  1.
</event>
<event>
 7    1  0.2746803E-013  0.5052888E+02  0.7816164E-02  0.1300439E+00
        -11   -1    0    0    0    0  0.00000000000E+00  0.00000000000E+00  0.45593999997E+02  0.45594000000E+02  0.51100000000E-03 0. -1.
         11   -1    0    0    0    0 -0.00000000000E+00 -0.00000000000E+00 -0.45593999997E+02  0.45594000000E+02  0.51100000000E-03 0.  1.
    9900012    2    1    2    0    0  0.29088185971E+02  0.16411087740E+02 -0.23188741548E+02  0.50528879271E+02  0.30000059032E+02 0.  0.
         12    1    1    2    0    0 -0.29088185971E+02 -0.16411087740E+02  0.23188741548E+02  0.40659120729E+02  0.00000000000E+00 0. -1.
         11    1    3    3    0    0  0.18691923144E+02  0.18665532644E+01 -0.15523893491E+02  0.24369310234E+02  0.51100000000E-03 0.  1.
        -11    1    3    3    0    0  0.10317555929E+02  0.12495506532E+02  0.19563508294E+01  0.16322283929E+02  0.51100000000E-03 0. -1.
         12    1    3    3    0    0  0.78706898526E-01  0.20490279434E+01 -0.96211988857E+01  0.98372851075E+01  0.00000000000E+00 0. -1.
</event>
<event>
 7    1  0.2746803E-013  0.5052886E+02  0.7816164E-02  0.1300439E+00
        -11   -1    0    0    0    0  0.00000000000E+00  0.00000000000E+00  0.45593999997E+02  0.45594000000E+02  0.51100000000E-03 0.  1.
         11   -1    0    0    0    0 -0.00000000000E+00 -0.00000000000E+00 -0.45593999997E+02  0.45594000000E+02  0.51100000000E-03 0. -1.
    9900012    2    1    2    0    0 -0.21569667012E+02 -0.27335303300E+02  0.20992771840E+02  0.50528858211E+02  0.29999995018E+02 0.  0.
         12    1    1    2    0    0  0.21569667012E+02  0.27335303300E+02 -0.20992771840E+02  0.40659141789E+02  0.00000000000E+00 0. -1.
         11    1    3    3    0    0 -0.16284117658E+02 -0.11633284195E+02  0.28683262821E+01  0.20217148290E+02  0.51100000000E-03 0. -1.
        -11    1    3    3    0    0  0.40744804170E+01  0.14450411967E+01  0.12575427430E+01  0.45023270361E+01  0.51100000000E-03 0.  1.
        -12    1    3    3    0    0 -0.93600297704E+01 -0.17147060302E+02  0.16866902815E+02  0.25809382884E+02  0.00000000000E+00 0.  1.
</event>
<event>
 7    1  0.2746803E-013  0.5052887E+02  0.7816164E-02  0.1300439E+00
        -11   -1    0    0    0    0  0.00000000000E+00  0.00000000000E+00  0.45593999997E+02  0.45594000000E+02  0.51100000000E-03 0.  1.
         11   -1    0    0    0    0 -0.00000000000E+00 -0.00000000000E+00 -0.45593999997E+02  0.45594000000E+02  0.51100000000E-03 0. -1.
    9900012    2    1    2    0    0  0.80015039284E+01  0.37613983561E+02  0.13203358523E+02  0.50528874324E+02  0.30000043994E+02 0.  0.
         12    1    1    2    0    0 -0.80015039284E+01 -0.37613983561E+02 -0.13203358523E+02  0.40659125676E+02  0.00000000000E+00 0. -1.
         11    1    3    3    0    0  0.60091519964E+01  0.39934436649E+02  0.72887882224E+01  0.41036515108E+02  0.51100000000E-03 0. -1.
        -11    1    3    3    0    0  0.28792885313E+01 -0.10933989924E-01  0.63574284703E+01  0.69790629037E+01  0.51100000000E-03 0.  1.
        -12    1    3    3    0    0 -0.88693659932E+00 -0.23095190978E+01 -0.44285816919E+00  0.25132963121E+01  0.00000000000E+00 0.  1.
</event>
<event>
 7    1  0.2746803E-013  0.5052888E+02  0.7816164E-02  0.1300439E+00
        -11   -1    0    0    0    0  0.00000000000E+00  0.00000000000E+00  0.45593999997E+02  0.45594000000E+02  0.51100000000E-03 0.  1.
         11   -1    0    0    0    0 -0.00000000000E+00 -0.00000000000E+00 -0.45593999997E+02  0.45594000000E+02  0.51100000000E-03 0. -1.
    9900012    2    1    2    0    0  0.18496205134E+02  0.11119114401E+02  0.34458959018E+02  0.50528878440E+02  0.30000056505E+02 0.  0.
         12    1    1    2    0    0 -0.18496205134E+02 -0.11119114401E+02 -0.34458959018E+02  0.40659121560E+02  0.00000000000E+00 0. -1.
         11    1    3    3    0    0 -0.24363625267E+01  0.12441926243E+02  0.97040891017E+01  0.15965798964E+02  0.51100000000E-03 0. -1.
        -11    1    3    3    0    0  0.50777620367E+01  0.24792710450E+01  0.98053384725E+00  0.57351459531E+01  0.51100000000E-03 0.  1.
        -12    1    3    3    0    0  0.15854805624E+02 -0.38020828870E+01  0.23774336069E+02  0.28827933523E+02  0.00000000000E+00 0.  1.
</event>
<event>
 7    1  0.2746803E-013  0.5052887E+02  0.7816164E-02  0.1300439E+00
        -11   -1    0    0    0    0  0.00000000000E+00  0.00000000000E+00  0.45593999997E+02  0.45594000000E+02  0.51100000000E-03 0.  1.
         11   -1    0    0    0    0 -0.00000000000E+00 -0.00000000000E+00 -0.45593999997E+02  0.45594000000E+02  0.51100000000E-03 0. -1.
    9900012    2    1    2    0    0  0.16356713512E+02  0.19043824561E+02  0.31983673544E+02  0.50528871822E+02  0.30000036391E+02 0.  0.
         12    1    1    2    0    0 -0.16356713512E+02 -0.19043824561E+02 -0.31983673544E+02  0.40659128178E+02  0.00000000000E+00 0. -1.
         11    1    3    3    0    0  0.57069645111E+01 -0.33997534221E+01  0.40158861280E+01  0.77624164354E+01  0.51100000000E-03 0. -1.
        -11    1    3    3    0    0 -0.14531601949E+01  0.93849793881E+01  0.22043183724E+02  0.24001905375E+02  0.51100000000E-03 0.  1.
         12    1    3    3    0    0  0.12102909195E+02  0.13058598595E+02  0.59246036917E+01  0.18764550012E+02  0.00000000000E+00 0. -1.
</event>
<event>
 7    1  0.2746803E-013  0.5052886E+02  0.7816164E-02  0.1300439E+00
        -11   -1    0    0    0    0  0.00000000000E+00  0.00000000000E+00  0.45593999997E+02  0.45594000000E+02  0.51100000000E-03 0. -1.
         11   -1    0    0    0    0 -0.00000000000E+00 -0.00000000000E+00 -0.45593999997E+02  0.45594000000E+02  0.51100000000E-03 0.  1.
    9900012    2    1    2    0    0  0.18541726077E+02 -0.22447598213E+02 -0.28380897433E+02  0.50528860676E+02  0.30000002512E+02 0.  0.
         12    1    1    2    0    0 -0.18541726077E+02  0.22447598213E+02  0.28380897433E+02  0.40659139324E+02  0.00000000000E+00 0. -1.
         11    1    3    3    0    0  0.16212837194E+02 -0.17433737419E+02 -0.51315527224E+01  0.24354139768E+02  0.51100000000E-03 0. -1.
        -11    1    3    3    0    0  0.52743957961E+01 -0.55148560652E+01 -0.99251604802E+01  0.12519652521E+02  0.51100000000E-03 0.  1.
         12    1    3    3    0    0 -0.29455069128E+01  0.50099527129E+00 -0.13324184230E+02  0.13655068387E+02  0.00000000000E+00 0. -1.
</event>
<event>
 7    1  0.2746803E-013  0.5052886E+02  0.7816164E-02  0.1300439E+00
        -11   -1    0    0    0    0  0.00000000000E+00  0.00000000000E+00  0.45593999997E+02  0.45594000000E+02  0.51100000000E-03 0.  1.
         11   -1    0    0    0    0 -0.00000000000E+00 -0.00000000000E+00 -0.45593999997E+02  0.45594000000E+02  0.51100000000E-03 0. -1.
    9900012    2    1    2    0    0 -0.18678481299E+02  0.10114858169E+02  0.34669431569E+02  0.50528861978E+02  0.30000006468E+02 0.  0.
         12    1    1    2    0    0  0.18678481299E+02 -0.10114858169E+02 -0.34669431569E+02  0.40659138022E+02  0.00000000000E+00 0. -1.
         11    1    3    3    0    0  0.33060225585E+01  0.50190815503E+01  0.14471938130E+02  0.15670289030E+02  0.51100000000E-03 0. -1.
        -11    1    3    3    0    0 -0.36517196892E+01  0.53295180325E+01 -0.13151461215E+01  0.65930591329E+01  0.51100000000E-03 0.  1.
         12    1    3    3    0    0 -0.18332784168E+02 -0.23374141359E+00  0.21512639560E+02  0.28265513815E+02  0.00000000000E+00 0. -1.
</event>
<event>
 7    1  0.2746803E-013  0.5052886E+02  0.7816164E-02  0.1300439E+00
        -11   -1    0    0    0    0  0.00000000000E+00  0.00000000000E+00  0.45593999997E+02  0.45594000000E+02  0.51100000000E-03 0.  1.
         11   -1    0    0    0    0 -0.00000000000E+00 -0.00000000000E+00 -0.45593999997E+02  0.45594000000E+02  0.51100000000E-03 0. -1.
    9900012    2    1    2    0    0 -0.12978981420E+01 -0.37971600824E+02 -0.14478899827E+02  0.50528861434E+02  0.30000004815E+02 0.  0.
         12    1    1    2    0    0  0.12978981420E+01  0.37971600824E+02  0.14478899827E+02  0.40659138566E+02  0.00000000000E+00 0. -1.
         11    1    3    3    0    0 -0.52550407600E+01 -0.17065335942E+01 -0.10923480948E+02  0.12241329445E+02  0.51100000000E-03 0. -1.
        -11    1    3    3    0    0  0.32343449672E+01 -0.56974329170E+01  0.26862293156E+01  0.70807879087E+01  0.51100000000E-03 0.  1.
        -12    1    3    3    0    0  0.72279765085E+00 -0.30567634313E+02 -0.62416481947E+01  0.31206744081E+02  0.00000000000E+00 0.  1.
</event>
<event>
 7    1  0.2746803E-013  0.5052886E+02  0.7816164E-02  0.1300439E+00
        -11   -1    0    0    0    0  0.00000000000E+00  0.00000000000E+00  0.45593999997E+02  0.45594000000E+02  0.51100000000E-03 0. -1.
         11   -1    0    0    0    0 -0.00000000000E+00 -0.00000000000E+00 -0.45593999997E+02  0.45594000000E+02  0.51100000000E-03 0.  1.
    9900012    2    1    2    0    0  0.23669370075E+02  0.19165300564E+02 -0.26937289062E+02  0.50528863665E+02  0.30000011598E+02 0.  0.
         12    1    1    2    0    0 -0.23669370075E+02 -0.19165300564E+02  0.26937289062E+02  0.40659136335E+02  0.00000000000E+00 0. -1.
         11    1    3    3    0    0 -0.26313815322E+01  0.79647978946E+01 -0.13890757545E+02  0.16226993551E+02  0.51100000000E-03 0. -1.
        -11    1    3    3    0    0  0.48325695255E+01 -0.32691416333E+01 -0.24450216248E+01  0.63260687828E+01  0.51100000000E-03 0.  1.
        -12    1    3    3    0    0  0.21468182082E+02  0.14469644303E+02 -0.10601509892E+02  0.27975801331E+02  0.00000000000E+00 0.  1.
</event>
<event>
 7    1  0.2746803E-013  0.5052886E+02  0.7816164E-02  0.1300439E+00
        -11   -1    0    0    0    0  0.00000000000E+00  0.00000000000E+00  0.45593999997E+02  0.45594000000E+02  0.51100000000E-03 0.  1.
         11   -1    0    0    0    0 -0.00000000000E+00 -0.00000000000E+00 -0.45593999997E+02  0.45594000000E+02  0.51100000000E-03 0. -1.
    9900012    2    1    2    0    0  0.31134642982E+02 -0.20073860454E+02  0.16758282891E+02  0.50528856962E+02  0.29999991221E+02 0.  0.
         12    1    1    2    0    0 -0.31134642982E+02  0.20073860454E+02 -0.16758282891E+02  0.40659143038E+02  0.00000000000E+00 0. -1.
         11    1    3    3    0    0  0.41541098425E+01  0.47255062913E+01  0.16253453993E+01  0.64983679659E+01  0.51100000000E-03 0. -1.
        -11    1    3    3    0    0  0.56458485241E+01 -0.39901846349E+01  0.12279126934E+02  0.14091633599E+02  0.51100000000E-03 0.  1.
        -12    1    3    3    0    0  0.21334684615E+02 -0.20809182111E+02  0.28538105574E+01  0.29938855396E+02  0.00000000000E+00 0.  1.
</event>
<event>
 7    1  0.2746803E-013  0.5052886E+02  0.7816164E-02  0.1300439E+00
        -11   -1    0    0    0    0  0.00000000000E+00  0.00000000000E+00  0.45593999997E+02  0.45594000000E+02  0.51100000000E-03 0. -1.
         11   -1    0    0    0    0 -0.00000000000E+00 -0.00000000000E+00 -0.45593999997E+02  0.45594000000E+02  0.51100000000E-03 0.  1.
    9900012    2    1    2    0    0 -0.37888412891E+02 -0.71399593964E+01 -0.12909486167E+02  0.50528859765E+02  0.29999999741E+02 0.  0.
         12    1    1    2    0    0  0.37888412891E+02  0.71399593964E+01  0.12909486167E+02  0.40659140235E+02  0.00000000000E+00 0. -1.
         11    1    3    3    0    0  0.14702571243E+01  0.20911616777E+01 -0.60788695060E+01  0.65944876910E+01  0.51100000000E-03 0. -1.
        -11    1    3    3    0    0 -0.10204031325E+02  0.17548026230E+01 -0.74778813596E+01  0.12771855676E+02  0.51100000000E-03 0.  1.
         12    1    3    3    0    0 -0.29154638691E+02 -0.10985923697E+02  0.64726469864E+00  0.31162516398E+02  0.00000000000E+00 0. -1.
</event>
<event>
 7    1  0.2746803E-013  0.5052876E+02  0.7816164E-02  0.1300439E+00
        -11   -1    0    0    0    0  0.00000000000E+00  0.00000000000E+00  0.45593999997E+02  0.45594000000E+02  0.51100000000E-03 0.  1.
         11   -1    0    0    0    0 -0.00000000000E+00 -0.00000000000E+00 -0.45593999997E+02  0.45594000000E+02  0.51100000000E-03 0. -1.
    9900012    2    1    2    0    0  0.30426113223E+02 -0.19236347904E+02  0.18904714213E+02  0.50528761615E+02  0.29999701404E+02 0.  0.
         12    1    1    2    0    0 -0.30426113223E+02  0.19236347904E+02 -0.18904714213E+02  0.40659238385E+02  0.00000000000E+00 0. -1.
         11    1    3    3    0    0  0.38331209393E+01 -0.10666584444E+02  0.26882148348E+01  0.11648834238E+02  0.51100000000E-03 0. -1.
        -11    1    3    3    0    0 -0.24595485367E+00 -0.26716651908E+01  0.10467150481E+02  0.10805532293E+02  0.51100000000E-03 0.  1.
        -12    1    3    3    0    0  0.26838947138E+02 -0.58980982693E+01  0.57493488978E+01  0.28074395085E+02  0.00000000000E+00 0.  1.
</event>
<event>
 7    1  0.2746803E-013  0.5052886E+02  0.7816164E-02  0.1300439E+00
        -11   -1    0    0    0    0  0.00000000000E+00  0.00000000000E+00  0.45593999997E+02  0.45594000000E+02  0.51100000000E-03 0. -1.
         11   -1    0    0    0    0 -0.00000000000E+00 -0.00000000000E+00 -0.45593999997E+02  0.45594000000E+02  0.51100000000E-03 0.  1.
    9900012    2    1    2    0    0  0.46647891274E+01  0.30157187141E+02 -0.26869118144E+02  0.50528859531E+02  0.29999999029E+02 0.  0.
         12    1    1    2    0    0 -0.46647891274E+01 -0.30157187141E+02  0.26869118144E+02  0.40659140469E+02  0.00000000000E+00 0. -1.
         11    1    3    3    0    0  0.40344049060E+01  0.25836293043E+02 -0.19916646380E+02  0.32870401039E+02  0.51100000000E-03 0. -1.
        -11    1    3    3    0    0  0.65799069001E+01  0.45364074440E+01 -0.83339899252E+01  0.11546841804E+02  0.51100000000E-03 0.  1.
         12    1    3    3    0    0 -0.59495226788E+01 -0.21551334605E+00  0.13815181612E+01  0.61116166877E+01  0.00000000000E+00 0. -1.
</event>
<event>
 7    1  0.2746803E-013  0.5052886E+02  0.7816164E-02  0.1300439E+00
        -11   -1    0    0    0    0  0.00000000000E+00  0.00000000000E+00  0.45593999997E+02  0.45594000000E+02  0.51100000000E-03 0.  1.
         11   -1    0    0    0    0 -0.00000000000E+00 -0.00000000000E+00 -0.45593999997E+02  0.45594000000E+02  0.51100000000E-03 0. -1.
    9900012    2    1    2    0    0 -0.11305979558E+02 -0.45774936550E+01  0.38786427984E+02  0.50528860589E+02  0.30000002245E+02 0.  0.
         12    1    1    2    0    0  0.11305979558E+02  0.45774936550E+01 -0.38786427984E+02  0.40659139411E+02  0.00000000000E+00 0. -1.
         11    1    3    3    0    0  0.50626300354E+01  0.15415519964E+01 -0.22843646399E+00  0.52970547394E+01  0.51100000000E-03 0. -1.
        -11    1    3    3    0    0 -0.61215871092E+01 -0.75471057729E+01  0.29913229319E+02  0.31452089324E+02  0.51100000000E-03 0.  1.
         12    1    3    3    0    0 -0.10247022484E+02  0.14280601215E+01  0.91016351284E+01  0.13779716525E+02  0.00000000000E+00 0. -1.
</event>
<event>
 7    1  0.2746803E-013  0.5052886E+02  0.7816164E-02  0.1300439E+00
        -11   -1    0    0    0    0  0.00000000000E+00  0.00000000000E+00  0.45593999997E+02  0.45594000000E+02  0.51100000000E-03 0. -1.
         11   -1    0    0    0    0 -0.00000000000E+00 -0.00000000000E+00 -0.45593999997E+02  0.45594000000E+02  0.51100000000E-03 0.  1.
    9900012    2    1    2    0    0  0.59000519812E+00  0.40469210834E+02 -0.38808120190E+01  0.50528857933E+02  0.29999994174E+02 0.  0.
         12    1    1    2    0    0 -0.59000519812E+00 -0.40469210834E+02  0.38808120190E+01  0.40659142067E+02  0.00000000000E+00 0. -1.
         11    1    3    3    0    0 -0.96352586400E+01  0.35537195597E+02 -0.25474740594E-01  0.36820254333E+02  0.51100000000E-03 0. -1.
        -11    1    3    3    0    0  0.60794776593E+01  0.35445729437E+01  0.10752163595E+01  0.71189982753E+01  0.51100000000E-03 0.  1.
        -12    1    3    3    0    0  0.41457861788E+01  0.13874422934E+01 -0.49305536379E+01  0.65896053246E+01  0.00000000000E+00 0.  1.
</event>
<event>
 7    1  0.2746803E-013  0.5052887E+02  0.7816164E-02  0.1300439E+00
        -11   -1    0    0    0    0  0.00000000000E+00  0.00000000000E+00  0.45593999997E+02  0.45594000000E+02  0.51100000000E-03 0. -1.
         11   -1    0    0    0    0 -0.00000000000E+00 -0.00000000000E+00 -0.45593999997E+02  0.45594000000E+02  0.51100000000E-03 0.  1.
    9900012    2    1    2    0    0  0.25320557304E+02 -0.56894976510E+01 -0.31299586455E+02  0.50528866734E+02  0.30000020923E+02 0.  0.
         12    1    1    2    0    0 -0.25320557304E+02  0.56894976510E+01  0.31299586455E+02  0.40659133266E+02  0.00000000000E+00 0. -1.
         11    1    3    3    0    0  0.57310182528E+01 -0.15745302044E+01  0.32984989194E+00  0.59525218850E+01  0.51100000000E-03 0. -1.
        -11    1    3    3    0    0  0.10927537167E+02 -0.14242755123E+02 -0.16113851090E+02  0.24123087266E+02  0.51100000000E-03 0.  1.
        -12    1    3    3    0    0  0.86620018843E+01  0.10127787676E+02 -0.15515585257E+02  0.20453257583E+02  0.00000000000E+00 0.  1.
</event>
<event>
 7    1  0.2746803E-013  0.5052886E+02  0.7816164E-02  0.1300439E+00
        -11   -1    0    0    0    0  0.00000000000E+00  0.00000000000E+00  0.45593999997E+02  0.45594000000E+02  0.51100000000E-03 0.  1.
         11   -1    0    0    0    0 -0.00000000000E+00 -0.00000000000E+00 -0.45593999997E+02  0.45594000000E+02  0.51100000000E-03 0. -1.
    9900012    2    1    2    0    0 -0.12945037953E+02  0.38347000035E+02 -0.38857327307E+01  0.50528864026E+02  0.30000012694E+02 0.  0.
         12    1    1    2    0    0  0.12945037953E+02 -0.38347000035E+02  0.38857327307E+01  0.40659135974E+02  0.00000000000E+00 0. -1.
         11    1    3    3    0    0 -0.10267498262E+02  0.15659655380E+02 -0.10837540234E+02  0.21635586560E+02  0.51100000000E-03 0. -1.
        -11    1    3    3    0    0  0.77181444349E+00 -0.23501493486E+01  0.19005805219E+01  0.31194720831E+01  0.51100000000E-03 0.  1.
        -12    1    3    3    0    0 -0.34493541345E+01  0.25037494003E+02  0.50512269820E+01  0.25773805383E+02  0.00000000000E+00 0.  1.
</event>
<event>
 7    1  0.2746803E-013  0.5052886E+02  0.7816164E-02  0.1300439E+00
        -11   -1    0    0    0    0  0.00000000000E+00  0.00000000000E+00  0.45593999997E+02  0.45594000000E+02  0.51100000000E-03 0.  1.
         11   -1    0    0    0    0 -0.00000000000E+00 -0.00000000000E+00 -0.45593999997E+02  0.45594000000E+02  0.51100000000E-03 0. -1.
    9900012    2    1    2    0    0  0.93853801093E+01 -0.37542952046E+02  0.12474248570E+02  0.50528862213E+02  0.30000007184E+02 0.  0.
         12    1    1    2    0    0 -0.93853801093E+01  0.37542952046E+02 -0.12474248570E+02  0.40659137787E+02  0.00000000000E+00 0. -1.
         11    1    3    3    0    0 -0.64657160631E+01 -0.12609050940E+02 -0.46249266431E+01  0.14905824249E+02  0.51100000000E-03 0. -1.
        -11    1    3    3    0    0  0.54939782519E+01 -0.17551814587E+02  0.11754453568E+02  0.21826982642E+02  0.51100000000E-03 0.  1.
        -12    1    3    3    0    0  0.10357117921E+02 -0.73820865198E+01  0.53447216451E+01  0.13796055323E+02  0.00000000000E+00 0.  1.
</event>
<event>
 7    1  0.2746803E-013  0.5052886E+02  0.7816164E-02  0.1300439E+00
        -11   -1    0    0    0    0  0.00000000000E+00  0.00000000000E+00  0.45593999997E+02  0.45594000000E+02  0.51100000000E-03 0.  1.
         11   -1    0    0    0    0 -0.00000000000E+00 -0.00000000000E+00 -0.45593999997E+02  0.45594000000E+02  0.51100000000E-03 0. -1.
    9900012    2    1    2    0    0 -0.40032951716E+02  0.45653422825E+01  0.54484791107E+01  0.50528862062E+02  0.30000006723E+02 0.  0.
         12    1    1    2    0    0  0.40032951716E+02 -0.45653422825E+01 -0.54484791107E+01  0.40659137938E+02  0.00000000000E+00 0. -1.
         11    1    3    3    0    0 -0.16844577855E+02 -0.79222592483E+01  0.20468007761E+01  0.18726755950E+02  0.51100000000E-03 0. -1.
        -11    1    3    3    0    0 -0.16095993060E+02  0.16123828594E+01  0.79764207814E+01  0.18036187508E+02  0.51100000000E-03 0.  1.
         12    1    3    3    0    0 -0.70923808010E+01  0.10875218671E+02 -0.45747424468E+01  0.13765918605E+02  0.00000000000E+00 0. -1.
</event>
<event>
 7    1  0.2746803E-013  0.5052886E+02  0.7816164E-02  0.1300439E+00
        -11   -1    0    0    0    0  0.00000000000E+00  0.00000000000E+00  0.45593999997E+02  0.45594000000E+02  0.51100000000E-03 0.  1.
         11   -1    0    0    0    0 -0.00000000000E+00 -0.00000000000E+00 -0.45593999997E+02  0.45594000000E+02  0.51100000000E-03 0. -1.
    9900012    2    1    2    0    0 -0.10866016221E+02 -0.28666896091E+02  0.26707760940E+02  0.50528859153E+02  0.29999997882E+02 0.  0.
         12    1    1    2    0    0  0.10866016221E+02  0.28666896091E+02 -0.26707760940E+02  0.40659140847E+02  0.00000000000E+00 0. -1.
         11    1    3    3    0    0 -0.95523348328E+01 -0.33511063439E+01  0.86311071419E+01  0.13303120884E+02  0.51100000000E-03 0. -1.
        -11    1    3    3    0    0 -0.48894750479E+01  0.49771564750E+00  0.77862068796E+01  0.92075895294E+01  0.51100000000E-03 0.  1.
         12    1    3    3    0    0  0.35757936599E+01 -0.25813505394E+02  0.10290446919E+02  0.28018148740E+02  0.00000000000E+00 0. -1.
</event>
<event>
 7    1  0.2746803E-013  0.5052885E+02  0.7816164E-02  0.1300439E+00
        -11   -1    0    0    0    0  0.00000000000E+00  0.00000000000E+00  0.45593999997E+02  0.45594000000E+02  0.51100000000E-03 0. -1.
         11   -1    0    0    0    0 -0.00000000000E+00 -0.00000000000E+00 -0.45593999997E+02  0.45594000000E+02  0.51100000000E-03 0.  1.
    9900012    2    1    2    0    0 -0.40638899856E+02 -0.68180386462E+00  0.10868660038E+01  0.50528852004E+02  0.29999976152E+02 0.  0.
         12    1    1    2    0    0  0.40638899856E+02  0.68180386462E+00 -0.10868660038E+01  0.40659147996E+02  0.00000000000E+00 0. -1.
         11    1    3    3    0    0  0.13037413616E+01 -0.54116518866E+00 -0.40896657572E+01  0.43264266509E+01  0.51100000000E-03 0. -1.
        -11    1    3    3    0    0 -0.17590941345E+02 -0.92845218614E+01  0.26937213168E+01  0.20072361555E+02  0.51100000000E-03 0.  1.
        -12    1    3    3    0    0 -0.24351699873E+02  0.91438831854E+01  0.24828104442E+01  0.26130063798E+02  0.00000000000E+00 0.  1.
</event>
<event>
 7    1  0.2746803E-013  0.5052886E+02  0.7816164E-02  0.1300439E+00
        -11   -1    0    0    0    0  0.00000000000E+00  0.00000000000E+00  0.45593999997E+02  0.45594000000E+02  0.51100000000E-03 0.  1.
         11   -1    0    0    0    0 -0.00000000000E+00 -0.00000000000E+00 -0.45593999997E+02  0.45594000000E+02  0.51100000000E-03 0. -1.
    9900012    2    1    2    0    0 -0.77146606471E+01  0.37794856249E+02  0.12852946938E+02  0.50528863354E+02  0.30000010651E+02 0.  0.
         12    1    1    2    0    0  0.77146606471E+01 -0.37794856249E+02 -0.12852946938E+02  0.40659136646E+02  0.00000000000E+00 0. -1.
         11    1    3    3    0    0 -0.12725957993E+02  0.23703948377E+02  0.50694371783E+01  0.27377479231E+02  0.51100000000E-03 0. -1.
        -11    1    3    3    0    0 -0.30087182567E+01 -0.27324866246E+00  0.58534746749E+01  0.65871250489E+01  0.51100000000E-03 0.  1.
         12    1    3    3    0    0  0.80200156030E+01  0.14364156535E+02  0.19300350845E+01  0.16564259074E+02  0.00000000000E+00 0. -1.
</event>
<event>
 7    1  0.2746803E-013  0.5052887E+02  0.7816164E-02  0.1300439E+00
        -11   -1    0    0    0    0  0.00000000000E+00  0.00000000000E+00  0.45593999997E+02  0.45594000000E+02  0.51100000000E-03 0.  1.
         11   -1    0    0    0    0 -0.00000000000E+00 -0.00000000000E+00 -0.45593999997E+02  0.45594000000E+02  0.51100000000E-03 0. -1.
    9900012    2    1    2    0    0 -0.35347573681E+02 -0.16558612155E+02  0.11380951336E+02  0.50528872428E+02  0.30000038231E+02 0.  0.
         12    1    1    2    0    0  0.35347573681E+02  0.16558612155E+02 -0.11380951336E+02  0.40659127572E+02  0.00000000000E+00 0. -1.
         11    1    3    3    0    0 -0.68517771071E+01 -0.25698847820E+01 -0.41826570265E+01  0.84288657233E+01  0.51100000000E-03 0. -1.
        -11    1    3    3    0    0 -0.17939057130E+02  0.37276261532E+01  0.92955341169E+01  0.20545362548E+02  0.51100000000E-03 0.  1.
        -12    1    3    3    0    0 -0.10556739444E+02 -0.17716353527E+02  0.62680742458E+01  0.21554644157E+02  0.00000000000E+00 0.  1.
</event>
<event>
 7    1  0.2746803E-013  0.5052887E+02  0.7816164E-02  0.1300439E+00
        -11   -1    0    0    0    0  0.00000000000E+00  0.00000000000E+00  0.45593999997E+02  0.45594000000E+02  0.51100000000E-03 0.  1.
         11   -1    0    0    0    0 -0.00000000000E+00 -0.00000000000E+00 -0.45593999997E+02  0.45594000000E+02  0.51100000000E-03 0. -1.
    9900012    2    1    2    0    0  0.37828897369E+02 -0.14903983055E+02 -0.10379087101E+00  0.50528868681E+02  0.30000026843E+02 0.  0.
         12    1    1    2    0    0 -0.37828897369E+02  0.14903983055E+02  0.10379087101E+00  0.40659131319E+02  0.00000000000E+00 0. -1.
         11    1    3    3    0    0 -0.29155523241E+01 -0.15878767969E+01  0.47496956920E+01  0.57949467215E+01  0.51100000000E-03 0. -1.
        -11    1    3    3    0    0  0.83070133833E+01 -0.48879852120E+01  0.33958155569E+01  0.10219121016E+02  0.51100000000E-03 0.  1.
         12    1    3    3    0    0  0.32437436310E+02 -0.84281210459E+01 -0.82493021200E+01  0.34514800944E+02  0.00000000000E+00 0. -1.
</event>
<event>
 7    1  0.2746803E-013  0.5052887E+02  0.7816164E-02  0.1300439E+00
        -11   -1    0    0    0    0  0.00000000000E+00  0.00000000000E+00  0.45593999997E+02  0.45594000000E+02  0.51100000000E-03 0.  1.
         11   -1    0    0    0    0 -0.00000000000E+00 -0.00000000000E+00 -0.45593999997E+02  0.45594000000E+02  0.51100000000E-03 0. -1.
    9900012    2    1    2    0    0  0.10818015438E+02 -0.39137395229E+02  0.20976115280E+01  0.50528866494E+02  0.30000020194E+02 0.  0.
         12    1    1    2    0    0 -0.10818015438E+02  0.39137395229E+02 -0.20976115280E+01  0.40659133506E+02  0.00000000000E+00 0. -1.
         11    1    3    3    0    0  0.59428395062E+00 -0.10961724013E+02 -0.11682170232E+02  0.16030772543E+02  0.51100000000E-03 0. -1.
        -11    1    3    3    0    0  0.77858061534E+00 -0.10449202346E+02  0.64314135626E+00  0.10497887812E+02  0.51100000000E-03 0.  1.
         12    1    3    3    0    0  0.94451508722E+01 -0.17726468870E+02  0.13136640403E+02  0.24000206139E+02  0.00000000000E+00 0. -1.
</event>
<event>
 7    1  0.2746803E-013  0.5052887E+02  0.7816164E-02  0.1300439E+00
        -11   -1    0    0    0    0  0.00000000000E+00  0.00000000000E+00  0.45593999997E+02  0.45594000000E+02  0.51100000000E-03 0.  1.
         11   -1    0    0    0    0 -0.00000000000E+00 -0.00000000000E+00 -0.45593999997E+02  0.45594000000E+02  0.51100000000E-03 0. -1.
    9900012    2    1    2    0    0 -0.21414835954E+02  0.25682324703E+02  0.23129812183E+02  0.50528865568E+02  0.30000017382E+02 0.  0.
         12    1    1    2    0    0  0.21414835954E+02 -0.25682324703E+02 -0.23129812183E+02  0.40659134432E+02  0.00000000000E+00 0. -1.
         11    1    3    3    0    0 -0.10526244894E+02  0.11297156007E+02  0.11709848940E+01  0.15485437394E+02  0.51100000000E-03 0. -1.
        -11    1    3    3    0    0 -0.10631678910E+02  0.19341094156E+02  0.19728197712E+02  0.29602572605E+02  0.51100000000E-03 0.  1.
         12    1    3    3    0    0 -0.25691215094E+00 -0.49559254600E+01  0.22306295773E+01  0.54408555697E+01  0.00000000000E+00 0. -1.
</event>
<event>
 7    1  0.2746803E-013  0.5052886E+02  0.7816164E-02  0.1300439E+00
        -11   -1    0    0    0    0  0.00000000000E+00  0.00000000000E+00  0.45593999997E+02  0.45594000000E+02  0.51100000000E-03 0.  1.
         11   -1    0    0    0    0 -0.00000000000E+00 -0.00000000000E+00 -0.45593999997E+02  0.45594000000E+02  0.51100000000E-03 0. -1.
    9900012    2    1    2    0    0 -0.23063213949E+02 -0.12302599445E+02  0.31143210385E+02  0.50528863956E+02  0.30000012480E+02 0.  0.
         12    1    1    2    0    0  0.23063213949E+02  0.12302599445E+02 -0.31143210385E+02  0.40659136044E+02  0.00000000000E+00 0. -1.
         11    1    3    3    0    0 -0.30846171243E+01  0.66916144667E+01  0.15799892638E+02  0.17433564598E+02  0.51100000000E-03 0. -1.
        -11    1    3    3    0    0  0.41253241853E+00 -0.18536757506E+01 -0.67075951372E+00  0.20140048091E+01  0.51100000000E-03 0.  1.
        -12    1    3    3    0    0 -0.20391129243E+02 -0.17140538161E+02  0.16014077261E+02  0.31081294548E+02  0.00000000000E+00 0.  1.
</event>
<event>
 7    1  0.2746803E-013  0.5052885E+02  0.7816164E-02  0.1300439E+00
        -11   -1    0    0    0    0  0.00000000000E+00  0.00000000000E+00  0.45593999997E+02  0.45594000000E+02  0.51100000000E-03 0.  1.
         11   -1    0    0    0    0 -0.00000000000E+00 -0.00000000000E+00 -0.45593999997E+02  0.45594000000E+02  0.51100000000E-03 0. -1.
    9900012    2    1    2    0    0 -0.52298175945E+01 -0.29362260602E+00  0.40320332895E+02  0.50528850340E+02  0.29999971093E+02 0.  0.
         12    1    1    2    0    0  0.52298175945E+01  0.29362260602E+00 -0.40320332895E+02  0.40659149660E+02  0.00000000000E+00 0. -1.
         11    1    3    3    0    0  0.34752028093E+01 -0.86436355046E+01  0.42509627310E+01  0.10240124692E+02  0.51100000000E-03 0. -1.
        -11    1    3    3    0    0 -0.20949278518E+00 -0.20682226534E+01  0.15991548736E+02  0.16126098828E+02  0.51100000000E-03 0.  1.
         12    1    3    3    0    0 -0.84955276187E+01  0.10418235552E+02  0.20077821428E+02  0.24162626820E+02  0.00000000000E+00 0. -1.
</event>
<event>
 7    1  0.2746803E-013  0.5052885E+02  0.7816164E-02  0.1300439E+00
        -11   -1    0    0    0    0  0.00000000000E+00  0.00000000000E+00  0.45593999997E+02  0.45594000000E+02  0.51100000000E-03 0.  1.
         11   -1    0    0    0    0 -0.00000000000E+00 -0.00000000000E+00 -0.45593999997E+02  0.45594000000E+02  0.51100000000E-03 0. -1.
    9900012    2    1    2    0    0 -0.15605278515E+02 -0.26832021581E+02  0.26261843867E+02  0.50528849210E+02  0.29999967658E+02 0.  0.
         12    1    1    2    0    0  0.15605278515E+02  0.26832021581E+02 -0.26261843867E+02  0.40659150790E+02  0.00000000000E+00 0. -1.
         11    1    3    3    0    0 -0.18632267083E+01 -0.56793651768E+01 -0.14588294555E+00  0.59789702017E+01  0.51100000000E-03 0. -1.
        -11    1    3    3    0    0 -0.11063744086E+02 -0.24100849443E+02  0.29381277345E+02  0.39579247539E+02  0.51100000000E-03 0.  1.
         12    1    3    3    0    0 -0.26783077211E+01  0.29481930384E+01 -0.29735505318E+01  0.49706314695E+01  0.00000000000E+00 0. -1.
</event>
<event>
 7    1  0.2746803E-013  0.5052889E+02  0.7816164E-02  0.1300439E+00
        -11   -1    0    0    0    0  0.00000000000E+00  0.00000000000E+00  0.45593999997E+02  0.45594000000E+02  0.51100000000E-03 0.  1.
         11   -1    0    0    0    0 -0.00000000000E+00 -0.00000000000E+00 -0.45593999997E+02  0.45594000000E+02  0.51100000000E-03 0. -1.
    9900012    2    1    2    0    0 -0.14481321668E+02 -0.18609275479E+02  0.33123246669E+02  0.50528889324E+02  0.30000089589E+02 0.  0.
         12    1    1    2    0    0  0.14481321668E+02  0.18609275479E+02 -0.33123246669E+02  0.40659110676E+02  0.00000000000E+00 0. -1.
         11    1    3    3    0    0 -0.85647759459E+01  0.22355983024E+00  0.11003896274E+02  0.13946006578E+02  0.51100000000E-03 0. -1.
        -11    1    3    3    0    0 -0.13722822744E+02 -0.15350885405E+02  0.15702014255E+02  0.25894377743E+02  0.51100000000E-03 0.  1.
        -12    1    3    3    0    0  0.78062770214E+01 -0.34819499041E+01  0.64173361388E+01  0.10688505002E+02  0.00000000000E+00 0.  1.
</event>
<event>
 7    1  0.2746803E-013  0.5052886E+02  0.7816164E-02  0.1300439E+00
        -11   -1    0    0    0    0  0.00000000000E+00  0.00000000000E+00  0.45593999997E+02  0.45594000000E+02  0.51100000000E-03 0.  1.
         11   -1    0    0    0    0 -0.00000000000E+00 -0.00000000000E+00 -0.45593999997E+02  0.45594000000E+02  0.51100000000E-03 0. -1.
    9900012    2    1    2    0    0 -0.13680978946E+02  0.24462350565E+01  0.38210104761E+02  0.50528863798E+02  0.30000011999E+02 0.  0.
         12    1    1    2    0    0  0.13680978946E+02 -0.24462350565E+01 -0.38210104761E+02  0.40659136202E+02  0.00000000000E+00 0. -1.
         11    1    3    3    0    0  0.52333023804E+00 -0.39297697885E+01 -0.14935093702E+01  0.42364531897E+01  0.51100000000E-03 0. -1.
        -11    1    3    3    0    0 -0.16146131433E+02  0.14514438265E+01  0.19259319480E+02  0.25173907852E+02  0.51100000000E-03 0.  1.
        -12    1    3    3    0    0  0.19418222494E+01  0.49245610185E+01  0.20444294651E+02  0.21118502756E+02  0.00000000000E+00 0.  1.
</event>
<event>
 7    1  0.2746803E-013  0.5052886E+02  0.7816164E-02  0.1300439E+00
        -11   -1    0    0    0    0  0.00000000000E+00  0.00000000000E+00  0.45593999997E+02  0.45594000000E+02  0.51100000000E-03 0.  1.
         11   -1    0    0    0    0 -0.00000000000E+00 -0.00000000000E+00 -0.45593999997E+02  0.45594000000E+02  0.51100000000E-03 0. -1.
    9900012    2    1    2    0    0  0.38828046852E+02  0.63761408178E+00  0.12047481946E+02  0.50528860864E+02  0.30000003083E+02 0.  0.
         12    1    1    2    0    0 -0.38828046852E+02 -0.63761408178E+00 -0.12047481946E+02  0.40659139136E+02  0.00000000000E+00 0. -1.
         11    1    3    3    0    0  0.11885594684E+02  0.62669804202E+01  0.38838733100E+01  0.13986667821E+02  0.51100000000E-03 0. -1.
        -11    1    3    3    0    0 -0.27234021228E+01 -0.97049962613E+00  0.57253405630E+01  0.64139156114E+01  0.51100000000E-03 0.  1.
        -12    1    3    3    0    0  0.29665854290E+02 -0.46588667123E+01  0.24382680728E+01  0.30128277432E+02  0.00000000000E+00 0.  1.
</event>
<event>
 7    1  0.2746803E-013  0.5052886E+02  0.7816164E-02  0.1300439E+00
        -11   -1    0    0    0    0  0.00000000000E+00  0.00000000000E+00  0.45593999997E+02  0.45594000000E+02  0.51100000000E-03 0.  1.
         11   -1    0    0    0    0 -0.00000000000E+00 -0.00000000000E+00 -0.45593999997E+02  0.45594000000E+02  0.51100000000E-03 0. -1.
    9900012    2    1    2    0    0  0.23118856319E+02  0.32733395454E+02  0.68708556391E+01  0.50528863847E+02  0.30000012150E+02 0.  0.
         12    1    1    2    0    0 -0.23118856319E+02 -0.32733395454E+02 -0.68708556391E+01  0.40659136153E+02  0.00000000000E+00 0. -1.
         11    1    3    3    0    0  0.94255021413E+01  0.53191811279E+01  0.26267247747E+01  0.11137031103E+02  0.51100000000E-03 0. -1.
        -11    1    3    3    0    0  0.12428172774E+01  0.24338810999E+02  0.86063109013E+01  0.25845519984E+02  0.51100000000E-03 0.  1.
         12    1    3    3    0    0  0.12450536900E+02  0.30754033273E+01 -0.43621800370E+01  0.13546312761E+02  0.00000000000E+00 0. -1.
</event>
<event>
 7    1  0.2746803E-013  0.5052885E+02  0.7816164E-02  0.1300439E+00
        -11   -1    0    0    0    0  0.00000000000E+00  0.00000000000E+00  0.45593999997E+02  0.45594000000E+02  0.51100000000E-03 0. -1.
         11   -1    0    0    0    0 -0.00000000000E+00 -0.00000000000E+00 -0.45593999997E+02  0.45594000000E+02  0.51100000000E-03 0.  1.
    9900012    2    1    2    0    0 -0.29605390458E+02 -0.93746782577E+01 -0.26245047374E+02  0.50528852834E+02  0.29999978675E+02 0.  0.
         12    1    1    2    0    0  0.29605390458E+02  0.93746782577E+01  0.26245047374E+02  0.40659147166E+02  0.00000000000E+00 0. -1.
         11    1    3    3    0    0 -0.10119609506E+02 -0.33736781720E+01  0.76827923301E+00  0.10694786310E+02  0.51100000000E-03 0. -1.
        -11    1    3    3    0    0 -0.20782268728E+02 -0.11107016576E+02 -0.19125745403E+02  0.30349013958E+02  0.51100000000E-03 0.  1.
        -12    1    3    3    0    0  0.12964877768E+01  0.51060164901E+01 -0.78875812037E+01  0.94850525669E+01  0.00000000000E+00 0.  1.
</event>
<event>
 7    1  0.2746803E-013  0.5052886E+02  0.7816164E-02  0.1300439E+00
        -11   -1    0    0    0    0  0.00000000000E+00  0.00000000000E+00  0.45593999997E+02  0.45594000000E+02  0.51100000000E-03 0.  1.
         11   -1    0    0    0    0 -0.00000000000E+00 -0.00000000000E+00 -0.45593999997E+02  0.45594000000E+02  0.51100000000E-03 0. -1.
    9900012    2    1    2    0    0  0.26838678621E+02  0.30135468434E+02  0.49703740660E+01  0.50528859008E+02  0.29999997442E+02 0.  0.
         12    1    1    2    0    0 -0.26838678621E+02 -0.30135468434E+02 -0.49703740660E+01  0.40659140992E+02  0.00000000000E+00 0. -1.
         11    1    3    3    0    0  0.36530700897E+01 -0.13156773115E+01 -0.43655284036E+01  0.58424110068E+01  0.51100000000E-03 0. -1.
        -11    1    3    3    0    0  0.22839426858E+02  0.15471883831E+02  0.75688642723E+01  0.28606053819E+02  0.51100000000E-03 0.  1.
        -12    1    3    3    0    0  0.34618167351E+00  0.15979261914E+02  0.17670381973E+01  0.16080394183E+02  0.00000000000E+00 0.  1.
</event>
<event>
 7    1  0.2746803E-013  0.5052886E+02  0.7816164E-02  0.1300439E+00
        -11   -1    0    0    0    0  0.00000000000E+00  0.00000000000E+00  0.45593999997E+02  0.45594000000E+02  0.51100000000E-03 0. -1.
         11   -1    0    0    0    0 -0.00000000000E+00 -0.00000000000E+00 -0.45593999997E+02  0.45594000000E+02  0.51100000000E-03 0.  1.
    9900012    2    1    2    0    0  0.26606443636E+02  0.30334472541E+02 -0.50082876892E+01  0.50528855729E+02  0.29999987472E+02 0.  0.
         12    1    1    2    0    0 -0.26606443636E+02 -0.30334472541E+02  0.50082876892E+01  0.40659144271E+02  0.00000000000E+00 0. -1.
         11    1    3    3    0    0  0.47213165638E+01 -0.36955233593E+01 -0.29276104869E+01  0.66722279951E+01  0.51100000000E-03 0. -1.
        -11    1    3    3    0    0 -0.20286631341E+01  0.49441648558E+01  0.25448673351E+01  0.59191714156E+01  0.51100000000E-03 0.  1.
        -12    1    3    3    0    0  0.23913790207E+02  0.29085831045E+02 -0.46255445375E+01  0.37937456318E+02  0.00000000000E+00 0.  1.
</event>
<event>
 7    1  0.2746803E-013  0.5052884E+02  0.7816164E-02  0.1300439E+00
        -11   -1    0    0    0    0  0.00000000000E+00  0.00000000000E+00  0.45593999997E+02  0.45594000000E+02  0.51100000000E-03 0.  1.
         11   -1    0    0    0    0 -0.00000000000E+00 -0.00000000000E+00 -0.45593999997E+02  0.45594000000E+02  0.51100000000E-03 0. -1.
    9900012    2    1    2    0    0 -0.23741178908E+01  0.30750997435E+02  0.26493533317E+02  0.50528836376E+02  0.29999928649E+02 0.  0.
         12    1    1    2    0    0  0.23741178908E+01 -0.30750997435E+02 -0.26493533317E+02  0.40659163624E+02  0.00000000000E+00 0. -1.
         11    1    3    3    0    0  0.12105774325E+01 -0.33797444634E+01  0.60037002892E+01  0.69951831843E+01  0.51100000000E-03 0. -1.
        -11    1    3    3    0    0  0.48121367246E+01  0.23767144177E+02  0.87970250249E+01  0.25795764221E+02  0.51100000000E-03 0.  1.
        -12    1    3    3    0    0 -0.83968320479E+01  0.10363597722E+02  0.11692808002E+02  0.17737888971E+02  0.00000000000E+00 0.  1.
</event>
<event>
 7    1  0.2746803E-013  0.5052885E+02  0.7816164E-02  0.1300439E+00
        -11   -1    0    0    0    0  0.00000000000E+00  0.00000000000E+00  0.45593999997E+02  0.45594000000E+02  0.51100000000E-03 0. -1.
         11   -1    0    0    0    0 -0.00000000000E+00 -0.00000000000E+00 -0.45593999997E+02  0.45594000000E+02  0.51100000000E-03 0.  1.
    9900012    2    1    2    0    0  0.20044802658E+02  0.35293220379E+02  0.24002222701E+01  0.50528848690E+02  0.29999966078E+02 0.  0.
         12    1    1    2    0    0 -0.20044802658E+02 -0.35293220379E+02 -0.24002222701E+01  0.40659151310E+02  0.00000000000E+00 0. -1.
         11    1    3    3    0    0  0.15461271854E+02  0.76997304099E+01 -0.73727032212E+01  0.18780136549E+02  0.51100000000E-03 0. -1.
        -11    1    3    3    0    0  0.71142650242E+01  0.22049939424E+02  0.43142350562E+01  0.23567461039E+02  0.51100000000E-03 0.  1.
        -12    1    3    3    0    0 -0.25307342200E+01  0.55435505446E+01  0.54586904351E+01  0.81812511023E+01  0.00000000000E+00 0.  1.
</event>
<event>
 7    1  0.2746803E-013  0.5052887E+02  0.7816164E-02  0.1300439E+00
        -11   -1    0    0    0    0  0.00000000000E+00  0.00000000000E+00  0.45593999997E+02  0.45594000000E+02  0.51100000000E-03 0.  1.
         11   -1    0    0    0    0 -0.00000000000E+00 -0.00000000000E+00 -0.45593999997E+02  0.45594000000E+02  0.51100000000E-03 0. -1.
    9900012    2    1    2    0    0  0.86276896593E+01 -0.28345881725E+01  0.39631972508E+02  0.50528866170E+02  0.30000019209E+02 0.  0.
         12    1    1    2    0    0 -0.86276896593E+01  0.28345881725E+01 -0.39631972508E+02  0.40659133830E+02  0.00000000000E+00 0. -1.
         11    1    3    3    0    0  0.13192955353E+01  0.28239594477E+01 -0.10333598312E+01  0.32837662027E+01  0.51100000000E-03 0. -1.
        -11    1    3    3    0    0  0.41628905551E+01 -0.13411508023E+02  0.16469584333E+02  0.21643599829E+02  0.51100000000E-03 0.  1.
        -12    1    3    3    0    0  0.31455035689E+01  0.77529604028E+01  0.24195748006E+02  0.25601500138E+02  0.00000000000E+00 0.  1.
</event>
<event>
 7    1  0.2746803E-013  0.5052886E+02  0.7816164E-02  0.1300439E+00
        -11   -1    0    0    0    0  0.00000000000E+00  0.00000000000E+00  0.45593999997E+02  0.45594000000E+02  0.51100000000E-03 0.  1.
         11   -1    0    0    0    0 -0.00000000000E+00 -0.00000000000E+00 -0.45593999997E+02  0.45594000000E+02  0.51100000000E-03 0. -1.
    9900012    2    1    2    0    0  0.22411706643E+02 -0.26167207322E+02  0.21590707345E+02  0.50528856166E+02  0.29999988801E+02 0.  0.
         12    1    1    2    0    0 -0.22411706643E+02  0.26167207322E+02 -0.21590707345E+02  0.40659143834E+02  0.00000000000E+00 0. -1.
         11    1    3    3    0    0  0.28369042114E+01 -0.96267215999E+01  0.41609779679E+01  0.10864415869E+02  0.51100000000E-03 0. -1.
        -11    1    3    3    0    0  0.11357851824E+02 -0.91225210260E+01 -0.43750081719E+01  0.15210584627E+02  0.51100000000E-03 0.  1.
         12    1    3    3    0    0  0.82169506075E+01 -0.74179646962E+01  0.21804737549E+02  0.24453855670E+02  0.00000000000E+00 0. -1.
</event>
<event>
 7    1  0.2746803E-013  0.5052887E+02  0.7816164E-02  0.1300439E+00
        -11   -1    0    0    0    0  0.00000000000E+00  0.00000000000E+00  0.45593999997E+02  0.45594000000E+02  0.51100000000E-03 0.  1.
         11   -1    0    0    0    0 -0.00000000000E+00 -0.00000000000E+00 -0.45593999997E+02  0.45594000000E+02  0.51100000000E-03 0. -1.
    9900012    2    1    2    0    0  0.24782813547E+02  0.31644426687E+02  0.61324679832E+01  0.50528871243E+02  0.30000034631E+02 0.  0.
         12    1    1    2    0    0 -0.24782813547E+02 -0.31644426687E+02 -0.61324679832E+01  0.40659128757E+02  0.00000000000E+00 0. -1.
         11    1    3    3    0    0 -0.30423588777E+01  0.51326104561E+01  0.83708008342E+01  0.10279588732E+02  0.51100000000E-03 0. -1.
        -11    1    3    3    0    0  0.85421207952E+01  0.14355494543E+02  0.27106563712E+01  0.16923229878E+02  0.51100000000E-03 0.  1.
        -12    1    3    3    0    0  0.19283051630E+02  0.12156321688E+02 -0.49489892222E+01  0.23326052633E+02  0.00000000000E+00 0.  1.
</event>
<event>
 7    1  0.2746803E-013  0.5052882E+02  0.7816164E-02  0.1300439E+00
        -11   -1    0    0    0    0  0.00000000000E+00  0.00000000000E+00  0.45593999997E+02  0.45594000000E+02  0.51100000000E-03 0.  1.
         11   -1    0    0    0    0 -0.00000000000E+00 -0.00000000000E+00 -0.45593999997E+02  0.45594000000E+02  0.51100000000E-03 0. -1.
    9900012    2    1    2    0    0  0.13256861498E+02  0.28939829084E+02  0.25296464542E+02  0.50528816505E+02  0.29999868247E+02 0.  0.
         12    1    1    2    0    0 -0.13256861498E+02 -0.28939829084E+02 -0.25296464542E+02  0.40659183495E+02  0.00000000000E+00 0. -1.
         11    1    3    3    0    0  0.44911278946E+01 -0.16144110622E+01  0.96737015518E+01  0.10786892732E+02  0.51100000000E-03 0. -1.
        -11    1    3    3    0    0  0.11430854307E+02  0.82947214569E+01  0.61551849745E+01  0.15406269392E+02  0.51100000000E-03 0.  1.
        -12    1    3    3    0    0 -0.26651207038E+01  0.22259518689E+02  0.94675780158E+01  0.24335654380E+02  0.00000000000E+00 0.  1.
</event>
<event>
 7    1  0.2746803E-013  0.5052886E+02  0.7816164E-02  0.1300439E+00
        -11   -1    0    0    0    0  0.00000000000E+00  0.00000000000E+00  0.45593999997E+02  0.45594000000E+02  0.51100000000E-03 0.  1.
         11   -1    0    0    0    0 -0.00000000000E+00 -0.00000000000E+00 -0.45593999997E+02  0.45594000000E+02  0.51100000000E-03 0. -1.
    9900012    2    1    2    0    0 -0.37757628010E+02  0.13107083381E+02  0.74653348907E+01  0.50528864093E+02  0.30000012897E+02 0.  0.
         12    1    1    2    0    0  0.37757628010E+02 -0.13107083381E+02 -0.74653348907E+01  0.40659135907E+02  0.00000000000E+00 0. -1.
         11    1    3    3    0    0 -0.54521914819E+01  0.34147467042E+00 -0.37042408007E+01  0.66003331034E+01  0.51100000000E-03 0. -1.
        -11    1    3    3    0    0 -0.35929987602E+02  0.11119069410E+02  0.71759066412E+01  0.38289572341E+02  0.51100000000E-03 0.  1.
         12    1    3    3    0    0  0.36245510745E+01  0.16465393002E+01  0.39936690502E+01  0.56389586487E+01  0.00000000000E+00 0. -1.
</event>
<event>
 7    1  0.2746803E-013  0.5052887E+02  0.7816164E-02  0.1300439E+00
        -11   -1    0    0    0    0  0.00000000000E+00  0.00000000000E+00  0.45593999997E+02  0.45594000000E+02  0.51100000000E-03 0. -1.
         11   -1    0    0    0    0 -0.00000000000E+00 -0.00000000000E+00 -0.45593999997E+02  0.45594000000E+02  0.51100000000E-03 0.  1.
    9900012    2    1    2    0    0  0.15051185423E+02  0.32271552094E+02  0.19625843142E+02  0.50528868477E+02  0.30000026222E+02 0.  0.
         12    1    1    2    0    0 -0.15051185423E+02 -0.32271552094E+02 -0.19625843142E+02  0.40659131523E+02  0.00000000000E+00 0. -1.
         11    1    3    3    0    0  0.97004861739E+01  0.18963500452E+01  0.35222271331E+01  0.10492933800E+02  0.51100000000E-03 0.  1.
        -11    1    3    3    0    0 -0.35239682144E+01  0.12858418826E+00 -0.16117928274E+01  0.38772106274E+01  0.51100000000E-03 0. -1.
        -12    1    3    3    0    0  0.88746674638E+01  0.30246617861E+02  0.17715408836E+02  0.36158724049E+02  0.00000000000E+00 0.  1.
</event>
<event>
 7    1  0.2746803E-013  0.5052886E+02  0.7816164E-02  0.1300439E+00
        -11   -1    0    0    0    0  0.00000000000E+00  0.00000000000E+00  0.45593999997E+02  0.45594000000E+02  0.51100000000E-03 0.  1.
         11   -1    0    0    0    0 -0.00000000000E+00 -0.00000000000E+00 -0.45593999997E+02  0.45594000000E+02  0.51100000000E-03 0. -1.
    9900012    2    1    2    0    0 -0.33855393612E+02 -0.14598624097E+02  0.17142281252E+02  0.50528864388E+02  0.30000013795E+02 0.  0.
         12    1    1    2    0    0  0.33855393612E+02  0.14598624097E+02 -0.17142281252E+02  0.40659135612E+02  0.00000000000E+00 0. -1.
         11    1    3    3    0    0 -0.19484927844E+02 -0.55648071855E+01  0.33955079527E+01  0.20546507407E+02  0.51100000000E-03 0. -1.
        -11    1    3    3    0    0 -0.75650309084E+01 -0.15501297114E+02  0.92524683457E+01  0.19573657696E+02  0.51100000000E-03 0.  1.
         12    1    3    3    0    0 -0.68054348599E+01  0.64674802025E+01  0.44943049540E+01  0.10408699286E+02  0.00000000000E+00 0. -1.
</event>
<event>
 7    1  0.2746803E-013  0.5052886E+02  0.7816164E-02  0.1300439E+00
        -11   -1    0    0    0    0  0.00000000000E+00  0.00000000000E+00  0.45593999997E+02  0.45594000000E+02  0.51100000000E-03 0.  1.
         11   -1    0    0    0    0 -0.00000000000E+00 -0.00000000000E+00 -0.45593999997E+02  0.45594000000E+02  0.51100000000E-03 0. -1.
    9900012    2    1    2    0    0  0.14873861260E+02  0.20120987573E+02  0.32048088604E+02  0.50528857451E+02  0.29999992707E+02 0.  0.
         12    1    1    2    0    0 -0.14873861260E+02 -0.20120987573E+02 -0.32048088604E+02  0.40659142549E+02  0.00000000000E+00 0. -1.
         11    1    3    3    0    0 -0.23604759336E+01 -0.14537498152E+01 -0.74896611975E+00  0.28716172566E+01  0.51100000000E-03 0. -1.
        -11    1    3    3    0    0  0.10377453587E+02  0.23609658440E+02  0.30918089666E+02  0.40262088662E+02  0.51100000000E-03 0.  1.
         12    1    3    3    0    0  0.68568836072E+01 -0.20349210517E+01  0.18789650574E+01  0.73951515317E+01  0.00000000000E+00 0. -1.
</event>
<event>
 7    1  0.2746803E-013  0.5052886E+02  0.7816164E-02  0.1300439E+00
        -11   -1    0    0    0    0  0.00000000000E+00  0.00000000000E+00  0.45593999997E+02  0.45594000000E+02  0.51100000000E-03 0. -1.
         11   -1    0    0    0    0 -0.00000000000E+00 -0.00000000000E+00 -0.45593999997E+02  0.45594000000E+02  0.51100000000E-03 0.  1.
    9900012    2    1    2    0    0 -0.10399758169E+02 -0.32345068289E+02 -0.22333993636E+02  0.50528859769E+02  0.29999999754E+02 0.  0.
         12    1    1    2    0    0  0.10399758169E+02  0.32345068289E+02  0.22333993636E+02  0.40659140231E+02  0.00000000000E+00 0. -1.
         11    1    3    3    0    0 -0.79377549538E+01  0.78732994076E+00 -0.12784342488E+01  0.80785045975E+01  0.51100000000E-03 0. -1.
        -11    1    3    3    0    0 -0.11655252148E+01 -0.32112710558E+01 -0.99303796445E+01  0.10501578499E+02  0.51100000000E-03 0.  1.
         12    1    3    3    0    0 -0.12964780004E+01 -0.29921127174E+02 -0.11125179742E+02  0.31948776673E+02  0.00000000000E+00 0. -1.
</event>
<event>
 7    1  0.2746803E-013  0.5052896E+02  0.7816164E-02  0.1300438E+00
        -11   -1    0    0    0    0  0.00000000000E+00  0.00000000000E+00  0.45593999997E+02  0.45594000000E+02  0.51100000000E-03 0.  1.
         11   -1    0    0    0    0 -0.00000000000E+00 -0.00000000000E+00 -0.45593999997E+02  0.45594000000E+02  0.51100000000E-03 0. -1.
    9900012    2    1    2    0    0  0.17249354703E+02  0.27021223191E+02  0.25009409480E+02  0.50528962838E+02  0.30000313040E+02 0.  0.
         12    1    1    2    0    0 -0.17249354703E+02 -0.27021223191E+02 -0.25009409480E+02  0.40659037162E+02  0.00000000000E+00 0. -1.
         11    1    3    3    0    0 -0.24114099705E+01 -0.16275649422E+01  0.15516440626E+01  0.32971905079E+01  0.51100000000E-03 0. -1.
        -11    1    3    3    0    0  0.13152672442E+01  0.12882345202E+02  0.18431207180E+02  0.22525411077E+02  0.51100000000E-03 0.  1.
         12    1    3    3    0    0  0.18345497430E+02  0.15766442932E+02  0.50265582377E+01  0.24706361253E+02  0.00000000000E+00 0. -1.
</event>
<event>
 7    1  0.2746803E-013  0.5052886E+02  0.7816164E-02  0.1300439E+00
        -11   -1    0    0    0    0  0.00000000000E+00  0.00000000000E+00  0.45593999997E+02  0.45594000000E+02  0.51100000000E-03 0.  1.
         11   -1    0    0    0    0 -0.00000000000E+00 -0.00000000000E+00 -0.45593999997E+02  0.45594000000E+02  0.51100000000E-03 0. -1.
    9900012    2    1    2    0    0  0.38353980559E+02  0.12078380052E+02 -0.60208319473E+01  0.50528861953E+02  0.30000006392E+02 0.  0.
         12    1    1    2    0    0 -0.38353980559E+02 -0.12078380052E+02  0.60208319473E+01  0.40659138047E+02  0.00000000000E+00 0. -1.
         11    1    3    3    0    0  0.17093032965E+01  0.54025798990E+01 -0.92813273992E+01  0.10874402323E+02  0.51100000000E-03 0. -1.
        -11    1    3    3    0    0  0.97654152809E+01 -0.47551500911E+00 -0.45216979916E+01  0.10771963754E+02  0.51100000000E-03 0.  1.
        -12    1    3    3    0    0  0.26879261982E+02  0.71513151619E+01  0.77821934435E+01  0.28882495876E+02  0.00000000000E+00 0.  1.
</event>
<event>
 7    1  0.2746803E-013  0.5052885E+02  0.7816164E-02  0.1300439E+00
        -11   -1    0    0    0    0  0.00000000000E+00  0.00000000000E+00  0.45593999997E+02  0.45594000000E+02  0.51100000000E-03 0.  1.
         11   -1    0    0    0    0 -0.00000000000E+00 -0.00000000000E+00 -0.45593999997E+02  0.45594000000E+02  0.51100000000E-03 0. -1.
    9900012    2    1    2    0    0 -0.33167621060E+02  0.21477170612E+02 -0.95815639435E+01  0.50528852052E+02  0.29999976297E+02 0.  0.
         12    1    1    2    0    0  0.33167621060E+02 -0.21477170612E+02  0.95815639435E+01  0.40659147948E+02  0.00000000000E+00 0. -1.
         11    1    3    3    0    0 -0.43323706471E+01 -0.28589687850E+01  0.76665206297E+00  0.52469890017E+01  0.51100000000E-03 0. -1.
        -11    1    3    3    0    0  0.20582473558E+00  0.55181645208E+01 -0.91123015689E+01  0.10654883558E+02  0.51100000000E-03 0.  1.
        -12    1    3    3    0    0 -0.29041075149E+02  0.18817974876E+02 -0.12359144376E+01  0.34626979492E+02  0.00000000000E+00 0.  1.
</event>
<event>
 7    1  0.2746803E-013  0.5052887E+02  0.7816164E-02  0.1300439E+00
        -11   -1    0    0    0    0  0.00000000000E+00  0.00000000000E+00  0.45593999997E+02  0.45594000000E+02  0.51100000000E-03 0.  1.
         11   -1    0    0    0    0 -0.00000000000E+00 -0.00000000000E+00 -0.45593999997E+02  0.45594000000E+02  0.51100000000E-03 0. -1.
    9900012    2    1    2    0    0  0.15906701925E+02  0.62180056216E+01  0.36898216445E+02  0.50528866501E+02  0.30000020216E+02 0.  0.
         12    1    1    2    0    0 -0.15906701925E+02 -0.62180056216E+01 -0.36898216445E+02  0.40659133499E+02  0.00000000000E+00 0. -1.
         11    1    3    3    0    0  0.31498535411E+01 -0.26248361150E+01  0.36282671521E+01  0.54750036300E+01  0.51100000000E-03 0. -1.
        -11    1    3    3    0    0  0.16137180867E+02  0.10306019370E+02  0.35790621815E+02  0.40590531554E+02  0.51100000000E-03 0.  1.
         12    1    3    3    0    0 -0.33803324834E+01 -0.14631776334E+01 -0.25206725220E+01  0.44633313173E+01  0.00000000000E+00 0. -1.
</event>
<event>
 7    1  0.2746803E-013  0.5052885E+02  0.7816164E-02  0.1300439E+00
        -11   -1    0    0    0    0  0.00000000000E+00  0.00000000000E+00  0.45593999997E+02  0.45594000000E+02  0.51100000000E-03 0.  1.
         11   -1    0    0    0    0 -0.00000000000E+00 -0.00000000000E+00 -0.45593999997E+02  0.45594000000E+02  0.51100000000E-03 0. -1.
    9900012    2    1    2    0    0 -0.17795836507E+02 -0.21356110998E+01  0.36495391632E+02  0.50528852910E+02  0.29999978905E+02 0.  0.
         12    1    1    2    0    0  0.17795836507E+02  0.21356110998E+01 -0.36495391632E+02  0.40659147090E+02  0.00000000000E+00 0. -1.
         11    1    3    3    0    0 -0.14634336075E+02  0.49950743440E+01  0.63442211458E+01  0.16714176685E+02  0.51100000000E-03 0. -1.
        -11    1    3    3    0    0 -0.40761307945E+01 -0.68459252307E+01  0.68890253850E+01  0.10532815651E+02  0.51100000000E-03 0.  1.
        -12    1    3    3    0    0  0.91463036267E+00 -0.28476021317E+00  0.23262145101E+02  0.23281860574E+02  0.00000000000E+00 0.  1.
</event>
<event>
 7    1  0.2746803E-013  0.5052885E+02  0.7816164E-02  0.1300439E+00
        -11   -1    0    0    0    0  0.00000000000E+00  0.00000000000E+00  0.45593999997E+02  0.45594000000E+02  0.51100000000E-03 0. -1.
         11   -1    0    0    0    0 -0.00000000000E+00 -0.00000000000E+00 -0.45593999997E+02  0.45594000000E+02  0.51100000000E-03 0.  1.
    9900012    2    1    2    0    0  0.50435054064E+01 -0.10120655292E+02 -0.39055113031E+02  0.50528850179E+02  0.29999970604E+02 0.  0.
         12    1    1    2    0    0 -0.50435054064E+01  0.10120655292E+02  0.39055113031E+02  0.40659149821E+02  0.00000000000E+00 0. -1.
         11    1    3    3    0    0  0.14100882520E+02 -0.30772674241E+01 -0.18252723245E+02  0.23269429919E+02  0.51100000000E-03 0. -1.
        -11    1    3    3    0    0 -0.22573785723E+01 -0.55791126822E+01 -0.19200250239E+02  0.20121428027E+02  0.51100000000E-03 0.  1.
        -12    1    3    3    0    0 -0.67999985417E+01 -0.14642751861E+01 -0.16021395469E+01  0.71379922328E+01  0.00000000000E+00 0.  1.
</event>
<event>
 7    1  0.2746803E-013  0.5052886E+02  0.7816164E-02  0.1300439E+00
        -11   -1    0    0    0    0  0.00000000000E+00  0.00000000000E+00  0.45593999997E+02  0.45594000000E+02  0.51100000000E-03 0. -1.
         11   -1    0    0    0    0 -0.00000000000E+00 -0.00000000000E+00 -0.45593999997E+02  0.45594000000E+02  0.51100000000E-03 0.  1.
    9900012    2    1    2    0    0  0.55293642438E+01 -0.36534016264E+02 -0.16966364483E+02  0.50528859120E+02  0.29999997780E+02 0.  0.
         12    1    1    2    0    0 -0.55293642438E+01  0.36534016264E+02  0.16966364483E+02  0.40659140880E+02  0.00000000000E+00 0. -1.
         11    1    3    3    0    0  0.14901840181E+02 -0.14873032782E+02 -0.14741224986E+02  0.25701666469E+02  0.51100000000E-03 0. -1.
        -11    1    3    3    0    0 -0.15990805673E+01 -0.12244960103E+02  0.32672322966E+00  0.12353252807E+02  0.51100000000E-03 0.  1.
        -12    1    3    3    0    0 -0.77733953697E+01 -0.94160233794E+01 -0.25518627266E+01  0.12473939844E+02  0.00000000000E+00 0.  1.
</event>
<event>
 7    1  0.2746803E-013  0.5052885E+02  0.7816164E-02  0.1300439E+00
        -11   -1    0    0    0    0  0.00000000000E+00  0.00000000000E+00  0.45593999997E+02  0.45594000000E+02  0.51100000000E-03 0.  1.
         11   -1    0    0    0    0 -0.00000000000E+00 -0.00000000000E+00 -0.45593999997E+02  0.45594000000E+02  0.51100000000E-03 0. -1.
    9900012    2    1    2    0    0  0.26445409965E+02 -0.43726200739E+01  0.30572644059E+02  0.50528854912E+02  0.29999984990E+02 0.  0.
         12    1    1    2    0    0 -0.26445409965E+02  0.43726200739E+01 -0.30572644059E+02  0.40659145088E+02  0.00000000000E+00 0. -1.
         11    1    3    3    0    0  0.93270706138E+01 -0.31860418256E+01 -0.29931060233E+01  0.10300669526E+02  0.51100000000E-03 0. -1.
        -11    1    3    3    0    0  0.15466588225E+02 -0.34580756088E+01  0.16296805214E+02  0.22732344769E+02  0.51100000000E-03 0.  1.
        -12    1    3    3    0    0  0.16517511260E+01  0.22714973605E+01  0.17268944868E+02  0.17495840617E+02  0.00000000000E+00 0.  1.
</event>
<event>
 7    1  0.2746803E-013  0.5052887E+02  0.7816164E-02  0.1300439E+00
        -11   -1    0    0    0    0  0.00000000000E+00  0.00000000000E+00  0.45593999997E+02  0.45594000000E+02  0.51100000000E-03 0. -1.
         11   -1    0    0    0    0 -0.00000000000E+00 -0.00000000000E+00 -0.45593999997E+02  0.45594000000E+02  0.51100000000E-03 0.  1.
    9900012    2    1    2    0    0 -0.38206492818E+02  0.20617946060E+01 -0.13754194611E+02  0.50528868678E+02  0.30000026834E+02 0.  0.
         12    1    1    2    0    0  0.38206492818E+02 -0.20617946060E+01  0.13754194611E+02  0.40659131322E+02  0.00000000000E+00 0. -1.
         11    1    3    3    0    0 -0.27804553232E+02  0.58690517174E+01 -0.94410395781E+01  0.29944484919E+02  0.51100000000E-03 0. -1.
        -11    1    3    3    0    0 -0.10931505953E+02 -0.72984545988E+01 -0.80738700527E+01  0.15425713592E+02  0.51100000000E-03 0.  1.
         12    1    3    3    0    0  0.52956636643E+00  0.34911974874E+01  0.37607150201E+01  0.51586701673E+01  0.00000000000E+00 0. -1.
</event>
<event>
 7    1  0.2746803E-013  0.5052885E+02  0.7816164E-02  0.1300439E+00
        -11   -1    0    0    0    0  0.00000000000E+00  0.00000000000E+00  0.45593999997E+02  0.45594000000E+02  0.51100000000E-03 0. -1.
         11   -1    0    0    0    0 -0.00000000000E+00 -0.00000000000E+00 -0.45593999997E+02  0.45594000000E+02  0.51100000000E-03 0.  1.
    9900012    2    1    2    0    0 -0.91180549807E+00 -0.68619765338E+01 -0.40065546194E+02  0.50528854620E+02  0.29999984103E+02 0.  0.
         12    1    1    2    0    0  0.91180549807E+00  0.68619765338E+01  0.40065546194E+02  0.40659145380E+02  0.00000000000E+00 0. -1.
         11    1    3    3    0    0  0.33654302702E+01  0.11716082799E+01 -0.99732150130E+00  0.37004644713E+01  0.51100000000E-03 0.  1.
        -11    1    3    3    0    0 -0.10882807712E+02 -0.13411314621E+02 -0.27191346953E+02  0.32212857883E+02  0.51100000000E-03 0. -1.
         12    1    3    3    0    0  0.66055719438E+01  0.53777298076E+01 -0.11876877739E+02  0.14615532266E+02  0.00000000000E+00 0. -1.
</event>
<event>
 7    1  0.2746803E-013  0.5052885E+02  0.7816164E-02  0.1300439E+00
        -11   -1    0    0    0    0  0.00000000000E+00  0.00000000000E+00  0.45593999997E+02  0.45594000000E+02  0.51100000000E-03 0. -1.
         11   -1    0    0    0    0 -0.00000000000E+00 -0.00000000000E+00 -0.45593999997E+02  0.45594000000E+02  0.51100000000E-03 0.  1.
    9900012    2    1    2    0    0 -0.62344123754E+01 -0.40013169461E+02  0.36393976461E+01  0.50528845518E+02  0.29999956436E+02 0.  0.
         12    1    1    2    0    0  0.62344123754E+01  0.40013169461E+02 -0.36393976461E+01  0.40659154482E+02  0.00000000000E+00 0. -1.
         11    1    3    3    0    0 -0.49912017882E+01 -0.29385764953E+02  0.10604494137E+02  0.31636854669E+02  0.51100000000E-03 0. -1.
        -11    1    3    3    0    0 -0.39130575325E+01  0.72639569703E+00  0.17344480011E+01  0.43414260435E+01  0.51100000000E-03 0.  1.
        -12    1    3    3    0    0  0.26698469453E+01 -0.11353800205E+02 -0.86995444918E+01  0.14550564806E+02  0.00000000000E+00 0.  1.
</event>
<event>
 7    1  0.2746803E-013  0.5052885E+02  0.7816164E-02  0.1300439E+00
        -11   -1    0    0    0    0  0.00000000000E+00  0.00000000000E+00  0.45593999997E+02  0.45594000000E+02  0.51100000000E-03 0.  1.
         11   -1    0    0    0    0 -0.00000000000E+00 -0.00000000000E+00 -0.45593999997E+02  0.45594000000E+02  0.51100000000E-03 0. -1.
    9900012    2    1    2    0    0 -0.22972729201E+02  0.76314306364E+01  0.32667744902E+02  0.50528848785E+02  0.29999966367E+02 0.  0.
         12    1    1    2    0    0  0.22972729201E+02 -0.76314306364E+01 -0.32667744902E+02  0.40659151215E+02  0.00000000000E+00 0. -1.
         11    1    3    3    0    0 -0.12778522409E+02  0.10391129757E+02  0.28002644224E+02  0.32487140477E+02  0.51100000000E-03 0. -1.
        -11    1    3    3    0    0 -0.34415967582E+00  0.39698221753E+01 -0.19116466261E+01  0.44195392374E+01  0.51100000000E-03 0.  1.
        -12    1    3    3    0    0 -0.98500471169E+01 -0.67295212962E+01  0.65767473047E+01  0.13622169071E+02  0.00000000000E+00 0.  1.
</event>
<event>
 7    1  0.2746803E-013  0.5052887E+02  0.7816164E-02  0.1300439E+00
        -11   -1    0    0    0    0  0.00000000000E+00  0.00000000000E+00  0.45593999997E+02  0.45594000000E+02  0.51100000000E-03 0. -1.
         11   -1    0    0    0    0 -0.00000000000E+00 -0.00000000000E+00 -0.45593999997E+02  0.45594000000E+02  0.51100000000E-03 0.  1.
    9900012    2    1    2    0    0 -0.99836403027E+01 -0.33114464807E+02 -0.21375786921E+02  0.50528866713E+02  0.30000020862E+02 0.  0.
         12    1    1    2    0    0  0.99836403027E+01  0.33114464807E+02  0.21375786921E+02  0.40659133287E+02  0.00000000000E+00 0. -1.
         11    1    3    3    0    0  0.18571652967E+01 -0.77479489981E+01  0.52759778706E+01  0.95559258771E+01  0.51100000000E-03 0.  1.
        -11    1    3    3    0    0 -0.25911739492E+01 -0.49121289144E+00 -0.82936552624E+01  0.87028840285E+01  0.51100000000E-03 0. -1.
        -12    1    3    3    0    0 -0.92496316502E+01 -0.24875302918E+02 -0.18358109529E+02  0.32270056808E+02  0.00000000000E+00 0.  1.
</event>
<event>
 7    1  0.2746803E-013  0.5052894E+02  0.7816164E-02  0.1300439E+00
        -11   -1    0    0    0    0  0.00000000000E+00  0.00000000000E+00  0.45593999997E+02  0.45594000000E+02  0.51100000000E-03 0. -1.
         11   -1    0    0    0    0 -0.00000000000E+00 -0.00000000000E+00 -0.45593999997E+02  0.45594000000E+02  0.51100000000E-03 0.  1.
    9900012    2    1    2    0    0 -0.36213129896E+02 -0.58768597043E+01 -0.17528001075E+02  0.50528941002E+02  0.30000246670E+02 0.  0.
         12    1    1    2    0    0  0.36213129896E+02  0.58768597043E+01  0.17528001075E+02  0.40659058998E+02  0.00000000000E+00 0. -1.
         11    1    3    3    0    0 -0.65089549336E+00 -0.94520541065E+01 -0.37178106600E+01  0.10177775206E+02  0.51100000000E-03 0. -1.
        -11    1    3    3    0    0 -0.53476429912E+01  0.52007748942E+01 -0.11355454419E+01  0.75455158056E+01  0.51100000000E-03 0.  1.
        -12    1    3    3    0    0 -0.30214591412E+02 -0.16255804920E+01 -0.12674644973E+02  0.32805649991E+02  0.00000000000E+00 0.  1.
</event>
<event>
 7    1  0.2746803E-013  0.5052887E+02  0.7816164E-02  0.1300439E+00
        -11   -1    0    0    0    0  0.00000000000E+00  0.00000000000E+00  0.45593999997E+02  0.45594000000E+02  0.51100000000E-03 0.  1.
         11   -1    0    0    0    0 -0.00000000000E+00 -0.00000000000E+00 -0.45593999997E+02  0.45594000000E+02  0.51100000000E-03 0. -1.
    9900012    2    1    2    0    0  0.34830133441E+02 -0.16158266091E+02  0.13376739506E+02  0.50528869188E+02  0.30000028385E+02 0.  0.
         12    1    1    2    0    0 -0.34830133441E+02  0.16158266091E+02 -0.13376739506E+02  0.40659130812E+02  0.00000000000E+00 0. -1.
         11    1    3    3    0    0  0.84234297381E+01 -0.11853275774E+02 -0.32203896369E+01  0.14893798199E+02  0.51100000000E-03 0.  1.
        -11    1    3    3    0    0  0.45064992098E+00 -0.41293828194E+01  0.66438056100E+01  0.78354987757E+01  0.51100000000E-03 0. -1.
        -12    1    3    3    0    0  0.25956053781E+02 -0.17560749811E+00  0.99533235325E+01  0.27799572213E+02  0.00000000000E+00 0.  1.
</event>
<event>
 7    1  0.2746803E-013  0.5052886E+02  0.7816164E-02  0.1300439E+00
        -11   -1    0    0    0    0  0.00000000000E+00  0.00000000000E+00  0.45593999997E+02  0.45594000000E+02  0.51100000000E-03 0.  1.
         11   -1    0    0    0    0 -0.00000000000E+00 -0.00000000000E+00 -0.45593999997E+02  0.45594000000E+02  0.51100000000E-03 0. -1.
    9900012    2    1    2    0    0 -0.28619659857E+02 -0.27102629695E+02 -0.99763955376E+01  0.50528856691E+02  0.29999990397E+02 0.  0.
         12    1    1    2    0    0  0.28619659857E+02  0.27102629695E+02  0.99763955376E+01  0.40659143309E+02  0.00000000000E+00 0. -1.
         11    1    3    3    0    0 -0.11195747128E+02 -0.48893805785E+01  0.52839695242E+01  0.13310564616E+02  0.51100000000E-03 0.  1.
        -11    1    3    3    0    0  0.13400866613E+01 -0.12206964456E+02 -0.83820658091E+01  0.14868249426E+02  0.51100000000E-03 0. -1.
         12    1    3    3    0    0 -0.18763999390E+02 -0.10006284660E+02 -0.68782992528E+01  0.22350042649E+02  0.00000000000E+00 0. -1.
</event>
<event>
 7    1  0.2746803E-013  0.5052886E+02  0.7816164E-02  0.1300439E+00
        -11   -1    0    0    0    0  0.00000000000E+00  0.00000000000E+00  0.45593999997E+02  0.45594000000E+02  0.51100000000E-03 0. -1.
         11   -1    0    0    0    0 -0.00000000000E+00 -0.00000000000E+00 -0.45593999997E+02  0.45594000000E+02  0.51100000000E-03 0.  1.
    9900012    2    1    2    0    0 -0.35796233178E+02 -0.87195570957E+01 -0.17197818555E+02  0.50528856517E+02  0.29999989870E+02 0.  0.
         12    1    1    2    0    0  0.35796233178E+02  0.87195570957E+01  0.17197818555E+02  0.40659143483E+02  0.00000000000E+00 0. -1.
         11    1    3    3    0    0 -0.30911030160E+01 -0.42084450985E+01 -0.88366860419E+01  0.10264158439E+02  0.51100000000E-03 0. -1.
        -11    1    3    3    0    0 -0.23508954373E+02 -0.11207306723E+02 -0.11491166769E+02  0.28466147854E+02  0.51100000000E-03 0.  1.
        -12    1    3    3    0    0 -0.91961757892E+01  0.66961947254E+01  0.31300342559E+01  0.11798550224E+02  0.00000000000E+00 0.  1.
</event>
<event>
 7    1  0.2746803E-013  0.5052886E+02  0.7816164E-02  0.1300439E+00
        -11   -1    0    0    0    0  0.00000000000E+00  0.00000000000E+00  0.45593999997E+02  0.45594000000E+02  0.51100000000E-03 0. -1.
         11   -1    0    0    0    0 -0.00000000000E+00 -0.00000000000E+00 -0.45593999997E+02  0.45594000000E+02  0.51100000000E-03 0.  1.
    9900012    2    1    2    0    0  0.17679256300E+02  0.99617410170E+00 -0.36600784527E+02  0.50528857189E+02  0.29999991911E+02 0.  0.
         12    1    1    2    0    0 -0.17679256300E+02 -0.99617410170E+00  0.36600784527E+02  0.40659142811E+02  0.00000000000E+00 0. -1.
         11    1    3    3    0    0  0.53873789163E+01 -0.38642324666E+01 -0.40838589277E+01  0.77867867664E+01  0.51100000000E-03 0. -1.
        -11    1    3    3    0    0 -0.14549008783E+01  0.10895910273E+02 -0.66895351466E+01  0.12868079809E+02  0.51100000000E-03 0.  1.
         12    1    3    3    0    0  0.13746778262E+02 -0.60355037046E+01 -0.25827390453E+02  0.29873990613E+02  0.00000000000E+00 0. -1.
</event>
<event>
 7    1  0.2746803E-013  0.5052885E+02  0.7816164E-02  0.1300439E+00
        -11   -1    0    0    0    0  0.00000000000E+00  0.00000000000E+00  0.45593999997E+02  0.45594000000E+02  0.51100000000E-03 0. -1.
         11   -1    0    0    0    0 -0.00000000000E+00 -0.00000000000E+00 -0.45593999997E+02  0.45594000000E+02  0.51100000000E-03 0.  1.
    9900012    2    1    2    0    0  0.17440154765E+02  0.20167364417E+02 -0.30696652939E+02  0.50528854812E+02  0.29999984686E+02 0.  0.
         12    1    1    2    0    0 -0.17440154765E+02 -0.20167364417E+02  0.30696652939E+02  0.40659145188E+02  0.00000000000E+00 0. -1.
         11    1    3    3    0    0  0.12438342969E+02  0.52022426127E+01 -0.39855755281E+01  0.14059179086E+02  0.51100000000E-03 0. -1.
        -11    1    3    3    0    0  0.12204197665E+02  0.92905321818E+01 -0.13789741088E+02  0.20625551832E+02  0.51100000000E-03 0.  1.
         12    1    3    3    0    0 -0.72023858681E+01  0.56745896228E+01 -0.12921336323E+02  0.15844123894E+02  0.00000000000E+00 0. -1.
</event>
<event>
 7    1  0.2746803E-013  0.5052885E+02  0.7816164E-02  0.1300439E+00
        -11   -1    0    0    0    0  0.00000000000E+00  0.00000000000E+00  0.45593999997E+02  0.45594000000E+02  0.51100000000E-03 0.  1.
         11   -1    0    0    0    0 -0.00000000000E+00 -0.00000000000E+00 -0.45593999997E+02  0.45594000000E+02  0.51100000000E-03 0. -1.
    9900012    2    1    2    0    0  0.71875066472E+01 -0.32770191296E+02  0.22970004521E+02  0.50528846085E+02  0.29999958159E+02 0.  0.
         12    1    1    2    0    0 -0.71875066472E+01  0.32770191296E+02 -0.22970004521E+02  0.40659153915E+02  0.00000000000E+00 0. -1.
         11    1    3    3    0    0  0.53693339381E+01 -0.27638568596E+01  0.77783693153E+01  0.98474200248E+01  0.51100000000E-03 0.  1.
        -11    1    3    3    0    0  0.11570607252E+02 -0.16889970582E+02  0.39678407056E+01  0.20854107954E+02  0.51100000000E-03 0. -1.
        -12    1    3    3    0    0 -0.97524345426E+01 -0.13116363855E+02  0.11223794501E+02  0.19827318106E+02  0.00000000000E+00 0.  1.
</event>
<event>
 7    1  0.2746803E-013  0.5052885E+02  0.7816164E-02  0.1300439E+00
        -11   -1    0    0    0    0  0.00000000000E+00  0.00000000000E+00  0.45593999997E+02  0.45594000000E+02  0.51100000000E-03 0.  1.
         11   -1    0    0    0    0 -0.00000000000E+00 -0.00000000000E+00 -0.45593999997E+02  0.45594000000E+02  0.51100000000E-03 0. -1.
    9900012    2    1    2    0    0  0.32678368616E+02  0.20521426940E+02  0.12812552782E+02  0.50528852839E+02  0.29999978688E+02 0.  0.
         12    1    1    2    0    0 -0.32678368616E+02 -0.20521426940E+02 -0.12812552782E+02  0.40659147161E+02  0.00000000000E+00 0. -1.
         11    1    3    3    0    0 -0.74551998812E+00  0.47073494835E+01  0.83139915849E+01  0.95831829549E+01  0.51100000000E-03 0. -1.
        -11    1    3    3    0    0  0.13711819206E+02  0.10661590131E+02  0.97323296191E+01  0.19909840033E+02  0.51100000000E-03 0.  1.
        -12    1    3    3    0    0  0.19712069399E+02  0.51524873258E+01 -0.52337684218E+01  0.21035829851E+02  0.00000000000E+00 0.  1.
</event>
<event>
 7    1  0.2746803E-013  0.5052886E+02  0.7816164E-02  0.1300439E+00
        -11   -1    0    0    0    0  0.00000000000E+00  0.00000000000E+00  0.45593999997E+02  0.45594000000E+02  0.51100000000E-03 0.  1.
         11   -1    0    0    0    0 -0.00000000000E+00 -0.00000000000E+00 -0.45593999997E+02  0.45594000000E+02  0.51100000000E-03 0. -1.
    9900012    2    1    2    0    0 -0.34266943317E+02  0.21877722400E+02 -0.55438907604E+00  0.50528862171E+02  0.30000007056E+02 0.  0.
         12    1    1    2    0    0  0.34266943317E+02 -0.21877722400E+02  0.55438907604E+00  0.40659137829E+02  0.00000000000E+00 0. -1.
         11    1    3    3    0    0 -0.43217905098E+01  0.96955464012E+01 -0.97448322307E+00  0.10659789446E+02  0.51100000000E-03 0. -1.
        -11    1    3    3    0    0 -0.29640134959E+02  0.17005676070E+02  0.31522342944E+01  0.34317156064E+02  0.51100000000E-03 0.  1.
         12    1    3    3    0    0 -0.30501784868E+00 -0.48235000717E+01 -0.27321401474E+01  0.55519166613E+01  0.00000000000E+00 0. -1.
</event>
<event>
 7    1  0.2746803E-013  0.5052883E+02  0.7816164E-02  0.1300439E+00
        -11   -1    0    0    0    0  0.00000000000E+00  0.00000000000E+00  0.45593999997E+02  0.45594000000E+02  0.51100000000E-03 0. -1.
         11   -1    0    0    0    0 -0.00000000000E+00 -0.00000000000E+00 -0.45593999997E+02  0.45594000000E+02  0.51100000000E-03 0.  1.
    9900012    2    1    2    0    0  0.30879705120E+01  0.29993561657E+01 -0.40430636371E+02  0.50528830595E+02  0.29999911078E+02 0.  0.
         12    1    1    2    0    0 -0.30879705120E+01 -0.29993561657E+01  0.40430636371E+02  0.40659169405E+02  0.00000000000E+00 0. -1.
         11    1    3    3    0    0 -0.14972750934E+01  0.66260445876E+01 -0.34333858395E+01  0.76114675435E+01  0.51100000000E-03 0. -1.
        -11    1    3    3    0    0  0.10046361390E+02 -0.56010894591E+01 -0.98118686493E+01  0.15118675436E+02  0.51100000000E-03 0.  1.
        -12    1    3    3    0    0 -0.54611157841E+01  0.19744010373E+01 -0.27185381882E+02  0.27798687616E+02  0.00000000000E+00 0.  1.
</event>
<event>
 7    1  0.2746803E-013  0.5052886E+02  0.7816164E-02  0.1300439E+00
        -11   -1    0    0    0    0  0.00000000000E+00  0.00000000000E+00  0.45593999997E+02  0.45594000000E+02  0.51100000000E-03 0.  1.
         11   -1    0    0    0    0 -0.00000000000E+00 -0.00000000000E+00 -0.45593999997E+02  0.45594000000E+02  0.51100000000E-03 0. -1.
    9900012    2    1    2    0    0  0.28621537409E+02 -0.27062744350E+02  0.10078742590E+02  0.50528860958E+02  0.30000003369E+02 0.  0.
         12    1    1    2    0    0 -0.28621537409E+02  0.27062744350E+02 -0.10078742590E+02  0.40659139042E+02  0.00000000000E+00 0. -1.
         11    1    3    3    0    0  0.79763345217E+01 -0.12924635524E+02  0.13347285887E+02  0.20219252129E+02  0.51100000000E-03 0.  1.
        -11    1    3    3    0    0  0.57015596118E+01  0.13018173008E+01  0.45857622058E+01  0.74318050002E+01  0.51100000000E-03 0. -1.
         12    1    3    3    0    0  0.14943643275E+02 -0.15439926126E+02 -0.78543055024E+01  0.22877803829E+02  0.00000000000E+00 0. -1.
</event>
<event>
 7    1  0.2746803E-013  0.5052887E+02  0.7816164E-02  0.1300439E+00
        -11   -1    0    0    0    0  0.00000000000E+00  0.00000000000E+00  0.45593999997E+02  0.45594000000E+02  0.51100000000E-03 0. -1.
         11   -1    0    0    0    0 -0.00000000000E+00 -0.00000000000E+00 -0.45593999997E+02  0.45594000000E+02  0.51100000000E-03 0.  1.
    9900012    2    1    2    0    0  0.20525540879E+02 -0.33014782370E+02 -0.11911816650E+02  0.50528867456E+02  0.30000023120E+02 0.  0.
         12    1    1    2    0    0 -0.20525540879E+02  0.33014782370E+02  0.11911816650E+02  0.40659132544E+02  0.00000000000E+00 0. -1.
         11    1    3    3    0    0  0.20578849321E+01 -0.72771002258E+01  0.51332371129E+01  0.91400876149E+01  0.51100000000E-03 0. -1.
        -11    1    3    3    0    0  0.63279373003E+01 -0.24735578155E+02 -0.11302096662E+02  0.27921837446E+02  0.51100000000E-03 0.  1.
         12    1    3    3    0    0  0.12139718647E+02 -0.10021039897E+01 -0.57429571004E+01  0.13466942395E+02  0.00000000000E+00 0. -1.
</event>
<event>
 7    1  0.2746803E-013  0.5052886E+02  0.7816164E-02  0.1300439E+00
        -11   -1    0    0    0    0  0.00000000000E+00  0.00000000000E+00  0.45593999997E+02  0.45594000000E+02  0.51100000000E-03 0.  1.
         11   -1    0    0    0    0 -0.00000000000E+00 -0.00000000000E+00 -0.45593999997E+02  0.45594000000E+02  0.51100000000E-03 0. -1.
    9900012    2    1    2    0    0 -0.15449538450E+02  0.34562142244E+02 -0.14830222322E+02  0.50528863156E+02  0.30000010049E+02 0.  0.
         12    1    1    2    0    0  0.15449538450E+02 -0.34562142244E+02  0.14830222322E+02  0.40659136844E+02  0.00000000000E+00 0. -1.
         11    1    3    3    0    0  0.81556604958E+00 -0.29171641654E+01  0.50703608157E+00  0.30711692559E+01  0.51100000000E-03 0. -1.
        -11    1    3    3    0    0  0.37311460091E+01  0.11730659243E+02 -0.42242710107E+01  0.13014387525E+02  0.51100000000E-03 0.  1.
        -12    1    3    3    0    0 -0.19996250508E+02  0.25748647167E+02 -0.11112987393E+02  0.34443306376E+02  0.00000000000E+00 0.  1.
</event>
<event>
 7    1  0.2746803E-013  0.5052886E+02  0.7816164E-02  0.1300439E+00
        -11   -1    0    0    0    0  0.00000000000E+00  0.00000000000E+00  0.45593999997E+02  0.45594000000E+02  0.51100000000E-03 0. -1.
         11   -1    0    0    0    0 -0.00000000000E+00 -0.00000000000E+00 -0.45593999997E+02  0.45594000000E+02  0.51100000000E-03 0.  1.
    9900012    2    1    2    0    0 -0.15809882512E+02  0.32162477854E+02 -0.19203864210E+02  0.50528858748E+02  0.29999996652E+02 0.  0.
         12    1    1    2    0    0  0.15809882512E+02 -0.32162477854E+02  0.19203864210E+02  0.40659141252E+02  0.00000000000E+00 0. -1.
         11    1    3    3    0    0 -0.15078823253E+02  0.14123120316E+02 -0.17532470726E+01  0.20734206368E+02  0.51100000000E-03 0. -1.
        -11    1    3    3    0    0 -0.47533245396E+01  0.12154914346E+02 -0.25797428172E+01  0.13303800593E+02  0.51100000000E-03 0.  1.
        -12    1    3    3    0    0  0.40222652803E+01  0.58844431917E+01 -0.14870874320E+02  0.16490851788E+02  0.00000000000E+00 0.  1.
</event>
<event>
 7    1  0.2746803E-013  0.5052887E+02  0.7816164E-02  0.1300439E+00
        -11   -1    0    0    0    0  0.00000000000E+00  0.00000000000E+00  0.45593999997E+02  0.45594000000E+02  0.51100000000E-03 0.  1.
         11   -1    0    0    0    0 -0.00000000000E+00 -0.00000000000E+00 -0.45593999997E+02  0.45594000000E+02  0.51100000000E-03 0. -1.
    9900012    2    1    2    0    0 -0.27471032238E+02 -0.64672038744E+00  0.29968136509E+02  0.50528867381E+02  0.30000022892E+02 0.  0.
         12    1    1    2    0    0  0.27471032238E+02  0.64672038744E+00 -0.29968136509E+02  0.40659132619E+02  0.00000000000E+00 0. -1.
         11    1    3    3    0    0 -0.13123427889E+02  0.31773460769E+01  0.22468851582E+02  0.26213911942E+02  0.51100000000E-03 0. -1.
        -11    1    3    3    0    0 -0.16439095287E+02 -0.70162284345E+01  0.92394728339E+01  0.20120615642E+02  0.51100000000E-03 0.  1.
         12    1    3    3    0    0  0.20914909377E+01  0.31921619701E+01 -0.17401879065E+01  0.41943397974E+01  0.00000000000E+00 0. -1.
</event>
<event>
 7    1  0.2746803E-013  0.5052889E+02  0.7816164E-02  0.1300439E+00
        -11   -1    0    0    0    0  0.00000000000E+00  0.00000000000E+00  0.45593999997E+02  0.45594000000E+02  0.51100000000E-03 0. -1.
         11   -1    0    0    0    0 -0.00000000000E+00 -0.00000000000E+00 -0.45593999997E+02  0.45594000000E+02  0.51100000000E-03 0.  1.
    9900012    2    1    2    0    0 -0.31956825291E+02 -0.21736771027E+02 -0.12626837882E+02  0.50528893613E+02  0.30000102625E+02 0.  0.
         12    1    1    2    0    0  0.31956825291E+02  0.21736771027E+02  0.12626837882E+02  0.40659106387E+02  0.00000000000E+00 0. -1.
         11    1    3    3    0    0 -0.52170101263E+01 -0.69351542728E+01 -0.10728529132E+02  0.13799090443E+02  0.51100000000E-03 0. -1.
        -11    1    3    3    0    0 -0.71320607356E+01  0.30483388092E+01  0.51289761095E+01  0.92986588293E+01  0.51100000000E-03 0.  1.
         12    1    3    3    0    0 -0.19607754429E+02 -0.17849955563E+02 -0.70272848590E+01  0.27431144341E+02  0.00000000000E+00 0. -1.
</event>
<event>
 7    1  0.2746803E-013  0.5052886E+02  0.7816164E-02  0.1300439E+00
        -11   -1    0    0    0    0  0.00000000000E+00  0.00000000000E+00  0.45593999997E+02  0.45594000000E+02  0.51100000000E-03 0.  1.
         11   -1    0    0    0    0 -0.00000000000E+00 -0.00000000000E+00 -0.45593999997E+02  0.45594000000E+02  0.51100000000E-03 0. -1.
    9900012    2    1    2    0    0 -0.43517795913E+01 -0.36530920534E+01  0.40260188634E+02  0.50528857658E+02  0.29999993336E+02 0.  0.
         12    1    1    2    0    0  0.43517795913E+01  0.36530920534E+01 -0.40260188634E+02  0.40659142342E+02  0.00000000000E+00 0. -1.
         11    1    3    3    0    0 -0.86709694961E+01 -0.45565592806E+01  0.85211394083E+01  0.12982979687E+02  0.51100000000E-03 0. -1.
        -11    1    3    3    0    0 -0.65284111422E+01 -0.20207005053E+01  0.20685244986E+02  0.21784920081E+02  0.51100000000E-03 0.  1.
         12    1    3    3    0    0  0.10847601047E+02  0.29241677325E+01  0.11053804240E+02  0.15760957889E+02  0.00000000000E+00 0. -1.
</event>
<event>
 7    1  0.2746803E-013  0.5052885E+02  0.7816164E-02  0.1300439E+00
        -11   -1    0    0    0    0  0.00000000000E+00  0.00000000000E+00  0.45593999997E+02  0.45594000000E+02  0.51100000000E-03 0.  1.
         11   -1    0    0    0    0 -0.00000000000E+00 -0.00000000000E+00 -0.45593999997E+02  0.45594000000E+02  0.51100000000E-03 0. -1.
    9900012    2    1    2    0    0  0.24990903952E+02 -0.32021462810E+02 -0.18019735416E+01  0.50528850114E+02  0.29999970406E+02 0.  0.
         12    1    1    2    0    0 -0.24990903952E+02  0.32021462810E+02  0.18019735416E+01  0.40659149886E+02  0.00000000000E+00 0. -1.
         11    1    3    3    0    0  0.89524805866E+01 -0.10538686368E+02  0.20326356612E+01  0.13976495520E+02  0.51100000000E-03 0. -1.
        -11    1    3    3    0    0 -0.22206933275E+01 -0.15479426373E+02  0.34210968469E+01  0.16007748861E+02  0.51100000000E-03 0.  1.
         12    1    3    3    0    0  0.18259116693E+02 -0.60033500683E+01 -0.72557060497E+01  0.20544605733E+02  0.00000000000E+00 0. -1.
</event>
<event>
 7    1  0.2746803E-013  0.5052886E+02  0.7816164E-02  0.1300439E+00
        -11   -1    0    0    0    0  0.00000000000E+00  0.00000000000E+00  0.45593999997E+02  0.45594000000E+02  0.51100000000E-03 0.  1.
         11   -1    0    0    0    0 -0.00000000000E+00 -0.00000000000E+00 -0.45593999997E+02  0.45594000000E+02  0.51100000000E-03 0. -1.
    9900012    2    1    2    0    0 -0.20996169657E+02  0.28332081331E+02  0.20239056575E+02  0.50528863463E+02  0.30000010983E+02 0.  0.
         12    1    1    2    0    0  0.20996169657E+02 -0.28332081331E+02 -0.20239056575E+02  0.40659136537E+02  0.00000000000E+00 0. -1.
         11    1    3    3    0    0 -0.79999671481E+01  0.12058797403E+02 -0.13933363076E+01  0.14538069181E+02  0.51100000000E-03 0. -1.
        -11    1    3    3    0    0 -0.91619010969E+01  0.19624778268E+02  0.11201920524E+02  0.24383506259E+02  0.51100000000E-03 0.  1.
         12    1    3    3    0    0 -0.38343014124E+01 -0.33514943403E+01  0.10430472358E+02  0.11607288023E+02  0.00000000000E+00 0. -1.
</event>
<event>
 7    1  0.2746803E-013  0.5052885E+02  0.7816164E-02  0.1300439E+00
        -11   -1    0    0    0    0  0.00000000000E+00  0.00000000000E+00  0.45593999997E+02  0.45594000000E+02  0.51100000000E-03 0. -1.
         11   -1    0    0    0    0 -0.00000000000E+00 -0.00000000000E+00 -0.45593999997E+02  0.45594000000E+02  0.51100000000E-03 0.  1.
    9900012    2    1    2    0    0 -0.40732353570E+01  0.35982657271E+02 -0.18488465151E+02  0.50528853253E+02  0.29999979947E+02 0.  0.
         12    1    1    2    0    0  0.40732353570E+01 -0.35982657271E+02  0.18488465151E+02  0.40659146747E+02  0.00000000000E+00 0. -1.
         11    1    3    3    0    0 -0.36378105224E+01  0.27582135093E+02 -0.10316687214E+02  0.29672240850E+02  0.51100000000E-03 0.  1.
        -11    1    3    3    0    0 -0.60508157432E+01  0.11306093134E+02 -0.61240219190E+01  0.14210691673E+02  0.51100000000E-03 0. -1.
        -12    1    3    3    0    0  0.56153909086E+01 -0.29055709562E+01 -0.20477560185E+01  0.66459207300E+01  0.00000000000E+00 0.  1.
</event>
<event>
 7    1  0.2746803E-013  0.5052886E+02  0.7816164E-02  0.1300439E+00
        -11   -1    0    0    0    0  0.00000000000E+00  0.00000000000E+00  0.45593999997E+02  0.45594000000E+02  0.51100000000E-03 0.  1.
         11   -1    0    0    0    0 -0.00000000000E+00 -0.00000000000E+00 -0.45593999997E+02  0.45594000000E+02  0.51100000000E-03 0. -1.
    9900012    2    1    2    0    0  0.14905718852E+01  0.23962650544E+02  0.32813645783E+02  0.50528858652E+02  0.29999996358E+02 0.  0.
         12    1    1    2    0    0 -0.14905718852E+01 -0.23962650544E+02 -0.32813645783E+02  0.40659141348E+02  0.00000000000E+00 0. -1.
         11    1    3    3    0    0  0.51937376391E+00  0.12478600857E+02  0.11095628694E+02  0.16706232514E+02  0.51100000000E-03 0. -1.
        -11    1    3    3    0    0  0.75609948389E+01 -0.85573750596E+00  0.17702455124E+02  0.19268571492E+02  0.51100000000E-03 0.  1.
         12    1    3    3    0    0 -0.65897967176E+01  0.12339787193E+02  0.40155619649E+01  0.14554054646E+02  0.00000000000E+00 0. -1.
</event>
<event>
 7    1  0.2746803E-013  0.5052886E+02  0.7816164E-02  0.1300439E+00
        -11   -1    0    0    0    0  0.00000000000E+00  0.00000000000E+00  0.45593999997E+02  0.45594000000E+02  0.51100000000E-03 0. -1.
         11   -1    0    0    0    0 -0.00000000000E+00 -0.00000000000E+00 -0.45593999997E+02  0.45594000000E+02  0.51100000000E-03 0.  1.
    9900012    2    1    2    0    0 -0.95232392838E+01 -0.39335752499E+02 -0.38951893939E+01  0.50528855745E+02  0.29999987523E+02 0.  0.
         12    1    1    2    0    0  0.95232392838E+01  0.39335752499E+02  0.38951893939E+01  0.40659144255E+02  0.00000000000E+00 0. -1.
         11    1    3    3    0    0 -0.13684652412E+02 -0.15895889643E+02  0.47250591915E+00  0.20980283155E+02  0.51100000000E-03 0. -1.
        -11    1    3    3    0    0  0.55452908229E+00 -0.18492141919E+02 -0.10171407966E+02  0.21112185001E+02  0.51100000000E-03 0.  1.
         12    1    3    3    0    0  0.36068840455E+01 -0.49477209372E+01  0.58037126529E+01  0.84363875888E+01  0.00000000000E+00 0. -1.
</event>
<event>
 7    1  0.2746803E-013  0.5052886E+02  0.7816164E-02  0.1300439E+00
        -11   -1    0    0    0    0  0.00000000000E+00  0.00000000000E+00  0.45593999997E+02  0.45594000000E+02  0.51100000000E-03 0. -1.
         11   -1    0    0    0    0 -0.00000000000E+00 -0.00000000000E+00 -0.45593999997E+02  0.45594000000E+02  0.51100000000E-03 0.  1.
    9900012    2    1    2    0    0 -0.94789833918E+01  0.14840805809E+02 -0.36647854308E+02  0.50528857503E+02  0.29999992867E+02 0.  0.
         12    1    1    2    0    0  0.94789833918E+01 -0.14840805809E+02  0.36647854308E+02  0.40659142497E+02  0.00000000000E+00 0. -1.
         11    1    3    3    0    0  0.77836638466E+01  0.68274821789E+01 -0.60347958284E+01  0.11984101833E+02  0.51100000000E-03 0. -1.
        -11    1    3    3    0    0 -0.94359090842E+00  0.32236978743E+01 -0.15283652754E+02  0.15648406742E+02  0.51100000000E-03 0.  1.
        -12    1    3    3    0    0 -0.16319056330E+02  0.47896257556E+01 -0.15329405725E+02  0.22896348929E+02  0.00000000000E+00 0.  1.
</event>
<event>
 7    1  0.2746803E-013  0.5052887E+02  0.7816164E-02  0.1300439E+00
        -11   -1    0    0    0    0  0.00000000000E+00  0.00000000000E+00  0.45593999997E+02  0.45594000000E+02  0.51100000000E-03 0. -1.
         11   -1    0    0    0    0 -0.00000000000E+00 -0.00000000000E+00 -0.45593999997E+02  0.45594000000E+02  0.51100000000E-03 0.  1.
    9900012    2    1    2    0    0 -0.74570038258E+01 -0.24439430375E+02 -0.31627079870E+02  0.50528870101E+02  0.30000031158E+02 0.  0.
         12    1    1    2    0    0  0.74570038258E+01  0.24439430375E+02  0.31627079870E+02  0.40659129899E+02  0.00000000000E+00 0. -1.
         11    1    3    3    0    0  0.29949429156E+01 -0.33989617996E+01 -0.12400284746E+02  0.13201881928E+02  0.51100000000E-03 0. -1.
        -11    1    3    3    0    0 -0.99170438843E+01 -0.15151984678E+02 -0.23761610648E+02  0.29875483928E+02  0.51100000000E-03 0.  1.
         12    1    3    3    0    0 -0.53490285713E+00 -0.58884838975E+01  0.45348155243E+01  0.74515042453E+01  0.00000000000E+00 0. -1.
</event>
<event>
 7    1  0.2746803E-013  0.5052887E+02  0.7816164E-02  0.1300439E+00
        -11   -1    0    0    0    0  0.00000000000E+00  0.00000000000E+00  0.45593999997E+02  0.45594000000E+02  0.51100000000E-03 0.  1.
         11   -1    0    0    0    0 -0.00000000000E+00 -0.00000000000E+00 -0.45593999997E+02  0.45594000000E+02  0.51100000000E-03 0. -1.
    9900012    2    1    2    0    0 -0.21939351311E+02  0.13629425501E+02  0.31401733686E+02  0.50528865062E+02  0.30000015843E+02 0.  0.
         12    1    1    2    0    0  0.21939351311E+02 -0.13629425501E+02 -0.31401733686E+02  0.40659134938E+02  0.00000000000E+00 0. -1.
         11    1    3    3    0    0 -0.51161545840E+00 -0.19549374597E+01 -0.11419447900E+01  0.23211137441E+01  0.51100000000E-03 0. -1.
        -11    1    3    3    0    0 -0.35469057737E+01  0.41615310301E+00  0.22361007474E+02  0.22644389581E+02  0.51100000000E-03 0.  1.
         12    1    3    3    0    0 -0.17880830079E+02  0.15168209858E+02  0.10182671002E+02  0.25563361737E+02  0.00000000000E+00 0. -1.
</event>
<event>
 7    1  0.2746803E-013  0.5052886E+02  0.7816164E-02  0.1300439E+00
        -11   -1    0    0    0    0  0.00000000000E+00  0.00000000000E+00  0.45593999997E+02  0.45594000000E+02  0.51100000000E-03 0.  1.
         11   -1    0    0    0    0 -0.00000000000E+00 -0.00000000000E+00 -0.45593999997E+02  0.45594000000E+02  0.51100000000E-03 0. -1.
    9900012    2    1    2    0    0 -0.18614508384E+02  0.33224517269E+02  0.14240681288E+02  0.50528862359E+02  0.30000007627E+02 0.  0.
         12    1    1    2    0    0  0.18614508384E+02 -0.33224517269E+02 -0.14240681288E+02  0.40659137641E+02  0.00000000000E+00 0. -1.
         11    1    3    3    0    0 -0.12993592261E+02  0.25617962849E+01 -0.13211584737E+00  0.13244383523E+02  0.51100000000E-03 0. -1.
        -11    1    3    3    0    0 -0.63144972114E+01  0.89879062610E+01  0.10615261733E+02  0.15275441594E+02  0.51100000000E-03 0.  1.
         12    1    3    3    0    0  0.69358108816E+00  0.21674814723E+02  0.37575354022E+01  0.22009037242E+02  0.00000000000E+00 0. -1.
</event>
<event>
 7    1  0.2746803E-013  0.5052887E+02  0.7816164E-02  0.1300439E+00
        -11   -1    0    0    0    0  0.00000000000E+00  0.00000000000E+00  0.45593999997E+02  0.45594000000E+02  0.51100000000E-03 0.  1.
         11   -1    0    0    0    0 -0.00000000000E+00 -0.00000000000E+00 -0.45593999997E+02  0.45594000000E+02  0.51100000000E-03 0. -1.
    9900012    2    1    2    0    0  0.89239325765E+01  0.12726670023E+02  0.37570734001E+02  0.50528871186E+02  0.30000034458E+02 0.  0.
         12    1    1    2    0    0 -0.89239325765E+01 -0.12726670023E+02 -0.37570734001E+02  0.40659128814E+02  0.00000000000E+00 0. -1.
         11    1    3    3    0    0  0.76791163354E+01  0.72136226919E+01  0.10155493479E+02  0.14633496783E+02  0.51100000000E-03 0. -1.
        -11    1    3    3    0    0  0.58211386554E+01  0.99749900624E+01  0.49972736912E+01  0.12584070351E+02  0.51100000000E-03 0.  1.
         12    1    3    3    0    0 -0.45763224144E+01 -0.44619427313E+01  0.22417966831E+02  0.23311304052E+02  0.00000000000E+00 0. -1.
</event>
<event>
 7    1  0.2746803E-013  0.5052891E+02  0.7816164E-02  0.1300439E+00
        -11   -1    0    0    0    0  0.00000000000E+00  0.00000000000E+00  0.45593999997E+02  0.45594000000E+02  0.51100000000E-03 0.  1.
         11   -1    0    0    0    0 -0.00000000000E+00 -0.00000000000E+00 -0.45593999997E+02  0.45594000000E+02  0.51100000000E-03 0. -1.
    9900012    2    1    2    0    0  0.10599018442E+02 -0.82315755240E+01  0.38380507049E+02  0.50528913083E+02  0.30000161807E+02 0.  0.
         12    1    1    2    0    0 -0.10599018442E+02  0.82315755240E+01 -0.38380507049E+02  0.40659086917E+02  0.00000000000E+00 0. -1.
         11    1    3    3    0    0  0.14418398893E+02 -0.52983472538E-02  0.47080248954E+01  0.15167588911E+02  0.51100000000E-03 0. -1.
        -11    1    3    3    0    0 -0.17495820268E+01 -0.24515507675E+01  0.37164630023E+01  0.47836425392E+01  0.51100000000E-03 0.  1.
        -12    1    3    3    0    0 -0.20697984236E+01 -0.57747264093E+01  0.29956019152E+02  0.30577681633E+02  0.00000000000E+00 0.  1.
</event>
<event>
 7    1  0.2746803E-013  0.5052886E+02  0.7816164E-02  0.1300439E+00
        -11   -1    0    0    0    0  0.00000000000E+00  0.00000000000E+00  0.45593999997E+02  0.45594000000E+02  0.51100000000E-03 0.  1.
         11   -1    0    0    0    0 -0.00000000000E+00 -0.00000000000E+00 -0.45593999997E+02  0.45594000000E+02  0.51100000000E-03 0. -1.
    9900012    2    1    2    0    0  0.29807131955E+02  0.88124894925E+01  0.26211465838E+02  0.50528855545E+02  0.29999986915E+02 0.  0.
         12    1    1    2    0    0 -0.29807131955E+02 -0.88124894925E+01 -0.26211465838E+02  0.40659144455E+02  0.00000000000E+00 0. -1.
         11    1    3    3    0    0 -0.10535482888E+01 -0.33005945464E+01 -0.38215633383E+01  0.51583170673E+01  0.51100000000E-03 0. -1.
        -11    1    3    3    0    0  0.44765604307E+01 -0.88430375510E+00  0.47318943144E+01  0.65736147199E+01  0.51100000000E-03 0.  1.
         12    1    3    3    0    0  0.26384119813E+02  0.12997387794E+02  0.25301134862E+02  0.38796923758E+02  0.00000000000E+00 0. -1.
</event>
<event>
 7    1  0.2746803E-013  0.5052886E+02  0.7816164E-02  0.1300439E+00
        -11   -1    0    0    0    0  0.00000000000E+00  0.00000000000E+00  0.45593999997E+02  0.45594000000E+02  0.51100000000E-03 0.  1.
         11   -1    0    0    0    0 -0.00000000000E+00 -0.00000000000E+00 -0.45593999997E+02  0.45594000000E+02  0.51100000000E-03 0. -1.
    9900012    2    1    2    0    0  0.10535478195E+02 -0.28753786403E+02  0.26746761826E+02  0.50528858328E+02  0.29999995375E+02 0.  0.
         12    1    1    2    0    0 -0.10535478195E+02  0.28753786403E+02 -0.26746761826E+02  0.40659141672E+02  0.00000000000E+00 0. -1.
         11    1    3    3    0    0 -0.12723934875E+01 -0.15096945633E+02  0.10759533557E+01  0.15188628263E+02  0.51100000000E-03 0. -1.
        -11    1    3    3    0    0  0.12005149269E+01 -0.13527341841E+02  0.15989862780E+02  0.20978701708E+02  0.51100000000E-03 0.  1.
         12    1    3    3    0    0  0.10607356755E+02 -0.12949892932E+00  0.96809456904E+01  0.14361528357E+02  0.00000000000E+00 0. -1.
</event>
<event>
 7    1  0.2746803E-013  0.5052886E+02  0.7816164E-02  0.1300439E+00
        -11   -1    0    0    0    0  0.00000000000E+00  0.00000000000E+00  0.45593999997E+02  0.45594000000E+02  0.51100000000E-03 0.  1.
         11   -1    0    0    0    0 -0.00000000000E+00 -0.00000000000E+00 -0.45593999997E+02  0.45594000000E+02  0.51100000000E-03 0. -1.
    9900012    2    1    2    0    0  0.39288257006E+02  0.98008907385E+00  0.10422952230E+02  0.50528860236E+02  0.30000001174E+02 0.  0.
         12    1    1    2    0    0 -0.39288257006E+02 -0.98008907385E+00 -0.10422952230E+02  0.40659139764E+02  0.00000000000E+00 0. -1.
         11    1    3    3    0    0  0.35179961054E+01  0.18190659234E+01  0.99989084892E+01  0.10754695192E+02  0.51100000000E-03 0. -1.
        -11    1    3    3    0    0  0.14887475603E+02  0.65837612282E+01  0.52270721214E+01  0.17096933203E+02  0.51100000000E-03 0.  1.
         12    1    3    3    0    0  0.20882785298E+02 -0.74227380778E+01 -0.48030283805E+01  0.22677231841E+02  0.00000000000E+00 0. -1.
</event>
<event>
 7    1  0.2746803E-013  0.5052887E+02  0.7816164E-02  0.1300439E+00
        -11   -1    0    0    0    0  0.00000000000E+00  0.00000000000E+00  0.45593999997E+02  0.45594000000E+02  0.51100000000E-03 0. -1.
         11   -1    0    0    0    0 -0.00000000000E+00 -0.00000000000E+00 -0.45593999997E+02  0.45594000000E+02  0.51100000000E-03 0.  1.
    9900012    2    1    2    0    0 -0.30629374358E+02 -0.35317800034E+01 -0.26505336860E+02  0.50528869099E+02  0.30000028113E+02 0.  0.
         12    1    1    2    0    0  0.30629374358E+02  0.35317800034E+01  0.26505336860E+02  0.40659130901E+02  0.00000000000E+00 0. -1.
         11    1    3    3    0    0 -0.86939859026E+01 -0.70714107909E+01 -0.63409912134E+01  0.12876273191E+02  0.51100000000E-03 0.  1.
        -11    1    3    3    0    0 -0.15592024542E+02  0.19037944757E+01  0.76055754458E+00  0.15726223665E+02  0.51100000000E-03 0. -1.
         12    1    3    3    0    0 -0.63433639136E+01  0.16358363118E+01 -0.20924903191E+02  0.21926372243E+02  0.00000000000E+00 0. -1.
</event>
<event>
 7    1  0.2746803E-013  0.5052886E+02  0.7816164E-02  0.1300439E+00
        -11   -1    0    0    0    0  0.00000000000E+00  0.00000000000E+00  0.45593999997E+02  0.45594000000E+02  0.51100000000E-03 0. -1.
         11   -1    0    0    0    0 -0.00000000000E+00 -0.00000000000E+00 -0.45593999997E+02  0.45594000000E+02  0.51100000000E-03 0.  1.
    9900012    2    1    2    0    0 -0.13318981330E+02  0.15575273740E+02 -0.35116678688E+02  0.50528861571E+02  0.30000005230E+02 0.  0.
         12    1    1    2    0    0  0.13318981330E+02 -0.15575273740E+02  0.35116678688E+02  0.40659138429E+02  0.00000000000E+00 0. -1.
         11    1    3    3    0    0  0.19774108315E+01  0.63924678297E+01 -0.31374887346E+01  0.73903744406E+01  0.51100000000E-03 0. -1.
        -11    1    3    3    0    0 -0.88958605197E+01  0.87569733504E+01 -0.34155182018E+02  0.36364782078E+02  0.51100000000E-03 0.  1.
         12    1    3    3    0    0 -0.64005316417E+01  0.42583255993E+00  0.21759920647E+01  0.67737050520E+01  0.00000000000E+00 0. -1.
</event>
<event>
 7    1  0.2746803E-013  0.5052885E+02  0.7816164E-02  0.1300439E+00
        -11   -1    0    0    0    0  0.00000000000E+00  0.00000000000E+00  0.45593999997E+02  0.45594000000E+02  0.51100000000E-03 0.  1.
         11   -1    0    0    0    0 -0.00000000000E+00 -0.00000000000E+00 -0.45593999997E+02  0.45594000000E+02  0.51100000000E-03 0. -1.
    9900012    2    1    2    0    0  0.25383164547E+02 -0.36448381211E+01  0.31552764469E+02  0.50528845643E+02  0.29999956817E+02 0.  0.
         12    1    1    2    0    0 -0.25383164547E+02  0.36448381211E+01 -0.31552764469E+02  0.40659154357E+02  0.00000000000E+00 0. -1.
         11    1    3    3    0    0  0.17963469323E+01 -0.30619627774E+01 -0.15994447369E+01  0.38936746242E+01  0.51100000000E-03 0. -1.
        -11    1    3    3    0    0 -0.64831305181E+00 -0.64461360119E+01  0.13187253675E+02  0.14692741032E+02  0.51100000000E-03 0.  1.
         12    1    3    3    0    0  0.24235130667E+02  0.58632606681E+01  0.19964955532E+02  0.31942429987E+02  0.00000000000E+00 0. -1.
</event>
<event>
 7    1  0.2746803E-013  0.5052886E+02  0.7816164E-02  0.1300439E+00
        -11   -1    0    0    0    0  0.00000000000E+00  0.00000000000E+00  0.45593999997E+02  0.45594000000E+02  0.51100000000E-03 0. -1.
         11   -1    0    0    0    0 -0.00000000000E+00 -0.00000000000E+00 -0.45593999997E+02  0.45594000000E+02  0.51100000000E-03 0.  1.
    9900012    2    1    2    0    0 -0.40380100082E+02 -0.14086656693E+01 -0.45418941596E+01  0.50528860509E+02  0.30000002003E+02 0.  0.
         12    1    1    2    0    0  0.40380100082E+02  0.14086656693E+01  0.45418941596E+01  0.40659139491E+02  0.00000000000E+00 0. -1.
         11    1    3    3    0    0  0.70489559112E+00  0.15533251174E+01  0.39850408662E+01  0.43347719296E+01  0.51100000000E-03 0. -1.
        -11    1    3    3    0    0 -0.13663887351E+02 -0.79447956125E+01 -0.92519975384E+01  0.18314503913E+02  0.51100000000E-03 0.  1.
        -12    1    3    3    0    0 -0.27421108322E+02  0.49828048257E+01  0.72506251254E+00  0.27879584667E+02  0.00000000000E+00 0.  1.
</event>
<event>
 7    1  0.2746803E-013  0.5052884E+02  0.7816164E-02  0.1300439E+00
        -11   -1    0    0    0    0  0.00000000000E+00  0.00000000000E+00  0.45593999997E+02  0.45594000000E+02  0.51100000000E-03 0. -1.
         11   -1    0    0    0    0 -0.00000000000E+00 -0.00000000000E+00 -0.45593999997E+02  0.45594000000E+02  0.51100000000E-03 0.  1.
    9900012    2    1    2    0    0  0.88535022025E-01 -0.32170698164E+02 -0.24863743029E+02  0.50528838963E+02  0.29999936512E+02 0.  0.
         12    1    1    2    0    0 -0.88535022025E-01  0.32170698164E+02  0.24863743029E+02  0.40659161037E+02  0.00000000000E+00 0. -1.
         11    1    3    3    0    0  0.12027347916E+01 -0.10228949267E+02  0.16798089536E+01  0.10435503460E+02  0.51100000000E-03 0. -1.
        -11    1    3    3    0    0  0.50831689547E+01 -0.91184962198E+01 -0.55047666177E+00  0.10454119033E+02  0.51100000000E-03 0.  1.
         12    1    3    3    0    0 -0.61973687242E+01 -0.12823252678E+02 -0.25993075321E+02  0.29639216470E+02  0.00000000000E+00 0. -1.
</event>
<event>
 7    1  0.2746803E-013  0.5052887E+02  0.7816164E-02  0.1300439E+00
        -11   -1    0    0    0    0  0.00000000000E+00  0.00000000000E+00  0.45593999997E+02  0.45594000000E+02  0.51100000000E-03 0.  1.
         11   -1    0    0    0    0 -0.00000000000E+00 -0.00000000000E+00 -0.45593999997E+02  0.45594000000E+02  0.51100000000E-03 0. -1.
    9900012    2    1    2    0    0 -0.14911417082E+02 -0.61590420992E+01  0.37321317777E+02  0.50528869173E+02  0.30000028340E+02 0.  0.
         12    1    1    2    0    0  0.14911417082E+02  0.61590420992E+01 -0.37321317777E+02  0.40659130827E+02  0.00000000000E+00 0. -1.
         11    1    3    3    0    0  0.25607211549E+01 -0.19278226205E+01  0.10305420389E+02  0.10792380764E+02  0.51100000000E-03 0. -1.
        -11    1    3    3    0    0 -0.52836874662E+01 -0.97210651728E+01  0.23406884366E+02  0.25890127410E+02  0.51100000000E-03 0.  1.
         12    1    3    3    0    0 -0.12188450771E+02  0.54898456942E+01  0.36090130212E+01  0.13846360999E+02  0.00000000000E+00 0. -1.
</event>
<event>
 7    1  0.2746803E-013  0.5052887E+02  0.7816164E-02  0.1300439E+00
        -11   -1    0    0    0    0  0.00000000000E+00  0.00000000000E+00  0.45593999997E+02  0.45594000000E+02  0.51100000000E-03 0. -1.
         11   -1    0    0    0    0 -0.00000000000E+00 -0.00000000000E+00 -0.45593999997E+02  0.45594000000E+02  0.51100000000E-03 0.  1.
    9900012    2    1    2    0    0 -0.31960372825E+02 -0.12196904559E+02 -0.21975775143E+02  0.50528873041E+02  0.30000040096E+02 0.  0.
         12    1    1    2    0    0  0.31960372825E+02  0.12196904559E+02  0.21975775143E+02  0.40659126959E+02  0.00000000000E+00 0. -1.
         11    1    3    3    0    0  0.16845798239E+01  0.13588721422E+01  0.30949569352E+01  0.37766521383E+01  0.51100000000E-03 0. -1.
        -11    1    3    3    0    0 -0.11984582298E+02 -0.10392364359E+02 -0.39792849707E+01  0.16354392651E+02  0.51100000000E-03 0.  1.
        -12    1    3    3    0    0 -0.21660370350E+02 -0.31634123419E+01 -0.21091447108E+02  0.30397828252E+02  0.00000000000E+00 0.  1.
</event>
<event>
 7    1  0.2746803E-013  0.5052886E+02  0.7816164E-02  0.1300439E+00
        -11   -1    0    0    0    0  0.00000000000E+00  0.00000000000E+00  0.45593999997E+02  0.45594000000E+02  0.51100000000E-03 0.  1.
         11   -1    0    0    0    0 -0.00000000000E+00 -0.00000000000E+00 -0.45593999997E+02  0.45594000000E+02  0.51100000000E-03 0. -1.
    9900012    2    1    2    0    0 -0.34578547686E+02 -0.34792111406E+01  0.21104137085E+02  0.50528862376E+02  0.30000007677E+02 0.  0.
         12    1    1    2    0    0  0.34578547686E+02  0.34792111406E+01 -0.21104137085E+02  0.40659137624E+02  0.00000000000E+00 0. -1.
         11    1    3    3    0    0 -0.73436713900E+00  0.21735053538E+01 -0.10767797608E+01  0.25343392693E+01  0.51100000000E-03 0. -1.
        -11    1    3    3    0    0 -0.18670726237E+02 -0.10476866929E+02  0.91533070933E+00  0.21428919464E+02  0.51100000000E-03 0.  1.
         12    1    3    3    0    0 -0.15173454310E+02  0.48241504342E+01  0.21265586137E+02  0.26565603642E+02  0.00000000000E+00 0. -1.
</event>
<event>
 7    1  0.2746803E-013  0.5052885E+02  0.7816164E-02  0.1300439E+00
        -11   -1    0    0    0    0  0.00000000000E+00  0.00000000000E+00  0.45593999997E+02  0.45594000000E+02  0.51100000000E-03 0.  1.
         11   -1    0    0    0    0 -0.00000000000E+00 -0.00000000000E+00 -0.45593999997E+02  0.45594000000E+02  0.51100000000E-03 0. -1.
    9900012    2    1    2    0    0  0.31372820465E+02  0.93539718839E+01  0.24112558126E+02  0.50528854494E+02  0.29999983720E+02 0.  0.
         12    1    1    2    0    0 -0.31372820465E+02 -0.93539718839E+01 -0.24112558126E+02  0.40659145506E+02  0.00000000000E+00 0. -1.
         11    1    3    3    0    0  0.53282842046E+01  0.63744501948E+01  0.54303679772E+00  0.83258102955E+01  0.51100000000E-03 0. -1.
        -11    1    3    3    0    0  0.14995669724E+01  0.57995545297E+01  0.14833837923E+02  0.15997696135E+02  0.51100000000E-03 0.  1.
         12    1    3    3    0    0  0.24544969288E+02 -0.28200328406E+01  0.87356834048E+01  0.26205348063E+02  0.00000000000E+00 0. -1.
</event>
<event>
 7    1  0.2746803E-013  0.5052886E+02  0.7816164E-02  0.1300439E+00
        -11   -1    0    0    0    0  0.00000000000E+00  0.00000000000E+00  0.45593999997E+02  0.45594000000E+02  0.51100000000E-03 0. -1.
         11   -1    0    0    0    0 -0.00000000000E+00 -0.00000000000E+00 -0.45593999997E+02  0.45594000000E+02  0.51100000000E-03 0.  1.
    9900012    2    1    2    0    0 -0.14627192931E+02  0.31055551338E+02 -0.21789070190E+02  0.50528860539E+02  0.30000002095E+02 0.  0.
         12    1    1    2    0    0  0.14627192931E+02 -0.31055551338E+02  0.21789070190E+02  0.40659139461E+02  0.00000000000E+00 0. -1.
         11    1    3    3    0    0 -0.18506087038E+02  0.19484552286E+02 -0.61051888161E+01  0.27557147276E+02  0.51100000000E-03 0. -1.
        -11    1    3    3    0    0  0.57482501369E+00  0.12864387865E+02 -0.14071542106E+02  0.19074359660E+02  0.51100000000E-03 0.  1.
        -12    1    3    3    0    0  0.33040690929E+01 -0.12933888135E+01 -0.16123392684E+01  0.38973536034E+01  0.00000000000E+00 0.  1.
</event>
<event>
 7    1  0.2746803E-013  0.5052886E+02  0.7816164E-02  0.1300439E+00
        -11   -1    0    0    0    0  0.00000000000E+00  0.00000000000E+00  0.45593999997E+02  0.45594000000E+02  0.51100000000E-03 0. -1.
         11   -1    0    0    0    0 -0.00000000000E+00 -0.00000000000E+00 -0.45593999997E+02  0.45594000000E+02  0.51100000000E-03 0.  1.
    9900012    2    1    2    0    0 -0.51614196031E+01 -0.38300100759E+02 -0.12634394696E+02  0.50528857120E+02  0.29999991701E+02 0.  0.
         12    1    1    2    0    0  0.51614196031E+01  0.38300100759E+02  0.12634394696E+02  0.40659142880E+02  0.00000000000E+00 0. -1.
         11    1    3    3    0    0 -0.52233917823E+01 -0.11979354359E+02 -0.56084633588E+01  0.14221238135E+02  0.51100000000E-03 0. -1.
        -11    1    3    3    0    0 -0.63031515050E+01 -0.22664142200E+02 -0.12969320030E+02  0.26862544981E+02  0.51100000000E-03 0.  1.
         12    1    3    3    0    0  0.63651236841E+01 -0.36566041999E+01  0.59433886933E+01  0.94450740044E+01  0.00000000000E+00 0. -1.
</event>
<event>
 7    1  0.2746803E-013  0.5052889E+02  0.7816164E-02  0.1300439E+00
        -11   -1    0    0    0    0  0.00000000000E+00  0.00000000000E+00  0.45593999997E+02  0.45594000000E+02  0.51100000000E-03 0. -1.
         11   -1    0    0    0    0 -0.00000000000E+00 -0.00000000000E+00 -0.45593999997E+02  0.45594000000E+02  0.51100000000E-03 0.  1.
    9900012    2    1    2    0    0  0.12973486708E+02  0.50426757967E+01 -0.38202394233E+02  0.50528894481E+02  0.30000105263E+02 0.  0.
         12    1    1    2    0    0 -0.12973486708E+02 -0.50426757967E+01  0.38202394233E+02  0.40659105519E+02  0.00000000000E+00 0. -1.
         11    1    3    3    0    0 -0.17341070412E+01 -0.25739595686E-01 -0.20955910715E+02  0.21027552970E+02  0.51100000000E-03 0. -1.
        -11    1    3    3    0    0  0.85859437897E+00  0.39240686768E+01 -0.14870500939E+02  0.15403483299E+02  0.51100000000E-03 0.  1.
         12    1    3    3    0    0  0.13848999370E+02  0.11443467156E+01 -0.23759825788E+01  0.14097858212E+02  0.00000000000E+00 0. -1.
</event>
<event>
 7    1  0.2746803E-013  0.5052887E+02  0.7816164E-02  0.1300439E+00
        -11   -1    0    0    0    0  0.00000000000E+00  0.00000000000E+00  0.45593999997E+02  0.45594000000E+02  0.51100000000E-03 0. -1.
         11   -1    0    0    0    0 -0.00000000000E+00 -0.00000000000E+00 -0.45593999997E+02  0.45594000000E+02  0.51100000000E-03 0.  1.
    9900012    2    1    2    0    0  0.27445891530E+02  0.21719827969E+02  0.20691474653E+02  0.50528868035E+02  0.30000024879E+02 0.  0.
         12    1    1    2    0    0 -0.27445891530E+02 -0.21719827969E+02 -0.20691474653E+02  0.40659131965E+02  0.00000000000E+00 0. -1.
         11    1    3    3    0    0  0.26079578808E+00  0.10611292575E+02  0.47215507271E+00  0.10624992952E+02  0.51100000000E-03 0. -1.
        -11    1    3    3    0    0  0.16703042771E+02  0.10513156236E+02  0.33269226661E+01  0.20014657293E+02  0.51100000000E-03 0.  1.
         12    1    3    3    0    0  0.10482052971E+02  0.59537915804E+00  0.16892396914E+02  0.19889217790E+02  0.00000000000E+00 0. -1.
</event>
<event>
 7    1  0.2746803E-013  0.5052886E+02  0.7816164E-02  0.1300439E+00
        -11   -1    0    0    0    0  0.00000000000E+00  0.00000000000E+00  0.45593999997E+02  0.45594000000E+02  0.51100000000E-03 0.  1.
         11   -1    0    0    0    0 -0.00000000000E+00 -0.00000000000E+00 -0.45593999997E+02  0.45594000000E+02  0.51100000000E-03 0. -1.
    9900012    2    1    2    0    0  0.33197112926E+01 -0.22281483902E+02  0.33847899690E+02  0.50528864233E+02  0.30000013322E+02 0.  0.
         12    1    1    2    0    0 -0.33197112926E+01  0.22281483902E+02 -0.33847899690E+02  0.40659135767E+02  0.00000000000E+00 0. -1.
         11    1    3    3    0    0 -0.93419743672E+00  0.27097912185E+01  0.43675245819E+01  0.52240754716E+01  0.51100000000E-03 0. -1.
        -11    1    3    3    0    0  0.13657380855E+02 -0.11261324019E+02  0.13877551305E+02  0.22492841105E+02  0.51100000000E-03 0.  1.
        -12    1    3    3    0    0 -0.94034721256E+01 -0.13729951101E+02  0.15602823803E+02  0.22811947656E+02  0.00000000000E+00 0.  1.
</event>
<event>
 7    1  0.2746803E-013  0.5052884E+02  0.7816164E-02  0.1300439E+00
        -11   -1    0    0    0    0  0.00000000000E+00  0.00000000000E+00  0.45593999997E+02  0.45594000000E+02  0.51100000000E-03 0.  1.
         11   -1    0    0    0    0 -0.00000000000E+00 -0.00000000000E+00 -0.45593999997E+02  0.45594000000E+02  0.51100000000E-03 0. -1.
    9900012    2    1    2    0    0  0.26031830638E+02  0.20286511390E+02  0.23748017041E+02  0.50528842801E+02  0.29999948178E+02 0.  0.
         12    1    1    2    0    0 -0.26031830638E+02 -0.20286511390E+02 -0.23748017041E+02  0.40659157199E+02  0.00000000000E+00 0. -1.
         11    1    3    3    0    0  0.76562459094E+01 -0.16017596248E-01 -0.36903116541E+01  0.84992210439E+01  0.51100000000E-03 0. -1.
        -11    1    3    3    0    0  0.78297744042E+01 -0.10765786795E+01  0.82807213237E+01  0.11447040437E+02  0.51100000000E-03 0.  1.
         12    1    3    3    0    0  0.10545810324E+02  0.21379107665E+02  0.19157607372E+02  0.30582581320E+02  0.00000000000E+00 0. -1.
</event>
<event>
 7    1  0.2746803E-013  0.5052886E+02  0.7816164E-02  0.1300439E+00
        -11   -1    0    0    0    0  0.00000000000E+00  0.00000000000E+00  0.45593999997E+02  0.45594000000E+02  0.51100000000E-03 0. -1.
         11   -1    0    0    0    0 -0.00000000000E+00 -0.00000000000E+00 -0.45593999997E+02  0.45594000000E+02  0.51100000000E-03 0.  1.
    9900012    2    1    2    0    0 -0.29201058787E+02  0.20853092362E+02 -0.19120990842E+02  0.50528860977E+02  0.30000003425E+02 0.  0.
         12    1    1    2    0    0  0.29201058787E+02 -0.20853092362E+02  0.19120990842E+02  0.40659139023E+02  0.00000000000E+00 0. -1.
         11    1    3    3    0    0 -0.13404608988E+02 -0.11543606452E+01  0.16471280969E+01  0.13554671588E+02  0.51100000000E-03 0. -1.
        -11    1    3    3    0    0 -0.35774552976E+01  0.66852466296E+01  0.10409559696E+01  0.76533847738E+01  0.51100000000E-03 0.  1.
         12    1    3    3    0    0 -0.12218994501E+02  0.15322206378E+02 -0.21809074908E+02  0.29320804615E+02  0.00000000000E+00 0. -1.
</event>
<event>
 7    1  0.2746803E-013  0.5052886E+02  0.7816164E-02  0.1300439E+00
        -11   -1    0    0    0    0  0.00000000000E+00  0.00000000000E+00  0.45593999997E+02  0.45594000000E+02  0.51100000000E-03 0.  1.
         11   -1    0    0    0    0 -0.00000000000E+00 -0.00000000000E+00 -0.45593999997E+02  0.45594000000E+02  0.51100000000E-03 0. -1.
    9900012    2    1    2    0    0 -0.65376667329E+01  0.34010274204E+02  0.21300844441E+02  0.50528858203E+02  0.29999994994E+02 0.  0.
         12    1    1    2    0    0  0.65376667329E+01 -0.34010274204E+02 -0.21300844441E+02  0.40659141797E+02  0.00000000000E+00 0. -1.
         11    1    3    3    0    0 -0.23219953466E+01  0.81559529276E+01 -0.12558914497E+01  0.85725430382E+01  0.51100000000E-03 0. -1.
        -11    1    3    3    0    0  0.87948356097E+01  0.47609479868E+01  0.31696908627E+01  0.10491077140E+02  0.51100000000E-03 0.  1.
        -12    1    3    3    0    0 -0.13010506996E+02  0.21093373290E+02  0.19387045028E+02  0.31465238025E+02  0.00000000000E+00 0.  1.
</event>
<event>
 7    1  0.2746803E-013  0.5052887E+02  0.7816164E-02  0.1300439E+00
        -11   -1    0    0    0    0  0.00000000000E+00  0.00000000000E+00  0.45593999997E+02  0.45594000000E+02  0.51100000000E-03 0.  1.
         11   -1    0    0    0    0 -0.00000000000E+00 -0.00000000000E+00 -0.45593999997E+02  0.45594000000E+02  0.51100000000E-03 0. -1.
    9900012    2    1    2    0    0 -0.11180944732E+01 -0.23422687094E+02  0.33215845720E+02  0.50528870485E+02  0.30000032327E+02 0.  0.
         12    1    1    2    0    0  0.11180944732E+01  0.23422687094E+02 -0.33215845720E+02  0.40659129515E+02  0.00000000000E+00 0. -1.
         11    1    3    3    0    0 -0.56779259067E+01 -0.66329364484E+01  0.52860189162E+01  0.10206698035E+02  0.51100000000E-03 0. -1.
        -11    1    3    3    0    0 -0.97706487315E+00 -0.19670359889E+02  0.27812697155E+02  0.34079668972E+02  0.51100000000E-03 0.  1.
         12    1    3    3    0    0  0.55368963067E+01  0.28806092438E+01  0.11712964940E+00  0.62425034786E+01  0.00000000000E+00 0. -1.
</event>
<event>
 7    1  0.2746803E-013  0.5052886E+02  0.7816164E-02  0.1300439E+00
        -11   -1    0    0    0    0  0.00000000000E+00  0.00000000000E+00  0.45593999997E+02  0.45594000000E+02  0.51100000000E-03 0. -1.
         11   -1    0    0    0    0 -0.00000000000E+00 -0.00000000000E+00 -0.45593999997E+02  0.45594000000E+02  0.51100000000E-03 0.  1.
    9900012    2    1    2    0    0 -0.35651801514E+02  0.21999766095E+01 -0.19423560034E+02  0.50528861634E+02  0.30000005423E+02 0.  0.
         12    1    1    2    0    0  0.35651801514E+02 -0.21999766095E+01  0.19423560034E+02  0.40659138366E+02  0.00000000000E+00 0. -1.
         11    1    3    3    0    0 -0.11578363771E+02 -0.74262845074E+01 -0.36294701429E+01  0.14226076865E+02  0.51100000000E-03 0. -1.
        -11    1    3    3    0    0 -0.22629279780E+02  0.10681798964E+01 -0.15806439599E+02  0.27623700778E+02  0.51100000000E-03 0.  1.
         12    1    3    3    0    0 -0.14441579633E+01  0.85580812205E+01  0.12349707947E-01  0.86790839906E+01  0.00000000000E+00 0. -1.
</event>
<event>
 7    1  0.2746803E-013  0.5052886E+02  0.7816164E-02  0.1300439E+00
        -11   -1    0    0    0    0  0.00000000000E+00  0.00000000000E+00  0.45593999997E+02  0.45594000000E+02  0.51100000000E-03 0. -1.
         11   -1    0    0    0    0 -0.00000000000E+00 -0.00000000000E+00 -0.45593999997E+02  0.45594000000E+02  0.51100000000E-03 0.  1.
    9900012    2    1    2    0    0  0.29941079046E+02 -0.79559970302E+01 -0.26332483348E+02  0.50528858563E+02  0.29999996087E+02 0.  0.
         12    1    1    2    0    0 -0.29941079046E+02  0.79559970302E+01  0.26332483348E+02  0.40659141437E+02  0.00000000000E+00 0. -1.
         11    1    3    3    0    0  0.80121347226E+00  0.21688131233E+01 -0.43804874179E+01  0.49532175069E+01  0.51100000000E-03 0. -1.
        -11    1    3    3    0    0  0.29485986372E+02 -0.15217952818E+01 -0.22234621808E+02  0.36961028942E+02  0.51100000000E-03 0.  1.
         12    1    3    3    0    0 -0.34612079839E+00 -0.86030148717E+01  0.28262587821E+00  0.86146121141E+01  0.00000000000E+00 0. -1.
</event>
<event>
 7    1  0.2746803E-013  0.5052886E+02  0.7816164E-02  0.1300439E+00
        -11   -1    0    0    0    0  0.00000000000E+00  0.00000000000E+00  0.45593999997E+02  0.45594000000E+02  0.51100000000E-03 0. -1.
         11   -1    0    0    0    0 -0.00000000000E+00 -0.00000000000E+00 -0.45593999997E+02  0.45594000000E+02  0.51100000000E-03 0.  1.
    9900012    2    1    2    0    0 -0.71201091069E+01  0.37639662485E+02 -0.13628121005E+02  0.50528858005E+02  0.29999994391E+02 0.  0.
         12    1    1    2    0    0  0.71201091069E+01 -0.37639662485E+02  0.13628121005E+02  0.40659141995E+02  0.00000000000E+00 0. -1.
         11    1    3    3    0    0 -0.94199378234E+01  0.95931287843E+01  0.55691430741E+01  0.14552618435E+02  0.51100000000E-03 0. -1.
        -11    1    3    3    0    0 -0.44956678751E+01  0.74224788330E+01 -0.62547868922E+01  0.10697036085E+02  0.51100000000E-03 0.  1.
         12    1    3    3    0    0  0.67954965916E+01  0.20624054868E+02 -0.12942477187E+02  0.25279203485E+02  0.00000000000E+00 0. -1.
</event>
<event>
 7    1  0.2746803E-013  0.5052882E+02  0.7816164E-02  0.1300439E+00
        -11   -1    0    0    0    0  0.00000000000E+00  0.00000000000E+00  0.45593999997E+02  0.45594000000E+02  0.51100000000E-03 0.  1.
         11   -1    0    0    0    0 -0.00000000000E+00 -0.00000000000E+00 -0.45593999997E+02  0.45594000000E+02  0.51100000000E-03 0. -1.
    9900012    2    1    2    0    0 -0.14072616747E+02 -0.25877710473E+02  0.28026314530E+02  0.50528822099E+02  0.29999885252E+02 0.  0.
         12    1    1    2    0    0  0.14072616747E+02  0.25877710473E+02 -0.28026314530E+02  0.40659177901E+02  0.00000000000E+00 0. -1.
         11    1    3    3    0    0 -0.10319316882E+02 -0.12190185542E+02  0.20778647225E+02  0.26207653562E+02  0.51100000000E-03 0. -1.
        -11    1    3    3    0    0  0.38519331168E+01 -0.12971418025E+02  0.92907329518E+01  0.16413798870E+02  0.51100000000E-03 0.  1.
         12    1    3    3    0    0 -0.76052329820E+01 -0.71610690562E+00 -0.20430656466E+01  0.79073696668E+01  0.00000000000E+00 0. -1.
</event>
<event>
 7    1  0.2746803E-013  0.5052886E+02  0.7816164E-02  0.1300439E+00
        -11   -1    0    0    0    0  0.00000000000E+00  0.00000000000E+00  0.45593999997E+02  0.45594000000E+02  0.51100000000E-03 0.  1.
         11   -1    0    0    0    0 -0.00000000000E+00 -0.00000000000E+00 -0.45593999997E+02  0.45594000000E+02  0.51100000000E-03 0. -1.
    9900012    2    1    2    0    0 -0.11596559202E+02  0.15048419257E+02  0.35947608249E+02  0.50528860237E+02  0.30000001175E+02 0.  0.
         12    1    1    2    0    0  0.11596559202E+02 -0.15048419257E+02 -0.35947608249E+02  0.40659139763E+02  0.00000000000E+00 0. -1.
         11    1    3    3    0    0  0.17438873064E+01 -0.33323560977E+01 -0.13211550251E+01  0.39863756673E+01  0.51100000000E-03 0. -1.
        -11    1    3    3    0    0  0.21124026390E+01  0.10138250657E+02  0.14435103699E+02  0.17765657611E+02  0.51100000000E-03 0.  1.
         12    1    3    3    0    0 -0.15452849147E+02  0.82425246977E+01  0.22833659576E+02  0.28776826958E+02  0.00000000000E+00 0. -1.
</event>
<event>
 7    1  0.2746803E-013  0.5052885E+02  0.7816164E-02  0.1300439E+00
        -11   -1    0    0    0    0  0.00000000000E+00  0.00000000000E+00  0.45593999997E+02  0.45594000000E+02  0.51100000000E-03 0. -1.
         11   -1    0    0    0    0 -0.00000000000E+00 -0.00000000000E+00 -0.45593999997E+02  0.45594000000E+02  0.51100000000E-03 0.  1.
    9900012    2    1    2    0    0 -0.32239818734E+02 -0.19787155367E+02 -0.14907337678E+02  0.50528854089E+02  0.29999982490E+02 0.  0.
         12    1    1    2    0    0  0.32239818734E+02  0.19787155367E+02  0.14907337678E+02  0.40659145911E+02  0.00000000000E+00 0. -1.
         11    1    3    3    0    0 -0.94235309853E+01 -0.17898511379E+02 -0.80256184947E+01  0.21761668095E+02  0.51100000000E-03 0. -1.
        -11    1    3    3    0    0 -0.23787243831E+02 -0.50582962216E+01 -0.73815258193E+01  0.25414685783E+02  0.51100000000E-03 0.  1.
        -12    1    3    3    0    0  0.97095608184E+00  0.31696522338E+01  0.49980663591E+00  0.33525002117E+01  0.00000000000E+00 0.  1.
</event>
<event>
 7    1  0.2746803E-013  0.5052885E+02  0.7816164E-02  0.1300439E+00
        -11   -1    0    0    0    0  0.00000000000E+00  0.00000000000E+00  0.45593999997E+02  0.45594000000E+02  0.51100000000E-03 0. -1.
         11   -1    0    0    0    0 -0.00000000000E+00 -0.00000000000E+00 -0.45593999997E+02  0.45594000000E+02  0.51100000000E-03 0.  1.
    9900012    2    1    2    0    0 -0.22675928175E+02 -0.23537545573E+02 -0.24185789865E+02  0.50528853408E+02  0.29999980419E+02 0.  0.
         12    1    1    2    0    0  0.22675928175E+02  0.23537545573E+02  0.24185789865E+02  0.40659146592E+02  0.00000000000E+00 0. -1.
         11    1    3    3    0    0 -0.42761029343E+01 -0.12839659187E+01  0.17699937462E+01  0.48027599261E+01  0.51100000000E-03 0. -1.
        -11    1    3    3    0    0 -0.23083580594E+01 -0.17132236310E+02 -0.35140394950E+01  0.17640592726E+02  0.51100000000E-03 0.  1.
        -12    1    3    3    0    0 -0.16091467181E+02 -0.51213433441E+01 -0.22441744116E+02  0.28085500755E+02  0.00000000000E+00 0.  1.
</event>
<event>
 7    1  0.2746803E-013  0.5052887E+02  0.7816164E-02  0.1300439E+00
        -11   -1    0    0    0    0  0.00000000000E+00  0.00000000000E+00  0.45593999997E+02  0.45594000000E+02  0.51100000000E-03 0. -1.
         11   -1    0    0    0    0 -0.00000000000E+00 -0.00000000000E+00 -0.45593999997E+02  0.45594000000E+02  0.51100000000E-03 0.  1.
    9900012    2    1    2    0    0  0.12469526120E+02  0.13479137061E+02 -0.36276563108E+02  0.50528865129E+02  0.30000016045E+02 0.  0.
         12    1    1    2    0    0 -0.12469526120E+02 -0.13479137061E+02  0.36276563108E+02  0.40659134871E+02  0.00000000000E+00 0. -1.
         11    1    3    3    0    0  0.87707345042E+01  0.96901774122E+01 -0.65580183588E+01  0.14623027288E+02  0.51100000000E-03 0. -1.
        -11    1    3    3    0    0 -0.43549681173E+01  0.75310079883E+01 -0.59694390821E+01  0.10550641300E+02  0.51100000000E-03 0.  1.
         12    1    3    3    0    0  0.80537597330E+01 -0.37420483397E+01 -0.23749105667E+02  0.25355196540E+02  0.00000000000E+00 0. -1.
</event>
<event>
 7    1  0.2746803E-013  0.5052878E+02  0.7816164E-02  0.1300439E+00
        -11   -1    0    0    0    0  0.00000000000E+00  0.00000000000E+00  0.45593999997E+02  0.45594000000E+02  0.51100000000E-03 0.  1.
         11   -1    0    0    0    0 -0.00000000000E+00 -0.00000000000E+00 -0.45593999997E+02  0.45594000000E+02  0.51100000000E-03 0. -1.
    9900012    2    1    2    0    0  0.20788368238E+02  0.25653962619E+02  0.23725297535E+02  0.50528784622E+02  0.29999771337E+02 0.  0.
         12    1    1    2    0    0 -0.20788368238E+02 -0.25653962619E+02 -0.23725297535E+02  0.40659215378E+02  0.00000000000E+00 0. -1.
         11    1    3    3    0    0  0.15123902122E+01 -0.26192917451E+01  0.35543627985E+01  0.46670663767E+01  0.51100000000E-03 0. -1.
        -11    1    3    3    0    0  0.11608576974E+02  0.18636230305E+02  0.24415461111E+02  0.32835695225E+02  0.51100000000E-03 0.  1.
         12    1    3    3    0    0  0.76674010516E+01  0.96370240587E+01 -0.42445263753E+01  0.13026023021E+02  0.00000000000E+00 0. -1.
</event>
<event>
 7    1  0.2746803E-013  0.5052877E+02  0.7816164E-02  0.1300439E+00
        -11   -1    0    0    0    0  0.00000000000E+00  0.00000000000E+00  0.45593999997E+02  0.45594000000E+02  0.51100000000E-03 0.  1.
         11   -1    0    0    0    0 -0.00000000000E+00 -0.00000000000E+00 -0.45593999997E+02  0.45594000000E+02  0.51100000000E-03 0. -1.
    9900012    2    1    2    0    0  0.34913677067E+01 -0.36304937964E+02  0.17970390867E+02  0.50528768368E+02  0.29999721929E+02 0.  0.
         12    1    1    2    0    0 -0.34913677067E+01  0.36304937964E+02 -0.17970390867E+02  0.40659231632E+02  0.00000000000E+00 0. -1.
         11    1    3    3    0    0  0.65399044548E+01 -0.35511593849E+02  0.20448007757E+02  0.41496562141E+02  0.51100000000E-03 0. -1.
        -11    1    3    3    0    0 -0.27549016547E+01 -0.33334548003E+01 -0.41364148261E+01  0.59842570055E+01  0.51100000000E-03 0.  1.
        -12    1    3    3    0    0 -0.29363509343E+00  0.25401106860E+01  0.16587979363E+01  0.30479492218E+01  0.00000000000E+00 0.  1.
</event>
<event>
 7    1  0.2746803E-013  0.5052886E+02  0.7816164E-02  0.1300439E+00
        -11   -1    0    0    0    0  0.00000000000E+00  0.00000000000E+00  0.45593999997E+02  0.45594000000E+02  0.51100000000E-03 0.  1.
         11   -1    0    0    0    0 -0.00000000000E+00 -0.00000000000E+00 -0.45593999997E+02  0.45594000000E+02  0.51100000000E-03 0. -1.
    9900012    2    1    2    0    0  0.24772277071E+02 -0.88215343067E+00  0.32229202382E+02  0.50528863362E+02  0.30000010676E+02 0.  0.
         12    1    1    2    0    0 -0.24772277071E+02  0.88215343067E+00 -0.32229202382E+02  0.40659136638E+02  0.00000000000E+00 0. -1.
         11    1    3    3    0    0  0.37318234503E+00  0.32541230761E+01  0.14350635533E+01  0.35760298825E+01  0.51100000000E-03 0. -1.
        -11    1    3    3    0    0  0.18820548273E+02  0.55651024500E+01  0.29847500915E+02  0.35721936029E+02  0.51100000000E-03 0.  1.
        -12    1    3    3    0    0  0.55785464537E+01 -0.97013789568E+01  0.94663791326E+00  0.11230897450E+02  0.00000000000E+00 0.  1.
</event>
<event>
 7    1  0.2746803E-013  0.5052887E+02  0.7816164E-02  0.1300439E+00
        -11   -1    0    0    0    0  0.00000000000E+00  0.00000000000E+00  0.45593999997E+02  0.45594000000E+02  0.51100000000E-03 0.  1.
         11   -1    0    0    0    0 -0.00000000000E+00 -0.00000000000E+00 -0.45593999997E+02  0.45594000000E+02  0.51100000000E-03 0. -1.
    9900012    2    1    2    0    0 -0.29826370250E+02 -0.23003143932E+02  0.15310391502E+02  0.50528867189E+02  0.30000022307E+02 0.  0.
         12    1    1    2    0    0  0.29826370250E+02  0.23003143932E+02 -0.15310391502E+02  0.40659132811E+02  0.00000000000E+00 0. -1.
         11    1    3    3    0    0 -0.32932485425E+02 -0.11579532823E+02  0.59841732982E+01  0.35418138107E+02  0.51100000000E-03 0. -1.
        -11    1    3    3    0    0  0.59785300198E+00 -0.17984453216E+01  0.10215275343E+01  0.21529868906E+01  0.51100000000E-03 0.  1.
         12    1    3    3    0    0  0.25082621732E+01 -0.96251657878E+01  0.83046906692E+01  0.12957742191E+02  0.00000000000E+00 0. -1.
</event>
<event>
 7    1  0.2746803E-013  0.5052886E+02  0.7816164E-02  0.1300439E+00
        -11   -1    0    0    0    0  0.00000000000E+00  0.00000000000E+00  0.45593999997E+02  0.45594000000E+02  0.51100000000E-03 0.  1.
         11   -1    0    0    0    0 -0.00000000000E+00 -0.00000000000E+00 -0.45593999997E+02  0.45594000000E+02  0.51100000000E-03 0. -1.
    9900012    2    1    2    0    0 -0.64989682423E+01  0.24349459436E+01  0.40062454409E+02  0.50528858307E+02  0.29999995310E+02 0.  0.
         12    1    1    2    0    0  0.64989682423E+01 -0.24349459436E+01 -0.40062454409E+02  0.40659141693E+02  0.00000000000E+00 0. -1.
         11    1    3    3    0    0 -0.74691117988E+01 -0.66981232476E+01  0.25793096154E+02  0.27675554115E+02  0.51100000000E-03 0. -1.
        -11    1    3    3    0    0  0.69145549527E+01  0.89213015556E+01  0.12033824255E+02  0.16498897481E+02  0.51100000000E-03 0.  1.
        -12    1    3    3    0    0 -0.59444113962E+01  0.21176763565E+00  0.22355339999E+01  0.63544067105E+01  0.00000000000E+00 0.  1.
</event>
<event>
 7    1  0.2746803E-013  0.5052887E+02  0.7816164E-02  0.1300439E+00
        -11   -1    0    0    0    0  0.00000000000E+00  0.00000000000E+00  0.45593999997E+02  0.45594000000E+02  0.51100000000E-03 0.  1.
         11   -1    0    0    0    0 -0.00000000000E+00 -0.00000000000E+00 -0.45593999997E+02  0.45594000000E+02  0.51100000000E-03 0. -1.
    9900012    2    1    2    0    0  0.25118616931E+02  0.13408172661E+02  0.29024834603E+02  0.50528867762E+02  0.30000024049E+02 0.  0.
         12    1    1    2    0    0 -0.25118616931E+02 -0.13408172661E+02 -0.29024834603E+02  0.40659132238E+02  0.00000000000E+00 0. -1.
         11    1    3    3    0    0  0.22229722409E+01  0.13007544322E+02  0.12791732445E+02  0.18378417616E+02  0.51100000000E-03 0. -1.
        -11    1    3    3    0    0 -0.42300471419E+00  0.68861015023E+00 -0.22518626163E+01  0.23924887526E+01  0.51100000000E-03 0.  1.
        -12    1    3    3    0    0  0.23318649404E+02 -0.28798181127E+00  0.18484964775E+02  0.29757961393E+02  0.00000000000E+00 0.  1.
</event>
<event>
 7    1  0.2746803E-013  0.5052886E+02  0.7816164E-02  0.1300439E+00
        -11   -1    0    0    0    0  0.00000000000E+00  0.00000000000E+00  0.45593999997E+02  0.45594000000E+02  0.51100000000E-03 0.  1.
         11   -1    0    0    0    0 -0.00000000000E+00 -0.00000000000E+00 -0.45593999997E+02  0.45594000000E+02  0.51100000000E-03 0. -1.
    9900012    2    1    2    0    0  0.32684064585E+02  0.23924917949E+02  0.35377356959E+01  0.50528863874E+02  0.30000012231E+02 0.  0.
         12    1    1    2    0    0 -0.32684064585E+02 -0.23924917949E+02 -0.35377356959E+01  0.40659136126E+02  0.00000000000E+00 0. -1.
         11    1    3    3    0    0  0.40296948678E+01 -0.30452212926E+01 -0.37027549810E+01  0.62627636199E+01  0.51100000000E-03 0. -1.
        -11    1    3    3    0    0  0.21484283110E+02  0.17499879271E+02 -0.38978887762E+01  0.27982382536E+02  0.51100000000E-03 0.  1.
         12    1    3    3    0    0  0.71700866078E+01  0.94702599700E+01  0.11138379453E+02  0.16283717718E+02  0.00000000000E+00 0. -1.
</event>
<event>
 7    1  0.2746803E-013  0.5052886E+02  0.7816164E-02  0.1300439E+00
        -11   -1    0    0    0    0  0.00000000000E+00  0.00000000000E+00  0.45593999997E+02  0.45594000000E+02  0.51100000000E-03 0.  1.
         11   -1    0    0    0    0 -0.00000000000E+00 -0.00000000000E+00 -0.45593999997E+02  0.45594000000E+02  0.51100000000E-03 0. -1.
    9900012    2    1    2    0    0 -0.11767651312E+01  0.29630573064E+02 -0.27817440740E+02  0.50528860245E+02  0.30000001202E+02 0.  0.
         12    1    1    2    0    0  0.11767651312E+01 -0.29630573064E+02  0.27817440740E+02  0.40659139755E+02  0.00000000000E+00 0. -1.
         11    1    3    3    0    0  0.20492982132E+01 -0.48893505319E+01 -0.36379350627E+01  0.64296145742E+01  0.51100000000E-03 0. -1.
        -11    1    3    3    0    0 -0.31762594553E+01  0.54095439206E+01 -0.97879811984E+01  0.11625677002E+02  0.51100000000E-03 0.  1.
        -12    1    3    3    0    0 -0.49803889066E-01  0.29110379676E+02 -0.14391524479E+02  0.32473568669E+02  0.00000000000E+00 0.  1.
</event>
<event>
 7    1  0.2746803E-013  0.5052886E+02  0.7816164E-02  0.1300439E+00
        -11   -1    0    0    0    0  0.00000000000E+00  0.00000000000E+00  0.45593999997E+02  0.45594000000E+02  0.51100000000E-03 0.  1.
         11   -1    0    0    0    0 -0.00000000000E+00 -0.00000000000E+00 -0.45593999997E+02  0.45594000000E+02  0.51100000000E-03 0. -1.
    9900012    2    1    2    0    0  0.17108071892E+02 -0.19831408379E+02  0.31099756485E+02  0.50528859139E+02  0.29999997838E+02 0.  0.
         12    1    1    2    0    0 -0.17108071892E+02  0.19831408379E+02 -0.31099756485E+02  0.40659140861E+02  0.00000000000E+00 0. -1.
         11    1    3    3    0    0  0.16353554712E+02 -0.22188474428E+02  0.20716934853E+02  0.34481278096E+02  0.51100000000E-03 0. -1.
        -11    1    3    3    0    0  0.16184310113E+01 -0.16540583919E+01  0.11551713589E+02  0.11781227237E+02  0.51100000000E-03 0.  1.
        -12    1    3    3    0    0 -0.86391383195E+00  0.40111244406E+01 -0.11688919574E+01  0.42663538056E+01  0.00000000000E+00 0.  1.
</event>
<event>
 7    1  0.2746803E-013  0.5052886E+02  0.7816164E-02  0.1300439E+00
        -11   -1    0    0    0    0  0.00000000000E+00  0.00000000000E+00  0.45593999997E+02  0.45594000000E+02  0.51100000000E-03 0.  1.
         11   -1    0    0    0    0 -0.00000000000E+00 -0.00000000000E+00 -0.45593999997E+02  0.45594000000E+02  0.51100000000E-03 0. -1.
    9900012    2    1    2    0    0  0.37665470623E+02 -0.13560037491E+02 -0.71136079313E+01  0.50528859431E+02  0.29999998726E+02 0.  0.
         12    1    1    2    0    0 -0.37665470623E+02  0.13560037491E+02  0.71136079313E+01  0.40659140569E+02  0.00000000000E+00 0. -1.
         11    1    3    3    0    0  0.12698443442E+02  0.70680594019E+00  0.48087341427E+01  0.13596836573E+02  0.51100000000E-03 0. -1.
        -11    1    3    3    0    0  0.26018788256E+02 -0.15391907653E+02 -0.60097748468E+01  0.30822160169E+02  0.51100000000E-03 0.  1.
         12    1    3    3    0    0 -0.10517610744E+01  0.11250642220E+01 -0.59125672272E+01  0.61098626889E+01  0.00000000000E+00 0. -1.
</event>
<event>
 7    1  0.2746803E-013  0.5052886E+02  0.7816164E-02  0.1300439E+00
        -11   -1    0    0    0    0  0.00000000000E+00  0.00000000000E+00  0.45593999997E+02  0.45594000000E+02  0.51100000000E-03 0.  1.
         11   -1    0    0    0    0 -0.00000000000E+00 -0.00000000000E+00 -0.45593999997E+02  0.45594000000E+02  0.51100000000E-03 0. -1.
    9900012    2    1    2    0    0 -0.31763469098E+02  0.14429553278E+02  0.20881472124E+02  0.50528857670E+02  0.29999993374E+02 0.  0.
         12    1    1    2    0    0  0.31763469098E+02 -0.14429553278E+02 -0.20881472124E+02  0.40659142330E+02  0.00000000000E+00 0. -1.
         11    1    3    3    0    0 -0.25413373470E+01  0.12489539341E+02  0.91449774547E+01  0.15686860787E+02  0.51100000000E-03 0. -1.
        -11    1    3    3    0    0  0.14302070147E+00 -0.26482574353E+01 -0.50237541781E+00  0.26992783640E+01  0.51100000000E-03 0.  1.
        -12    1    3    3    0    0 -0.29365152453E+02  0.45882713725E+01  0.12238870087E+02  0.32142718519E+02  0.00000000000E+00 0.  1.
</event>
<event>
 7    1  0.2746803E-013  0.5052886E+02  0.7816164E-02  0.1300439E+00
        -11   -1    0    0    0    0  0.00000000000E+00  0.00000000000E+00  0.45593999997E+02  0.45594000000E+02  0.51100000000E-03 0. -1.
         11   -1    0    0    0    0 -0.00000000000E+00 -0.00000000000E+00 -0.45593999997E+02  0.45594000000E+02  0.51100000000E-03 0.  1.
    9900012    2    1    2    0    0  0.16080295550E+02 -0.27558497132E+02  0.25201567273E+02  0.50528860042E+02  0.30000000583E+02 0.  0.
         12    1    1    2    0    0 -0.16080295550E+02  0.27558497132E+02 -0.25201567273E+02  0.40659139958E+02  0.00000000000E+00 0. -1.
         11    1    3    3    0    0  0.67947231550E+01 -0.59177734571E+01  0.21008544475E+00  0.90129041711E+01  0.51100000000E-03 0. -1.
        -11    1    3    3    0    0  0.13653882407E+02 -0.24077847294E+02  0.18384237183E+02  0.33228773859E+02  0.51100000000E-03 0.  1.
        -12    1    3    3    0    0 -0.43683100115E+01  0.24371236196E+01  0.66072446452E+01  0.82871820117E+01  0.00000000000E+00 0.  1.
</event>
<event>
 7    1  0.2746803E-013  0.5052886E+02  0.7816164E-02  0.1300439E+00
        -11   -1    0    0    0    0  0.00000000000E+00  0.00000000000E+00  0.45593999997E+02  0.45594000000E+02  0.51100000000E-03 0.  1.
         11   -1    0    0    0    0 -0.00000000000E+00 -0.00000000000E+00 -0.45593999997E+02  0.45594000000E+02  0.51100000000E-03 0. -1.
    9900012    2    1    2    0    0 -0.83753742209E+01  0.35787844052E+02 -0.17385304118E+02  0.50528862349E+02  0.30000007595E+02 0.  0.
         12    1    1    2    0    0  0.83753742209E+01 -0.35787844052E+02  0.17385304118E+02  0.40659137651E+02  0.00000000000E+00 0. -1.
         11    1    3    3    0    0  0.52992831406E+00  0.76685854809E+01  0.38454498817E+01  0.85950865237E+01  0.51100000000E-03 0. -1.
        -11    1    3    3    0    0 -0.13845255344E+02  0.93484984366E+01 -0.87646312758E+01  0.18865425525E+02  0.51100000000E-03 0.  1.
         12    1    3    3    0    0  0.49399528093E+01  0.18770760135E+02 -0.12466122724E+02  0.23068350300E+02  0.00000000000E+00 0. -1.
</event>
<event>
 7    1  0.2746803E-013  0.5052885E+02  0.7816164E-02  0.1300439E+00
        -11   -1    0    0    0    0  0.00000000000E+00  0.00000000000E+00  0.45593999997E+02  0.45594000000E+02  0.51100000000E-03 0.  1.
         11   -1    0    0    0    0 -0.00000000000E+00 -0.00000000000E+00 -0.45593999997E+02  0.45594000000E+02  0.51100000000E-03 0. -1.
    9900012    2    1    2    0    0 -0.97353524316E+01 -0.33127315198E+02  0.21470224720E+02  0.50528847909E+02  0.29999963704E+02 0.  0.
         12    1    1    2    0    0  0.97353524316E+01  0.33127315198E+02 -0.21470224720E+02  0.40659152091E+02  0.00000000000E+00 0. -1.
         11    1    3    3    0    0 -0.59299503049E+01 -0.21514628400E+02  0.10699511478E+02  0.24749203865E+02  0.51100000000E-03 0. -1.
        -11    1    3    3    0    0 -0.71353782046E+01 -0.87839664279E+01  0.15596517891E+02  0.19269744651E+02  0.51100000000E-03 0.  1.
         12    1    3    3    0    0  0.33299760778E+01 -0.28287203708E+01 -0.48258046481E+01  0.65098993937E+01  0.00000000000E+00 0. -1.
</event>
<event>
 7    1  0.2746803E-013  0.5052886E+02  0.7816164E-02  0.1300439E+00
        -11   -1    0    0    0    0  0.00000000000E+00  0.00000000000E+00  0.45593999997E+02  0.45594000000E+02  0.51100000000E-03 0.  1.
         11   -1    0    0    0    0 -0.00000000000E+00 -0.00000000000E+00 -0.45593999997E+02  0.45594000000E+02  0.51100000000E-03 0. -1.
    9900012    2    1    2    0    0 -0.35501212421E+02 -0.15750043547E+02 -0.12031859263E+02  0.50528860899E+02  0.30000003188E+02 0.  0.
         12    1    1    2    0    0  0.35501212421E+02  0.15750043547E+02  0.12031859263E+02  0.40659139101E+02  0.00000000000E+00 0. -1.
         11    1    3    3    0    0 -0.38606971488E+01 -0.11094394474E+01 -0.77284755972E+01  0.87100616347E+01  0.51100000000E-03 0. -1.
        -11    1    3    3    0    0 -0.28194230027E+02 -0.20055592127E+02 -0.61450157130E+01  0.35141180981E+02  0.51100000000E-03 0.  1.
         12    1    3    3    0    0 -0.34462852457E+01  0.54149880276E+01  0.18416320468E+01  0.66776182827E+01  0.00000000000E+00 0. -1.
</event>
<event>
 7    1  0.2746803E-013  0.5052886E+02  0.7816164E-02  0.1300439E+00
        -11   -1    0    0    0    0  0.00000000000E+00  0.00000000000E+00  0.45593999997E+02  0.45594000000E+02  0.51100000000E-03 0.  1.
         11   -1    0    0    0    0 -0.00000000000E+00 -0.00000000000E+00 -0.45593999997E+02  0.45594000000E+02  0.51100000000E-03 0. -1.
    9900012    2    1    2    0    0 -0.26114849005E+02  0.13955797340E+02  0.27864236462E+02  0.50528864599E+02  0.30000014436E+02 0.  0.
         12    1    1    2    0    0  0.26114849005E+02 -0.13955797340E+02 -0.27864236462E+02  0.40659135401E+02  0.00000000000E+00 0. -1.
         11    1    3    3    0    0 -0.35811753681E+01  0.94626445871E+01  0.52078959719E+01  0.11379307550E+02  0.51100000000E-03 0. -1.
        -11    1    3    3    0    0 -0.21757390609E+02  0.52077530306E+01  0.69768628665E+01  0.23434618697E+02  0.51100000000E-03 0.  1.
        -12    1    3    3    0    0 -0.77628302784E+00 -0.71460027813E+00  0.15679477623E+02  0.15714938353E+02  0.00000000000E+00 0.  1.
</event>
<event>
 7    1  0.2746803E-013  0.5052886E+02  0.7816164E-02  0.1300439E+00
        -11   -1    0    0    0    0  0.00000000000E+00  0.00000000000E+00  0.45593999997E+02  0.45594000000E+02  0.51100000000E-03 0.  1.
         11   -1    0    0    0    0 -0.00000000000E+00 -0.00000000000E+00 -0.45593999997E+02  0.45594000000E+02  0.51100000000E-03 0. -1.
    9900012    2    1    2    0    0 -0.84233127348E+01  0.18992200089E+02  0.34950108003E+02  0.50528856981E+02  0.29999991279E+02 0.  0.
         12    1    1    2    0    0  0.84233127348E+01 -0.18992200089E+02 -0.34950108003E+02  0.40659143019E+02  0.00000000000E+00 0. -1.
         11    1    3    3    0    0  0.31358704868E+01  0.17133707819E+01 -0.12114777264E+01  0.37731951564E+01  0.51100000000E-03 0. -1.
        -11    1    3    3    0    0 -0.61068081573E+01  0.21653418158E+02  0.25492319430E+02  0.34000323145E+02  0.51100000000E-03 0.  1.
         12    1    3    3    0    0 -0.54523750642E+01 -0.43745888512E+01  0.10669266300E+02  0.12755338680E+02  0.00000000000E+00 0. -1.
</event>
<event>
 7    1  0.2746803E-013  0.5052886E+02  0.7816164E-02  0.1300439E+00
        -11   -1    0    0    0    0  0.00000000000E+00  0.00000000000E+00  0.45593999997E+02  0.45594000000E+02  0.51100000000E-03 0.  1.
         11   -1    0    0    0    0 -0.00000000000E+00 -0.00000000000E+00 -0.45593999997E+02  0.45594000000E+02  0.51100000000E-03 0. -1.
    9900012    2    1    2    0    0  0.20699508458E+02 -0.70204025864E+01  0.34284255378E+02  0.50528857489E+02  0.29999992825E+02 0.  0.
         12    1    1    2    0    0 -0.20699508458E+02  0.70204025864E+01 -0.34284255378E+02  0.40659142511E+02  0.00000000000E+00 0. -1.
         11    1    3    3    0    0 -0.58623027126E+00 -0.27060331654E+01  0.39456458305E+01  0.48202077449E+01  0.51100000000E-03 0. -1.
        -11    1    3    3    0    0  0.99735029592E+01 -0.13295179053E+01 -0.28998694707E+01  0.10471276061E+02  0.51100000000E-03 0.  1.
        -12    1    3    3    0    0  0.11312235770E+02 -0.29848515157E+01  0.33238479018E+02  0.35237373683E+02  0.00000000000E+00 0.  1.
</event>
<event>
 7    1  0.2746803E-013  0.5052886E+02  0.7816164E-02  0.1300439E+00
        -11   -1    0    0    0    0  0.00000000000E+00  0.00000000000E+00  0.45593999997E+02  0.45594000000E+02  0.51100000000E-03 0.  1.
         11   -1    0    0    0    0 -0.00000000000E+00 -0.00000000000E+00 -0.45593999997E+02  0.45594000000E+02  0.51100000000E-03 0. -1.
    9900012    2    1    2    0    0 -0.18190908475E+00 -0.14090240489E+02  0.38139185903E+02  0.50528862413E+02  0.30000007791E+02 0.  0.
         12    1    1    2    0    0  0.18190908475E+00  0.14090240489E+02 -0.38139185903E+02  0.40659137587E+02  0.00000000000E+00 0. -1.
         11    1    3    3    0    0  0.35905232608E+01  0.39836722758E+01  0.60537623005E+01  0.80876164808E+01  0.51100000000E-03 0. -1.
        -11    1    3    3    0    0  0.19690780031E+01 -0.12240700571E+02  0.31932630416E+02  0.34254998237E+02  0.51100000000E-03 0.  1.
         12    1    3    3    0    0 -0.57415103486E+01 -0.58332121933E+01  0.15279318645E+00  0.81862476956E+01  0.00000000000E+00 0. -1.
</event>
<event>
 7    1  0.2746803E-013  0.5052886E+02  0.7816164E-02  0.1300439E+00
        -11   -1    0    0    0    0  0.00000000000E+00  0.00000000000E+00  0.45593999997E+02  0.45594000000E+02  0.51100000000E-03 0.  1.
         11   -1    0    0    0    0 -0.00000000000E+00 -0.00000000000E+00 -0.45593999997E+02  0.45594000000E+02  0.51100000000E-03 0. -1.
    9900012    2    1    2    0    0 -0.11409242785E+02 -0.15962519980E+02  0.35611692332E+02  0.50528862088E+02  0.30000006801E+02 0.  0.
         12    1    1    2    0    0  0.11409242785E+02  0.15962519980E+02 -0.35611692332E+02  0.40659137912E+02  0.00000000000E+00 0. -1.
         11    1    3    3    0    0  0.17909560616E+01 -0.55989221773E+01  0.51354593202E+01  0.78056643441E+01  0.51100000000E-03 0. -1.
        -11    1    3    3    0    0 -0.15186061288E+02 -0.16666662275E+02  0.27251099077E+02  0.35369711477E+02  0.51100000000E-03 0.  1.
         12    1    3    3    0    0  0.19858624408E+01  0.63030644721E+01  0.32251339347E+01  0.73534862664E+01  0.00000000000E+00 0. -1.
</event>
<event>
 7    1  0.2746803E-013  0.5052886E+02  0.7816164E-02  0.1300439E+00
        -11   -1    0    0    0    0  0.00000000000E+00  0.00000000000E+00  0.45593999997E+02  0.45594000000E+02  0.51100000000E-03 0. -1.
         11   -1    0    0    0    0 -0.00000000000E+00 -0.00000000000E+00 -0.45593999997E+02  0.45594000000E+02  0.51100000000E-03 0.  1.
    9900012    2    1    2    0    0 -0.23576777380E+02  0.32157958658E+02  0.79477761286E+01  0.50528857337E+02  0.29999992361E+02 0.  0.
         12    1    1    2    0    0  0.23576777380E+02 -0.32157958658E+02 -0.79477761286E+01  0.40659142663E+02  0.00000000000E+00 0. -1.
         11    1    3    3    0    0 -0.10641253816E+02  0.14134557032E+01  0.12493771568E+02  0.16472051119E+02  0.51100000000E-03 0. -1.
        -11    1    3    3    0    0 -0.55667636624E+01  0.12820380111E+02  0.65236085062E+00  0.13992018397E+02  0.51100000000E-03 0.  1.
         12    1    3    3    0    0 -0.73687599017E+01  0.17924122844E+02 -0.51983562899E+01  0.20064787822E+02  0.00000000000E+00 0. -1.
</event>
<event>
 7    1  0.2746803E-013  0.5052883E+02  0.7816164E-02  0.1300439E+00
        -11   -1    0    0    0    0  0.00000000000E+00  0.00000000000E+00  0.45593999997E+02  0.45594000000E+02  0.51100000000E-03 0. -1.
         11   -1    0    0    0    0 -0.00000000000E+00 -0.00000000000E+00 -0.45593999997E+02  0.45594000000E+02  0.51100000000E-03 0.  1.
    9900012    2    1    2    0    0 -0.39595887142E+02 -0.29900027092E+00 -0.92327784714E+01  0.50528832792E+02  0.29999917754E+02 0.  0.
         12    1    1    2    0    0  0.39595887142E+02  0.29900027092E+00  0.92327784714E+01  0.40659167208E+02  0.00000000000E+00 0. -1.
         11    1    3    3    0    0 -0.16002909276E+02  0.47217531869E+01 -0.13734560535E+02  0.21610789245E+02  0.51100000000E-03 0. -1.
        -11    1    3    3    0    0 -0.19181033356E+02  0.26898792222E+01  0.10820631451E+01  0.19398926562E+02  0.51100000000E-03 0.  1.
         12    1    3    3    0    0 -0.44119445102E+01 -0.77106326800E+01  0.34197189186E+01  0.95191169848E+01  0.00000000000E+00 0. -1.
</event>
<event>
 7    1  0.2746803E-013  0.5052881E+02  0.7816164E-02  0.1300439E+00
        -11   -1    0    0    0    0  0.00000000000E+00  0.00000000000E+00  0.45593999997E+02  0.45594000000E+02  0.51100000000E-03 0.  1.
         11   -1    0    0    0    0 -0.00000000000E+00 -0.00000000000E+00 -0.45593999997E+02  0.45594000000E+02  0.51100000000E-03 0. -1.
    9900012    2    1    2    0    0  0.47334579825E+01 -0.34673292267E+01  0.40233593874E+02  0.50528805807E+02  0.29999835730E+02 0.  0.
         12    1    1    2    0    0 -0.47334579825E+01  0.34673292267E+01 -0.40233593874E+02  0.40659194193E+02  0.00000000000E+00 0. -1.
         11    1    3    3    0    0  0.29575983818E+01 -0.11845094672E+02  0.71051193465E+01  0.14125734571E+02  0.51100000000E-03 0. -1.
        -11    1    3    3    0    0  0.20301670353E+01 -0.29840392651E+01  0.61876375429E+01  0.71633042062E+01  0.51100000000E-03 0.  1.
         12    1    3    3    0    0 -0.25430743458E+00  0.11361804711E+02  0.26940836984E+02  0.29239767030E+02  0.00000000000E+00 0. -1.
</event>
<event>
 7    1  0.2746803E-013  0.5052886E+02  0.7816164E-02  0.1300439E+00
        -11   -1    0    0    0    0  0.00000000000E+00  0.00000000000E+00  0.45593999997E+02  0.45594000000E+02  0.51100000000E-03 0.  1.
         11   -1    0    0    0    0 -0.00000000000E+00 -0.00000000000E+00 -0.45593999997E+02  0.45594000000E+02  0.51100000000E-03 0. -1.
    9900012    2    1    2    0    0 -0.14315504685E+02 -0.25879643921E+02  0.27901185444E+02  0.50528858432E+02  0.29999995690E+02 0.  0.
         12    1    1    2    0    0  0.14315504685E+02  0.25879643921E+02 -0.27901185444E+02  0.40659141568E+02  0.00000000000E+00 0. -1.
         11    1    3    3    0    0 -0.32160364857E+01 -0.15932143071E+02  0.15033034125E+02  0.22139742293E+02  0.51100000000E-03 0. -1.
        -11    1    3    3    0    0 -0.10085948300E+02 -0.15625229427E+02  0.62713722617E+01  0.19626621157E+02  0.51100000000E-03 0.  1.
         12    1    3    3    0    0 -0.10135198989E+01  0.56777285767E+01  0.65967790571E+01  0.87624949817E+01  0.00000000000E+00 0. -1.
</event>
<event>
 7    1  0.2746803E-013  0.5052887E+02  0.7816164E-02  0.1300439E+00
        -11   -1    0    0    0    0  0.00000000000E+00  0.00000000000E+00  0.45593999997E+02  0.45594000000E+02  0.51100000000E-03 0.  1.
         11   -1    0    0    0    0 -0.00000000000E+00 -0.00000000000E+00 -0.45593999997E+02  0.45594000000E+02  0.51100000000E-03 0. -1.
    9900012    2    1    2    0    0 -0.27252964685E+02  0.90043291866E+01  0.28798654756E+02  0.50528873792E+02  0.30000042379E+02 0.  0.
         12    1    1    2    0    0  0.27252964685E+02 -0.90043291866E+01 -0.28798654756E+02  0.40659126208E+02  0.00000000000E+00 0. -1.
         11    1    3    3    0    0 -0.33633752604E+01  0.74720704609E+01  0.14926005693E+02  0.17027324403E+02  0.51100000000E-03 0.  1.
        -11    1    3    3    0    0 -0.29750479355E+01 -0.62389958623E+01  0.77094287771E+01  0.10354287610E+02  0.51100000000E-03 0. -1.
         12    1    3    3    0    0 -0.20914541489E+02  0.77712545880E+01  0.61632202861E+01  0.23147261779E+02  0.00000000000E+00 0. -1.
</event>
<event>
 7    1  0.2746803E-013  0.5052886E+02  0.7816164E-02  0.1300439E+00
        -11   -1    0    0    0    0  0.00000000000E+00  0.00000000000E+00  0.45593999997E+02  0.45594000000E+02  0.51100000000E-03 0.  1.
         11   -1    0    0    0    0 -0.00000000000E+00 -0.00000000000E+00 -0.45593999997E+02  0.45594000000E+02  0.51100000000E-03 0. -1.
    9900012    2    1    2    0    0 -0.18136268823E+02 -0.11151076140E+02  0.34639500178E+02  0.50528859349E+02  0.29999998477E+02 0.  0.
         12    1    1    2    0    0  0.18136268823E+02  0.11151076140E+02 -0.34639500178E+02  0.40659140651E+02  0.00000000000E+00 0. -1.
         11    1    3    3    0    0 -0.10305296991E+02 -0.12203588634E+02  0.66089297303E+01  0.17285967548E+02  0.51100000000E-03 0. -1.
        -11    1    3    3    0    0  0.42005636272E+01 -0.24298265475E+01  0.46622322353E+01  0.67294280227E+01  0.51100000000E-03 0.  1.
        -12    1    3    3    0    0 -0.12031535459E+02  0.34823390415E+01  0.23368338213E+02  0.26513463778E+02  0.00000000000E+00 0.  1.
</event>
<event>
 7    1  0.2746803E-013  0.5052885E+02  0.7816164E-02  0.1300439E+00
        -11   -1    0    0    0    0  0.00000000000E+00  0.00000000000E+00  0.45593999997E+02  0.45594000000E+02  0.51100000000E-03 0. -1.
         11   -1    0    0    0    0 -0.00000000000E+00 -0.00000000000E+00 -0.45593999997E+02  0.45594000000E+02  0.51100000000E-03 0.  1.
    9900012    2    1    2    0    0 -0.34206138680E+02  0.27826624311E+01 -0.21802834227E+02  0.50528847107E+02  0.29999961268E+02 0.  0.
         12    1    1    2    0    0  0.34206138680E+02 -0.27826624311E+01  0.21802834227E+02  0.40659152893E+02  0.00000000000E+00 0. -1.
         11    1    3    3    0    0 -0.24385469286E+02  0.50786210279E+01 -0.33714703110E+01  0.25135837287E+02  0.51100000000E-03 0. -1.
        -11    1    3    3    0    0 -0.12975436675E+02  0.39348104538E+00 -0.11636873048E+02  0.17433691486E+02  0.51100000000E-03 0.  1.
         12    1    3    3    0    0  0.31547672804E+01 -0.26894396422E+01 -0.67944908684E+01  0.79593183340E+01  0.00000000000E+00 0. -1.
</event>
<event>
 7    1  0.2746803E-013  0.5052886E+02  0.7816164E-02  0.1300439E+00
        -11   -1    0    0    0    0  0.00000000000E+00  0.00000000000E+00  0.45593999997E+02  0.45594000000E+02  0.51100000000E-03 0.  1.
         11   -1    0    0    0    0 -0.00000000000E+00 -0.00000000000E+00 -0.45593999997E+02  0.45594000000E+02  0.51100000000E-03 0. -1.
    9900012    2    1    2    0    0  0.94595479388E+01 -0.29135926315E+02  0.26735377028E+02  0.50528860385E+02  0.30000001626E+02 0.  0.
         12    1    1    2    0    0 -0.94595479388E+01  0.29135926315E+02 -0.26735377028E+02  0.40659139615E+02  0.00000000000E+00 0. -1.
         11    1    3    3    0    0  0.80814597616E+01 -0.47380773356E+01 -0.15758856276E+01  0.94996202287E+01  0.51100000000E-03 0. -1.
        -11    1    3    3    0    0  0.71795443315E+01 -0.44725470450E+01  0.11751925339E+02  0.14479547069E+02  0.51100000000E-03 0.  1.
         12    1    3    3    0    0 -0.58014561543E+01 -0.19925301934E+02  0.16559337316E+02  0.26549693087E+02  0.00000000000E+00 0. -1.
</event>
<event>
 7    1  0.2746803E-013  0.5052886E+02  0.7816164E-02  0.1300439E+00
        -11   -1    0    0    0    0  0.00000000000E+00  0.00000000000E+00  0.45593999997E+02  0.45594000000E+02  0.51100000000E-03 0.  1.
         11   -1    0    0    0    0 -0.00000000000E+00 -0.00000000000E+00 -0.45593999997E+02  0.45594000000E+02  0.51100000000E-03 0. -1.
    9900012    2    1    2    0    0 -0.23643966925E+02 -0.14320389759E+02  0.29817024185E+02  0.50528859994E+02  0.30000000438E+02 0.  0.
         12    1    1    2    0    0  0.23643966925E+02  0.14320389759E+02 -0.29817024185E+02  0.40659140006E+02  0.00000000000E+00 0. -1.
         11    1    3    3    0    0 -0.22063150742E+01 -0.17654890062E+02  0.10019259144E+02  0.20419317407E+02  0.51100000000E-03 0.  1.
        -11    1    3    3    0    0 -0.64275022952E+01  0.22823592299E+01  0.27054884512E+01  0.73376847459E+01  0.51100000000E-03 0. -1.
        -12    1    3    3    0    0 -0.15010149555E+02  0.10521410737E+01  0.17092276590E+02  0.22771857841E+02  0.00000000000E+00 0.  1.
</event>
<event>
 7    1  0.2746803E-013  0.5052886E+02  0.7816164E-02  0.1300439E+00
        -11   -1    0    0    0    0  0.00000000000E+00  0.00000000000E+00  0.45593999997E+02  0.45594000000E+02  0.51100000000E-03 0.  1.
         11   -1    0    0    0    0 -0.00000000000E+00 -0.00000000000E+00 -0.45593999997E+02  0.45594000000E+02  0.51100000000E-03 0. -1.
    9900012    2    1    2    0    0  0.10955170439E+02 -0.14334873861E+02  0.36437088241E+02  0.50528858747E+02  0.29999996648E+02 0.  0.
         12    1    1    2    0    0 -0.10955170439E+02  0.14334873861E+02 -0.36437088241E+02  0.40659141253E+02  0.00000000000E+00 0. -1.
         11    1    3    3    0    0 -0.24627338118E+01 -0.63703909623E+01  0.17754194173E+02  0.19022574742E+02  0.51100000000E-03 0. -1.
        -11    1    3    3    0    0  0.25161909714E+01 -0.10358016310E+02  0.17216294509E+02  0.20248963325E+02  0.51100000000E-03 0.  1.
         12    1    3    3    0    0  0.10901713279E+02  0.23935334110E+01  0.14665995593E+01  0.11257320680E+02  0.00000000000E+00 0. -1.
</event>
<event>
 7    1  0.2746803E-013  0.5052886E+02  0.7816164E-02  0.1300439E+00
        -11   -1    0    0    0    0  0.00000000000E+00  0.00000000000E+00  0.45593999997E+02  0.45594000000E+02  0.51100000000E-03 0.  1.
         11   -1    0    0    0    0 -0.00000000000E+00 -0.00000000000E+00 -0.45593999997E+02  0.45594000000E+02  0.51100000000E-03 0. -1.
    9900012    2    1    2    0    0  0.14172252247E+02 -0.29398304930E+02  0.24249797912E+02  0.50528858774E+02  0.29999996729E+02 0.  0.
         12    1    1    2    0    0 -0.14172252247E+02  0.29398304930E+02 -0.24249797912E+02  0.40659141226E+02  0.00000000000E+00 0. -1.
         11    1    3    3    0    0  0.14860264681E+01 -0.35664244572E+01  0.17497484003E+02  0.17918973318E+02  0.51100000000E-03 0. -1.
        -11    1    3    3    0    0  0.81151611628E+01 -0.20020718763E+02  0.10830954231E+02  0.24165980020E+02  0.51100000000E-03 0.  1.
         12    1    3    3    0    0  0.45710646164E+01 -0.58111617091E+01 -0.40786403221E+01  0.84439054361E+01  0.00000000000E+00 0. -1.
</event>
<event>
 7    1  0.2746803E-013  0.5052887E+02  0.7816164E-02  0.1300439E+00
        -11   -1    0    0    0    0  0.00000000000E+00  0.00000000000E+00  0.45593999997E+02  0.45594000000E+02  0.51100000000E-03 0.  1.
         11   -1    0    0    0    0 -0.00000000000E+00 -0.00000000000E+00 -0.45593999997E+02  0.45594000000E+02  0.51100000000E-03 0. -1.
    9900012    2    1    2    0    0 -0.20820486820E+02 -0.25946316610E+02  0.23376498069E+02  0.50528872132E+02  0.30000037332E+02 0.  0.
         12    1    1    2    0    0  0.20820486820E+02  0.25946316610E+02 -0.23376498069E+02  0.40659127868E+02  0.00000000000E+00 0. -1.
         11    1    3    3    0    0  0.39549820298E+01 -0.98245843026E+01  0.33688828012E+01  0.11113672263E+02  0.51100000000E-03 0. -1.
        -11    1    3    3    0    0 -0.13250714633E+02 -0.99266199599E+01  0.20464043427E+02  0.26322923390E+02  0.51100000000E-03 0.  1.
        -12    1    3    3    0    0 -0.11524754216E+02 -0.61951123477E+01 -0.45642815977E+00  0.13092276479E+02  0.00000000000E+00 0.  1.
</event>
<event>
 7    1  0.2746803E-013  0.5052889E+02  0.7816164E-02  0.1300439E+00
        -11   -1    0    0    0    0  0.00000000000E+00  0.00000000000E+00  0.45593999997E+02  0.45594000000E+02  0.51100000000E-03 0. -1.
         11   -1    0    0    0    0 -0.00000000000E+00 -0.00000000000E+00 -0.45593999997E+02  0.45594000000E+02  0.51100000000E-03 0.  1.
    9900012    2    1    2    0    0  0.28138256176E+02 -0.27077877728E+02  0.11322109591E+02  0.50528891691E+02  0.30000096784E+02 0.  0.
         12    1    1    2    0    0 -0.28138256176E+02  0.27077877728E+02 -0.11322109591E+02  0.40659108309E+02  0.00000000000E+00 0. -1.
         11    1    3    3    0    0 -0.11342308333E+01 -0.10977064524E+02  0.31933217312E+01  0.11488243081E+02  0.51100000000E-03 0. -1.
        -11    1    3    3    0    0  0.57784759246E+00  0.19835451351E+01 -0.27329569681E+01  0.34259908339E+01  0.51100000000E-03 0.  1.
         12    1    3    3    0    0  0.28694639417E+02 -0.18084358339E+02  0.10861744828E+02  0.35614657776E+02  0.00000000000E+00 0. -1.
</event>
<event>
 7    1  0.2746803E-013  0.5052886E+02  0.7816164E-02  0.1300439E+00
        -11   -1    0    0    0    0  0.00000000000E+00  0.00000000000E+00  0.45593999997E+02  0.45594000000E+02  0.51100000000E-03 0.  1.
         11   -1    0    0    0    0 -0.00000000000E+00 -0.00000000000E+00 -0.45593999997E+02  0.45594000000E+02  0.51100000000E-03 0. -1.
    9900012    2    1    2    0    0 -0.19357968719E+02  0.35397872864E+02  0.50423658993E+01  0.50528858222E+02  0.29999995053E+02 0.  0.
         12    1    1    2    0    0  0.19357968719E+02 -0.35397872864E+02 -0.50423658993E+01  0.40659141778E+02  0.00000000000E+00 0. -1.
         11    1    3    3    0    0  0.23233675751E+01  0.95740483782E+01  0.71767575843E+01  0.12188777171E+02  0.51100000000E-03 0. -1.
        -11    1    3    3    0    0 -0.17068198770E+02  0.26510770482E+02 -0.62222894146E+01  0.32138158731E+02  0.51100000000E-03 0.  1.
         12    1    3    3    0    0 -0.46131375244E+01 -0.68694599643E+00  0.40878977295E+01  0.62019223204E+01  0.00000000000E+00 0. -1.
</event>
<event>
 7    1  0.2746803E-013  0.5052892E+02  0.7816164E-02  0.1300439E+00
        -11   -1    0    0    0    0  0.00000000000E+00  0.00000000000E+00  0.45593999997E+02  0.45594000000E+02  0.51100000000E-03 0.  1.
         11   -1    0    0    0    0 -0.00000000000E+00 -0.00000000000E+00 -0.45593999997E+02  0.45594000000E+02  0.51100000000E-03 0. -1.
    9900012    2    1    2    0    0 -0.41846382336E+00 -0.39997344135E+02  0.72936843724E+01  0.50528923749E+02  0.30000194228E+02 0.  0.
         12    1    1    2    0    0  0.41846382336E+00  0.39997344135E+02 -0.72936843724E+01  0.40659076251E+02  0.00000000000E+00 0. -1.
         11    1    3    3    0    0 -0.24811129801E+01  0.23940252123E+01  0.21731907696E+01  0.40755412793E+01  0.51100000000E-03 0. -1.
        -11    1    3    3    0    0 -0.24931082513E+01 -0.17858698458E+02  0.10586144375E+02  0.20909690393E+02  0.51100000000E-03 0.  1.
         12    1    3    3    0    0  0.45557574080E+01 -0.24532670890E+02 -0.54656507720E+01  0.25543692077E+02  0.00000000000E+00 0. -1.
</event>
<event>
 7    1  0.2746803E-013  0.5052885E+02  0.7816164E-02  0.1300439E+00
        -11   -1    0    0    0    0  0.00000000000E+00  0.00000000000E+00  0.45593999997E+02  0.45594000000E+02  0.51100000000E-03 0. -1.
         11   -1    0    0    0    0 -0.00000000000E+00 -0.00000000000E+00 -0.45593999997E+02  0.45594000000E+02  0.51100000000E-03 0.  1.
    9900012    2    1    2    0    0  0.17038001099E+02 -0.60496200699E+01 -0.36418056263E+02  0.50528853349E+02  0.29999980238E+02 0.  0.
         12    1    1    2    0    0 -0.17038001099E+02  0.60496200699E+01  0.36418056263E+02  0.40659146651E+02  0.00000000000E+00 0. -1.
         11    1    3    3    0    0  0.34895431812E+01  0.60506291959E+00 -0.21324072258E+01  0.41340263168E+01  0.51100000000E-03 0. -1.
        -11    1    3    3    0    0  0.18626040203E+02  0.41783420329E+01 -0.18450761030E+02  0.26548418006E+02  0.51100000000E-03 0.  1.
        -12    1    3    3    0    0 -0.50775822853E+01 -0.10833025022E+02 -0.15834888008E+02  0.19846409026E+02  0.00000000000E+00 0.  1.
</event>
<event>
 7    1  0.2746803E-013  0.5052888E+02  0.7816164E-02  0.1300439E+00
        -11   -1    0    0    0    0  0.00000000000E+00  0.00000000000E+00  0.45593999997E+02  0.45594000000E+02  0.51100000000E-03 0.  1.
         11   -1    0    0    0    0 -0.00000000000E+00 -0.00000000000E+00 -0.45593999997E+02  0.45594000000E+02  0.51100000000E-03 0. -1.
    9900012    2    1    2    0    0  0.72751204734E+01 -0.23072067185E+02  0.32678988760E+02  0.50528880869E+02  0.30000063889E+02 0.  0.
         12    1    1    2    0    0 -0.72751204734E+01  0.23072067185E+02 -0.32678988760E+02  0.40659119131E+02  0.00000000000E+00 0. -1.
         11    1    3    3    0    0 -0.30114901045E+01  0.24759749822E+01  0.10126699103E+01  0.40280299614E+01  0.51100000000E-03 0. -1.
        -11    1    3    3    0    0 -0.86961593968E+00 -0.15708876292E+02  0.60052259884E+01  0.16840064301E+02  0.51100000000E-03 0.  1.
        -12    1    3    3    0    0  0.11156226518E+02 -0.98391658756E+01  0.25661092862E+02  0.29660786606E+02  0.00000000000E+00 0.  1.
</event>
<event>
 7    1  0.2746803E-013  0.5052885E+02  0.7816164E-02  0.1300439E+00
        -11   -1    0    0    0    0  0.00000000000E+00  0.00000000000E+00  0.45593999997E+02  0.45594000000E+02  0.51100000000E-03 0. -1.
         11   -1    0    0    0    0 -0.00000000000E+00 -0.00000000000E+00 -0.45593999997E+02  0.45594000000E+02  0.51100000000E-03 0.  1.
    9900012    2    1    2    0    0 -0.39930165748E+02  0.69575355343E+01 -0.32156892104E+01  0.50528854725E+02  0.29999984423E+02 0.  0.
         12    1    1    2    0    0  0.39930165748E+02 -0.69575355343E+01  0.32156892104E+01  0.40659145275E+02  0.00000000000E+00 0. -1.
         11    1    3    3    0    0 -0.81293113399E+01  0.58622478587E+00 -0.60545239666E+01  0.10153158281E+02  0.51100000000E-03 0. -1.
        -11    1    3    3    0    0 -0.28814256313E+02 -0.43544929695E+01  0.21432510927E+01  0.29220138627E+02  0.51100000000E-03 0.  1.
         12    1    3    3    0    0 -0.29865980955E+01  0.10725803718E+02  0.69558366351E+00  0.11155557817E+02  0.00000000000E+00 0. -1.
</event>
<event>
 7    1  0.2746803E-013  0.5052885E+02  0.7816164E-02  0.1300439E+00
        -11   -1    0    0    0    0  0.00000000000E+00  0.00000000000E+00  0.45593999997E+02  0.45594000000E+02  0.51100000000E-03 0.  1.
         11   -1    0    0    0    0 -0.00000000000E+00 -0.00000000000E+00 -0.45593999997E+02  0.45594000000E+02  0.51100000000E-03 0. -1.
    9900012    2    1    2    0    0  0.16352615531E+02 -0.17737042862E+02  0.32728510034E+02  0.50528854741E+02  0.29999984470E+02 0.  0.
         12    1    1    2    0    0 -0.16352615531E+02  0.17737042862E+02 -0.32728510034E+02  0.40659145259E+02  0.00000000000E+00 0. -1.
         11    1    3    3    0    0  0.24260741765E+01 -0.54025629479E+01 -0.14664925032E+00  0.59241057198E+01  0.51100000000E-03 0. -1.
        -11    1    3    3    0    0  0.27051243748E+01  0.68844963873E+01  0.49687104183E+01  0.89107840211E+01  0.51100000000E-03 0.  1.
        -12    1    3    3    0    0  0.11221416980E+02 -0.19218976301E+02  0.27906448866E+02  0.35693965000E+02  0.00000000000E+00 0.  1.
</event>
<event>
 7    1  0.2746803E-013  0.5052885E+02  0.7816164E-02  0.1300439E+00
        -11   -1    0    0    0    0  0.00000000000E+00  0.00000000000E+00  0.45593999997E+02  0.45594000000E+02  0.51100000000E-03 0. -1.
         11   -1    0    0    0    0 -0.00000000000E+00 -0.00000000000E+00 -0.45593999997E+02  0.45594000000E+02  0.51100000000E-03 0.  1.
    9900012    2    1    2    0    0  0.19854807517E+02  0.34531118807E+02 -0.81581301900E+01  0.50528848069E+02  0.29999964189E+02 0.  0.
         12    1    1    2    0    0 -0.19854807517E+02 -0.34531118807E+02  0.81581301900E+01  0.40659151931E+02  0.00000000000E+00 0. -1.
         11    1    3    3    0    0  0.19069652287E+00 -0.10954796665E+01 -0.26141708593E+01  0.28408326959E+01  0.51100000000E-03 0. -1.
        -11    1    3    3    0    0  0.19076162764E+02  0.14210614802E+02 -0.10002624220E+02  0.25804922988E+02  0.51100000000E-03 0.  1.
        -12    1    3    3    0    0  0.58794822959E+00  0.21415983672E+02  0.44586648890E+01  0.21883092385E+02  0.00000000000E+00 0.  1.
</event>
<event>
 7    1  0.2746803E-013  0.5052886E+02  0.7816164E-02  0.1300439E+00
        -11   -1    0    0    0    0  0.00000000000E+00  0.00000000000E+00  0.45593999997E+02  0.45594000000E+02  0.51100000000E-03 0.  1.
         11   -1    0    0    0    0 -0.00000000000E+00 -0.00000000000E+00 -0.45593999997E+02  0.45594000000E+02  0.51100000000E-03 0. -1.
    9900012    2    1    2    0    0  0.78099548889E+01 -0.30440986722E+02  0.25797607513E+02  0.50528860543E+02  0.30000002107E+02 0.  0.
         12    1    1    2    0    0 -0.78099548889E+01  0.30440986722E+02 -0.25797607513E+02  0.40659139457E+02  0.00000000000E+00 0. -1.
         11    1    3    3    0    0  0.34837938737E+01 -0.17071275922E+01  0.11402310805E+02  0.12044243285E+02  0.51100000000E-03 0.  1.
        -11    1    3    3    0    0 -0.35178655202E+01 -0.22116334201E+02  0.21348331532E+01  0.22495891384E+02  0.51100000000E-03 0. -1.
         12    1    3    3    0    0  0.78440265355E+01 -0.66175249286E+01  0.12260463555E+02  0.15988725873E+02  0.00000000000E+00 0. -1.
</event>
<event>
 7    1  0.2746803E-013  0.5052886E+02  0.7816164E-02  0.1300439E+00
        -11   -1    0    0    0    0  0.00000000000E+00  0.00000000000E+00  0.45593999997E+02  0.45594000000E+02  0.51100000000E-03 0. -1.
         11   -1    0    0    0    0 -0.00000000000E+00 -0.00000000000E+00 -0.45593999997E+02  0.45594000000E+02  0.51100000000E-03 0.  1.
    9900012    2    1    2    0    0  0.35052139107E+02  0.13437365299E+02 -0.15618922666E+02  0.50528856042E+02  0.29999988425E+02 0.  0.
         12    1    1    2    0    0 -0.35052139107E+02 -0.13437365299E+02  0.15618922666E+02  0.40659143958E+02  0.00000000000E+00 0. -1.
         11    1    3    3    0    0  0.18029640108E+01  0.69653834348E+01  0.35459857366E+01  0.80213004384E+01  0.51100000000E-03 0. -1.
        -11    1    3    3    0    0  0.33638317776E+02  0.23266918451E+01 -0.16286763768E+02  0.37446075789E+02  0.51100000000E-03 0.  1.
         12    1    3    3    0    0 -0.38914267943E+00  0.41452900192E+01 -0.28781446352E+01  0.50614798141E+01  0.00000000000E+00 0. -1.
</event>
<event>
 7    1  0.2746803E-013  0.5052887E+02  0.7816164E-02  0.1300439E+00
        -11   -1    0    0    0    0  0.00000000000E+00  0.00000000000E+00  0.45593999997E+02  0.45594000000E+02  0.51100000000E-03 0.  1.
         11   -1    0    0    0    0 -0.00000000000E+00 -0.00000000000E+00 -0.45593999997E+02  0.45594000000E+02  0.51100000000E-03 0. -1.
    9900012    2    1    2    0    0 -0.25034427031E+02  0.31397012320E+01  0.31883923131E+02  0.50528870462E+02  0.30000032257E+02 0.  0.
         12    1    1    2    0    0  0.25034427031E+02 -0.31397012320E+01 -0.31883923131E+02  0.40659129538E+02  0.00000000000E+00 0. -1.
         11    1    3    3    0    0  0.49062087463E+00  0.46859238922E+01  0.54326089506E+01  0.71910939249E+01  0.51100000000E-03 0. -1.
        -11    1    3    3    0    0 -0.22418527627E+02  0.56281384608E+01  0.10121869470E+02  0.25233282888E+02  0.51100000000E-03 0.  1.
         12    1    3    3    0    0 -0.31065202783E+01 -0.71743611209E+01  0.16329444710E+02  0.18104493649E+02  0.00000000000E+00 0. -1.
</event>
<event>
 7    1  0.2746803E-013  0.5052886E+02  0.7816164E-02  0.1300439E+00
        -11   -1    0    0    0    0  0.00000000000E+00  0.00000000000E+00  0.45593999997E+02  0.45594000000E+02  0.51100000000E-03 0.  1.
         11   -1    0    0    0    0 -0.00000000000E+00 -0.00000000000E+00 -0.45593999997E+02  0.45594000000E+02  0.51100000000E-03 0. -1.
    9900012    2    1    2    0    0  0.21461903850E+02  0.24866865734E+02  0.23962289254E+02  0.50528860381E+02  0.30000001614E+02 0.  0.
         12    1    1    2    0    0 -0.21461903850E+02 -0.24866865734E+02 -0.23962289254E+02  0.40659139619E+02  0.00000000000E+00 0. -1.
         11    1    3    3    0    0  0.33250201160E+01  0.63437391851E+01 -0.29179858644E+01  0.77339141052E+01  0.51100000000E-03 0. -1.
        -11    1    3    3    0    0  0.26415499434E+01  0.81391080191E+01  0.21864561075E+02  0.23479393023E+02  0.51100000000E-03 0.  1.
         12    1    3    3    0    0  0.15495333790E+02  0.10384018530E+02  0.50157140427E+01  0.19315553253E+02  0.00000000000E+00 0. -1.
</event>
<event>
 7    1  0.2746803E-013  0.5052884E+02  0.7816164E-02  0.1300439E+00
        -11   -1    0    0    0    0  0.00000000000E+00  0.00000000000E+00  0.45593999997E+02  0.45594000000E+02  0.51100000000E-03 0.  1.
         11   -1    0    0    0    0 -0.00000000000E+00 -0.00000000000E+00 -0.45593999997E+02  0.45594000000E+02  0.51100000000E-03 0. -1.
    9900012    2    1    2    0    0  0.28765994650E+02  0.95952684362E-01  0.28734568844E+02  0.50528842338E+02  0.29999946771E+02 0.  0.
         12    1    1    2    0    0 -0.28765994650E+02 -0.95952684362E-01 -0.28734568844E+02  0.40659157662E+02  0.00000000000E+00 0. -1.
         11    1    3    3    0    0 -0.89303166911E+00 -0.56590402687E+01  0.28379552504E+01  0.63934523217E+01  0.51100000000E-03 0. -1.
        -11    1    3    3    0    0  0.21749635962E+02  0.35491825160E+00  0.26798866756E+02  0.34515965742E+02  0.51100000000E-03 0.  1.
         12    1    3    3    0    0  0.79093903565E+01  0.54000747015E+01 -0.90225316248E+00  0.96194242740E+01  0.00000000000E+00 0. -1.
</event>
<event>
 7    1  0.2746803E-013  0.5052887E+02  0.7816164E-02  0.1300439E+00
        -11   -1    0    0    0    0  0.00000000000E+00  0.00000000000E+00  0.45593999997E+02  0.45594000000E+02  0.51100000000E-03 0.  1.
         11   -1    0    0    0    0 -0.00000000000E+00 -0.00000000000E+00 -0.45593999997E+02  0.45594000000E+02  0.51100000000E-03 0. -1.
    9900012    2    1    2    0    0 -0.64298048958E+01  0.22408307869E+02  0.33312008222E+02  0.50528873788E+02  0.30000042365E+02 0.  0.
         12    1    1    2    0    0  0.64298048958E+01 -0.22408307869E+02 -0.33312008222E+02  0.40659126212E+02  0.00000000000E+00 0. -1.
         11    1    3    3    0    0  0.59335588863E+01 -0.80929318846E+00 -0.62854545675E+00  0.60213907177E+01  0.51100000000E-03 0. -1.
        -11    1    3    3    0    0 -0.16656430812E+01  0.24175227045E+01  0.12288643046E+02  0.12634458084E+02  0.51100000000E-03 0.  1.
        -12    1    3    3    0    0 -0.10697720701E+02  0.20800078353E+02  0.21651910633E+02  0.31873024986E+02  0.00000000000E+00 0.  1.
</event>
<event>
 7    1  0.2746803E-013  0.5052886E+02  0.7816164E-02  0.1300439E+00
        -11   -1    0    0    0    0  0.00000000000E+00  0.00000000000E+00  0.45593999997E+02  0.45594000000E+02  0.51100000000E-03 0.  1.
         11   -1    0    0    0    0 -0.00000000000E+00 -0.00000000000E+00 -0.45593999997E+02  0.45594000000E+02  0.51100000000E-03 0. -1.
    9900012    2    1    2    0    0  0.45511692617E+01  0.10898282870E+02  0.38906037953E+02  0.50528862031E+02  0.30000006629E+02 0.  0.
         12    1    1    2    0    0 -0.45511692617E+01 -0.10898282870E+02 -0.38906037953E+02  0.40659137969E+02  0.00000000000E+00 0. -1.
         11    1    3    3    0    0  0.56805911932E+01 -0.19910893188E+01 -0.73311525219E+00  0.60639105545E+01  0.51100000000E-03 0. -1.
        -11    1    3    3    0    0  0.32611093045E+01 -0.13070691179E+01  0.17175305842E+02  0.17530955325E+02  0.51100000000E-03 0.  1.
        -12    1    3    3    0    0 -0.43905312360E+01  0.14196441307E+02  0.22463847364E+02  0.26933996151E+02  0.00000000000E+00 0.  1.
</event>
<event>
 7    1  0.2746803E-013  0.5052886E+02  0.7816164E-02  0.1300439E+00
        -11   -1    0    0    0    0  0.00000000000E+00  0.00000000000E+00  0.45593999997E+02  0.45594000000E+02  0.51100000000E-03 0. -1.
         11   -1    0    0    0    0 -0.00000000000E+00 -0.00000000000E+00 -0.45593999997E+02  0.45594000000E+02  0.51100000000E-03 0.  1.
    9900012    2    1    2    0    0  0.39105339870E+02  0.90890851505E+01  0.64285779072E+01  0.50528859710E+02  0.29999999575E+02 0.  0.
         12    1    1    2    0    0 -0.39105339870E+02 -0.90890851505E+01 -0.64285779072E+01  0.40659140290E+02  0.00000000000E+00 0. -1.
         11    1    3    3    0    0  0.12624141500E+02  0.40871815692E+00  0.89117344603E+01  0.15458169701E+02  0.51100000000E-03 0. -1.
        -11    1    3    3    0    0  0.30142994845E+02  0.82250818251E+01 -0.27818580790E+01  0.31368628339E+02  0.51100000000E-03 0.  1.
         12    1    3    3    0    0 -0.36617964753E+01  0.45528516854E+00  0.29870152595E+00  0.37020616705E+01  0.00000000000E+00 0. -1.
</event>
<event>
 7    1  0.2746803E-013  0.5052886E+02  0.7816164E-02  0.1300439E+00
        -11   -1    0    0    0    0  0.00000000000E+00  0.00000000000E+00  0.45593999997E+02  0.45594000000E+02  0.51100000000E-03 0. -1.
         11   -1    0    0    0    0 -0.00000000000E+00 -0.00000000000E+00 -0.45593999997E+02  0.45594000000E+02  0.51100000000E-03 0.  1.
    9900012    2    1    2    0    0  0.46706478585E+01  0.23217252861E+02 -0.33050112268E+02  0.50528859543E+02  0.29999999066E+02 0.  0.
         12    1    1    2    0    0 -0.46706478585E+01 -0.23217252861E+02  0.33050112268E+02  0.40659140457E+02  0.00000000000E+00 0. -1.
         11    1    3    3    0    0 -0.25356562565E+01 -0.69928529826E-01 -0.14515987881E+01  0.29225984933E+01  0.51100000000E-03 0. -1.
        -11    1    3    3    0    0 -0.18724837112E+01  0.24866369776E+02 -0.16445931607E+02  0.29871578595E+02  0.51100000000E-03 0.  1.
        -12    1    3    3    0    0  0.90787878262E+01 -0.15791883852E+01 -0.15152581872E+02  0.17734682454E+02  0.00000000000E+00 0.  1.
</event>
<event>
 7    1  0.2746803E-013  0.5052885E+02  0.7816164E-02  0.1300439E+00
        -11   -1    0    0    0    0  0.00000000000E+00  0.00000000000E+00  0.45593999997E+02  0.45594000000E+02  0.51100000000E-03 0. -1.
         11   -1    0    0    0    0 -0.00000000000E+00 -0.00000000000E+00 -0.45593999997E+02  0.45594000000E+02  0.51100000000E-03 0.  1.
    9900012    2    1    2    0    0  0.17475564856E+02 -0.16785109305E+01 -0.36673605466E+02  0.50528854610E+02  0.29999984074E+02 0.  0.
         12    1    1    2    0    0 -0.17475564856E+02  0.16785109305E+01  0.36673605466E+02  0.40659145390E+02  0.00000000000E+00 0. -1.
         11    1    3    3    0    0  0.31627610655E+01  0.97169505427E+01 -0.42332657983E+01  0.11060864568E+02  0.51100000000E-03 0. -1.
        -11    1    3    3    0    0  0.56948713739E+00 -0.43813509651E+01 -0.11272562503E+01  0.45597432816E+01  0.51100000000E-03 0.  1.
        -12    1    3    3    0    0  0.13743316653E+02 -0.70141105081E+01 -0.31313083417E+02  0.34908246761E+02  0.00000000000E+00 0.  1.
</event>
<event>
 7    1  0.2746803E-013  0.5052887E+02  0.7816164E-02  0.1300439E+00
        -11   -1    0    0    0    0  0.00000000000E+00  0.00000000000E+00  0.45593999997E+02  0.45594000000E+02  0.51100000000E-03 0. -1.
         11   -1    0    0    0    0 -0.00000000000E+00 -0.00000000000E+00 -0.45593999997E+02  0.45594000000E+02  0.51100000000E-03 0.  1.
    9900012    2    1    2    0    0 -0.26509454951E+02  0.29091910231E+02 -0.10201675955E+02  0.50528872673E+02  0.30000038977E+02 0.  0.
         12    1    1    2    0    0  0.26509454951E+02 -0.29091910231E+02  0.10201675955E+02  0.40659127327E+02  0.00000000000E+00 0. -1.
         11    1    3    3    0    0 -0.16477605815E+02  0.10194641333E+02 -0.50257445669E+01  0.20017500194E+02  0.51100000000E-03 0. -1.
        -11    1    3    3    0    0 -0.10567744571E+02  0.23325371472E+02 -0.45013763854E+01  0.26000241715E+02  0.51100000000E-03 0.  1.
         12    1    3    3    0    0  0.53589543516E+00 -0.44281025734E+01 -0.67455500268E+00  0.45111307640E+01  0.00000000000E+00 0. -1.
</event>
<event>
 7    1  0.2746803E-013  0.5052886E+02  0.7816164E-02  0.1300439E+00
        -11   -1    0    0    0    0  0.00000000000E+00  0.00000000000E+00  0.45593999997E+02  0.45594000000E+02  0.51100000000E-03 0.  1.
         11   -1    0    0    0    0 -0.00000000000E+00 -0.00000000000E+00 -0.45593999997E+02  0.45594000000E+02  0.51100000000E-03 0. -1.
    9900012    2    1    2    0    0 -0.24348026542E+02  0.79486713573E+01  0.31577808068E+02  0.50528859143E+02  0.29999997850E+02 0.  0.
         12    1    1    2    0    0  0.24348026542E+02 -0.79486713573E+01 -0.31577808068E+02  0.40659140857E+02  0.00000000000E+00 0. -1.
         11    1    3    3    0    0 -0.22071243490E+02  0.23966812006E+01  0.85070518585E+01  0.23775066805E+02  0.51100000000E-03 0. -1.
        -11    1    3    3    0    0 -0.33206859972E+01  0.77091569959E+01  0.83519292474E+01  0.11841147727E+02  0.51100000000E-03 0.  1.
        -12    1    3    3    0    0  0.10439029455E+01 -0.21571668392E+01  0.14718826963E+02  0.14912644611E+02  0.00000000000E+00 0.  1.
</event>
<event>
 7    1  0.2746803E-013  0.5052885E+02  0.7816164E-02  0.1300439E+00
        -11   -1    0    0    0    0  0.00000000000E+00  0.00000000000E+00  0.45593999997E+02  0.45594000000E+02  0.51100000000E-03 0. -1.
         11   -1    0    0    0    0 -0.00000000000E+00 -0.00000000000E+00 -0.45593999997E+02  0.45594000000E+02  0.51100000000E-03 0.  1.
    9900012    2    1    2    0    0 -0.16628906498E+02 -0.10322913631E+02 -0.35638231218E+02  0.50528848490E+02  0.29999965470E+02 0.  0.
         12    1    1    2    0    0  0.16628906498E+02  0.10322913631E+02  0.35638231218E+02  0.40659151510E+02  0.00000000000E+00 0. -1.
         11    1    3    3    0    0 -0.13994611557E+01  0.10356175432E+01  0.29349030000E+01  0.34124259850E+01  0.51100000000E-03 0. -1.
        -11    1    3    3    0    0 -0.75704572739E+01 -0.98285461616E+01 -0.63046954998E+01  0.13916225372E+02  0.51100000000E-03 0.  1.
        -12    1    3    3    0    0 -0.76589880686E+01 -0.15299850131E+01 -0.32268438718E+02  0.33200197133E+02  0.00000000000E+00 0.  1.
</event>
<event>
 7    1  0.2746803E-013  0.5052887E+02  0.7816164E-02  0.1300439E+00
        -11   -1    0    0    0    0  0.00000000000E+00  0.00000000000E+00  0.45593999997E+02  0.45594000000E+02  0.51100000000E-03 0. -1.
         11   -1    0    0    0    0 -0.00000000000E+00 -0.00000000000E+00 -0.45593999997E+02  0.45594000000E+02  0.51100000000E-03 0.  1.
    9900012    2    1    2    0    0  0.36345148142E+02  0.17619758696E+02  0.46625641349E+01  0.50528865795E+02  0.30000018070E+02 0.  0.
         12    1    1    2    0    0 -0.36345148142E+02 -0.17619758696E+02 -0.46625641349E+01  0.40659134205E+02  0.00000000000E+00 0. -1.
         11    1    3    3    0    0  0.17408979377E+01  0.10321680717E+01  0.53747017755E+01  0.57431277188E+01  0.51100000000E-03 0. -1.
        -11    1    3    3    0    0 -0.14867927071E+01 -0.29603705661E+01 -0.17112821268E+01  0.37286503216E+01  0.51100000000E-03 0.  1.
        -12    1    3    3    0    0  0.36091042912E+02  0.19547961191E+02  0.99914448614E+00  0.41057087754E+02  0.00000000000E+00 0.  1.
</event>
<event>
 7    1  0.2746803E-013  0.5052886E+02  0.7816164E-02  0.1300439E+00
        -11   -1    0    0    0    0  0.00000000000E+00  0.00000000000E+00  0.45593999997E+02  0.45594000000E+02  0.51100000000E-03 0. -1.
         11   -1    0    0    0    0 -0.00000000000E+00 -0.00000000000E+00 -0.45593999997E+02  0.45594000000E+02  0.51100000000E-03 0.  1.
    9900012    2    1    2    0    0 -0.34792516956E+02  0.34340448699E+01 -0.20757019014E+02  0.50528859101E+02  0.29999997723E+02 0.  0.
         12    1    1    2    0    0  0.34792516956E+02 -0.34340448699E+01  0.20757019014E+02  0.40659140899E+02  0.00000000000E+00 0. -1.
         11    1    3    3    0    0  0.39199810046E+01  0.38689083424E+00 -0.32767209312E+01  0.51237521326E+01  0.51100000000E-03 0. -1.
        -11    1    3    3    0    0 -0.18035792182E+02  0.60503307614E+01 -0.15271565968E+02  0.24395020585E+02  0.51100000000E-03 0.  1.
        -12    1    3    3    0    0 -0.20676705778E+02 -0.30031767257E+01 -0.22087321149E+01  0.21010086383E+02  0.00000000000E+00 0.  1.
</event>
<event>
 7    1  0.2746803E-013  0.5052886E+02  0.7816164E-02  0.1300439E+00
        -11   -1    0    0    0    0  0.00000000000E+00  0.00000000000E+00  0.45593999997E+02  0.45594000000E+02  0.51100000000E-03 0. -1.
         11   -1    0    0    0    0 -0.00000000000E+00 -0.00000000000E+00 -0.45593999997E+02  0.45594000000E+02  0.51100000000E-03 0.  1.
    9900012    2    1    2    0    0 -0.27050350784E+02 -0.70059829386E-01 -0.30355218043E+02  0.50528860212E+02  0.30000001100E+02 0.  0.
         12    1    1    2    0    0  0.27050350784E+02  0.70059829386E-01  0.30355218043E+02  0.40659139788E+02  0.00000000000E+00 0. -1.
         11    1    3    3    0    0 -0.19361956969E+01 -0.21186512626E+01  0.44466931169E+01  0.52925057285E+01  0.51100000000E-03 0. -1.
        -11    1    3    3    0    0 -0.46824795189E+00  0.41209248548E+01 -0.44425610709E+01  0.60776333332E+01  0.51100000000E-03 0.  1.
        -12    1    3    3    0    0 -0.24645907135E+02 -0.20723334216E+01 -0.30359350089E+02  0.39158721150E+02  0.00000000000E+00 0.  1.
</event>
<event>
 7    1  0.2746803E-013  0.5052884E+02  0.7816164E-02  0.1300439E+00
        -11   -1    0    0    0    0  0.00000000000E+00  0.00000000000E+00  0.45593999997E+02  0.45594000000E+02  0.51100000000E-03 0. -1.
         11   -1    0    0    0    0 -0.00000000000E+00 -0.00000000000E+00 -0.45593999997E+02  0.45594000000E+02  0.51100000000E-03 0.  1.
    9900012    2    1    2    0    0 -0.60310177372E+01  0.30083529150E+02 -0.26679122234E+02  0.50528837881E+02  0.29999933222E+02 0.  0.
         12    1    1    2    0    0  0.60310177372E+01 -0.30083529150E+02  0.26679122234E+02  0.40659162119E+02  0.00000000000E+00 0. -1.
         11    1    3    3    0    0 -0.59388807502E+01  0.10206185705E+02 -0.25997685502E+02  0.28553742013E+02  0.51100000000E-03 0. -1.
        -11    1    3    3    0    0 -0.38673950753E+01  0.38565258523E+01  0.42620314620E+00  0.54782465900E+01  0.51100000000E-03 0.  1.
        -12    1    3    3    0    0  0.37752580882E+01  0.16020817593E+02 -0.11076398777E+01  0.16496849277E+02  0.00000000000E+00 0.  1.
</event>
<event>
 7    1  0.2746803E-013  0.5052886E+02  0.7816164E-02  0.1300439E+00
        -11   -1    0    0    0    0  0.00000000000E+00  0.00000000000E+00  0.45593999997E+02  0.45594000000E+02  0.51100000000E-03 0. -1.
         11   -1    0    0    0    0 -0.00000000000E+00 -0.00000000000E+00 -0.45593999997E+02  0.45594000000E+02  0.51100000000E-03 0.  1.
    9900012    2    1    2    0    0 -0.29753895676E+02  0.27656736214E+02 -0.17251187162E+01  0.50528863259E+02  0.30000010361E+02 0.  0.
         12    1    1    2    0    0  0.29753895676E+02 -0.27656736214E+02  0.17251187162E+01  0.40659136741E+02  0.00000000000E+00 0. -1.
         11    1    3    3    0    0 -0.14729720632E+01 -0.26778531579E+01 -0.20985727611E+01  0.37073645800E+01  0.51100000000E-03 0. -1.
        -11    1    3    3    0    0 -0.26304147681E+02  0.22815983703E+02 -0.76483335177E+01  0.35650726548E+02  0.51100000000E-03 0.  1.
         12    1    3    3    0    0 -0.19767759327E+01  0.75186056688E+01  0.80217875627E+01  0.11170772131E+02  0.00000000000E+00 0. -1.
</event>
<event>
 7    1  0.2746803E-013  0.5052885E+02  0.7816164E-02  0.1300439E+00
        -11   -1    0    0    0    0  0.00000000000E+00  0.00000000000E+00  0.45593999997E+02  0.45594000000E+02  0.51100000000E-03 0.  1.
         11   -1    0    0    0    0 -0.00000000000E+00 -0.00000000000E+00 -0.45593999997E+02  0.45594000000E+02  0.51100000000E-03 0. -1.
    9900012    2    1    2    0    0 -0.12106818469E+02  0.34896983801E+02  0.16993875155E+02  0.50528851895E+02  0.29999975819E+02 0.  0.
         12    1    1    2    0    0  0.12106818469E+02 -0.34896983801E+02 -0.16993875155E+02  0.40659148105E+02  0.00000000000E+00 0. -1.
         11    1    3    3    0    0  0.48184709334E+01  0.16388378543E+02  0.53207579096E+01  0.17891536502E+02  0.51100000000E-03 0. -1.
        -11    1    3    3    0    0  0.24357185434E+01  0.81792130775E+01  0.33027355553E+01  0.91509733799E+01  0.51100000000E-03 0.  1.
         12    1    3    3    0    0 -0.19361007946E+02  0.10329392181E+02  0.83703816905E+01  0.23486342013E+02  0.00000000000E+00 0. -1.
</event>
<event>
 7    1  0.2746803E-013  0.5052886E+02  0.7816164E-02  0.1300439E+00
        -11   -1    0    0    0    0  0.00000000000E+00  0.00000000000E+00  0.45593999997E+02  0.45594000000E+02  0.51100000000E-03 0.  1.
         11   -1    0    0    0    0 -0.00000000000E+00 -0.00000000000E+00 -0.45593999997E+02  0.45594000000E+02  0.51100000000E-03 0. -1.
    9900012    2    1    2    0    0 -0.39263621771E+02  0.40465103539E+01 -0.97549567481E+01  0.50528862998E+02  0.30000009567E+02 0.  0.
         12    1    1    2    0    0  0.39263621771E+02 -0.40465103539E+01  0.97549567481E+01  0.40659137002E+02  0.00000000000E+00 0. -1.
         11    1    3    3    0    0 -0.27886193211E+02 -0.82987676896E+00 -0.10424925183E+02  0.29782671683E+02  0.51100000000E-03 0. -1.
        -11    1    3    3    0    0 -0.15101509957E+02  0.65426428577E+01 -0.61323483575E+00  0.16469299796E+02  0.51100000000E-03 0.  1.
         12    1    3    3    0    0  0.37240813969E+01 -0.16662557349E+01  0.12832032712E+01  0.42768915183E+01  0.00000000000E+00 0. -1.
</event>
<event>
 7    1  0.2746803E-013  0.5052886E+02  0.7816164E-02  0.1300439E+00
        -11   -1    0    0    0    0  0.00000000000E+00  0.00000000000E+00  0.45593999997E+02  0.45594000000E+02  0.51100000000E-03 0.  1.
         11   -1    0    0    0    0 -0.00000000000E+00 -0.00000000000E+00 -0.45593999997E+02  0.45594000000E+02  0.51100000000E-03 0. -1.
    9900012    2    1    2    0    0 -0.18528764372E+02  0.16784555467E+02  0.32064458589E+02  0.50528856920E+02  0.29999991095E+02 0.  0.
         12    1    1    2    0    0  0.18528764372E+02 -0.16784555467E+02 -0.32064458589E+02  0.40659143080E+02  0.00000000000E+00 0. -1.
         11    1    3    3    0    0 -0.82935919116E+01  0.11400797104E+02  0.25334886623E+02  0.28993418596E+02  0.51100000000E-03 0. -1.
        -11    1    3    3    0    0 -0.49531926666E+00 -0.43060127980E+01  0.64779274374E+01  0.77942691472E+01  0.51100000000E-03 0.  1.
         12    1    3    3    0    0 -0.97398531934E+01  0.96897711612E+01  0.25164452799E+00  0.13741169177E+02  0.00000000000E+00 0. -1.
</event>
<event>
 7    1  0.2746803E-013  0.5052886E+02  0.7816164E-02  0.1300439E+00
        -11   -1    0    0    0    0  0.00000000000E+00  0.00000000000E+00  0.45593999997E+02  0.45594000000E+02  0.51100000000E-03 0. -1.
         11   -1    0    0    0    0 -0.00000000000E+00 -0.00000000000E+00 -0.45593999997E+02  0.45594000000E+02  0.51100000000E-03 0.  1.
    9900012    2    1    2    0    0 -0.11913672568E+02 -0.34360673534E+02 -0.18181708299E+02  0.50528855931E+02  0.29999988088E+02 0.  0.
         12    1    1    2    0    0  0.11913672568E+02  0.34360673534E+02  0.18181708299E+02  0.40659144069E+02  0.00000000000E+00 0. -1.
         11    1    3    3    0    0 -0.21907372624E+01 -0.32178718246E+00  0.46307218593E+01  0.51328804723E+01  0.51100000000E-03 0. -1.
        -11    1    3    3    0    0 -0.13190724629E+02 -0.30970146648E+02 -0.16289273509E+02  0.37396331790E+02  0.51100000000E-03 0.  1.
         12    1    3    3    0    0  0.34677893239E+01 -0.30687397036E+01 -0.65231566487E+01  0.79996436687E+01  0.00000000000E+00 0. -1.
</event>
<event>
 7    1  0.2746803E-013  0.5052881E+02  0.7816164E-02  0.1300439E+00
        -11   -1    0    0    0    0  0.00000000000E+00  0.00000000000E+00  0.45593999997E+02  0.45594000000E+02  0.51100000000E-03 0.  1.
         11   -1    0    0    0    0 -0.00000000000E+00 -0.00000000000E+00 -0.45593999997E+02  0.45594000000E+02  0.51100000000E-03 0. -1.
    9900012    2    1    2    0    0 -0.19114168203E+02  0.21731497509E+02  0.28558011830E+02  0.50528813464E+02  0.29999859006E+02 0.  0.
         12    1    1    2    0    0  0.19114168203E+02 -0.21731497509E+02 -0.28558011830E+02  0.40659186536E+02  0.00000000000E+00 0. -1.
         11    1    3    3    0    0 -0.25825889043E+01  0.22348285094E+01 -0.52819117894E+01  0.62898979584E+01  0.51100000000E-03 0. -1.
        -11    1    3    3    0    0 -0.10284651120E+02  0.50892846312E+01  0.79536491938E+01  0.13961926890E+02  0.51100000000E-03 0.  1.
         12    1    3    3    0    0 -0.62469281783E+01  0.14407384368E+02  0.25886274426E+02  0.30276988616E+02  0.00000000000E+00 0. -1.
</event>
<event>
 7    1  0.2746803E-013  0.5052886E+02  0.7816164E-02  0.1300439E+00
        -11   -1    0    0    0    0  0.00000000000E+00  0.00000000000E+00  0.45593999997E+02  0.45594000000E+02  0.51100000000E-03 0. -1.
         11   -1    0    0    0    0 -0.00000000000E+00 -0.00000000000E+00 -0.45593999997E+02  0.45594000000E+02  0.51100000000E-03 0.  1.
    9900012    2    1    2    0    0 -0.53672130328E+01  0.20410969363E+02 -0.34752711394E+02  0.50528860864E+02  0.30000003081E+02 0.  0.
         12    1    1    2    0    0  0.53672130328E+01 -0.20410969363E+02  0.34752711394E+02  0.40659139136E+02  0.00000000000E+00 0. -1.
         11    1    3    3    0    0 -0.57105306153E+01 -0.14399577055E+01 -0.11237437663E+02  0.12687144817E+02  0.51100000000E-03 0. -1.
        -11    1    3    3    0    0 -0.71662953510E+01  0.90595211117E+01 -0.20216866603E+01  0.11726803872E+02  0.51100000000E-03 0.  1.
        -12    1    3    3    0    0  0.75096129335E+01  0.12791405957E+02 -0.21493587070E+02  0.26114912175E+02  0.00000000000E+00 0.  1.
</event>
<event>
 7    1  0.2746803E-013  0.5052885E+02  0.7816164E-02  0.1300439E+00
        -11   -1    0    0    0    0  0.00000000000E+00  0.00000000000E+00  0.45593999997E+02  0.45594000000E+02  0.51100000000E-03 0. -1.
         11   -1    0    0    0    0 -0.00000000000E+00 -0.00000000000E+00 -0.45593999997E+02  0.45594000000E+02  0.51100000000E-03 0.  1.
    9900012    2    1    2    0    0 -0.62313779619E+01  0.37739546953E+02 -0.13786321719E+02  0.50528854140E+02  0.29999982643E+02 0.  0.
         12    1    1    2    0    0  0.62313779619E+01 -0.37739546953E+02  0.13786321719E+02  0.40659145860E+02  0.00000000000E+00 0. -1.
         11    1    3    3    0    0 -0.21926538878E+01  0.10380637655E+02 -0.57048632891E+01  0.12046195856E+02  0.51100000000E-03 0. -1.
        -11    1    3    3    0    0 -0.10865540751E+02  0.17527493890E+02 -0.14201961377E+02  0.25039343544E+02  0.51100000000E-03 0.  1.
         12    1    3    3    0    0  0.68268166765E+01  0.98314154078E+01  0.61205029473E+01  0.13443314739E+02  0.00000000000E+00 0. -1.
</event>
<event>
 7    1  0.2746803E-013  0.5052880E+02  0.7816164E-02  0.1300439E+00
        -11   -1    0    0    0    0  0.00000000000E+00  0.00000000000E+00  0.45593999997E+02  0.45594000000E+02  0.51100000000E-03 0. -1.
         11   -1    0    0    0    0 -0.00000000000E+00 -0.00000000000E+00 -0.45593999997E+02  0.45594000000E+02  0.51100000000E-03 0.  1.
    9900012    2    1    2    0    0 -0.22062569808E+02 -0.28286216087E+02 -0.19139058705E+02  0.50528799625E+02  0.29999816938E+02 0.  0.
         12    1    1    2    0    0  0.22062569808E+02  0.28286216087E+02  0.19139058705E+02  0.40659200375E+02  0.00000000000E+00 0. -1.
         11    1    3    3    0    0 -0.41243950352E+01 -0.11279383551E+02  0.38411807595E+01  0.12609115654E+02  0.51100000000E-03 0. -1.
        -11    1    3    3    0    0  0.63302190725E+00 -0.16922500980E+01 -0.10785265676E+02  0.10935555912E+02  0.51100000000E-03 0.  1.
        -12    1    3    3    0    0 -0.18571196680E+02 -0.15314582438E+02 -0.12194973788E+02  0.26984128059E+02  0.00000000000E+00 0.  1.
</event>
<event>
 7    1  0.2746803E-013  0.5052875E+02  0.7816164E-02  0.1300439E+00
        -11   -1    0    0    0    0  0.00000000000E+00  0.00000000000E+00  0.45593999997E+02  0.45594000000E+02  0.51100000000E-03 0.  1.
         11   -1    0    0    0    0 -0.00000000000E+00 -0.00000000000E+00 -0.45593999997E+02  0.45594000000E+02  0.51100000000E-03 0. -1.
    9900012    2    1    2    0    0 -0.37823325055E+02  0.43005872159E+01  0.14285513694E+02  0.50528746808E+02  0.29999656396E+02 0.  0.
         12    1    1    2    0    0  0.37823325055E+02 -0.43005872159E+01 -0.14285513694E+02  0.40659253192E+02  0.00000000000E+00 0. -1.
         11    1    3    3    0    0 -0.58909754706E+01  0.19735308335E+01 -0.37283980624E+01  0.72456447828E+01  0.51100000000E-03 0. -1.
        -11    1    3    3    0    0 -0.15404513412E+02 -0.96835435124E+01  0.43622877350E+01  0.18710948746E+02  0.51100000000E-03 0.  1.
        -12    1    3    3    0    0 -0.16527836172E+02  0.12010599895E+02  0.13651624022E+02  0.24572153279E+02  0.00000000000E+00 0.  1.
</event>
<event>
 7    1  0.2746803E-013  0.5052886E+02  0.7816164E-02  0.1300439E+00
        -11   -1    0    0    0    0  0.00000000000E+00  0.00000000000E+00  0.45593999997E+02  0.45594000000E+02  0.51100000000E-03 0.  1.
         11   -1    0    0    0    0 -0.00000000000E+00 -0.00000000000E+00 -0.45593999997E+02  0.45594000000E+02  0.51100000000E-03 0. -1.
    9900012    2    1    2    0    0  0.24383627646E+02 -0.65333818672E+00  0.32529641364E+02  0.50528859389E+02  0.29999998598E+02 0.  0.
         12    1    1    2    0    0 -0.24383627646E+02  0.65333818672E+00 -0.32529641364E+02  0.40659140611E+02  0.00000000000E+00 0. -1.
         11    1    3    3    0    0  0.16665009840E+01 -0.67547957593E+01  0.12074891192E+02  0.13935834702E+02  0.51100000000E-03 0. -1.
        -11    1    3    3    0    0 -0.22178376368E+01  0.48073780728E+01  0.26060032726E+01  0.59009271336E+01  0.51100000000E-03 0.  1.
        -12    1    3    3    0    0  0.24934964299E+02  0.12940794998E+01  0.17848746899E+02  0.30692097553E+02  0.00000000000E+00 0.  1.
</event>
<event>
 7    1  0.2746803E-013  0.5052886E+02  0.7816164E-02  0.1300439E+00
        -11   -1    0    0    0    0  0.00000000000E+00  0.00000000000E+00  0.45593999997E+02  0.45594000000E+02  0.51100000000E-03 0. -1.
         11   -1    0    0    0    0 -0.00000000000E+00 -0.00000000000E+00 -0.45593999997E+02  0.45594000000E+02  0.51100000000E-03 0.  1.
    9900012    2    1    2    0    0 -0.10960617986E+02 -0.29783135818E+02 -0.25416433316E+02  0.50528863164E+02  0.30000010072E+02 0.  0.
         12    1    1    2    0    0  0.10960617986E+02  0.29783135818E+02  0.25416433316E+02  0.40659136836E+02  0.00000000000E+00 0. -1.
         11    1    3    3    0    0 -0.10999966274E+02 -0.17692489401E+02 -0.67497517175E+01  0.21899374140E+02  0.51100000000E-03 0. -1.
        -11    1    3    3    0    0  0.78815597467E+01 -0.61869008677E+01 -0.35992375681E+01  0.10646653827E+02  0.51100000000E-03 0.  1.
         12    1    3    3    0    0 -0.78422114590E+01 -0.59037455490E+01 -0.15067444030E+02  0.17982835196E+02  0.00000000000E+00 0. -1.
</event>
<event>
 7    1  0.2746803E-013  0.5052887E+02  0.7816164E-02  0.1300439E+00
        -11   -1    0    0    0    0  0.00000000000E+00  0.00000000000E+00  0.45593999997E+02  0.45594000000E+02  0.51100000000E-03 0. -1.
         11   -1    0    0    0    0 -0.00000000000E+00 -0.00000000000E+00 -0.45593999997E+02  0.45594000000E+02  0.51100000000E-03 0.  1.
    9900012    2    1    2    0    0  0.23100128787E+02 -0.14028117914E+02 -0.30376975669E+02  0.50528871960E+02  0.30000036809E+02 0.  0.
         12    1    1    2    0    0 -0.23100128787E+02  0.14028117914E+02  0.30376975669E+02  0.40659128040E+02  0.00000000000E+00 0. -1.
         11    1    3    3    0    0 -0.29074297950E+01 -0.41506299758E+01  0.20527669892E+01  0.54676073178E+01  0.51100000000E-03 0. -1.
        -11    1    3    3    0    0  0.71041689723E+00 -0.18664599188E+01 -0.10350746258E+02  0.10541646606E+02  0.51100000000E-03 0.  1.
         12    1    3    3    0    0  0.25297141684E+02 -0.80110280193E+01 -0.22078996400E+02  0.34519618036E+02  0.00000000000E+00 0. -1.
</event>
<event>
 7    1  0.2746803E-013  0.5052886E+02  0.7816164E-02  0.1300439E+00
        -11   -1    0    0    0    0  0.00000000000E+00  0.00000000000E+00  0.45593999997E+02  0.45594000000E+02  0.51100000000E-03 0.  1.
         11   -1    0    0    0    0 -0.00000000000E+00 -0.00000000000E+00 -0.45593999997E+02  0.45594000000E+02  0.51100000000E-03 0. -1.
    9900012    2    1    2    0    0  0.21619242909E+01 -0.38865055060E+02  0.11747308555E+02  0.50528859826E+02  0.29999999926E+02 0.  0.
         12    1    1    2    0    0 -0.21619242909E+01  0.38865055060E+02 -0.11747308555E+02  0.40659140174E+02  0.00000000000E+00 0. -1.
         11    1    3    3    0    0  0.10456385316E+02 -0.25403314113E+02  0.65061380824E+01  0.28231085611E+02  0.51100000000E-03 0. -1.
        -11    1    3    3    0    0 -0.27285404665E+01 -0.87311065901E+01  0.10020970086E+02  0.13568234855E+02  0.51100000000E-03 0.  1.
        -12    1    3    3    0    0 -0.55659205583E+01 -0.47306343569E+01 -0.47797996136E+01  0.87295393593E+01  0.00000000000E+00 0.  1.
</event>
<event>
 7    1  0.2746803E-013  0.5052886E+02  0.7816164E-02  0.1300439E+00
        -11   -1    0    0    0    0  0.00000000000E+00  0.00000000000E+00  0.45593999997E+02  0.45594000000E+02  0.51100000000E-03 0.  1.
         11   -1    0    0    0    0 -0.00000000000E+00 -0.00000000000E+00 -0.45593999997E+02  0.45594000000E+02  0.51100000000E-03 0. -1.
    9900012    2    1    2    0    0  0.35715549815E+02 -0.17373592842E+02 -0.87019141515E+01  0.50528861584E+02  0.30000005271E+02 0.  0.
         12    1    1    2    0    0 -0.35715549815E+02  0.17373592842E+02  0.87019141515E+01  0.40659138416E+02  0.00000000000E+00 0. -1.
         11    1    3    3    0    0  0.65069780085E+01  0.89926978739E+00 -0.77294605677E+01  0.10143668463E+02  0.51100000000E-03 0. -1.
        -11    1    3    3    0    0  0.30835873231E+02 -0.11922262664E+02 -0.37357939240E+01  0.33270821772E+02  0.51100000000E-03 0.  1.
        -12    1    3    3    0    0 -0.16273014242E+01 -0.63505999660E+01  0.27633403401E+01  0.71143713488E+01  0.00000000000E+00 0.  1.
</event>
<event>
 7    1  0.2746803E-013  0.5052885E+02  0.7816164E-02  0.1300439E+00
        -11   -1    0    0    0    0  0.00000000000E+00  0.00000000000E+00  0.45593999997E+02  0.45594000000E+02  0.51100000000E-03 0.  1.
         11   -1    0    0    0    0 -0.00000000000E+00 -0.00000000000E+00 -0.45593999997E+02  0.45594000000E+02  0.51100000000E-03 0. -1.
    9900012    2    1    2    0    0  0.17469909569E+02 -0.29530556679E+02  0.21815483527E+02  0.50528845562E+02  0.29999956569E+02 0.  0.
         12    1    1    2    0    0 -0.17469909569E+02  0.29530556679E+02 -0.21815483527E+02  0.40659154438E+02  0.00000000000E+00 0. -1.
         11    1    3    3    0    0  0.82793843865E+01 -0.46025473259E+01 -0.89027470724E+00  0.95144225795E+01  0.51100000000E-03 0. -1.
        -11    1    3    3    0    0  0.66179038220E+01 -0.11697028579E+02  0.23965847197E+02  0.27476880476E+02  0.51100000000E-03 0.  1.
         12    1    3    3    0    0  0.25726213607E+01 -0.13230980774E+02 -0.12600889626E+01  0.13537542506E+02  0.00000000000E+00 0. -1.
</event>
<event>
 7    1  0.2746803E-013  0.5052886E+02  0.7816164E-02  0.1300439E+00
        -11   -1    0    0    0    0  0.00000000000E+00  0.00000000000E+00  0.45593999997E+02  0.45594000000E+02  0.51100000000E-03 0. -1.
         11   -1    0    0    0    0 -0.00000000000E+00 -0.00000000000E+00 -0.45593999997E+02  0.45594000000E+02  0.51100000000E-03 0.  1.
    9900012    2    1    2    0    0 -0.35296223269E+02 -0.78198406476E+01 -0.18606246922E+02  0.50528859462E+02  0.29999998819E+02 0.  0.
         12    1    1    2    0    0  0.35296223269E+02  0.78198406476E+01  0.18606246922E+02  0.40659140538E+02  0.00000000000E+00 0. -1.
         11    1    3    3    0    0 -0.15600234691E+02 -0.99390430802E+01 -0.15626188647E+01  0.18563234571E+02  0.51100000000E-03 0. -1.
        -11    1    3    3    0    0 -0.22912647445E+02  0.65916534330E-01 -0.12750260468E+02  0.26221420637E+02  0.51100000000E-03 0.  1.
         12    1    3    3    0    0  0.32166588676E+01  0.20532858983E+01 -0.42933675894E+01  0.57442042537E+01  0.00000000000E+00 0. -1.
</event>
<event>
 7    1  0.2746803E-013  0.5052886E+02  0.7816164E-02  0.1300439E+00
        -11   -1    0    0    0    0  0.00000000000E+00  0.00000000000E+00  0.45593999997E+02  0.45594000000E+02  0.51100000000E-03 0.  1.
         11   -1    0    0    0    0 -0.00000000000E+00 -0.00000000000E+00 -0.45593999997E+02  0.45594000000E+02  0.51100000000E-03 0. -1.
    9900012    2    1    2    0    0  0.10525944297E+02 -0.62186475715E+01  0.38777554221E+02  0.50528858441E+02  0.29999995716E+02 0.  0.
         12    1    1    2    0    0 -0.10525944297E+02  0.62186475715E+01 -0.38777554221E+02  0.40659141559E+02  0.00000000000E+00 0. -1.
         11    1    3    3    0    0  0.12421415077E+01 -0.79784082924E+01  0.13686951436E+02  0.15891209969E+02  0.51100000000E-03 0.  1.
        -11    1    3    3    0    0  0.13750912608E+02 -0.54842478360E+01  0.19384992816E+02  0.24391443553E+02  0.51100000000E-03 0. -1.
        -12    1    3    3    0    0 -0.44671098190E+01  0.72440085569E+01  0.57056099701E+01  0.10246204919E+02  0.00000000000E+00 0.  1.
</event>
<event>
 7    1  0.2746803E-013  0.5052900E+02  0.7816164E-02  0.1300438E+00
        -11   -1    0    0    0    0  0.00000000000E+00  0.00000000000E+00  0.45593999997E+02  0.45594000000E+02  0.51100000000E-03 0.  1.
         11   -1    0    0    0    0 -0.00000000000E+00 -0.00000000000E+00 -0.45593999997E+02  0.45594000000E+02  0.51100000000E-03 0. -1.
    9900012    2    1    2    0    0 -0.16279026245E+02 -0.27194911218E+02  0.25467315914E+02  0.50529002576E+02  0.30000433827E+02 0.  0.
         12    1    1    2    0    0  0.16279026245E+02  0.27194911218E+02 -0.25467315914E+02  0.40658997424E+02  0.00000000000E+00 0. -1.
         11    1    3    3    0    0 -0.39915158045E+01 -0.24875053891E+02  0.10029537045E+02  0.27116270357E+02  0.51100000000E-03 0. -1.
        -11    1    3    3    0    0  0.36455486085E+00  0.71273174621E+00 -0.17098822807E+01  0.18880107159E+01  0.51100000000E-03 0.  1.
        -12    1    3    3    0    0 -0.12652065301E+02 -0.30325890737E+01  0.17147661150E+02  0.21524721503E+02  0.00000000000E+00 0.  1.
</event>
<event>
 7    1  0.2746803E-013  0.5052886E+02  0.7816164E-02  0.1300439E+00
        -11   -1    0    0    0    0  0.00000000000E+00  0.00000000000E+00  0.45593999997E+02  0.45594000000E+02  0.51100000000E-03 0.  1.
         11   -1    0    0    0    0 -0.00000000000E+00 -0.00000000000E+00 -0.45593999997E+02  0.45594000000E+02  0.51100000000E-03 0. -1.
    9900012    2    1    2    0    0 -0.60943450590E+01 -0.38778327801E+02  0.10595549943E+02  0.50528862929E+02  0.30000009360E+02 0.  0.
         12    1    1    2    0    0  0.60943450590E+01  0.38778327801E+02 -0.10595549943E+02  0.40659137071E+02  0.00000000000E+00 0. -1.
         11    1    3    3    0    0 -0.59800349255E+01 -0.73553945252E+01 -0.83089116287E+01  0.12605580472E+02  0.51100000000E-03 0. -1.
        -11    1    3    3    0    0  0.15289097079E+01 -0.20789772093E+01  0.45134884075E+01  0.51991623362E+01  0.51100000000E-03 0.  1.
        -12    1    3    3    0    0 -0.16432198414E+01 -0.29343956066E+02  0.14390973164E+02  0.32724120121E+02  0.00000000000E+00 0.  1.
</event>
<event>
 7    1  0.2746803E-013  0.5052885E+02  0.7816164E-02  0.1300439E+00
        -11   -1    0    0    0    0  0.00000000000E+00  0.00000000000E+00  0.45593999997E+02  0.45594000000E+02  0.51100000000E-03 0.  1.
         11   -1    0    0    0    0 -0.00000000000E+00 -0.00000000000E+00 -0.45593999997E+02  0.45594000000E+02  0.51100000000E-03 0. -1.
    9900012    2    1    2    0    0  0.38854406483E+02 -0.11559148887E+02  0.31444587393E+01  0.50528850391E+02  0.29999971250E+02 0.  0.
         12    1    1    2    0    0 -0.38854406483E+02  0.11559148887E+02 -0.31444587393E+01  0.40659149609E+02  0.00000000000E+00 0. -1.
         11    1    3    3    0    0  0.66963009186E+01  0.59712109539E+01  0.56252177996E+01  0.10589564760E+02  0.51100000000E-03 0. -1.
        -11    1    3    3    0    0  0.16645941121E+02 -0.34581704647E+01  0.49643053696E+01  0.17711313526E+02  0.51100000000E-03 0.  1.
         12    1    3    3    0    0  0.15512164444E+02 -0.14072189376E+02 -0.74450644299E+01  0.22227972106E+02  0.00000000000E+00 0. -1.
</event>
<event>
 7    1  0.2746803E-013  0.5052886E+02  0.7816164E-02  0.1300439E+00
        -11   -1    0    0    0    0  0.00000000000E+00  0.00000000000E+00  0.45593999997E+02  0.45594000000E+02  0.51100000000E-03 0.  1.
         11   -1    0    0    0    0 -0.00000000000E+00 -0.00000000000E+00 -0.45593999997E+02  0.45594000000E+02  0.51100000000E-03 0. -1.
    9900012    2    1    2    0    0  0.14833601777E+02 -0.28247503213E+02  0.25203335163E+02  0.50528864706E+02  0.30000014762E+02 0.  0.
         12    1    1    2    0    0 -0.14833601777E+02  0.28247503213E+02 -0.25203335163E+02  0.40659135294E+02  0.00000000000E+00 0. -1.
         11    1    3    3    0    0  0.57300287690E+01 -0.18286200289E+02  0.20401002359E+02  0.27989627511E+02  0.51100000000E-03 0. -1.
        -11    1    3    3    0    0 -0.40824800928E+01 -0.73270353725E+01  0.32823409762E+01  0.90069891530E+01  0.51100000000E-03 0.  1.
         12    1    3    3    0    0  0.13186053101E+02 -0.26342675518E+01  0.15199918280E+01  0.13532248042E+02  0.00000000000E+00 0. -1.
</event>
<event>
 7    1  0.2746803E-013  0.5052887E+02  0.7816164E-02  0.1300439E+00
        -11   -1    0    0    0    0  0.00000000000E+00  0.00000000000E+00  0.45593999997E+02  0.45594000000E+02  0.51100000000E-03 0.  1.
         11   -1    0    0    0    0 -0.00000000000E+00 -0.00000000000E+00 -0.45593999997E+02  0.45594000000E+02  0.51100000000E-03 0. -1.
    9900012    2    1    2    0    0 -0.14888242508E+02  0.66464969251E+01  0.37246866439E+02  0.50528871309E+02  0.30000034831E+02 0.  0.
         12    1    1    2    0    0  0.14888242508E+02 -0.66464969251E+01 -0.37246866439E+02  0.40659128691E+02  0.00000000000E+00 0. -1.
         11    1    3    3    0    0 -0.13340732358E+01  0.15060023114E+02  0.11884411559E+02  0.19230790050E+02  0.51100000000E-03 0. -1.
        -11    1    3    3    0    0 -0.34502700570E+00 -0.14773829107E-01  0.76594673896E+01  0.76672487148E+01  0.51100000000E-03 0.  1.
        -12    1    3    3    0    0 -0.13209142267E+02 -0.83987523598E+01  0.17702987491E+02  0.23630832544E+02  0.00000000000E+00 0.  1.
</event>
<event>
 7    1  0.2746803E-013  0.5052886E+02  0.7816164E-02  0.1300439E+00
        -11   -1    0    0    0    0  0.00000000000E+00  0.00000000000E+00  0.45593999997E+02  0.45594000000E+02  0.51100000000E-03 0.  1.
         11   -1    0    0    0    0 -0.00000000000E+00 -0.00000000000E+00 -0.45593999997E+02  0.45594000000E+02  0.51100000000E-03 0. -1.
    9900012    2    1    2    0    0 -0.29863153971E+02 -0.42774529817E+01  0.27259143513E+02  0.50528862354E+02  0.30000007610E+02 0.  0.
         12    1    1    2    0    0  0.29863153971E+02  0.42774529817E+01 -0.27259143513E+02  0.40659137646E+02  0.00000000000E+00 0. -1.
         11    1    3    3    0    0 -0.23416759273E+02 -0.10528477487E+02  0.17203687900E+02  0.30905668261E+02  0.51100000000E-03 0. -1.
        -11    1    3    3    0    0 -0.96709777610E+00  0.39288937829E+01  0.12538287807E+02  0.13174981817E+02  0.51100000000E-03 0.  1.
         12    1    3    3    0    0 -0.54792969212E+01  0.23221307226E+01 -0.24828321948E+01  0.64482122756E+01  0.00000000000E+00 0. -1.
</event>
<event>
 7    1  0.2746803E-013  0.5052887E+02  0.7816164E-02  0.1300439E+00
        -11   -1    0    0    0    0  0.00000000000E+00  0.00000000000E+00  0.45593999997E+02  0.45594000000E+02  0.51100000000E-03 0.  1.
         11   -1    0    0    0    0 -0.00000000000E+00 -0.00000000000E+00 -0.45593999997E+02  0.45594000000E+02  0.51100000000E-03 0. -1.
    9900012    2    1    2    0    0  0.21163421933E+02  0.31273967895E+02  0.15073599066E+02  0.50528869604E+02  0.30000029648E+02 0.  0.
         12    1    1    2    0    0 -0.21163421933E+02 -0.31273967895E+02 -0.15073599066E+02  0.40659130396E+02  0.00000000000E+00 0. -1.
         11    1    3    3    0    0  0.89823871175E+01  0.47139867833E+01  0.47890323751E+01  0.11217833172E+02  0.51100000000E-03 0. -1.
        -11    1    3    3    0    0  0.10686430213E+02  0.23657071039E+02  0.17557487213E+02  0.31338828286E+02  0.51100000000E-03 0.  1.
        -12    1    3    3    0    0  0.14946046019E+01  0.29029100724E+01 -0.72729205221E+01  0.79722081461E+01  0.00000000000E+00 0.  1.
</event>
<event>
 7    1  0.2746803E-013  0.5052885E+02  0.7816164E-02  0.1300439E+00
        -11   -1    0    0    0    0  0.00000000000E+00  0.00000000000E+00  0.45593999997E+02  0.45594000000E+02  0.51100000000E-03 0.  1.
         11   -1    0    0    0    0 -0.00000000000E+00 -0.00000000000E+00 -0.45593999997E+02  0.45594000000E+02  0.51100000000E-03 0. -1.
    9900012    2    1    2    0    0  0.21068812080E+02  0.17430322489E+01  0.34730870676E+02  0.50528851192E+02  0.29999973684E+02 0.  0.
         12    1    1    2    0    0 -0.21068812080E+02 -0.17430322489E+01 -0.34730870676E+02  0.40659148808E+02  0.00000000000E+00 0. -1.
         11    1    3    3    0    0  0.80969770508E+01 -0.41333104697E+01  0.14026619586E+02  0.16715003742E+02  0.51100000000E-03 0. -1.
        -11    1    3    3    0    0  0.18440952408E+02  0.35571170830E+01  0.93051142550E+01  0.20959650742E+02  0.51100000000E-03 0.  1.
         12    1    3    3    0    0 -0.54691173790E+01  0.23192256356E+01  0.11399136834E+02  0.12854196708E+02  0.00000000000E+00 0. -1.
</event>
<event>
 7    1  0.2746803E-013  0.5052885E+02  0.7816164E-02  0.1300439E+00
        -11   -1    0    0    0    0  0.00000000000E+00  0.00000000000E+00  0.45593999997E+02  0.45594000000E+02  0.51100000000E-03 0.  1.
         11   -1    0    0    0    0 -0.00000000000E+00 -0.00000000000E+00 -0.45593999997E+02  0.45594000000E+02  0.51100000000E-03 0. -1.
    9900012    2    1    2    0    0 -0.15662143516E+02  0.77332418209E+01  0.36715941647E+02  0.50528854170E+02  0.29999982735E+02 0.  0.
         12    1    1    2    0    0  0.15662143516E+02 -0.77332418209E+01 -0.36715941647E+02  0.40659145830E+02  0.00000000000E+00 0. -1.
         11    1    3    3    0    0 -0.70681418210E+00  0.71449908827E+01 -0.15737382105E+01  0.73503151782E+01  0.51100000000E-03 0. -1.
        -11    1    3    3    0    0 -0.23125672219E+01  0.58278516512E+01  0.11769436963E+02  0.13335346591E+02  0.51100000000E-03 0.  1.
        -12    1    3    3    0    0 -0.12642762112E+02 -0.52396007131E+01  0.26520242895E+02  0.29843192401E+02  0.00000000000E+00 0.  1.
</event>
<event>
 7    1  0.2746803E-013  0.5052886E+02  0.7816164E-02  0.1300439E+00
        -11   -1    0    0    0    0  0.00000000000E+00  0.00000000000E+00  0.45593999997E+02  0.45594000000E+02  0.51100000000E-03 0. -1.
         11   -1    0    0    0    0 -0.00000000000E+00 -0.00000000000E+00 -0.45593999997E+02  0.45594000000E+02  0.51100000000E-03 0.  1.
    9900012    2    1    2    0    0  0.28899919789E+02  0.28518320867E+02 -0.21600671928E+01  0.50528857373E+02  0.29999992470E+02 0.  0.
         12    1    1    2    0    0 -0.28899919789E+02 -0.28518320867E+02  0.21600671928E+01  0.40659142627E+02  0.00000000000E+00 0. -1.
         11    1    3    3    0    0  0.79227036012E+01  0.37814309722E+01  0.47480257315E+01  0.99805912229E+01  0.51100000000E-03 0. -1.
        -11    1    3    3    0    0  0.64363127401E+00 -0.43851241995E+01 -0.56326643204E+00  0.44677561255E+01  0.51100000000E-03 0.  1.
        -12    1    3    3    0    0  0.20333584914E+02  0.29122014095E+02 -0.63448264923E+01  0.36080510024E+02  0.00000000000E+00 0.  1.
</event>
<event>
 7    1  0.2746803E-013  0.5052888E+02  0.7816164E-02  0.1300439E+00
        -11   -1    0    0    0    0  0.00000000000E+00  0.00000000000E+00  0.45593999997E+02  0.45594000000E+02  0.51100000000E-03 0. -1.
         11   -1    0    0    0    0 -0.00000000000E+00 -0.00000000000E+00 -0.45593999997E+02  0.45594000000E+02  0.51100000000E-03 0.  1.
    9900012    2    1    2    0    0 -0.17399302877E+02 -0.35771303227E+02  0.84167745807E+01  0.50528880856E+02  0.30000063851E+02 0.  0.
         12    1    1    2    0    0  0.17399302877E+02  0.35771303227E+02 -0.84167745807E+01  0.40659119144E+02  0.00000000000E+00 0. -1.
         11    1    3    3    0    0 -0.10765145433E+02 -0.11342843205E+02 -0.47123095376E+01  0.16332614904E+02  0.51100000000E-03 0. -1.
        -11    1    3    3    0    0 -0.13038356491E+02 -0.12647882633E+02  0.73786279560E+01  0.19606423077E+02  0.51100000000E-03 0.  1.
         12    1    3    3    0    0  0.64041990472E+01 -0.11780577389E+02  0.57504561624E+01  0.14589842876E+02  0.00000000000E+00 0. -1.
</event>
<event>
 7    1  0.2746803E-013  0.5052887E+02  0.7816164E-02  0.1300439E+00
        -11   -1    0    0    0    0  0.00000000000E+00  0.00000000000E+00  0.45593999997E+02  0.45594000000E+02  0.51100000000E-03 0. -1.
         11   -1    0    0    0    0 -0.00000000000E+00 -0.00000000000E+00 -0.45593999997E+02  0.45594000000E+02  0.51100000000E-03 0.  1.
    9900012    2    1    2    0    0 -0.25417990946E+02  0.31734161607E+02  0.18390942507E+00  0.50528866964E+02  0.30000021623E+02 0.  0.
         12    1    1    2    0    0  0.25417990946E+02 -0.31734161607E+02 -0.18390942507E+00  0.40659133036E+02  0.00000000000E+00 0. -1.
         11    1    3    3    0    0  0.49729566433E+01  0.73072066140E+01  0.42246497709E+01  0.97965928886E+01  0.51100000000E-03 0. -1.
        -11    1    3    3    0    0 -0.98170145356E+00  0.52311521436E+01 -0.14544838792E+01  0.55176275798E+01  0.51100000000E-03 0.  1.
        -12    1    3    3    0    0 -0.29409246135E+02  0.19195802849E+02 -0.25862564666E+01  0.35214646495E+02  0.00000000000E+00 0.  1.
</event>
<event>
 7    1  0.2746803E-013  0.5052886E+02  0.7816164E-02  0.1300439E+00
        -11   -1    0    0    0    0  0.00000000000E+00  0.00000000000E+00  0.45593999997E+02  0.45594000000E+02  0.51100000000E-03 0. -1.
         11   -1    0    0    0    0 -0.00000000000E+00 -0.00000000000E+00 -0.45593999997E+02  0.45594000000E+02  0.51100000000E-03 0.  1.
    9900012    2    1    2    0    0  0.31659276639E+02  0.81836287281E+01 -0.24163691234E+02  0.50528861414E+02  0.30000004755E+02 0.  0.
         12    1    1    2    0    0 -0.31659276639E+02 -0.81836287281E+01  0.24163691234E+02  0.40659138586E+02  0.00000000000E+00 0. -1.
         11    1    3    3    0    0  0.66945740381E+01 -0.45592705146E+01  0.33330568520E+00  0.81065012255E+01  0.51100000000E-03 0. -1.
        -11    1    3    3    0    0  0.64019814802E+01  0.12322508544E+02 -0.33574901161E+01  0.14286438458E+02  0.51100000000E-03 0.  1.
        -12    1    3    3    0    0  0.18562721121E+02  0.42039069921E+00 -0.21139506803E+02  0.28135921731E+02  0.00000000000E+00 0.  1.
</event>
<event>
 7    1  0.2746803E-013  0.5052873E+02  0.7816164E-02  0.1300439E+00
        -11   -1    0    0    0    0  0.00000000000E+00  0.00000000000E+00  0.45593999997E+02  0.45594000000E+02  0.51100000000E-03 0. -1.
         11   -1    0    0    0    0 -0.00000000000E+00 -0.00000000000E+00 -0.45593999997E+02  0.45594000000E+02  0.51100000000E-03 0.  1.
    9900012    2    1    2    0    0  0.16581003210E+02  0.29409106729E+02 -0.22657251926E+02  0.50528729336E+02  0.29999603288E+02 0.  0.
         12    1    1    2    0    0 -0.16581003210E+02 -0.29409106729E+02  0.22657251926E+02  0.40659270664E+02  0.00000000000E+00 0. -1.
         11    1    3    3    0    0 -0.51654831965E+01  0.11895290713E+02 -0.12994486559E+02  0.18358563097E+02  0.51100000000E-03 0. -1.
        -11    1    3    3    0    0  0.10420194914E+02  0.13129744685E+02 -0.10849706054E+02  0.19967142491E+02  0.51100000000E-03 0.  1.
        -12    1    3    3    0    0  0.11326291492E+02  0.43840713316E+01  0.11869406865E+01  0.12203023748E+02  0.00000000000E+00 0.  1.
</event>
<event>
 7    1  0.2746803E-013  0.5052887E+02  0.7816164E-02  0.1300439E+00
        -11   -1    0    0    0    0  0.00000000000E+00  0.00000000000E+00  0.45593999997E+02  0.45594000000E+02  0.51100000000E-03 0.  1.
         11   -1    0    0    0    0 -0.00000000000E+00 -0.00000000000E+00 -0.45593999997E+02  0.45594000000E+02  0.51100000000E-03 0. -1.
    9900012    2    1    2    0    0 -0.20357997059E+02 -0.51054858657E+01  0.34823136853E+02  0.50528869532E+02  0.30000029428E+02 0.  0.
         12    1    1    2    0    0  0.20357997059E+02  0.51054858657E+01 -0.34823136853E+02  0.40659130468E+02  0.00000000000E+00 0. -1.
         11    1    3    3    0    0 -0.69081311025E+01  0.15196997845E+00 -0.15770957580E+00  0.69116020412E+01  0.51100000000E-03 0. -1.
        -11    1    3    3    0    0 -0.15688860250E+02  0.10168284278E+01  0.33180063990E+02  0.36716357698E+02  0.51100000000E-03 0.  1.
         12    1    3    3    0    0  0.22389942934E+01 -0.62742842719E+01  0.18007824387E+01  0.69009097923E+01  0.00000000000E+00 0. -1.
</event>
<event>
 7    1  0.2746803E-013  0.5052886E+02  0.7816164E-02  0.1300439E+00
        -11   -1    0    0    0    0  0.00000000000E+00  0.00000000000E+00  0.45593999997E+02  0.45594000000E+02  0.51100000000E-03 0. -1.
         11   -1    0    0    0    0 -0.00000000000E+00 -0.00000000000E+00 -0.45593999997E+02  0.45594000000E+02  0.51100000000E-03 0.  1.
    9900012    2    1    2    0    0 -0.11574509312E+02  0.83877626892E+01 -0.38063659313E+02  0.50528856022E+02  0.29999988363E+02 0.  0.
         12    1    1    2    0    0  0.11574509312E+02 -0.83877626892E+01  0.38063659313E+02  0.40659143978E+02  0.00000000000E+00 0. -1.
         11    1    3    3    0    0 -0.24951198855E+01  0.52449398385E+01 -0.43956700072E+01  0.72840189611E+01  0.51100000000E-03 0. -1.
        -11    1    3    3    0    0  0.57896883670E+01  0.24529929518E+01 -0.25504442812E+02  0.26268122682E+02  0.51100000000E-03 0.  1.
         12    1    3    3    0    0 -0.14869077794E+02  0.68982989881E+00 -0.81635464936E+01  0.16976714378E+02  0.00000000000E+00 0. -1.
</event>
<event>
 7    1  0.2746803E-013  0.5052884E+02  0.7816164E-02  0.1300439E+00
        -11   -1    0    0    0    0  0.00000000000E+00  0.00000000000E+00  0.45593999997E+02  0.45594000000E+02  0.51100000000E-03 0.  1.
         11   -1    0    0    0    0 -0.00000000000E+00 -0.00000000000E+00 -0.45593999997E+02  0.45594000000E+02  0.51100000000E-03 0. -1.
    9900012    2    1    2    0    0  0.96691849174E+01  0.25616832180E+02  0.30057478086E+02  0.50528840924E+02  0.29999942473E+02 0.  0.
         12    1    1    2    0    0 -0.96691849174E+01 -0.25616832180E+02 -0.30057478086E+02  0.40659159076E+02  0.00000000000E+00 0. -1.
         11    1    3    3    0    0  0.32688943957E+00  0.38942508952E+01 -0.98824383734E-01  0.39091959864E+01  0.51100000000E-03 0. -1.
        -11    1    3    3    0    0 -0.46871275291E+01  0.14686826508E+02  0.26255986060E+02  0.30447476769E+02  0.51100000000E-03 0.  1.
         12    1    3    3    0    0  0.14029423007E+02  0.70357547769E+01  0.39003164092E+01  0.16172168169E+02  0.00000000000E+00 0. -1.
</event>
<event>
 7    1  0.2746803E-013  0.5052886E+02  0.7816164E-02  0.1300439E+00
        -11   -1    0    0    0    0  0.00000000000E+00  0.00000000000E+00  0.45593999997E+02  0.45594000000E+02  0.51100000000E-03 0.  1.
         11   -1    0    0    0    0 -0.00000000000E+00 -0.00000000000E+00 -0.45593999997E+02  0.45594000000E+02  0.51100000000E-03 0. -1.
    9900012    2    1    2    0    0  0.35493687547E+02 -0.86820500234E+01  0.17832148930E+02  0.50528863465E+02  0.30000010987E+02 0.  0.
         12    1    1    2    0    0 -0.35493687547E+02  0.86820500234E+01 -0.17832148930E+02  0.40659136535E+02  0.00000000000E+00 0. -1.
         11    1    3    3    0    0  0.76154452257E+01  0.18774244649E+01 -0.70292308505E+01  0.10532322404E+02  0.51100000000E-03 0. -1.
        -11    1    3    3    0    0  0.12478416400E+02 -0.31710596365E+01  0.50279466601E+01  0.13821965958E+02  0.51100000000E-03 0.  1.
        -12    1    3    3    0    0  0.15399825921E+02 -0.73884148517E+01  0.19833433121E+02  0.26174575102E+02  0.00000000000E+00 0.  1.
</event>
<event>
 7    1  0.2746803E-013  0.5052886E+02  0.7816164E-02  0.1300439E+00
        -11   -1    0    0    0    0  0.00000000000E+00  0.00000000000E+00  0.45593999997E+02  0.45594000000E+02  0.51100000000E-03 0.  1.
         11   -1    0    0    0    0 -0.00000000000E+00 -0.00000000000E+00 -0.45593999997E+02  0.45594000000E+02  0.51100000000E-03 0. -1.
    9900012    2    1    2    0    0  0.58952127214E+01 -0.25070507194E+02  0.31462392146E+02  0.50528856089E+02  0.29999988570E+02 0.  0.
         12    1    1    2    0    0 -0.58952127214E+01  0.25070507194E+02 -0.31462392146E+02  0.40659143911E+02  0.00000000000E+00 0. -1.
         11    1    3    3    0    0  0.37455369291E+01 -0.17890171792E+01 -0.24315467088E+01  0.48106183608E+01  0.51100000000E-03 0. -1.
        -11    1    3    3    0    0  0.92328312258E+01 -0.19978694346E+02  0.19810553985E+02  0.29611677589E+02  0.51100000000E-03 0.  1.
         12    1    3    3    0    0 -0.70831554336E+01 -0.33027956688E+01  0.14083384870E+02  0.16106560140E+02  0.00000000000E+00 0. -1.
</event>
<event>
 7    1  0.2746803E-013  0.5052887E+02  0.7816164E-02  0.1300439E+00
        -11   -1    0    0    0    0  0.00000000000E+00  0.00000000000E+00  0.45593999997E+02  0.45594000000E+02  0.51100000000E-03 0. -1.
         11   -1    0    0    0    0 -0.00000000000E+00 -0.00000000000E+00 -0.45593999997E+02  0.45594000000E+02  0.51100000000E-03 0.  1.
    9900012    2    1    2    0    0 -0.25047957059E+02  0.28728044565E+02 -0.14158547151E+02  0.50528866281E+02  0.30000019548E+02 0.  0.
         12    1    1    2    0    0  0.25047957059E+02 -0.28728044565E+02  0.14158547151E+02  0.40659133719E+02  0.00000000000E+00 0. -1.
         11    1    3    3    0    0 -0.11702525420E+02  0.12575023555E+02 -0.15503488570E+02  0.23139543571E+02  0.51100000000E-03 0. -1.
        -11    1    3    3    0    0 -0.21906099177E+01  0.15572071609E+02 -0.16858444614E+01  0.15815506878E+02  0.51100000000E-03 0.  1.
         12    1    3    3    0    0 -0.11154821721E+02  0.58094940140E+00  0.30307858804E+01  0.11573815831E+02  0.00000000000E+00 0. -1.
</event>
<event>
 7    1  0.2746803E-013  0.5052885E+02  0.7816164E-02  0.1300439E+00
        -11   -1    0    0    0    0  0.00000000000E+00  0.00000000000E+00  0.45593999997E+02  0.45594000000E+02  0.51100000000E-03 0.  1.
         11   -1    0    0    0    0 -0.00000000000E+00 -0.00000000000E+00 -0.45593999997E+02  0.45594000000E+02  0.51100000000E-03 0. -1.
    9900012    2    1    2    0    0  0.26910019558E+02  0.14500023009E+02 -0.26809824575E+02  0.50528849571E+02  0.29999968755E+02 0.  0.
         12    1    1    2    0    0 -0.26910019558E+02 -0.14500023009E+02  0.26809824575E+02  0.40659150429E+02  0.00000000000E+00 0. -1.
         11    1    3    3    0    0  0.12933817383E+02 -0.33937185298E+01 -0.19655734563E+02  0.23772859715E+02  0.51100000000E-03 0. -1.
        -11    1    3    3    0    0  0.10095200675E+02  0.33465600205E+01 -0.40685716089E+01  0.11387089876E+02  0.51100000000E-03 0.  1.
         12    1    3    3    0    0  0.38810015000E+01  0.14547181519E+02 -0.30855184033E+01  0.15368899980E+02  0.00000000000E+00 0. -1.
</event>
<event>
 7    1  0.2746803E-013  0.5052886E+02  0.7816164E-02  0.1300439E+00
        -11   -1    0    0    0    0  0.00000000000E+00  0.00000000000E+00  0.45593999997E+02  0.45594000000E+02  0.51100000000E-03 0. -1.
         11   -1    0    0    0    0 -0.00000000000E+00 -0.00000000000E+00 -0.45593999997E+02  0.45594000000E+02  0.51100000000E-03 0.  1.
    9900012    2    1    2    0    0  0.33547601979E+02  0.21800556872E+02 -0.72428992435E+01  0.50528862430E+02  0.30000007842E+02 0.  0.
         12    1    1    2    0    0 -0.33547601979E+02 -0.21800556872E+02  0.72428992435E+01  0.40659137570E+02  0.00000000000E+00 0. -1.
         11    1    3    3    0    0  0.37113559093E+01  0.25834505282E+01 -0.71985426661E+01  0.85010232380E+01  0.51100000000E-03 0. -1.
        -11    1    3    3    0    0  0.66718908787E+01 -0.44887752825E+01  0.33474643458E+01  0.87102668869E+01  0.51100000000E-03 0.  1.
        -12    1    3    3    0    0  0.23164355191E+02  0.23705881626E+02 -0.33918209232E+01  0.33317572305E+02  0.00000000000E+00 0.  1.
</event>
<event>
 7    1  0.2746803E-013  0.5052886E+02  0.7816164E-02  0.1300439E+00
        -11   -1    0    0    0    0  0.00000000000E+00  0.00000000000E+00  0.45593999997E+02  0.45594000000E+02  0.51100000000E-03 0.  1.
         11   -1    0    0    0    0 -0.00000000000E+00 -0.00000000000E+00 -0.45593999997E+02  0.45594000000E+02  0.51100000000E-03 0. -1.
    9900012    2    1    2    0    0  0.30682439624E+02  0.26644912334E+02  0.13424639702E+01  0.50528860018E+02  0.30000000510E+02 0.  0.
         12    1    1    2    0    0 -0.30682439624E+02 -0.26644912334E+02 -0.13424639702E+01  0.40659139982E+02  0.00000000000E+00 0. -1.
         11    1    3    3    0    0  0.56674711804E+01  0.20224034946E+02 -0.39951471475E+01  0.21379733863E+02  0.51100000000E-03 0. -1.
        -11    1    3    3    0    0  0.60519280561E+01  0.27898175811E+01 -0.39257640594E+01  0.77343738624E+01  0.51100000000E-03 0.  1.
        -12    1    3    3    0    0  0.18963040387E+02  0.36310598072E+01  0.92633751771E+01  0.21414752292E+02  0.00000000000E+00 0.  1.
</event>
<event>
 7    1  0.2746803E-013  0.5052886E+02  0.7816164E-02  0.1300439E+00
        -11   -1    0    0    0    0  0.00000000000E+00  0.00000000000E+00  0.45593999997E+02  0.45594000000E+02  0.51100000000E-03 0.  1.
         11   -1    0    0    0    0 -0.00000000000E+00 -0.00000000000E+00 -0.45593999997E+02  0.45594000000E+02  0.51100000000E-03 0. -1.
    9900012    2    1    2    0    0 -0.11070975417E+02 -0.10745452060E+02  0.37618271864E+02  0.50528860626E+02  0.30000002358E+02 0.  0.
         12    1    1    2    0    0  0.11070975417E+02  0.10745452060E+02 -0.37618271864E+02  0.40659139374E+02  0.00000000000E+00 0. -1.
         11    1    3    3    0    0 -0.89672425022E+01  0.35949219801E+01  0.35404449255E+01  0.10289297968E+02  0.51100000000E-03 0. -1.
        -11    1    3    3    0    0 -0.75881522438E+01 -0.36384063599E+01  0.20161585398E+02  0.21847370124E+02  0.51100000000E-03 0.  1.
        -12    1    3    3    0    0  0.54844193290E+01 -0.10701967680E+02  0.13916241540E+02  0.18392192534E+02  0.00000000000E+00 0.  1.
</event>
<event>
 7    1  0.2746803E-013  0.5052886E+02  0.7816164E-02  0.1300439E+00
        -11   -1    0    0    0    0  0.00000000000E+00  0.00000000000E+00  0.45593999997E+02  0.45594000000E+02  0.51100000000E-03 0. -1.
         11   -1    0    0    0    0 -0.00000000000E+00 -0.00000000000E+00 -0.45593999997E+02  0.45594000000E+02  0.51100000000E-03 0.  1.
    9900012    2    1    2    0    0  0.31047784281E+02 -0.23763589241E+02 -0.11157616747E+02  0.50528862112E+02  0.30000006875E+02 0.  0.
         12    1    1    2    0    0 -0.31047784281E+02  0.23763589241E+02  0.11157616747E+02  0.40659137888E+02  0.00000000000E+00 0. -1.
         11    1    3    3    0    0  0.16408937970E+02 -0.16094937262E+02 -0.22206301600E+01  0.23091804809E+02  0.51100000000E-03 0. -1.
        -11    1    3    3    0    0  0.13771477561E+02 -0.33625427857E+01  0.31973381763E+01  0.14532145742E+02  0.51100000000E-03 0.  1.
         12    1    3    3    0    0  0.86736875030E+00 -0.43061091929E+01 -0.12134324763E+02  0.12904911561E+02  0.00000000000E+00 0. -1.
</event>
<event>
 7    1  0.2746803E-013  0.5052887E+02  0.7816164E-02  0.1300439E+00
        -11   -1    0    0    0    0  0.00000000000E+00  0.00000000000E+00  0.45593999997E+02  0.45594000000E+02  0.51100000000E-03 0. -1.
         11   -1    0    0    0    0 -0.00000000000E+00 -0.00000000000E+00 -0.45593999997E+02  0.45594000000E+02  0.51100000000E-03 0.  1.
    9900012    2    1    2    0    0  0.28801989297E+02 -0.21111524572E+01 -0.28620860509E+02  0.50528865621E+02  0.30000017540E+02 0.  0.
         12    1    1    2    0    0 -0.28801989297E+02  0.21111524572E+01  0.28620860509E+02  0.40659134379E+02  0.00000000000E+00 0. -1.
         11    1    3    3    0    0  0.11051899279E+01 -0.63436663022E+01 -0.32743921574E+01  0.72239318375E+01  0.51100000000E-03 0. -1.
        -11    1    3    3    0    0  0.16894671074E+02  0.81450695255E+01 -0.25693512790E+02  0.31810826271E+02  0.51100000000E-03 0.  1.
         12    1    3    3    0    0  0.10802128295E+02 -0.39125556804E+01  0.34704443810E+00  0.11494107512E+02  0.00000000000E+00 0. -1.
</event>
<event>
 7    1  0.2746803E-013  0.5052886E+02  0.7816164E-02  0.1300439E+00
        -11   -1    0    0    0    0  0.00000000000E+00  0.00000000000E+00  0.45593999997E+02  0.45594000000E+02  0.51100000000E-03 0. -1.
         11   -1    0    0    0    0 -0.00000000000E+00 -0.00000000000E+00 -0.45593999997E+02  0.45594000000E+02  0.51100000000E-03 0.  1.
    9900012    2    1    2    0    0  0.26965704710E+01  0.19625276873E+01 -0.40522127948E+02  0.50528857600E+02  0.29999993161E+02 0.  0.
         12    1    1    2    0    0 -0.26965704710E+01 -0.19625276873E+01  0.40522127948E+02  0.40659142400E+02  0.00000000000E+00 0. -1.
         11    1    3    3    0    0  0.29744715878E-01  0.30990405799E+01 -0.22974941372E+02  0.23183029754E+02  0.51100000000E-03 0. -1.
        -11    1    3    3    0    0 -0.81597820091E+01  0.92907751371E+00 -0.13098203186E+02  0.15459888564E+02  0.51100000000E-03 0.  1.
         12    1    3    3    0    0  0.10826607764E+02 -0.20655904064E+01 -0.44489833912E+01  0.11885939282E+02  0.00000000000E+00 0. -1.
</event>
<event>
 7    1  0.2746803E-013  0.5052887E+02  0.7816164E-02  0.1300439E+00
        -11   -1    0    0    0    0  0.00000000000E+00  0.00000000000E+00  0.45593999997E+02  0.45594000000E+02  0.51100000000E-03 0. -1.
         11   -1    0    0    0    0 -0.00000000000E+00 -0.00000000000E+00 -0.45593999997E+02  0.45594000000E+02  0.51100000000E-03 0.  1.
    9900012    2    1    2    0    0  0.29352994740E+01  0.24926792695E+01 -0.40476360182E+02  0.50528866137E+02  0.30000019109E+02 0.  0.
         12    1    1    2    0    0 -0.29352994740E+01 -0.24926792695E+01  0.40476360182E+02  0.40659133863E+02  0.00000000000E+00 0. -1.
         11    1    3    3    0    0 -0.36757115620E+01 -0.24672648314E+01 -0.11769832235E+01  0.45807795193E+01  0.51100000000E-03 0. -1.
        -11    1    3    3    0    0 -0.46992860201E+01 -0.78404045727E+00 -0.29596291401E+02  0.29977299303E+02  0.51100000000E-03 0.  1.
         12    1    3    3    0    0  0.11310297056E+02  0.57439845581E+01 -0.97030855571E+01  0.15970787314E+02  0.00000000000E+00 0. -1.
</event>
<event>
 7    1  0.2746803E-013  0.5052886E+02  0.7816164E-02  0.1300439E+00
        -11   -1    0    0    0    0  0.00000000000E+00  0.00000000000E+00  0.45593999997E+02  0.45594000000E+02  0.51100000000E-03 0.  1.
         11   -1    0    0    0    0 -0.00000000000E+00 -0.00000000000E+00 -0.45593999997E+02  0.45594000000E+02  0.51100000000E-03 0. -1.
    9900012    2    1    2    0    0 -0.26076455127E+02 -0.12945493817E+01  0.31169024622E+02  0.50528862454E+02  0.30000007915E+02 0.  0.
         12    1    1    2    0    0  0.26076455127E+02  0.12945493817E+01 -0.31169024622E+02  0.40659137546E+02  0.00000000000E+00 0. -1.
         11    1    3    3    0    0 -0.16943349895E+02  0.22216400682E+01  0.51770009895E+01  0.17855366974E+02  0.51100000000E-03 0. -1.
        -11    1    3    3    0    0 -0.84485347651E+01  0.56873021306E+01  0.16813039185E+02  0.19657096228E+02  0.51100000000E-03 0.  1.
        -12    1    3    3    0    0 -0.68457046634E+00 -0.92034915805E+01  0.91789844475E+01  0.13016399252E+02  0.00000000000E+00 0.  1.
</event>
<event>
 7    1  0.2746803E-013  0.5052887E+02  0.7816164E-02  0.1300439E+00
        -11   -1    0    0    0    0  0.00000000000E+00  0.00000000000E+00  0.45593999997E+02  0.45594000000E+02  0.51100000000E-03 0.  1.
         11   -1    0    0    0    0 -0.00000000000E+00 -0.00000000000E+00 -0.45593999997E+02  0.45594000000E+02  0.51100000000E-03 0. -1.
    9900012    2    1    2    0    0 -0.39915707073E+02 -0.73724422455E+01 -0.23555232517E+01  0.50528867378E+02  0.30000022883E+02 0.  0.
         12    1    1    2    0    0  0.39915707073E+02  0.73724422455E+01  0.23555232517E+01  0.40659132622E+02  0.00000000000E+00 0. -1.
         11    1    3    3    0    0 -0.44566342044E+01 -0.37940788315E+01 -0.41547765141E+01  0.71776591417E+01  0.51100000000E-03 0. -1.
        -11    1    3    3    0    0 -0.36221946271E+02 -0.94066919990E+01  0.19093461317E+01  0.37472134299E+02  0.51100000000E-03 0.  1.
         12    1    3    3    0    0  0.76287340277E+00  0.58283285849E+01 -0.11009286939E+00  0.58790739375E+01  0.00000000000E+00 0. -1.
</event>
<event>
 7    1  0.2746803E-013  0.5052886E+02  0.7816164E-02  0.1300439E+00
        -11   -1    0    0    0    0  0.00000000000E+00  0.00000000000E+00  0.45593999997E+02  0.45594000000E+02  0.51100000000E-03 0.  1.
         11   -1    0    0    0    0 -0.00000000000E+00 -0.00000000000E+00 -0.45593999997E+02  0.45594000000E+02  0.51100000000E-03 0. -1.
    9900012    2    1    2    0    0 -0.22878123996E+02 -0.30387992895E+02  0.14364087495E+02  0.50528859830E+02  0.29999999940E+02 0.  0.
         12    1    1    2    0    0  0.22878123996E+02  0.30387992895E+02 -0.14364087495E+02  0.40659140170E+02  0.00000000000E+00 0. -1.
         11    1    3    3    0    0 -0.90372125080E+01 -0.91222098861E+01 -0.57227822654E+01  0.14058312852E+02  0.51100000000E-03 0. -1.
        -11    1    3    3    0    0 -0.45451073640E+01 -0.16453571433E+02  0.44272293407E+01  0.17634578922E+02  0.51100000000E-03 0.  1.
        -12    1    3    3    0    0 -0.92958041236E+01 -0.48122115762E+01  0.15659640420E+02  0.18835968057E+02  0.00000000000E+00 0.  1.
</event>
<event>
 7    1  0.2746803E-013  0.5052886E+02  0.7816164E-02  0.1300439E+00
        -11   -1    0    0    0    0  0.00000000000E+00  0.00000000000E+00  0.45593999997E+02  0.45594000000E+02  0.51100000000E-03 0. -1.
         11   -1    0    0    0    0 -0.00000000000E+00 -0.00000000000E+00 -0.45593999997E+02  0.45594000000E+02  0.51100000000E-03 0.  1.
    9900012    2    1    2    0    0  0.27317671009E+02 -0.26206650290E+02 -0.14836509334E+02  0.50528859846E+02  0.29999999989E+02 0.  0.
         12    1    1    2    0    0 -0.27317671009E+02  0.26206650290E+02  0.14836509334E+02  0.40659140154E+02  0.00000000000E+00 0. -1.
         11    1    3    3    0    0  0.38857281816E+01 -0.78085076336E+01 -0.24026583421E+01  0.90467918255E+01  0.51100000000E-03 0. -1.
        -11    1    3    3    0    0  0.25067741256E+02 -0.51445440967E+01 -0.46018860086E+01  0.26000679621E+02  0.51100000000E-03 0.  1.
         12    1    3    3    0    0 -0.16357984286E+01 -0.13253598560E+02 -0.78319649836E+01  0.15481388400E+02  0.00000000000E+00 0. -1.
</event>
<event>
 7    1  0.2746803E-013  0.5052886E+02  0.7816164E-02  0.1300439E+00
        -11   -1    0    0    0    0  0.00000000000E+00  0.00000000000E+00  0.45593999997E+02  0.45594000000E+02  0.51100000000E-03 0.  1.
         11   -1    0    0    0    0 -0.00000000000E+00 -0.00000000000E+00 -0.45593999997E+02  0.45594000000E+02  0.51100000000E-03 0. -1.
    9900012    2    1    2    0    0 -0.26141345855E+02 -0.90001370917E+01  0.29812629873E+02  0.50528864117E+02  0.30000012970E+02 0.  0.
         12    1    1    2    0    0  0.26141345855E+02  0.90001370917E+01 -0.29812629873E+02  0.40659135883E+02  0.00000000000E+00 0. -1.
         11    1    3    3    0    0  0.34122449037E+01 -0.68022900172E+01  0.10616573597E+02  0.13062396410E+02  0.51100000000E-03 0. -1.
        -11    1    3    3    0    0 -0.69257854345E+01 -0.37882803798E+01  0.10582413337E+02  0.13202463574E+02  0.51100000000E-03 0.  1.
        -12    1    3    3    0    0 -0.22627805325E+02  0.15904333053E+01  0.86136429386E+01  0.24264004133E+02  0.00000000000E+00 0.  1.
</event>
<event>
 7    1  0.2746803E-013  0.5052888E+02  0.7816164E-02  0.1300439E+00
        -11   -1    0    0    0    0  0.00000000000E+00  0.00000000000E+00  0.45593999997E+02  0.45594000000E+02  0.51100000000E-03 0.  1.
         11   -1    0    0    0    0 -0.00000000000E+00 -0.00000000000E+00 -0.45593999997E+02  0.45594000000E+02  0.51100000000E-03 0. -1.
    9900012    2    1    2    0    0  0.28906498290E+02 -0.11057660815E+01  0.28571937538E+02  0.50528880768E+02  0.30000063583E+02 0.  0.
         12    1    1    2    0    0 -0.28906498290E+02  0.11057660815E+01 -0.28571937538E+02  0.40659119232E+02  0.00000000000E+00 0. -1.
         11    1    3    3    0    0  0.32809191857E+01 -0.29700047040E+01 -0.71102728677E+00  0.44822894494E+01  0.51100000000E-03 0. -1.
        -11    1    3    3    0    0  0.12803709167E+02 -0.87965203830E+01  0.23936744205E+02  0.28535617440E+02  0.51100000000E-03 0.  1.
        -12    1    3    3    0    0  0.12821869937E+02  0.10660759005E+02  0.53462206193E+01  0.17510973878E+02  0.00000000000E+00 0.  1.
</event>
<event>
 7    1  0.2746803E-013  0.5052886E+02  0.7816164E-02  0.1300439E+00
        -11   -1    0    0    0    0  0.00000000000E+00  0.00000000000E+00  0.45593999997E+02  0.45594000000E+02  0.51100000000E-03 0.  1.
         11   -1    0    0    0    0 -0.00000000000E+00 -0.00000000000E+00 -0.45593999997E+02  0.45594000000E+02  0.51100000000E-03 0. -1.
    9900012    2    1    2    0    0  0.89653395218E+01 -0.19651247565E+02  0.34447307447E+02  0.50528857929E+02  0.29999994160E+02 0.  0.
         12    1    1    2    0    0 -0.89653395218E+01  0.19651247565E+02 -0.34447307447E+02  0.40659142071E+02  0.00000000000E+00 0. -1.
         11    1    3    3    0    0  0.15000572366E+02 -0.46021234426E+01  0.10969150323E+02  0.19144685178E+02  0.51100000000E-03 0. -1.
        -11    1    3    3    0    0 -0.41532382630E+01 -0.16162608939E+01  0.14371477059E+02  0.15046628874E+02  0.51100000000E-03 0.  1.
        -12    1    3    3    0    0 -0.18819945815E+01 -0.13432863228E+02  0.91066800650E+01  0.16337543877E+02  0.00000000000E+00 0.  1.
</event>
<event>
 7    1  0.2746803E-013  0.5052886E+02  0.7816164E-02  0.1300439E+00
        -11   -1    0    0    0    0  0.00000000000E+00  0.00000000000E+00  0.45593999997E+02  0.45594000000E+02  0.51100000000E-03 0.  1.
         11   -1    0    0    0    0 -0.00000000000E+00 -0.00000000000E+00 -0.45593999997E+02  0.45594000000E+02  0.51100000000E-03 0. -1.
    9900012    2    1    2    0    0  0.26206401738E+02 -0.12684730686E+02  0.28381123294E+02  0.50528855345E+02  0.29999986306E+02 0.  0.
         12    1    1    2    0    0 -0.26206401738E+02  0.12684730686E+02 -0.28381123294E+02  0.40659144655E+02  0.00000000000E+00 0. -1.
         11    1    3    3    0    0  0.80022931961E+01 -0.15827859228E+02  0.16597152462E+02  0.24290395103E+02  0.51100000000E-03 0. -1.
        -11    1    3    3    0    0  0.63883841747E+01 -0.25415634724E+01 -0.20533349219E+01  0.71754569060E+01  0.51100000000E-03 0.  1.
        -12    1    3    3    0    0  0.11815724368E+02  0.56846920153E+01  0.13837305754E+02  0.19063003335E+02  0.00000000000E+00 0.  1.
</event>
<event>
 7    1  0.2746803E-013  0.5052887E+02  0.7816164E-02  0.1300439E+00
        -11   -1    0    0    0    0  0.00000000000E+00  0.00000000000E+00  0.45593999997E+02  0.45594000000E+02  0.51100000000E-03 0.  1.
         11   -1    0    0    0    0 -0.00000000000E+00 -0.00000000000E+00 -0.45593999997E+02  0.45594000000E+02  0.51100000000E-03 0. -1.
    9900012    2    1    2    0    0 -0.32441328784E+02 -0.12065081870E+02  0.21334443872E+02  0.50528874221E+02  0.30000043682E+02 0.  0.
         12    1    1    2    0    0  0.32441328784E+02  0.12065081870E+02 -0.21334443872E+02  0.40659125779E+02  0.00000000000E+00 0. -1.
         11    1    3    3    0    0 -0.14212291741E+02  0.51855421733E+01  0.40010998946E+01  0.15648894044E+02  0.51100000000E-03 0. -1.
        -11    1    3    3    0    0 -0.17661077587E+02 -0.97162614588E+01  0.55938468774E+01  0.20919142464E+02  0.51100000000E-03 0.  1.
         12    1    3    3    0    0 -0.56795945578E+00 -0.75343625842E+01  0.11739497100E+02  0.13960837713E+02  0.00000000000E+00 0. -1.
</event>
<event>
 7    1  0.2746803E-013  0.5052886E+02  0.7816164E-02  0.1300439E+00
        -11   -1    0    0    0    0  0.00000000000E+00  0.00000000000E+00  0.45593999997E+02  0.45594000000E+02  0.51100000000E-03 0. -1.
         11   -1    0    0    0    0 -0.00000000000E+00 -0.00000000000E+00 -0.45593999997E+02  0.45594000000E+02  0.51100000000E-03 0.  1.
    9900012    2    1    2    0    0  0.26607102183E+02 -0.90848313760E+01 -0.29371640647E+02  0.50528864225E+02  0.30000013298E+02 0.  0.
         12    1    1    2    0    0 -0.26607102183E+02  0.90848313760E+01  0.29371640647E+02  0.40659135775E+02  0.00000000000E+00 0. -1.
         11    1    3    3    0    0  0.86993640734E+01  0.49920619461E+01 -0.44423115341E-01  0.10030034468E+02  0.51100000000E-03 0. -1.
        -11    1    3    3    0    0  0.46148524199E+01 -0.37419061720E+00  0.92977732425E+00  0.47224323827E+01  0.51100000000E-03 0.  1.
         12    1    3    3    0    0  0.13292885690E+02 -0.13702702705E+02 -0.30256994856E+02  0.35776397374E+02  0.00000000000E+00 0. -1.
</event>
<event>
 7    1  0.2746803E-013  0.5052886E+02  0.7816164E-02  0.1300439E+00
        -11   -1    0    0    0    0  0.00000000000E+00  0.00000000000E+00  0.45593999997E+02  0.45594000000E+02  0.51100000000E-03 0. -1.
         11   -1    0    0    0    0 -0.00000000000E+00 -0.00000000000E+00 -0.45593999997E+02  0.45594000000E+02  0.51100000000E-03 0.  1.
    9900012    2    1    2    0    0  0.10599416460E+02 -0.36522115001E+02 -0.14385855199E+02  0.50528863963E+02  0.30000012502E+02 0.  0.
         12    1    1    2    0    0 -0.10599416460E+02  0.36522115001E+02  0.14385855199E+02  0.40659136037E+02  0.00000000000E+00 0. -1.
         11    1    3    3    0    0  0.25458952347E+01  0.99824625831E+00 -0.58733525812E+01  0.64787613741E+01  0.51100000000E-03 0. -1.
        -11    1    3    3    0    0  0.41754051014E+01 -0.17357898389E+02 -0.14124728867E+02  0.22764854713E+02  0.51100000000E-03 0.  1.
        -12    1    3    3    0    0  0.38781161242E+01 -0.20162462870E+02  0.56122262496E+01  0.21285247876E+02  0.00000000000E+00 0.  1.
</event>
<event>
 7    1  0.2746803E-013  0.5052886E+02  0.7816164E-02  0.1300439E+00
        -11   -1    0    0    0    0  0.00000000000E+00  0.00000000000E+00  0.45593999997E+02  0.45594000000E+02  0.51100000000E-03 0.  1.
         11   -1    0    0    0    0 -0.00000000000E+00 -0.00000000000E+00 -0.45593999997E+02  0.45594000000E+02  0.51100000000E-03 0. -1.
    9900012    2    1    2    0    0 -0.21863934146E+02  0.23714373348E+02  0.24754043176E+02  0.50528858676E+02  0.29999996432E+02 0.  0.
         12    1    1    2    0    0  0.21863934146E+02 -0.23714373348E+02 -0.24754043176E+02  0.40659141324E+02  0.00000000000E+00 0. -1.
         11    1    3    3    0    0  0.34233095441E+01  0.72208598820E+01  0.19791200113E+01  0.82326655435E+01  0.51100000000E-03 0. -1.
        -11    1    3    3    0    0 -0.79195964822E+01  0.15311040692E+02  0.16296868467E+02  0.23722055089E+02  0.51100000000E-03 0.  1.
         12    1    3    3    0    0 -0.17367647208E+02  0.11824727732E+01  0.64780546977E+01  0.18574138044E+02  0.00000000000E+00 0. -1.
</event>
<event>
 7    1  0.2746803E-013  0.5052886E+02  0.7816164E-02  0.1300439E+00
        -11   -1    0    0    0    0  0.00000000000E+00  0.00000000000E+00  0.45593999997E+02  0.45594000000E+02  0.51100000000E-03 0.  1.
         11   -1    0    0    0    0 -0.00000000000E+00 -0.00000000000E+00 -0.45593999997E+02  0.45594000000E+02  0.51100000000E-03 0. -1.
    9900012    2    1    2    0    0  0.23537412467E+02 -0.14115732682E+02  0.29998365335E+02  0.50528860590E+02  0.30000002250E+02 0.  0.
         12    1    1    2    0    0 -0.23537412467E+02  0.14115732682E+02 -0.29998365335E+02  0.40659139410E+02  0.00000000000E+00 0. -1.
         11    1    3    3    0    0  0.27446336359E+02 -0.13048615514E+02  0.19266156287E+02  0.35982669782E+02  0.51100000000E-03 0.  1.
        -11    1    3    3    0    0 -0.15100858868E+01  0.19587328029E+01 -0.62458479897E+00  0.25509018035E+01  0.51100000000E-03 0. -1.
        -12    1    3    3    0    0 -0.23988380049E+01 -0.30258499705E+01  0.11356793847E+02  0.11995289005E+02  0.00000000000E+00 0.  1.
</event>
<event>
 7    1  0.2746803E-013  0.5052886E+02  0.7816164E-02  0.1300439E+00
        -11   -1    0    0    0    0  0.00000000000E+00  0.00000000000E+00  0.45593999997E+02  0.45594000000E+02  0.51100000000E-03 0.  1.
         11   -1    0    0    0    0 -0.00000000000E+00 -0.00000000000E+00 -0.45593999997E+02  0.45594000000E+02  0.51100000000E-03 0. -1.
    9900012    2    1    2    0    0 -0.35448742999E+00  0.26621187172E+02  0.30730321513E+02  0.50528856772E+02  0.29999990644E+02 0.  0.
         12    1    1    2    0    0  0.35448742999E+00 -0.26621187172E+02 -0.30730321513E+02  0.40659143228E+02  0.00000000000E+00 0. -1.
         11    1    3    3    0    0  0.66478018146E+01  0.43431941890E+01  0.10367962426E+02  0.13059527168E+02  0.51100000000E-03 0. -1.
        -11    1    3    3    0    0 -0.20890256057E+01 -0.23075226517E+01 -0.21424800894E+01  0.37787444957E+01  0.51100000000E-03 0.  1.
         12    1    3    3    0    0 -0.49132636389E+01  0.24585515634E+02  0.22504839176E+02  0.33690585108E+02  0.00000000000E+00 0. -1.
</event>
<event>
 7    1  0.2746803E-013  0.5052881E+02  0.7816164E-02  0.1300439E+00
        -11   -1    0    0    0    0  0.00000000000E+00  0.00000000000E+00  0.45593999997E+02  0.45594000000E+02  0.51100000000E-03 0. -1.
         11   -1    0    0    0    0 -0.00000000000E+00 -0.00000000000E+00 -0.45593999997E+02  0.45594000000E+02  0.51100000000E-03 0.  1.
    9900012    2    1    2    0    0 -0.36925354401E+02  0.12825086322E+01 -0.16971827486E+02  0.50528812179E+02  0.29999855100E+02 0.  0.
         12    1    1    2    0    0  0.36925354401E+02 -0.12825086322E+01  0.16971827486E+02  0.40659187821E+02  0.00000000000E+00 0. -1.
         11    1    3    3    0    0 -0.89340099855E+01  0.15737662956E+01  0.82911302054E+01  0.12289675143E+02  0.51100000000E-03 0. -1.
        -11    1    3    3    0    0 -0.96479952339E+01 -0.23697867805E+01 -0.62438263365E+01  0.11733928115E+02  0.51100000000E-03 0.  1.
        -12    1    3    3    0    0 -0.18343349182E+02  0.20785291170E+01 -0.19019131355E+02  0.26505208922E+02  0.00000000000E+00 0.  1.
</event>
<event>
 7    1  0.2746803E-013  0.5052886E+02  0.7816164E-02  0.1300439E+00
        -11   -1    0    0    0    0  0.00000000000E+00  0.00000000000E+00  0.45593999997E+02  0.45594000000E+02  0.51100000000E-03 0.  1.
         11   -1    0    0    0    0 -0.00000000000E+00 -0.00000000000E+00 -0.45593999997E+02  0.45594000000E+02  0.51100000000E-03 0. -1.
    9900012    2    1    2    0    0  0.13538651315E+02  0.38221893877E+02 -0.29928555297E+01  0.50528862833E+02  0.30000009068E+02 0.  0.
         12    1    1    2    0    0 -0.13538651315E+02 -0.38221893877E+02  0.29928555297E+01  0.40659137167E+02  0.00000000000E+00 0. -1.
         11    1    3    3    0    0  0.79705160579E+01  0.23119806818E+02 -0.14174659067E+02  0.28266155618E+02  0.51100000000E-03 0. -1.
        -11    1    3    3    0    0  0.64026102656E+01  0.43778596787E+01  0.17377004812E+01  0.79485015445E+01  0.51100000000E-03 0.  1.
        -12    1    3    3    0    0 -0.83447500874E+00  0.10724227380E+02  0.94441030559E+01  0.14314205670E+02  0.00000000000E+00 0.  1.
</event>
<event>
 7    1  0.2746803E-013  0.5052886E+02  0.7816164E-02  0.1300439E+00
        -11   -1    0    0    0    0  0.00000000000E+00  0.00000000000E+00  0.45593999997E+02  0.45594000000E+02  0.51100000000E-03 0.  1.
         11   -1    0    0    0    0 -0.00000000000E+00 -0.00000000000E+00 -0.45593999997E+02  0.45594000000E+02  0.51100000000E-03 0. -1.
    9900012    2    1    2    0    0  0.15841391707E+02  0.37442452190E+02 -0.52811555007E+00  0.50528858061E+02  0.29999994562E+02 0.  0.
         12    1    1    2    0    0 -0.15841391707E+02 -0.37442452190E+02  0.52811555007E+00  0.40659141939E+02  0.00000000000E+00 0. -1.
         11    1    3    3    0    0 -0.13392898032E+00 -0.27825620722E+01  0.16230354023E+00  0.27905073657E+01  0.51100000000E-03 0. -1.
        -11    1    3    3    0    0  0.48381057988E+00  0.16653636192E+02 -0.81716344077E+01  0.18556758344E+02  0.51100000000E-03 0.  1.
        -12    1    3    3    0    0  0.15491510107E+02  0.23571378070E+02  0.74812153174E+01  0.29181592351E+02  0.00000000000E+00 0.  1.
</event>
<event>
 7    1  0.2746803E-013  0.5052886E+02  0.7816164E-02  0.1300439E+00
        -11   -1    0    0    0    0  0.00000000000E+00  0.00000000000E+00  0.45593999997E+02  0.45594000000E+02  0.51100000000E-03 0.  1.
         11   -1    0    0    0    0 -0.00000000000E+00 -0.00000000000E+00 -0.45593999997E+02  0.45594000000E+02  0.51100000000E-03 0. -1.
    9900012    2    1    2    0    0 -0.12889525431E+02 -0.12107670873E+02  0.36611889494E+02  0.50528855738E+02  0.29999987501E+02 0.  0.
         12    1    1    2    0    0  0.12889525431E+02  0.12107670873E+02 -0.36611889494E+02  0.40659144262E+02  0.00000000000E+00 0. -1.
         11    1    3    3    0    0  0.42353814020E+01  0.74158806422E+00  0.90021914127E+01  0.99763650178E+01  0.51100000000E-03 0. -1.
        -11    1    3    3    0    0 -0.73460041960E+01  0.43259552863E+01  0.31099046497E+01  0.90746445649E+01  0.51100000000E-03 0.  1.
        -12    1    3    3    0    0 -0.97789026372E+01 -0.17175214223E+02  0.24499793432E+02  0.31477846155E+02  0.00000000000E+00 0.  1.
</event>
<event>
 7    1  0.2746803E-013  0.5052886E+02  0.7816164E-02  0.1300439E+00
        -11   -1    0    0    0    0  0.00000000000E+00  0.00000000000E+00  0.45593999997E+02  0.45594000000E+02  0.51100000000E-03 0. -1.
         11   -1    0    0    0    0 -0.00000000000E+00 -0.00000000000E+00 -0.45593999997E+02  0.45594000000E+02  0.51100000000E-03 0.  1.
    9900012    2    1    2    0    0 -0.30537325277E+02  0.26844573339E+02  0.81489654907E-01  0.50528855968E+02  0.29999988201E+02 0.  0.
         12    1    1    2    0    0  0.30537325277E+02 -0.26844573339E+02 -0.81489654907E-01  0.40659144032E+02  0.00000000000E+00 0. -1.
         11    1    3    3    0    0 -0.17836552999E+02  0.72398286298E+01  0.69810798761E+01  0.20476650556E+02  0.51100000000E-03 0. -1.
        -11    1    3    3    0    0 -0.63538091002E+01  0.46664017604E+01  0.55124877064E+01  0.96194447057E+01  0.51100000000E-03 0.  1.
        -12    1    3    3    0    0 -0.63469631779E+01  0.14938342949E+02 -0.12412077928E+02  0.20432760707E+02  0.00000000000E+00 0.  1.
</event>
<event>
 7    1  0.2746803E-013  0.5052885E+02  0.7816164E-02  0.1300439E+00
        -11   -1    0    0    0    0  0.00000000000E+00  0.00000000000E+00  0.45593999997E+02  0.45594000000E+02  0.51100000000E-03 0.  1.
         11   -1    0    0    0    0 -0.00000000000E+00 -0.00000000000E+00 -0.45593999997E+02  0.45594000000E+02  0.51100000000E-03 0. -1.
    9900012    2    1    2    0    0 -0.10463713104E+00  0.16460512245E+02  0.37178043382E+02  0.50528851927E+02  0.29999975918E+02 0.  0.
         12    1    1    2    0    0  0.10463713104E+00 -0.16460512245E+02 -0.37178043382E+02  0.40659148073E+02  0.00000000000E+00 0. -1.
         11    1    3    3    0    0  0.14416937037E+00 -0.57125702023E+01  0.69673317080E+00  0.57567074353E+01  0.51100000000E-03 0. -1.
        -11    1    3    3    0    0 -0.50425196850E+00  0.18380680664E+01  0.15263791284E+02  0.15382330411E+02  0.51100000000E-03 0.  1.
         12    1    3    3    0    0  0.25544546710E+00  0.20335014381E+02  0.21217518927E+02  0.29389814081E+02  0.00000000000E+00 0. -1.
</event>
<event>
 7    1  0.2746803E-013  0.5052886E+02  0.7816164E-02  0.1300439E+00
        -11   -1    0    0    0    0  0.00000000000E+00  0.00000000000E+00  0.45593999997E+02  0.45594000000E+02  0.51100000000E-03 0.  1.
         11   -1    0    0    0    0 -0.00000000000E+00 -0.00000000000E+00 -0.45593999997E+02  0.45594000000E+02  0.51100000000E-03 0. -1.
    9900012    2    1    2    0    0  0.34929011475E+02  0.19016657255E+02  0.84555697720E+01  0.50528858888E+02  0.29999997076E+02 0.  0.
         12    1    1    2    0    0 -0.34929011475E+02 -0.19016657255E+02 -0.84555697720E+01  0.40659141112E+02  0.00000000000E+00 0. -1.
         11    1    3    3    0    0  0.16731902389E+02 -0.26157672857E+01  0.91592371096E+01  0.19253322330E+02  0.51100000000E-03 0. -1.
        -11    1    3    3    0    0  0.50177468310E+01  0.70061669785E+01  0.59739258336E+01  0.10485797495E+02  0.51100000000E-03 0.  1.
         12    1    3    3    0    0  0.13179362255E+02  0.14626257562E+02 -0.66775931712E+01  0.20789739062E+02  0.00000000000E+00 0. -1.
</event>
<event>
 7    1  0.2746803E-013  0.5052886E+02  0.7816164E-02  0.1300439E+00
        -11   -1    0    0    0    0  0.00000000000E+00  0.00000000000E+00  0.45593999997E+02  0.45594000000E+02  0.51100000000E-03 0.  1.
         11   -1    0    0    0    0 -0.00000000000E+00 -0.00000000000E+00 -0.45593999997E+02  0.45594000000E+02  0.51100000000E-03 0. -1.
    9900012    2    1    2    0    0  0.26912526648E+02  0.30224488818E+02 -0.39193859514E+01  0.50528863252E+02  0.30000010340E+02 0.  0.
         12    1    1    2    0    0 -0.26912526648E+02 -0.30224488818E+02  0.39193859514E+01  0.40659136748E+02  0.00000000000E+00 0. -1.
         11    1    3    3    0    0 -0.20131202172E+00 -0.20144902136E+01 -0.14302328985E+01  0.24787625452E+01  0.51100000000E-03 0. -1.
        -11    1    3    3    0    0  0.18685702136E+02  0.55558070550E+01 -0.44611731734E+01  0.19998112978E+02  0.51100000000E-03 0.  1.
        -12    1    3    3    0    0  0.84281365332E+01  0.26683171977E+02  0.19720201205E+01  0.28051987728E+02  0.00000000000E+00 0.  1.
</event>
<event>
 7    1  0.2746803E-013  0.5052888E+02  0.7816164E-02  0.1300439E+00
        -11   -1    0    0    0    0  0.00000000000E+00  0.00000000000E+00  0.45593999997E+02  0.45594000000E+02  0.51100000000E-03 0.  1.
         11   -1    0    0    0    0 -0.00000000000E+00 -0.00000000000E+00 -0.45593999997E+02  0.45594000000E+02  0.51100000000E-03 0. -1.
    9900012    2    1    2    0    0  0.35731419441E+02 -0.13362852140E+02  0.14066414594E+02  0.50528878365E+02  0.30000056278E+02 0.  0.
         12    1    1    2    0    0 -0.35731419441E+02  0.13362852140E+02 -0.14066414594E+02  0.40659121635E+02  0.00000000000E+00 0. -1.
         11    1    3    3    0    0  0.19306326857E+02 -0.36324825152E+01  0.32652521283E+01  0.19914594087E+02  0.51100000000E-03 0. -1.
        -11    1    3    3    0    0  0.19406697873E+02 -0.12139926277E+02  0.12867140233E+02  0.26259494100E+02  0.51100000000E-03 0.  1.
        -12    1    3    3    0    0 -0.29816052888E+01  0.24095566519E+01 -0.20659777673E+01  0.43547901778E+01  0.00000000000E+00 0.  1.
</event>
<event>
 7    1  0.2746803E-013  0.5052886E+02  0.7816164E-02  0.1300439E+00
        -11   -1    0    0    0    0  0.00000000000E+00  0.00000000000E+00  0.45593999997E+02  0.45594000000E+02  0.51100000000E-03 0.  1.
         11   -1    0    0    0    0 -0.00000000000E+00 -0.00000000000E+00 -0.45593999997E+02  0.45594000000E+02  0.51100000000E-03 0. -1.
    9900012    2    1    2    0    0  0.20267029146E+02  0.24472151321E+02  0.25367838180E+02  0.50528857429E+02  0.29999992642E+02 0.  0.
         12    1    1    2    0    0 -0.20267029146E+02 -0.24472151321E+02 -0.25367838180E+02  0.40659142571E+02  0.00000000000E+00 0. -1.
         11    1    3    3    0    0  0.36726186533E+01  0.68588476672E+01 -0.18898341017E+01  0.80064594103E+01  0.51100000000E-03 0. -1.
        -11    1    3    3    0    0  0.53963088763E+01  0.45705459620E+01 -0.30321986035E+01  0.76944310064E+01  0.51100000000E-03 0.  1.
        -12    1    3    3    0    0  0.11198101617E+02  0.13042757691E+02  0.30289870885E+02  0.34827967013E+02  0.00000000000E+00 0.  1.
</event>
<event>
 7    1  0.2746803E-013  0.5052886E+02  0.7816164E-02  0.1300439E+00
        -11   -1    0    0    0    0  0.00000000000E+00  0.00000000000E+00  0.45593999997E+02  0.45594000000E+02  0.51100000000E-03 0. -1.
         11   -1    0    0    0    0 -0.00000000000E+00 -0.00000000000E+00 -0.45593999997E+02  0.45594000000E+02  0.51100000000E-03 0.  1.
    9900012    2    1    2    0    0 -0.66586046506E+01 -0.60378242581E+01 -0.39653161918E+02  0.50528860956E+02  0.30000003363E+02 0.  0.
         12    1    1    2    0    0  0.66586046506E+01  0.60378242581E+01  0.39653161918E+02  0.40659139044E+02  0.00000000000E+00 0. -1.
         11    1    3    3    0    0 -0.10395261763E+02 -0.10349534883E+02 -0.11471879307E+02  0.18621985783E+02  0.51100000000E-03 0. -1.
        -11    1    3    3    0    0 -0.64079638315E-01 -0.21520213550E+01  0.54268452399E+00  0.22203172896E+01  0.51100000000E-03 0.  1.
        -12    1    3    3    0    0  0.38007367512E+01  0.64637319799E+01 -0.28723967136E+02  0.29686557883E+02  0.00000000000E+00 0.  1.
</event>
<event>
 7    1  0.2746803E-013  0.5052887E+02  0.7816164E-02  0.1300439E+00
        -11   -1    0    0    0    0  0.00000000000E+00  0.00000000000E+00  0.45593999997E+02  0.45594000000E+02  0.51100000000E-03 0.  1.
         11   -1    0    0    0    0 -0.00000000000E+00 -0.00000000000E+00 -0.45593999997E+02  0.45594000000E+02  0.51100000000E-03 0. -1.
    9900012    2    1    2    0    0 -0.16085044453E+02 -0.41216515536E+01  0.37113993077E+02  0.50528866356E+02  0.30000019775E+02 0.  0.
         12    1    1    2    0    0  0.16085044453E+02  0.41216515536E+01 -0.37113993077E+02  0.40659133644E+02  0.00000000000E+00 0. -1.
         11    1    3    3    0    0 -0.43738915476E+01  0.44942182894E+01  0.68650247683E+00  0.63087408581E+01  0.51100000000E-03 0. -1.
        -11    1    3    3    0    0 -0.14068839898E+02 -0.48501117243E+01  0.11254241820E+02  0.18657807990E+02  0.51100000000E-03 0.  1.
        -12    1    3    3    0    0  0.23576869926E+01 -0.37657581187E+01  0.25173248781E+02  0.25562317507E+02  0.00000000000E+00 0.  1.
</event>
<event>
 7    1  0.2746803E-013  0.5052889E+02  0.7816164E-02  0.1300439E+00
        -11   -1    0    0    0    0  0.00000000000E+00  0.00000000000E+00  0.45593999997E+02  0.45594000000E+02  0.51100000000E-03 0.  1.
         11   -1    0    0    0    0 -0.00000000000E+00 -0.00000000000E+00 -0.45593999997E+02  0.45594000000E+02  0.51100000000E-03 0. -1.
    9900012    2    1    2    0    0  0.39924644859E+02 -0.61474052340E+01  0.46255220172E+01  0.50528888940E+02  0.30000088423E+02 0.  0.
         12    1    1    2    0    0 -0.39924644859E+02  0.61474052340E+01 -0.46255220172E+01  0.40659111060E+02  0.00000000000E+00 0. -1.
         11    1    3    3    0    0  0.44079329015E+01  0.78365619306E+01 -0.49323665986E+01  0.10255233585E+02  0.51100000000E-03 0. -1.
        -11    1    3    3    0    0  0.71642224928E+01 -0.65999443095E+01  0.35366839916E+01  0.10363082685E+02  0.51100000000E-03 0.  1.
        -12    1    3    3    0    0  0.28352489465E+02 -0.73840228551E+01  0.60212046242E+01  0.29910572671E+02  0.00000000000E+00 0.  1.
</event>
<event>
 7    1  0.2746803E-013  0.5052884E+02  0.7816164E-02  0.1300439E+00
        -11   -1    0    0    0    0  0.00000000000E+00  0.00000000000E+00  0.45593999997E+02  0.45594000000E+02  0.51100000000E-03 0. -1.
         11   -1    0    0    0    0 -0.00000000000E+00 -0.00000000000E+00 -0.45593999997E+02  0.45594000000E+02  0.51100000000E-03 0.  1.
    9900012    2    1    2    0    0  0.25075677870E+01 -0.29333867366E+01 -0.40475601944E+02  0.50528843508E+02  0.29999950326E+02 0.  0.
         12    1    1    2    0    0 -0.25075677870E+01  0.29333867366E+01  0.40475601944E+02  0.40659156492E+02  0.00000000000E+00 0. -1.
         11    1    3    3    0    0 -0.11315383847E+01  0.26669439179E+01 -0.20672293343E+01  0.35589895138E+01  0.51100000000E-03 0. -1.
        -11    1    3    3    0    0  0.58629036893E+01  0.34173787849E+01 -0.36950234342E+02  0.37568230403E+02  0.51100000000E-03 0.  1.
        -12    1    3    3    0    0 -0.22237975175E+01 -0.90177094394E+01 -0.14581382674E+01  0.94016235906E+01  0.00000000000E+00 0.  1.
</event>
<event>
 7    1  0.2746803E-013  0.5052886E+02  0.7816164E-02  0.1300439E+00
        -11   -1    0    0    0    0  0.00000000000E+00  0.00000000000E+00  0.45593999997E+02  0.45594000000E+02  0.51100000000E-03 0. -1.
         11   -1    0    0    0    0 -0.00000000000E+00 -0.00000000000E+00 -0.45593999997E+02  0.45594000000E+02  0.51100000000E-03 0.  1.
    9900012    2    1    2    0    0 -0.38435272687E+02  0.12870833830E+02  0.31996103343E+01  0.50528855195E+02  0.29999985851E+02 0.  0.
         12    1    1    2    0    0  0.38435272687E+02 -0.12870833830E+02 -0.31996103343E+01  0.40659144805E+02  0.00000000000E+00 0. -1.
         11    1    3    3    0    0 -0.44067947861E+01  0.88920627918E+01 -0.18471527667E+01  0.10094582437E+02  0.51100000000E-03 0. -1.
        -11    1    3    3    0    0 -0.28738965180E+02  0.11366726517E+02  0.52381749114E+01  0.31345957762E+02  0.51100000000E-03 0.  1.
        -12    1    3    3    0    0 -0.52895127206E+01 -0.73879554791E+01 -0.19141181027E+00  0.90883149958E+01  0.00000000000E+00 0.  1.
</event>
<event>
 7    1  0.2746803E-013  0.5052886E+02  0.7816164E-02  0.1300439E+00
        -11   -1    0    0    0    0  0.00000000000E+00  0.00000000000E+00  0.45593999997E+02  0.45594000000E+02  0.51100000000E-03 0.  1.
         11   -1    0    0    0    0 -0.00000000000E+00 -0.00000000000E+00 -0.45593999997E+02  0.45594000000E+02  0.51100000000E-03 0. -1.
    9900012    2    1    2    0    0 -0.12749154301E+02  0.36031299950E+02  0.13869747581E+02  0.50528863149E+02  0.30000010027E+02 0.  0.
         12    1    1    2    0    0  0.12749154301E+02 -0.36031299950E+02 -0.13869747581E+02  0.40659136851E+02  0.00000000000E+00 0. -1.
         11    1    3    3    0    0  0.43865663992E+01  0.17554261178E+02  0.17641835599E+01  0.18179834823E+02  0.51100000000E-03 0. -1.
        -11    1    3    3    0    0 -0.10387408967E+01  0.11333447815E+02  0.89024464803E+01  0.14449206747E+02  0.51100000000E-03 0.  1.
        -12    1    3    3    0    0 -0.16096979804E+02  0.71435909576E+01  0.32031175412E+01  0.17899821579E+02  0.00000000000E+00 0.  1.
</event>
<event>
 7    1  0.2746803E-013  0.5052879E+02  0.7816164E-02  0.1300439E+00
        -11   -1    0    0    0    0  0.00000000000E+00  0.00000000000E+00  0.45593999997E+02  0.45594000000E+02  0.51100000000E-03 0. -1.
         11   -1    0    0    0    0 -0.00000000000E+00 -0.00000000000E+00 -0.45593999997E+02  0.45594000000E+02  0.51100000000E-03 0.  1.
    9900012    2    1    2    0    0  0.23528896575E+02 -0.30849253784E+02 -0.12160828610E+02  0.50528792118E+02  0.29999794123E+02 0.  0.
         12    1    1    2    0    0 -0.23528896575E+02  0.30849253784E+02  0.12160828610E+02  0.40659207882E+02  0.00000000000E+00 0. -1.
         11    1    3    3    0    0  0.10048345586E+02 -0.13520830930E+02  0.61244708974E+00  0.16856963242E+02  0.51100000000E-03 0.  1.
        -11    1    3    3    0    0 -0.37980436306E+01 -0.12040855682E+02 -0.24496018170E+01  0.12861099887E+02  0.51100000000E-03 0. -1.
        -12    1    3    3    0    0  0.17278594620E+02 -0.52875671722E+01 -0.10323673883E+02  0.20810728990E+02  0.00000000000E+00 0.  1.
</event>
<event>
 7    1  0.2746803E-013  0.5052884E+02  0.7816164E-02  0.1300439E+00
        -11   -1    0    0    0    0  0.00000000000E+00  0.00000000000E+00  0.45593999997E+02  0.45594000000E+02  0.51100000000E-03 0.  1.
         11   -1    0    0    0    0 -0.00000000000E+00 -0.00000000000E+00 -0.45593999997E+02  0.45594000000E+02  0.51100000000E-03 0. -1.
    9900012    2    1    2    0    0  0.32717885716E+02 -0.98736695103E+01  0.22027654411E+02  0.50528844153E+02  0.29999952288E+02 0.  0.
         12    1    1    2    0    0 -0.32717885716E+02  0.98736695103E+01 -0.22027654411E+02  0.40659155847E+02  0.00000000000E+00 0. -1.
         11    1    3    3    0    0  0.72389720450E+01 -0.53079857128E+01 -0.19877755349E+01  0.91939480330E+01  0.51100000000E-03 0. -1.
        -11    1    3    3    0    0  0.19486074714E+02 -0.12212548052E+02  0.12181860461E+02  0.26024049689E+02  0.51100000000E-03 0.  1.
        -12    1    3    3    0    0  0.59928389571E+01  0.76468642541E+01  0.11833569485E+02  0.15310846431E+02  0.00000000000E+00 0.  1.
</event>
<event>
 7    1  0.2746803E-013  0.5052886E+02  0.7816164E-02  0.1300439E+00
        -11   -1    0    0    0    0  0.00000000000E+00  0.00000000000E+00  0.45593999997E+02  0.45594000000E+02  0.51100000000E-03 0.  1.
         11   -1    0    0    0    0 -0.00000000000E+00 -0.00000000000E+00 -0.45593999997E+02  0.45594000000E+02  0.51100000000E-03 0. -1.
    9900012    2    1    2    0    0 -0.32225223178E+02  0.14554980000E+02  0.20071207912E+02  0.50528857871E+02  0.29999993984E+02 0.  0.
         12    1    1    2    0    0  0.32225223178E+02 -0.14554980000E+02 -0.20071207912E+02  0.40659142129E+02  0.00000000000E+00 0. -1.
         11    1    3    3    0    0 -0.16483412087E+01 -0.35169661181E+01  0.46821728448E+01  0.60834876696E+01  0.51100000000E-03 0. -1.
        -11    1    3    3    0    0 -0.27722924500E+02  0.10378099401E+02  0.19317599807E+02  0.35347350007E+02  0.51100000000E-03 0.  1.
         12    1    3    3    0    0 -0.28539574693E+01  0.76938467168E+01 -0.39285647397E+01  0.90980201941E+01  0.00000000000E+00 0. -1.
</event>
<event>
 7    1  0.2746803E-013  0.5052882E+02  0.7816164E-02  0.1300439E+00
        -11   -1    0    0    0    0  0.00000000000E+00  0.00000000000E+00  0.45593999997E+02  0.45594000000E+02  0.51100000000E-03 0.  1.
         11   -1    0    0    0    0 -0.00000000000E+00 -0.00000000000E+00 -0.45593999997E+02  0.45594000000E+02  0.51100000000E-03 0. -1.
    9900012    2    1    2    0    0  0.67366005382E+01 -0.50991828046E+00  0.40093979375E+02  0.50528819172E+02  0.29999876356E+02 0.  0.
         12    1    1    2    0    0 -0.67366005382E+01  0.50991828046E+00 -0.40093979375E+02  0.40659180828E+02  0.00000000000E+00 0. -1.
         11    1    3    3    0    0  0.45879744092E+00  0.11685791555E+02  0.11254971699E+02  0.16230915180E+02  0.51100000000E-03 0. -1.
        -11    1    3    3    0    0  0.20717259860E+01  0.88423983206E+00 -0.10856100533E+00  0.22551528539E+01  0.51100000000E-03 0.  1.
        -12    1    3    3    0    0  0.42060771113E+01 -0.13079949668E+02  0.28947568681E+02  0.32042751139E+02  0.00000000000E+00 0.  1.
</event>
<event>
 7    1  0.2746803E-013  0.5052891E+02  0.7816164E-02  0.1300439E+00
        -11   -1    0    0    0    0  0.00000000000E+00  0.00000000000E+00  0.45593999997E+02  0.45594000000E+02  0.51100000000E-03 0.  1.
         11   -1    0    0    0    0 -0.00000000000E+00 -0.00000000000E+00 -0.45593999997E+02  0.45594000000E+02  0.51100000000E-03 0. -1.
    9900012    2    1    2    0    0 -0.38398399889E+02  0.12434339408E+02  0.49103342838E+01  0.50528913767E+02  0.30000163885E+02 0.  0.
         12    1    1    2    0    0  0.38398399889E+02 -0.12434339408E+02 -0.49103342838E+01  0.40659086233E+02  0.00000000000E+00 0. -1.
         11    1    3    3    0    0  0.87434436929E+00  0.41131310166E-01  0.75441933753E+00  0.11555598897E+01  0.51100000000E-03 0. -1.
        -11    1    3    3    0    0 -0.34129362805E+02  0.45215182889E+01  0.12673402461E+02  0.36686137209E+02  0.51100000000E-03 0.  1.
        -12    1    3    3    0    0 -0.51433814536E+01  0.78716898088E+01 -0.85174875146E+01  0.12687216668E+02  0.00000000000E+00 0.  1.
</event>
<event>
 7    1  0.2746803E-013  0.5052886E+02  0.7816164E-02  0.1300439E+00
        -11   -1    0    0    0    0  0.00000000000E+00  0.00000000000E+00  0.45593999997E+02  0.45594000000E+02  0.51100000000E-03 0. -1.
         11   -1    0    0    0    0 -0.00000000000E+00 -0.00000000000E+00 -0.45593999997E+02  0.45594000000E+02  0.51100000000E-03 0.  1.
    9900012    2    1    2    0    0 -0.19751056009E+02  0.10484335259E+02 -0.33957922875E+02  0.50528855577E+02  0.29999987011E+02 0.  0.
         12    1    1    2    0    0  0.19751056009E+02 -0.10484335259E+02  0.33957922875E+02  0.40659144423E+02  0.00000000000E+00 0. -1.
         11    1    3    3    0    0 -0.66571898684E+01 -0.40856803405E+01 -0.23047968836E+01  0.81438964706E+01  0.51100000000E-03 0. -1.
        -11    1    3    3    0    0 -0.12651431118E+02  0.19319649534E+02 -0.28432096452E+02  0.36629109686E+02  0.51100000000E-03 0.  1.
         12    1    3    3    0    0 -0.44243502179E+00 -0.47496339342E+01 -0.32210295387E+01  0.57558494200E+01  0.00000000000E+00 0. -1.
</event>
<event>
 7    1  0.2746803E-013  0.5052897E+02  0.7816164E-02  0.1300438E+00
        -11   -1    0    0    0    0  0.00000000000E+00  0.00000000000E+00  0.45593999997E+02  0.45594000000E+02  0.51100000000E-03 0.  1.
         11   -1    0    0    0    0 -0.00000000000E+00 -0.00000000000E+00 -0.45593999997E+02  0.45594000000E+02  0.51100000000E-03 0. -1.
    9900012    2    1    2    0    0 -0.36427220693E+02  0.19562543889E+01  0.17955156338E+02  0.50528966837E+02  0.30000325195E+02 0.  0.
         12    1    1    2    0    0  0.36427220693E+02 -0.19562543889E+01 -0.17955156338E+02  0.40659033163E+02  0.00000000000E+00 0. -1.
         11    1    3    3    0    0 -0.62215571151E+01 -0.53302281342E+01  0.92463738730E+01  0.12353725550E+02  0.51100000000E-03 0. -1.
        -11    1    3    3    0    0 -0.13411722692E+02 -0.46555337533E+01 -0.29481889155E+01  0.14499659246E+02  0.51100000000E-03 0.  1.
        -12    1    3    3    0    0 -0.16793940886E+02  0.11942016276E+02  0.11656971381E+02  0.23675582041E+02  0.00000000000E+00 0.  1.
</event>
<event>
 7    1  0.2746803E-013  0.5052887E+02  0.7816164E-02  0.1300439E+00
        -11   -1    0    0    0    0  0.00000000000E+00  0.00000000000E+00  0.45593999997E+02  0.45594000000E+02  0.51100000000E-03 0.  1.
         11   -1    0    0    0    0 -0.00000000000E+00 -0.00000000000E+00 -0.45593999997E+02  0.45594000000E+02  0.51100000000E-03 0. -1.
    9900012    2    1    2    0    0  0.90767275313E+01 -0.15827478030E+01  0.39601426272E+02  0.50528867741E+02  0.30000023986E+02 0.  0.
         12    1    1    2    0    0 -0.90767275313E+01  0.15827478030E+01 -0.39601426272E+02  0.40659132259E+02  0.00000000000E+00 0. -1.
         11    1    3    3    0    0  0.15398114196E+00  0.56415317236E+00  0.22802440632E+01  0.23540374344E+01  0.51100000000E-03 0. -1.
        -11    1    3    3    0    0  0.98800648443E+01  0.14313770159E+01  0.41445741092E+02  0.42631138577E+02  0.51100000000E-03 0.  1.
         12    1    3    3    0    0 -0.95731845497E+00 -0.35782779913E+01 -0.41245588835E+01  0.55436917294E+01  0.00000000000E+00 0. -1.
</event>
<event>
 7    1  0.2746803E-013  0.5052888E+02  0.7816164E-02  0.1300439E+00
        -11   -1    0    0    0    0  0.00000000000E+00  0.00000000000E+00  0.45593999997E+02  0.45594000000E+02  0.51100000000E-03 0.  1.
         11   -1    0    0    0    0 -0.00000000000E+00 -0.00000000000E+00 -0.45593999997E+02  0.45594000000E+02  0.51100000000E-03 0. -1.
    9900012    2    1    2    0    0 -0.22022307235E+02  0.32354385924E+01  0.34025198071E+02  0.50528878236E+02  0.30000055887E+02 0.  0.
         12    1    1    2    0    0  0.22022307235E+02 -0.32354385924E+01 -0.34025198071E+02  0.40659121764E+02  0.00000000000E+00 0. -1.
         11    1    3    3    0    0 -0.59798195717E+01 -0.22623402148E+00  0.76956272271E+00  0.60333780744E+01  0.51100000000E-03 0. -1.
        -11    1    3    3    0    0 -0.22533669840E+02  0.21113202270E+01  0.28193436908E+02  0.36153752703E+02  0.51100000000E-03 0.  1.
         12    1    3    3    0    0  0.64911821769E+01  0.13503523869E+01  0.50621984407E+01  0.83417474593E+01  0.00000000000E+00 0. -1.
</event>
<event>
 7    1  0.2746803E-013  0.5052886E+02  0.7816164E-02  0.1300439E+00
        -11   -1    0    0    0    0  0.00000000000E+00  0.00000000000E+00  0.45593999997E+02  0.45594000000E+02  0.51100000000E-03 0. -1.
         11   -1    0    0    0    0 -0.00000000000E+00 -0.00000000000E+00 -0.45593999997E+02  0.45594000000E+02  0.51100000000E-03 0.  1.
    9900012    2    1    2    0    0 -0.23703874408E+02  0.26482988886E+02 -0.19746978544E+02  0.50528861742E+02  0.30000005751E+02 0.  0.
         12    1    1    2    0    0  0.23703874408E+02 -0.26482988886E+02  0.19746978544E+02  0.40659138258E+02  0.00000000000E+00 0. -1.
         11    1    3    3    0    0  0.24952705039E+01  0.53623818109E+01 -0.61470509923E+00  0.59463750465E+01  0.51100000000E-03 0. -1.
        -11    1    3    3    0    0 -0.13192939460E+02  0.23405502711E+02 -0.14859631515E+02  0.30703091991E+02  0.51100000000E-03 0.  1.
         12    1    3    3    0    0 -0.13006205451E+02 -0.22848956361E+01 -0.42726419290E+01  0.13879394704E+02  0.00000000000E+00 0. -1.
</event>
<event>
 7    1  0.2746803E-013  0.5052886E+02  0.7816164E-02  0.1300439E+00
        -11   -1    0    0    0    0  0.00000000000E+00  0.00000000000E+00  0.45593999997E+02  0.45594000000E+02  0.51100000000E-03 0. -1.
         11   -1    0    0    0    0 -0.00000000000E+00 -0.00000000000E+00 -0.45593999997E+02  0.45594000000E+02  0.51100000000E-03 0.  1.
    9900012    2    1    2    0    0  0.15961065097E+01 -0.38836688964E+02 -0.11930214023E+02  0.50528856228E+02  0.29999988990E+02 0.  0.
         12    1    1    2    0    0 -0.15961065097E+01  0.38836688964E+02  0.11930214023E+02  0.40659143772E+02  0.00000000000E+00 0. -1.
         11    1    3    3    0    0 -0.39004713686E+01 -0.18496872485E+02 -0.57118170339E+01  0.19747729559E+02  0.51100000000E-03 0. -1.
        -11    1    3    3    0    0  0.62502100221E+01 -0.16342275563E+02 -0.13728697426E+02  0.22239879253E+02  0.51100000000E-03 0.  1.
         12    1    3    3    0    0 -0.75363214389E+00 -0.39975409155E+01  0.75103004369E+01  0.85412474166E+01  0.00000000000E+00 0. -1.
</event>
<event>
 7    1  0.2746803E-013  0.5052886E+02  0.7816164E-02  0.1300439E+00
        -11   -1    0    0    0    0  0.00000000000E+00  0.00000000000E+00  0.45593999997E+02  0.45594000000E+02  0.51100000000E-03 0. -1.
         11   -1    0    0    0    0 -0.00000000000E+00 -0.00000000000E+00 -0.45593999997E+02  0.45594000000E+02  0.51100000000E-03 0.  1.
    9900012    2    1    2    0    0  0.26785792898E+02 -0.85781751758E+01 -0.29361568356E+02  0.50528862198E+02  0.30000007136E+02 0.  0.
         12    1    1    2    0    0 -0.26785792898E+02  0.85781751758E+01  0.29361568356E+02  0.40659137802E+02  0.00000000000E+00 0. -1.
         11    1    3    3    0    0  0.10015556285E+02  0.40912267337E+00 -0.11082813621E+02  0.14943477075E+02  0.51100000000E-03 0. -1.
        -11    1    3    3    0    0  0.13066682677E+02 -0.13681782900E+02 -0.21625409697E+02  0.28733042379E+02  0.51100000000E-03 0.  1.
         12    1    3    3    0    0  0.37035539352E+01  0.46944850510E+01  0.33466549622E+01  0.68523427440E+01  0.00000000000E+00 0. -1.
</event>
<event>
 7    1  0.2746803E-013  0.5052885E+02  0.7816164E-02  0.1300439E+00
        -11   -1    0    0    0    0  0.00000000000E+00  0.00000000000E+00  0.45593999997E+02  0.45594000000E+02  0.51100000000E-03 0.  1.
         11   -1    0    0    0    0 -0.00000000000E+00 -0.00000000000E+00 -0.45593999997E+02  0.45594000000E+02  0.51100000000E-03 0. -1.
    9900012    2    1    2    0    0  0.90278024774E+01  0.38304862071E+02  0.10217756751E+02  0.50528853072E+02  0.29999979399E+02 0.  0.
         12    1    1    2    0    0 -0.90278024774E+01 -0.38304862071E+02 -0.10217756751E+02  0.40659146928E+02  0.00000000000E+00 0. -1.
         11    1    3    3    0    0  0.13022013353E+02  0.14851636638E+02  0.60004415176E+01  0.20643382505E+02  0.51100000000E-03 0. -1.
        -11    1    3    3    0    0  0.39697392563E+01  0.62276492610E+01 -0.48679896078E+01  0.88453246501E+01  0.51100000000E-03 0.  1.
        -12    1    3    3    0    0 -0.79639501315E+01  0.17225576172E+02  0.90853048411E+01  0.21040145917E+02  0.00000000000E+00 0.  1.
</event>
<event>
 7    1  0.2746803E-013  0.5052881E+02  0.7816164E-02  0.1300439E+00
        -11   -1    0    0    0    0  0.00000000000E+00  0.00000000000E+00  0.45593999997E+02  0.45594000000E+02  0.51100000000E-03 0.  1.
         11   -1    0    0    0    0 -0.00000000000E+00 -0.00000000000E+00 -0.45593999997E+02  0.45594000000E+02  0.51100000000E-03 0. -1.
    9900012    2    1    2    0    0 -0.18058869207E+02 -0.80369711444E+01  0.35531026038E+02  0.50528813172E+02  0.29999858116E+02 0.  0.
         12    1    1    2    0    0  0.18058869207E+02  0.80369711444E+01 -0.35531026038E+02  0.40659186828E+02  0.00000000000E+00 0. -1.
         11    1    3    3    0    0 -0.16076939430E+02 -0.56230875629E+00  0.10356660592E+02  0.19132291850E+02  0.51100000000E-03 0. -1.
        -11    1    3    3    0    0 -0.47995864218E+01 -0.10719085079E+02  0.24331192018E+02  0.27017433632E+02  0.51100000000E-03 0.  1.
         12    1    3    3    0    0  0.28176566446E+01  0.32444226907E+01  0.84317342795E+00  0.43790876895E+01  0.00000000000E+00 0. -1.
</event>
<event>
 7    1  0.2746803E-013  0.5052885E+02  0.7816164E-02  0.1300439E+00
        -11   -1    0    0    0    0  0.00000000000E+00  0.00000000000E+00  0.45593999997E+02  0.45594000000E+02  0.51100000000E-03 0.  1.
         11   -1    0    0    0    0 -0.00000000000E+00 -0.00000000000E+00 -0.45593999997E+02  0.45594000000E+02  0.51100000000E-03 0. -1.
    9900012    2    1    2    0    0 -0.40358910413E+02 -0.40970764903E+01  0.27456146884E+01  0.50528854835E+02  0.29999984758E+02 0.  0.
         12    1    1    2    0    0  0.40358910413E+02  0.40970764903E+01 -0.27456146884E+01  0.40659145165E+02  0.00000000000E+00 0. -1.
         11    1    3    3    0    0 -0.19735513552E+02 -0.22187940643E+01 -0.41522950853E+01  0.20289285276E+02  0.51100000000E-03 0.  1.
        -11    1    3    3    0    0 -0.31794776277E+01 -0.18833632097E+01  0.11598863252E+02  0.12173321813E+02  0.51100000000E-03 0. -1.
         12    1    3    3    0    0 -0.17443919233E+02  0.50807836424E-02 -0.47009534784E+01  0.18066247747E+02  0.00000000000E+00 0. -1.
</event>
<event>
 7    1  0.2746803E-013  0.5052885E+02  0.7816164E-02  0.1300439E+00
        -11   -1    0    0    0    0  0.00000000000E+00  0.00000000000E+00  0.45593999997E+02  0.45594000000E+02  0.51100000000E-03 0.  1.
         11   -1    0    0    0    0 -0.00000000000E+00 -0.00000000000E+00 -0.45593999997E+02  0.45594000000E+02  0.51100000000E-03 0. -1.
    9900012    2    1    2    0    0  0.29295517849E+02  0.26155863213E+02 -0.10526622454E+02  0.50528851868E+02  0.29999975739E+02 0.  0.
         12    1    1    2    0    0 -0.29295517849E+02 -0.26155863213E+02  0.10526622454E+02  0.40659148132E+02  0.00000000000E+00 0. -1.
         11    1    3    3    0    0  0.10313431816E+02  0.18505163272E+02  0.21377400506E+01  0.21292671893E+02  0.51100000000E-03 0.  1.
        -11    1    3    3    0    0 -0.23191208270E+01  0.16644104370E+01  0.12307448694E+01  0.31085875744E+01  0.51100000000E-03 0. -1.
         12    1    3    3    0    0  0.21301206860E+02  0.59862895040E+01 -0.13895107374E+02  0.26127592401E+02  0.00000000000E+00 0. -1.
</event>
<event>
 7    1  0.2746803E-013  0.5052889E+02  0.7816164E-02  0.1300439E+00
        -11   -1    0    0    0    0  0.00000000000E+00  0.00000000000E+00  0.45593999997E+02  0.45594000000E+02  0.51100000000E-03 0.  1.
         11   -1    0    0    0    0 -0.00000000000E+00 -0.00000000000E+00 -0.45593999997E+02  0.45594000000E+02  0.51100000000E-03 0. -1.
    9900012    2    1    2    0    0  0.70022778980E+01 -0.18895273291E+02  0.35314305619E+02  0.50528887493E+02  0.30000084023E+02 0.  0.
         12    1    1    2    0    0 -0.70022778980E+01  0.18895273291E+02 -0.35314305619E+02  0.40659112507E+02  0.00000000000E+00 0. -1.
         11    1    3    3    0    0  0.15821479698E+02 -0.58724501783E+01  0.19815091439E+02  0.26027730210E+02  0.51100000000E-03 0. -1.
        -11    1    3    3    0    0 -0.29957953001E+01 -0.10346853155E+01  0.92560749888E+01  0.97836745470E+01  0.51100000000E-03 0.  1.
        -12    1    3    3    0    0 -0.58234064995E+01 -0.11988137797E+02  0.62431391916E+01  0.14717482735E+02  0.00000000000E+00 0.  1.
</event>
<event>
 7    1  0.2746803E-013  0.5052888E+02  0.7816164E-02  0.1300439E+00
        -11   -1    0    0    0    0  0.00000000000E+00  0.00000000000E+00  0.45593999997E+02  0.45594000000E+02  0.51100000000E-03 0. -1.
         11   -1    0    0    0    0 -0.00000000000E+00 -0.00000000000E+00 -0.45593999997E+02  0.45594000000E+02  0.51100000000E-03 0.  1.
    9900012    2    1    2    0    0 -0.38926190079E+02  0.10090471507E+02 -0.60081752691E+01  0.50528879752E+02  0.30000060494E+02 0.  0.
         12    1    1    2    0    0  0.38926190079E+02 -0.10090471507E+02  0.60081752691E+01  0.40659120248E+02  0.00000000000E+00 0. -1.
         11    1    3    3    0    0 -0.23481298376E+02  0.43180369946E+01 -0.60094624371E+01  0.24619716813E+02  0.51100000000E-03 0. -1.
        -11    1    3    3    0    0 -0.70160114002E+01 -0.65627845841E+01  0.40569095287E+01  0.10428474129E+02  0.51100000000E-03 0.  1.
         12    1    3    3    0    0 -0.84288803025E+01  0.12335219097E+02 -0.40556223606E+01  0.15480688810E+02  0.00000000000E+00 0. -1.
</event>
<event>
 7    1  0.2746803E-013  0.5052893E+02  0.7816164E-02  0.1300439E+00
        -11   -1    0    0    0    0  0.00000000000E+00  0.00000000000E+00  0.45593999997E+02  0.45594000000E+02  0.51100000000E-03 0. -1.
         11   -1    0    0    0    0 -0.00000000000E+00 -0.00000000000E+00 -0.45593999997E+02  0.45594000000E+02  0.51100000000E-03 0.  1.
    9900012    2    1    2    0    0 -0.15547244893E+02  0.22272243303E+02 -0.30255423264E+02  0.50528926198E+02  0.30000201672E+02 0.  0.
         12    1    1    2    0    0  0.15547244893E+02 -0.22272243303E+02  0.30255423264E+02  0.40659073802E+02  0.00000000000E+00 0. -1.
         11    1    3    3    0    0  0.16767416713E+01  0.28093904629E+01  0.12409712019E+01  0.34991637844E+01  0.51100000000E-03 0.  1.
        -11    1    3    3    0    0 -0.68006459314E+01  0.17897526049E+01 -0.24283079651E+02  0.25280821923E+02  0.51100000000E-03 0. -1.
         12    1    3    3    0    0 -0.10423340633E+02  0.17673100235E+02 -0.72133148150E+01  0.21748940491E+02  0.00000000000E+00 0. -1.
</event>
<event>
 7    1  0.2746803E-013  0.5052886E+02  0.7816164E-02  0.1300439E+00
        -11   -1    0    0    0    0  0.00000000000E+00  0.00000000000E+00  0.45593999997E+02  0.45594000000E+02  0.51100000000E-03 0.  1.
         11   -1    0    0    0    0 -0.00000000000E+00 -0.00000000000E+00 -0.45593999997E+02  0.45594000000E+02  0.51100000000E-03 0. -1.
    9900012    2    1    2    0    0  0.29206156412E+02  0.24627071624E+02  0.13916659550E+02  0.50528860288E+02  0.30000001330E+02 0.  0.
         12    1    1    2    0    0 -0.29206156412E+02 -0.24627071624E+02 -0.13916659550E+02  0.40659139712E+02  0.00000000000E+00 0. -1.
         11    1    3    3    0    0 -0.73062327920E+00  0.65537861238E+01  0.11662702523E+01  0.66967237881E+01  0.51100000000E-03 0. -1.
        -11    1    3    3    0    0  0.17055494005E+02  0.89273773851E+01 -0.51795814954E+01  0.19935295520E+02  0.51100000000E-03 0.  1.
        -12    1    3    3    0    0  0.12881285686E+02  0.91459081147E+01  0.17929970793E+02  0.23896840979E+02  0.00000000000E+00 0.  1.
</event>
<event>
 7    1  0.2746803E-013  0.5052886E+02  0.7816164E-02  0.1300439E+00
        -11   -1    0    0    0    0  0.00000000000E+00  0.00000000000E+00  0.45593999997E+02  0.45594000000E+02  0.51100000000E-03 0. -1.
         11   -1    0    0    0    0 -0.00000000000E+00 -0.00000000000E+00 -0.45593999997E+02  0.45594000000E+02  0.51100000000E-03 0.  1.
    9900012    2    1    2    0    0  0.56745452203E+01 -0.38576932699E+02 -0.11523246111E+02  0.50528863255E+02  0.30000010351E+02 0.  0.
         12    1    1    2    0    0 -0.56745452203E+01  0.38576932699E+02  0.11523246111E+02  0.40659136745E+02  0.00000000000E+00 0. -1.
         11    1    3    3    0    0  0.43270863332E+01  0.71870994311E+00  0.10974657962E+01  0.45215762243E+01  0.51100000000E-03 0. -1.
        -11    1    3    3    0    0 -0.91665018730E+01 -0.23887979763E+02 -0.75598865116E+01  0.26679809183E+02  0.51100000000E-03 0.  1.
         12    1    3    3    0    0  0.10513960760E+02 -0.15407662879E+02 -0.50608253960E+01  0.19327477847E+02  0.00000000000E+00 0. -1.
</event>
<event>
 7    1  0.2746803E-013  0.5052887E+02  0.7816164E-02  0.1300439E+00
        -11   -1    0    0    0    0  0.00000000000E+00  0.00000000000E+00  0.45593999997E+02  0.45594000000E+02  0.51100000000E-03 0.  1.
         11   -1    0    0    0    0 -0.00000000000E+00 -0.00000000000E+00 -0.45593999997E+02  0.45594000000E+02  0.51100000000E-03 0. -1.
    9900012    2    1    2    0    0 -0.38761774430E+02  0.86027371371E+01 -0.87568721012E+01  0.50528867542E+02  0.30000023382E+02 0.  0.
         12    1    1    2    0    0  0.38761774430E+02 -0.86027371371E+01  0.87568721012E+01  0.40659132458E+02  0.00000000000E+00 0. -1.
         11    1    3    3    0    0 -0.42751483645E+01  0.27866707081E+01 -0.10476110559E+02  0.11652953268E+02  0.51100000000E-03 0. -1.
        -11    1    3    3    0    0 -0.19436275847E+02  0.91579644633E+01 -0.49976451863E+01  0.22059319789E+02  0.51100000000E-03 0.  1.
         12    1    3    3    0    0 -0.15050350219E+02 -0.33418980343E+01  0.67168836439E+01  0.16816594485E+02  0.00000000000E+00 0. -1.
</event>
<event>
 7    1  0.2746803E-013  0.5052886E+02  0.7816164E-02  0.1300439E+00
        -11   -1    0    0    0    0  0.00000000000E+00  0.00000000000E+00  0.45593999997E+02  0.45594000000E+02  0.51100000000E-03 0.  1.
         11   -1    0    0    0    0 -0.00000000000E+00 -0.00000000000E+00 -0.45593999997E+02  0.45594000000E+02  0.51100000000E-03 0. -1.
    9900012    2    1    2    0    0  0.21711104216E+02  0.91938707636E+01  0.33125006553E+02  0.50528863696E+02  0.30000011690E+02 0.  0.
         12    1    1    2    0    0 -0.21711104216E+02 -0.91938707636E+01 -0.33125006553E+02  0.40659136304E+02  0.00000000000E+00 0. -1.
         11    1    3    3    0    0  0.77616096589E+01  0.21206200623E+01  0.14254689506E+02  0.16368744213E+02  0.51100000000E-03 0. -1.
        -11    1    3    3    0    0 -0.25586080248E+01  0.17449720739E+01  0.16338735735E+02  0.16629662902E+02  0.51100000000E-03 0.  1.
         12    1    3    3    0    0  0.16508102582E+02  0.53282786274E+01  0.25315813118E+01  0.17530456580E+02  0.00000000000E+00 0. -1.
</event>
<event>
 7    1  0.2746803E-013  0.5052886E+02  0.7816164E-02  0.1300439E+00
        -11   -1    0    0    0    0  0.00000000000E+00  0.00000000000E+00  0.45593999997E+02  0.45594000000E+02  0.51100000000E-03 0.  1.
         11   -1    0    0    0    0 -0.00000000000E+00 -0.00000000000E+00 -0.45593999997E+02  0.45594000000E+02  0.51100000000E-03 0. -1.
    9900012    2    1    2    0    0  0.78521412209E+01  0.14055833270E+02  0.37335552175E+02  0.50528855557E+02  0.29999986950E+02 0.  0.
         12    1    1    2    0    0 -0.78521412209E+01 -0.14055833270E+02 -0.37335552175E+02  0.40659144443E+02  0.00000000000E+00 0. -1.
         11    1    3    3    0    0  0.58046109265E+01  0.76727038643E+01  0.25683797189E+01  0.99579348883E+01  0.51100000000E-03 0. -1.
        -11    1    3    3    0    0  0.46817185290E+01  0.12901584007E+02  0.25243080996E+02  0.28732951409E+02  0.51100000000E-03 0.  1.
        -12    1    3    3    0    0 -0.26341882346E+01 -0.65184546006E+01  0.95240914602E+01  0.11837969259E+02  0.00000000000E+00 0.  1.
</event>
<event>
 7    1  0.2746803E-013  0.5052884E+02  0.7816164E-02  0.1300439E+00
        -11   -1    0    0    0    0  0.00000000000E+00  0.00000000000E+00  0.45593999997E+02  0.45594000000E+02  0.51100000000E-03 0. -1.
         11   -1    0    0    0    0 -0.00000000000E+00 -0.00000000000E+00 -0.45593999997E+02  0.45594000000E+02  0.51100000000E-03 0.  1.
    9900012    2    1    2    0    0 -0.10377723476E+02 -0.32414096514E+02  0.22244014316E+02  0.50528843955E+02  0.29999951687E+02 0.  0.
         12    1    1    2    0    0  0.10377723476E+02  0.32414096514E+02 -0.22244014316E+02  0.40659156045E+02  0.00000000000E+00 0. -1.
         11    1    3    3    0    0  0.17529716765E+01 -0.12511958742E+02  0.17405299094E+02  0.21507358231E+02  0.51100000000E-03 0. -1.
        -11    1    3    3    0    0 -0.12127379660E+02 -0.14763939576E+02  0.10147180710E+02  0.21633597154E+02  0.51100000000E-03 0.  1.
        -12    1    3    3    0    0 -0.33154928678E-02 -0.51381981965E+01 -0.53084654876E+01  0.73878885706E+01  0.00000000000E+00 0.  1.
</event>
<event>
 7    1  0.2746803E-013  0.5052886E+02  0.7816164E-02  0.1300439E+00
        -11   -1    0    0    0    0  0.00000000000E+00  0.00000000000E+00  0.45593999997E+02  0.45594000000E+02  0.51100000000E-03 0.  1.
         11   -1    0    0    0    0 -0.00000000000E+00 -0.00000000000E+00 -0.45593999997E+02  0.45594000000E+02  0.51100000000E-03 0. -1.
    9900012    2    1    2    0    0  0.15039935233E+02 -0.26010791829E+02  0.27393513227E+02  0.50528861909E+02  0.30000006259E+02 0.  0.
         12    1    1    2    0    0 -0.15039935233E+02  0.26010791829E+02 -0.27393513227E+02  0.40659138091E+02  0.00000000000E+00 0. -1.
         11    1    3    3    0    0  0.17877778227E+02 -0.54014501448E+01  0.14724101763E+02  0.23782131759E+02  0.51100000000E-03 0. -1.
        -11    1    3    3    0    0 -0.90075935501E+00  0.23858950597E-01 -0.14236817905E+01  0.16848758906E+01  0.51100000000E-03 0.  1.
        -12    1    3    3    0    0 -0.19370836395E+01 -0.20633200634E+02  0.14093093255E+02  0.25061854260E+02  0.00000000000E+00 0.  1.
</event>
<event>
 7    1  0.2746803E-013  0.5052883E+02  0.7816164E-02  0.1300439E+00
        -11   -1    0    0    0    0  0.00000000000E+00  0.00000000000E+00  0.45593999997E+02  0.45594000000E+02  0.51100000000E-03 0.  1.
         11   -1    0    0    0    0 -0.00000000000E+00 -0.00000000000E+00 -0.45593999997E+02  0.45594000000E+02  0.51100000000E-03 0. -1.
    9900012    2    1    2    0    0 -0.25841105642E+01  0.37173891140E+02 -0.16266297076E+02  0.50528828458E+02  0.29999904581E+02 0.  0.
         12    1    1    2    0    0  0.25841105642E+01 -0.37173891140E+02  0.16266297076E+02  0.40659171542E+02  0.00000000000E+00 0. -1.
         11    1    3    3    0    0  0.29121043479E+01  0.26038665365E+02 -0.19435794676E+02  0.32622730736E+02  0.51100000000E-03 0. -1.
        -11    1    3    3    0    0 -0.50404194165E+01  0.78014273151E+01 -0.39023622403E+01  0.10074548494E+02  0.51100000000E-03 0.  1.
        -12    1    3    3    0    0 -0.45579549552E+00  0.33337984597E+01  0.70718598401E+01  0.78315492275E+01  0.00000000000E+00 0.  1.
</event>
<event>
 7    1  0.2746803E-013  0.5052885E+02  0.7816164E-02  0.1300439E+00
        -11   -1    0    0    0    0  0.00000000000E+00  0.00000000000E+00  0.45593999997E+02  0.45594000000E+02  0.51100000000E-03 0.  1.
         11   -1    0    0    0    0 -0.00000000000E+00 -0.00000000000E+00 -0.45593999997E+02  0.45594000000E+02  0.51100000000E-03 0. -1.
    9900012    2    1    2    0    0 -0.37681448666E+02 -0.12174874128E+02  0.92221064491E+01  0.50528851202E+02  0.29999973715E+02 0.  0.
         12    1    1    2    0    0  0.37681448666E+02  0.12174874128E+02 -0.92221064491E+01  0.40659148798E+02  0.00000000000E+00 0. -1.
         11    1    3    3    0    0 -0.57099884454E+00  0.18289680109E+01  0.63896312968E+01  0.66707235017E+01  0.51100000000E-03 0. -1.
        -11    1    3    3    0    0 -0.10912996755E+02 -0.73940368576E+01  0.92305283285E+01  0.16092480627E+02  0.51100000000E-03 0.  1.
         12    1    3    3    0    0 -0.26197453066E+02 -0.66098052816E+01 -0.63980531762E+01  0.27765647074E+02  0.00000000000E+00 0. -1.
</event>
<event>
 7    1  0.2746803E-013  0.5052887E+02  0.7816164E-02  0.1300439E+00
        -11   -1    0    0    0    0  0.00000000000E+00  0.00000000000E+00  0.45593999997E+02  0.45594000000E+02  0.51100000000E-03 0. -1.
         11   -1    0    0    0    0 -0.00000000000E+00 -0.00000000000E+00 -0.45593999997E+02  0.45594000000E+02  0.51100000000E-03 0.  1.
    9900012    2    1    2    0    0 -0.20275471146E+02  0.13474680545E+02 -0.32565370259E+02  0.50528867125E+02  0.30000022115E+02 0.  0.
         12    1    1    2    0    0  0.20275471146E+02 -0.13474680545E+02  0.32565370259E+02  0.40659132875E+02  0.00000000000E+00 0. -1.
         11    1    3    3    0    0 -0.59253453075E+01  0.18291526934E+02 -0.73655936916E+01  0.20589843255E+02  0.51100000000E-03 0. -1.
        -11    1    3    3    0    0 -0.43622931606E+01 -0.39678968141E+01 -0.69240636803E+01  0.90948592543E+01  0.51100000000E-03 0.  1.
        -12    1    3    3    0    0 -0.99878326779E+01 -0.84894957521E+00 -0.18275712887E+02  0.20844164616E+02  0.00000000000E+00 0.  1.
</event>
<event>
 7    1  0.2746803E-013  0.5052886E+02  0.7816164E-02  0.1300439E+00
        -11   -1    0    0    0    0  0.00000000000E+00  0.00000000000E+00  0.45593999997E+02  0.45594000000E+02  0.51100000000E-03 0. -1.
         11   -1    0    0    0    0 -0.00000000000E+00 -0.00000000000E+00 -0.45593999997E+02  0.45594000000E+02  0.51100000000E-03 0.  1.
    9900012    2    1    2    0    0  0.19026905873E+01  0.28786953010E+02 -0.28650600411E+02  0.50528858359E+02  0.29999995467E+02 0.  0.
         12    1    1    2    0    0 -0.19026905873E+01 -0.28786953010E+02  0.28650600411E+02  0.40659141641E+02  0.00000000000E+00 0. -1.
         11    1    3    3    0    0  0.81582505622E+01 -0.19465278945E+01 -0.22950110477E+01  0.86955792820E+01  0.51100000000E-03 0. -1.
        -11    1    3    3    0    0 -0.15732133045E+01  0.53530683275E+01 -0.10289976843E+01  0.56735506621E+01  0.51100000000E-03 0.  1.
        -12    1    3    3    0    0 -0.46823466703E+01  0.25380412577E+02 -0.25326591679E+02  0.36159728415E+02  0.00000000000E+00 0.  1.
</event>
<event>
 7    1  0.2746803E-013  0.5052887E+02  0.7816164E-02  0.1300439E+00
        -11   -1    0    0    0    0  0.00000000000E+00  0.00000000000E+00  0.45593999997E+02  0.45594000000E+02  0.51100000000E-03 0. -1.
         11   -1    0    0    0    0 -0.00000000000E+00 -0.00000000000E+00 -0.45593999997E+02  0.45594000000E+02  0.51100000000E-03 0.  1.
    9900012    2    1    2    0    0 -0.24108628058E+02 -0.30021129531E+02 -0.13064100541E+02  0.50528869560E+02  0.30000029516E+02 0.  0.
         12    1    1    2    0    0  0.24108628058E+02  0.30021129531E+02  0.13064100541E+02  0.40659130440E+02  0.00000000000E+00 0. -1.
         11    1    3    3    0    0 -0.18527894455E+02 -0.79742231992E+01  0.38366191430E+00  0.20174694677E+02  0.51100000000E-03 0. -1.
        -11    1    3    3    0    0 -0.81939926028E+01 -0.21636186153E+02 -0.83237690086E+01  0.24587622837E+02  0.51100000000E-03 0.  1.
        -12    1    3    3    0    0  0.26132589999E+01 -0.41072017899E+00 -0.51239934463E+01  0.57665520464E+01  0.00000000000E+00 0.  1.
</event>
<event>
 7    1  0.2746803E-013  0.5052886E+02  0.7816164E-02  0.1300439E+00
        -11   -1    0    0    0    0  0.00000000000E+00  0.00000000000E+00  0.45593999997E+02  0.45594000000E+02  0.51100000000E-03 0.  1.
         11   -1    0    0    0    0 -0.00000000000E+00 -0.00000000000E+00 -0.45593999997E+02  0.45594000000E+02  0.51100000000E-03 0. -1.
    9900012    2    1    2    0    0 -0.38787695962E+01 -0.38892362096E+02  0.11202883854E+02  0.50528864622E+02  0.30000014506E+02 0.  0.
         12    1    1    2    0    0  0.38787695962E+01  0.38892362096E+02 -0.11202883854E+02  0.40659135378E+02  0.00000000000E+00 0. -1.
         11    1    3    3    0    0 -0.11178512578E+01 -0.20298170926E+02 -0.32443809241E+01  0.20586193000E+02  0.51100000000E-03 0. -1.
        -11    1    3    3    0    0  0.14767306043E+01 -0.19466374435E+02  0.16106556136E+02  0.25308923678E+02  0.51100000000E-03 0.  1.
         12    1    3    3    0    0 -0.42376489427E+01  0.87218326437E+00 -0.16592913580E+01  0.46337479451E+01  0.00000000000E+00 0. -1.
</event>
<event>
 7    1  0.2746803E-013  0.5052887E+02  0.7816164E-02  0.1300439E+00
        -11   -1    0    0    0    0  0.00000000000E+00  0.00000000000E+00  0.45593999997E+02  0.45594000000E+02  0.51100000000E-03 0.  1.
         11   -1    0    0    0    0 -0.00000000000E+00 -0.00000000000E+00 -0.45593999997E+02  0.45594000000E+02  0.51100000000E-03 0. -1.
    9900012    2    1    2    0    0  0.21524337409E+02  0.29239520656E+02  0.18300773033E+02  0.50528868643E+02  0.30000026727E+02 0.  0.
         12    1    1    2    0    0 -0.21524337409E+02 -0.29239520656E+02 -0.18300773033E+02  0.40659131357E+02  0.00000000000E+00 0. -1.
         11    1    3    3    0    0 -0.55930085096E+00 -0.20932576301E+01 -0.50705792958E+00  0.22252309886E+01  0.51100000000E-03 0. -1.
        -11    1    3    3    0    0 -0.28546599076E+01  0.11422863305E+02  0.93063584511E+01  0.15007971120E+02  0.51100000000E-03 0.  1.
        -12    1    3    3    0    0  0.24938298167E+02  0.19909914982E+02  0.95014725116E+01  0.33295666534E+02  0.00000000000E+00 0.  1.
</event>
<event>
 7    1  0.2746803E-013  0.5052885E+02  0.7816164E-02  0.1300439E+00
        -11   -1    0    0    0    0  0.00000000000E+00  0.00000000000E+00  0.45593999997E+02  0.45594000000E+02  0.51100000000E-03 0. -1.
         11   -1    0    0    0    0 -0.00000000000E+00 -0.00000000000E+00 -0.45593999997E+02  0.45594000000E+02  0.51100000000E-03 0.  1.
    9900012    2    1    2    0    0  0.23527299813E+02 -0.14293660949E+02 -0.29921967529E+02  0.50528847025E+02  0.29999961018E+02 0.  0.
         12    1    1    2    0    0 -0.23527299813E+02  0.14293660949E+02  0.29921967529E+02  0.40659152975E+02  0.00000000000E+00 0. -1.
         11    1    3    3    0    0  0.18399969892E+02 -0.15245873696E+01 -0.11537807839E+02  0.21771639090E+02  0.51100000000E-03 0. -1.
        -11    1    3    3    0    0 -0.33366504121E+00  0.19766164513E+01 -0.11359511261E+02  0.11535026715E+02  0.51100000000E-03 0.  1.
        -12    1    3    3    0    0  0.54609949624E+01 -0.14745690030E+02 -0.70246484286E+01  0.17222181221E+02  0.00000000000E+00 0.  1.
</event>
<event>
 7    1  0.2746803E-013  0.5052883E+02  0.7816164E-02  0.1300439E+00
        -11   -1    0    0    0    0  0.00000000000E+00  0.00000000000E+00  0.45593999997E+02  0.45594000000E+02  0.51100000000E-03 0. -1.
         11   -1    0    0    0    0 -0.00000000000E+00 -0.00000000000E+00 -0.45593999997E+02  0.45594000000E+02  0.51100000000E-03 0.  1.
    9900012    2    1    2    0    0 -0.38872859600E+02  0.83078515946E+01 -0.85468265232E+01  0.50528833073E+02  0.29999918609E+02 0.  0.
         12    1    1    2    0    0  0.38872859600E+02 -0.83078515946E+01  0.85468265232E+01  0.40659166927E+02  0.00000000000E+00 0. -1.
         11    1    3    3    0    0 -0.92225796729E+01 -0.35829799344E+01 -0.11055220376E+02  0.14836159168E+02  0.51100000000E-03 0.  1.
        -11    1    3    3    0    0 -0.33350929224E+01  0.71515603279E+01  0.41272682851E+01  0.89051672462E+01  0.51100000000E-03 0. -1.
         12    1    3    3    0    0 -0.26315187004E+02  0.47392712011E+01 -0.16188744325E+01  0.26787506659E+02  0.00000000000E+00 0. -1.
</event>
<event>
 7    1  0.2746803E-013  0.5052886E+02  0.7816164E-02  0.1300439E+00
        -11   -1    0    0    0    0  0.00000000000E+00  0.00000000000E+00  0.45593999997E+02  0.45594000000E+02  0.51100000000E-03 0. -1.
         11   -1    0    0    0    0 -0.00000000000E+00 -0.00000000000E+00 -0.45593999997E+02  0.45594000000E+02  0.51100000000E-03 0.  1.
    9900012    2    1    2    0    0 -0.26078240645E+02 -0.30150020952E+02 -0.80041914544E+01  0.50528862289E+02  0.30000007414E+02 0.  0.
         12    1    1    2    0    0  0.26078240645E+02  0.30150020952E+02  0.80041914544E+01  0.40659137711E+02  0.00000000000E+00 0. -1.
         11    1    3    3    0    0 -0.12869081311E+02 -0.31127644211E+01 -0.19698916508E+01  0.13385926547E+02  0.51100000000E-03 0. -1.
        -11    1    3    3    0    0 -0.92661791480E+01 -0.20552124625E+02 -0.13679557009E+02  0.26370100168E+02  0.51100000000E-03 0.  1.
         12    1    3    3    0    0 -0.39429801859E+01 -0.64851319052E+01  0.76452572058E+01  0.10772835575E+02  0.00000000000E+00 0. -1.
</event>
<event>
 7    1  0.2746803E-013  0.5052889E+02  0.7816164E-02  0.1300439E+00
        -11   -1    0    0    0    0  0.00000000000E+00  0.00000000000E+00  0.45593999997E+02  0.45594000000E+02  0.51100000000E-03 0. -1.
         11   -1    0    0    0    0 -0.00000000000E+00 -0.00000000000E+00 -0.45593999997E+02  0.45594000000E+02  0.51100000000E-03 0.  1.
    9900012    2    1    2    0    0 -0.17314135539E+02 -0.20250642617E+02 -0.30713110478E+02  0.50528893135E+02  0.30000101173E+02 0.  0.
         12    1    1    2    0    0  0.17314135539E+02  0.20250642617E+02  0.30713110478E+02  0.40659106865E+02  0.00000000000E+00 0. -1.
         11    1    3    3    0    0 -0.93654908837E+00 -0.10659836719E+01  0.99405715014E+00  0.17325112590E+01  0.51100000000E-03 0. -1.
        -11    1    3    3    0    0 -0.19753410503E+02 -0.91095589965E+01 -0.86515378439E+01  0.23410049102E+02  0.51100000000E-03 0.  1.
        -12    1    3    3    0    0  0.33758240525E+01 -0.10075099948E+02 -0.23055629784E+02  0.25386332774E+02  0.00000000000E+00 0.  1.
</event>
<event>
 7    1  0.2746803E-013  0.5052886E+02  0.7816164E-02  0.1300439E+00
        -11   -1    0    0    0    0  0.00000000000E+00  0.00000000000E+00  0.45593999997E+02  0.45594000000E+02  0.51100000000E-03 0.  1.
         11   -1    0    0    0    0 -0.00000000000E+00 -0.00000000000E+00 -0.45593999997E+02  0.45594000000E+02  0.51100000000E-03 0. -1.
    9900012    2    1    2    0    0 -0.66142837969E+01 -0.15952053187E+02  0.36809634372E+02  0.50528856703E+02  0.29999990435E+02 0.  0.
         12    1    1    2    0    0  0.66142837969E+01  0.15952053187E+02 -0.36809634372E+02  0.40659143297E+02  0.00000000000E+00 0. -1.
         11    1    3    3    0    0  0.74847796876E+01 -0.11592652203E+01  0.33338634246E+01  0.82752926485E+01  0.51100000000E-03 0. -1.
        -11    1    3    3    0    0  0.26326784026E+01 -0.64963642432E+01  0.75581154877E+01  0.10308193534E+02  0.51100000000E-03 0.  1.
         12    1    3    3    0    0 -0.16731741887E+02 -0.82964237237E+01  0.25917655459E+02  0.31945370521E+02  0.00000000000E+00 0. -1.
</event>
<event>
 7    1  0.2746803E-013  0.5052886E+02  0.7816164E-02  0.1300439E+00
        -11   -1    0    0    0    0  0.00000000000E+00  0.00000000000E+00  0.45593999997E+02  0.45594000000E+02  0.51100000000E-03 0.  1.
         11   -1    0    0    0    0 -0.00000000000E+00 -0.00000000000E+00 -0.45593999997E+02  0.45594000000E+02  0.51100000000E-03 0. -1.
    9900012    2    1    2    0    0  0.33384614629E+02 -0.10323185291E+02  0.20786173435E+02  0.50528860134E+02  0.30000000865E+02 0.  0.
         12    1    1    2    0    0 -0.33384614629E+02  0.10323185291E+02 -0.20786173435E+02  0.40659139866E+02  0.00000000000E+00 0. -1.
         11    1    3    3    0    0  0.23422329315E+02 -0.11392882549E+02  0.93671232841E+01  0.27679347576E+02  0.51100000000E-03 0. -1.
        -11    1    3    3    0    0  0.36068602061E+01 -0.64086986900E+01  0.10733932552E+02  0.13011462936E+02  0.51100000000E-03 0.  1.
        -12    1    3    3    0    0  0.63554251082E+01  0.74783959477E+01  0.68511759935E+00  0.98380496228E+01  0.00000000000E+00 0.  1.
</event>
<event>
 7    1  0.2746803E-013  0.5052886E+02  0.7816164E-02  0.1300439E+00
        -11   -1    0    0    0    0  0.00000000000E+00  0.00000000000E+00  0.45593999997E+02  0.45594000000E+02  0.51100000000E-03 0.  1.
         11   -1    0    0    0    0 -0.00000000000E+00 -0.00000000000E+00 -0.45593999997E+02  0.45594000000E+02  0.51100000000E-03 0. -1.
    9900012    2    1    2    0    0 -0.36833774393E+01 -0.11354565302E+02  0.38867366175E+02  0.50528861102E+02  0.30000003805E+02 0.  0.
         12    1    1    2    0    0  0.36833774393E+01  0.11354565302E+02 -0.38867366175E+02  0.40659138898E+02  0.00000000000E+00 0. -1.
         11    1    3    3    0    0 -0.27667515749E+01  0.17948242933E+01 -0.30031466800E+01  0.44604034306E+01  0.51100000000E-03 0. -1.
        -11    1    3    3    0    0  0.45015680041E+01 -0.24854677480E+01  0.45095687891E+01  0.68394353090E+01  0.51100000000E-03 0.  1.
        -12    1    3    3    0    0 -0.54181938685E+01 -0.10663921848E+02  0.37360944066E+02  0.39229022362E+02  0.00000000000E+00 0.  1.
</event>
<event>
 7    1  0.2746803E-013  0.5052887E+02  0.7816164E-02  0.1300439E+00
        -11   -1    0    0    0    0  0.00000000000E+00  0.00000000000E+00  0.45593999997E+02  0.45594000000E+02  0.51100000000E-03 0.  1.
         11   -1    0    0    0    0 -0.00000000000E+00 -0.00000000000E+00 -0.45593999997E+02  0.45594000000E+02  0.51100000000E-03 0. -1.
    9900012    2    1    2    0    0  0.51587896759E+01 -0.31995184584E+02 -0.24553198916E+02  0.50528874032E+02  0.30000043108E+02 0.  0.
         12    1    1    2    0    0 -0.51587896759E+01  0.31995184584E+02  0.24553198916E+02  0.40659125968E+02  0.00000000000E+00 0. -1.
         11    1    3    3    0    0  0.16377922274E+01 -0.13157138728E+02  0.23913432288E+01  0.13472608715E+02  0.51100000000E-03 0. -1.
        -11    1    3    3    0    0 -0.26942050655E+01 -0.16352065616E+02 -0.11352403930E+02  0.20087953257E+02  0.51100000000E-03 0.  1.
         12    1    3    3    0    0  0.62152025140E+01 -0.24859802408E+01 -0.15592138215E+02  0.16968312060E+02  0.00000000000E+00 0. -1.
</event>
<event>
 7    1  0.2746803E-013  0.5052886E+02  0.7816164E-02  0.1300439E+00
        -11   -1    0    0    0    0  0.00000000000E+00  0.00000000000E+00  0.45593999997E+02  0.45594000000E+02  0.51100000000E-03 0. -1.
         11   -1    0    0    0    0 -0.00000000000E+00 -0.00000000000E+00 -0.45593999997E+02  0.45594000000E+02  0.51100000000E-03 0.  1.
    9900012    2    1    2    0    0 -0.24728656142E+02 -0.31916123701E+02 -0.47979301235E+01  0.50528861788E+02  0.30000005890E+02 0.  0.
         12    1    1    2    0    0  0.24728656142E+02  0.31916123701E+02  0.47979301235E+01  0.40659138212E+02  0.00000000000E+00 0. -1.
         11    1    3    3    0    0 -0.35201641012E+01 -0.10390928185E+02  0.10763897461E+02  0.15369594421E+02  0.51100000000E-03 0. -1.
        -11    1    3    3    0    0 -0.16635523082E+02 -0.11420940260E+02 -0.78551547511E+01  0.21653682391E+02  0.51100000000E-03 0.  1.
        -12    1    3    3    0    0 -0.45729689583E+01 -0.10104255256E+02 -0.77066728338E+01  0.13505584976E+02  0.00000000000E+00 0.  1.
</event>
<event>
 7    1  0.2746803E-013  0.5052886E+02  0.7816164E-02  0.1300439E+00
        -11   -1    0    0    0    0  0.00000000000E+00  0.00000000000E+00  0.45593999997E+02  0.45594000000E+02  0.51100000000E-03 0.  1.
         11   -1    0    0    0    0 -0.00000000000E+00 -0.00000000000E+00 -0.45593999997E+02  0.45594000000E+02  0.51100000000E-03 0. -1.
    9900012    2    1    2    0    0  0.34828044683E+02  0.87753774185E+01  0.19056910638E+02  0.50528858490E+02  0.29999995867E+02 0.  0.
         12    1    1    2    0    0 -0.34828044683E+02 -0.87753774185E+01 -0.19056910638E+02  0.40659141510E+02  0.00000000000E+00 0. -1.
         11    1    3    3    0    0  0.94918501077E+01  0.82615038368E+01  0.12629998715E+02  0.17828755759E+02  0.51100000000E-03 0. -1.
        -11    1    3    3    0    0  0.15454834168E+02 -0.31318759182E+01  0.12869043366E+02  0.20353693114E+02  0.51100000000E-03 0.  1.
         12    1    3    3    0    0  0.98813604069E+01  0.36457494999E+01 -0.64421314437E+01  0.12346409618E+02  0.00000000000E+00 0. -1.
</event>
<event>
 7    1  0.2746803E-013  0.5052886E+02  0.7816164E-02  0.1300439E+00
        -11   -1    0    0    0    0  0.00000000000E+00  0.00000000000E+00  0.45593999997E+02  0.45594000000E+02  0.51100000000E-03 0.  1.
         11   -1    0    0    0    0 -0.00000000000E+00 -0.00000000000E+00 -0.45593999997E+02  0.45594000000E+02  0.51100000000E-03 0. -1.
    9900012    2    1    2    0    0  0.17348812741E+02  0.28069862887E+02 -0.23754308027E+02  0.50528860119E+02  0.30000000819E+02 0.  0.
         12    1    1    2    0    0 -0.17348812741E+02 -0.28069862887E+02  0.23754308027E+02  0.40659139881E+02  0.00000000000E+00 0. -1.
         11    1    3    3    0    0  0.65713524528E+01  0.13264048272E+02 -0.11881508299E+02  0.18981250995E+02  0.51100000000E-03 0. -1.
        -11    1    3    3    0    0  0.13974829375E+02  0.11494997867E+02  0.75128356153E+00  0.18110639395E+02  0.51100000000E-03 0.  1.
         12    1    3    3    0    0 -0.31973690871E+01  0.33108167472E+01 -0.12624083289E+02  0.13436969729E+02  0.00000000000E+00 0. -1.
</event>
<event>
 7    1  0.2746803E-013  0.5052886E+02  0.7816164E-02  0.1300439E+00
        -11   -1    0    0    0    0  0.00000000000E+00  0.00000000000E+00  0.45593999997E+02  0.45594000000E+02  0.51100000000E-03 0. -1.
         11   -1    0    0    0    0 -0.00000000000E+00 -0.00000000000E+00 -0.45593999997E+02  0.45594000000E+02  0.51100000000E-03 0.  1.
    9900012    2    1    2    0    0  0.31352229233E+02  0.25879930128E+02 -0.65760040936E+00  0.50528862040E+02  0.30000006658E+02 0.  0.
         12    1    1    2    0    0 -0.31352229233E+02 -0.25879930128E+02  0.65760040936E+00  0.40659137960E+02  0.00000000000E+00 0. -1.
         11    1    3    3    0    0  0.11606429615E+02  0.12340434291E+02  0.78597999020E+01  0.18675437925E+02  0.51100000000E-03 0. -1.
        -11    1    3    3    0    0  0.23276610036E+02  0.13595896178E+02 -0.86770731153E+01  0.28318555149E+02  0.51100000000E-03 0.  1.
        -12    1    3    3    0    0 -0.35308104177E+01 -0.56400341456E-01  0.15967280390E+00  0.35348689663E+01  0.00000000000E+00 0.  1.
</event>
<event>
 7    1  0.2746803E-013  0.5052895E+02  0.7816164E-02  0.1300438E+00
        -11   -1    0    0    0    0  0.00000000000E+00  0.00000000000E+00  0.45593999997E+02  0.45594000000E+02  0.51100000000E-03 0.  1.
         11   -1    0    0    0    0 -0.00000000000E+00 -0.00000000000E+00 -0.45593999997E+02  0.45594000000E+02  0.51100000000E-03 0. -1.
    9900012    2    1    2    0    0  0.31324794454E+02 -0.51155358977E+01  0.25411552843E+02  0.50528948449E+02  0.30000269304E+02 0.  0.
         12    1    1    2    0    0 -0.31324794454E+02  0.51155358977E+01 -0.25411552843E+02  0.40659051551E+02  0.00000000000E+00 0. -1.
         11    1    3    3    0    0  0.17124390544E+02 -0.53223186641E+01  0.74113512464E+00  0.17947732698E+02  0.51100000000E-03 0. -1.
        -11    1    3    3    0    0  0.73447280169E+01  0.51994374627E+01  0.32921424644E+01  0.95821386881E+01  0.51100000000E-03 0.  1.
        -12    1    3    3    0    0  0.68556758935E+01 -0.49926546964E+01  0.21378275254E+02  0.22999077063E+02  0.00000000000E+00 0.  1.
</event>
<event>
 7    1  0.2746803E-013  0.5052886E+02  0.7816164E-02  0.1300439E+00
        -11   -1    0    0    0    0  0.00000000000E+00  0.00000000000E+00  0.45593999997E+02  0.45594000000E+02  0.51100000000E-03 0. -1.
         11   -1    0    0    0    0 -0.00000000000E+00 -0.00000000000E+00 -0.45593999997E+02  0.45594000000E+02  0.51100000000E-03 0.  1.
    9900012    2    1    2    0    0 -0.35450640510E+02 -0.13360885053E+02 -0.14761582762E+02  0.50528862188E+02  0.30000007107E+02 0.  0.
         12    1    1    2    0    0  0.35450640510E+02  0.13360885053E+02  0.14761582762E+02  0.40659137812E+02  0.00000000000E+00 0. -1.
         11    1    3    3    0    0 -0.10590727021E+02  0.52375751071E+01 -0.36722583317E+01  0.12372597680E+02  0.51100000000E-03 0. -1.
        -11    1    3    3    0    0 -0.12805800473E+02 -0.16831482078E+02  0.75786649789E+00  0.21162742653E+02  0.51100000000E-03 0.  1.
         12    1    3    3    0    0 -0.12054113016E+02 -0.17669780820E+01 -0.11847190929E+02  0.16993521855E+02  0.00000000000E+00 0. -1.
</event>
<event>
 7    1  0.2746803E-013  0.5052887E+02  0.7816164E-02  0.1300439E+00
        -11   -1    0    0    0    0  0.00000000000E+00  0.00000000000E+00  0.45593999997E+02  0.45594000000E+02  0.51100000000E-03 0.  1.
         11   -1    0    0    0    0 -0.00000000000E+00 -0.00000000000E+00 -0.45593999997E+02  0.45594000000E+02  0.51100000000E-03 0. -1.
    9900012    2    1    2    0    0 -0.27792364857E+02  0.20897543921E+02  0.21072312277E+02  0.50528865344E+02  0.30000016701E+02 0.  0.
         12    1    1    2    0    0  0.27792364857E+02 -0.20897543921E+02 -0.21072312277E+02  0.40659134656E+02  0.00000000000E+00 0. -1.
         11    1    3    3    0    0 -0.25836054221E+01 -0.48326013483E+01  0.24926146765E+01  0.60201479181E+01  0.51100000000E-03 0. -1.
        -11    1    3    3    0    0 -0.67984596658E+01  0.88541753916E+01  0.15848174998E+02  0.19385049052E+02  0.51100000000E-03 0.  1.
        -12    1    3    3    0    0 -0.18410299769E+02  0.16875969877E+02  0.27315226025E+01  0.25123668375E+02  0.00000000000E+00 0.  1.
</event>
<event>
 7    1  0.2746803E-013  0.5052885E+02  0.7816164E-02  0.1300439E+00
        -11   -1    0    0    0    0  0.00000000000E+00  0.00000000000E+00  0.45593999997E+02  0.45594000000E+02  0.51100000000E-03 0. -1.
         11   -1    0    0    0    0 -0.00000000000E+00 -0.00000000000E+00 -0.45593999997E+02  0.45594000000E+02  0.51100000000E-03 0.  1.
    9900012    2    1    2    0    0  0.37952207927E+02 -0.86545149331E+00 -0.14561840719E+02  0.50528852223E+02  0.29999976817E+02 0.  0.
         12    1    1    2    0    0 -0.37952207927E+02  0.86545149331E+00  0.14561840719E+02  0.40659147777E+02  0.00000000000E+00 0. -1.
         11    1    3    3    0    0  0.78374295224E+01  0.75342395755E+01 -0.10156650167E+02  0.14877755555E+02  0.51100000000E-03 0. -1.
        -11    1    3    3    0    0  0.21393301845E+02 -0.31639905991E+01 -0.10235985887E+02  0.23926128138E+02  0.51100000000E-03 0.  1.
         12    1    3    3    0    0  0.87214765594E+01 -0.52357004697E+01  0.58307953343E+01  0.11724968529E+02  0.00000000000E+00 0. -1.
</event>
<event>
 7    1  0.2746803E-013  0.5052889E+02  0.7816164E-02  0.1300439E+00
        -11   -1    0    0    0    0  0.00000000000E+00  0.00000000000E+00  0.45593999997E+02  0.45594000000E+02  0.51100000000E-03 0. -1.
         11   -1    0    0    0    0 -0.00000000000E+00 -0.00000000000E+00 -0.45593999997E+02  0.45594000000E+02  0.51100000000E-03 0.  1.
    9900012    2    1    2    0    0 -0.30157708529E+02 -0.41638492141E+01 -0.26950669748E+02  0.50528885107E+02  0.30000076773E+02 0.  0.
         12    1    1    2    0    0  0.30157708529E+02  0.41638492141E+01  0.26950669748E+02  0.40659114893E+02  0.00000000000E+00 0. -1.
         11    1    3    3    0    0 -0.10550914235E+02  0.56190008655E+01  0.22427588862E+01  0.12162439295E+02  0.51100000000E-03 0. -1.
        -11    1    3    3    0    0 -0.15716652475E+02 -0.58307278976E+01 -0.12891559505E+02  0.21147171431E+02  0.51100000000E-03 0.  1.
        -12    1    3    3    0    0 -0.38901418198E+01 -0.39521221820E+01 -0.16301869129E+02  0.17219274381E+02  0.00000000000E+00 0.  1.
</event>
<event>
 7    1  0.2746803E-013  0.5052885E+02  0.7816164E-02  0.1300439E+00
        -11   -1    0    0    0    0  0.00000000000E+00  0.00000000000E+00  0.45593999997E+02  0.45594000000E+02  0.51100000000E-03 0. -1.
         11   -1    0    0    0    0 -0.00000000000E+00 -0.00000000000E+00 -0.45593999997E+02  0.45594000000E+02  0.51100000000E-03 0.  1.
    9900012    2    1    2    0    0 -0.30787810381E+02  0.40751174355E+01 -0.26242540814E+02  0.50528846067E+02  0.29999958104E+02 0.  0.
         12    1    1    2    0    0  0.30787810381E+02 -0.40751174355E+01  0.26242540814E+02  0.40659153933E+02  0.00000000000E+00 0. -1.
         11    1    3    3    0    0  0.19498042081E+01  0.28737868641E+00 -0.84675422885E+01  0.86938826555E+01  0.51100000000E-03 0. -1.
        -11    1    3    3    0    0 -0.10444038639E+01  0.26816814339E+01  0.28140206769E+01  0.40250350775E+01  0.51100000000E-03 0.  1.
        -12    1    3    3    0    0 -0.31693210725E+02  0.11060573152E+01 -0.20589019203E+02  0.37809928334E+02  0.00000000000E+00 0.  1.
</event>
<event>
 7    1  0.2746803E-013  0.5052886E+02  0.7816164E-02  0.1300439E+00
        -11   -1    0    0    0    0  0.00000000000E+00  0.00000000000E+00  0.45593999997E+02  0.45594000000E+02  0.51100000000E-03 0.  1.
         11   -1    0    0    0    0 -0.00000000000E+00 -0.00000000000E+00 -0.45593999997E+02  0.45594000000E+02  0.51100000000E-03 0. -1.
    9900012    2    1    2    0    0 -0.29622829236E+02 -0.19626225457E+02  0.19760178876E+02  0.50528863181E+02  0.30000010125E+02 0.  0.
         12    1    1    2    0    0  0.29622829236E+02  0.19626225457E+02 -0.19760178876E+02  0.40659136819E+02  0.00000000000E+00 0. -1.
         11    1    3    3    0    0 -0.45190041686E+01 -0.11818178263E+02  0.19066845220E+01  0.12795553223E+02  0.51100000000E-03 0. -1.
        -11    1    3    3    0    0 -0.14364238939E+02 -0.10474803729E+02  0.19676694379E+02  0.26518393153E+02  0.51100000000E-03 0.  1.
         12    1    3    3    0    0 -0.10739586128E+02  0.26667565360E+01 -0.18232000242E+01  0.11214916806E+02  0.00000000000E+00 0. -1.
</event>
<event>
 7    1  0.2746803E-013  0.5052886E+02  0.7816164E-02  0.1300439E+00
        -11   -1    0    0    0    0  0.00000000000E+00  0.00000000000E+00  0.45593999997E+02  0.45594000000E+02  0.51100000000E-03 0.  1.
         11   -1    0    0    0    0 -0.00000000000E+00 -0.00000000000E+00 -0.45593999997E+02  0.45594000000E+02  0.51100000000E-03 0. -1.
    9900012    2    1    2    0    0  0.36026343415E+02 -0.16246789393E+01  0.18778400653E+02  0.50528864094E+02  0.30000012901E+02 0.  0.
         12    1    1    2    0    0 -0.36026343415E+02  0.16246789393E+01 -0.18778400653E+02  0.40659135906E+02  0.00000000000E+00 0. -1.
         11    1    3    3    0    0  0.93481334496E+01 -0.37738902555E+01  0.11060408613E+02  0.14965376227E+02  0.51100000000E-03 0.  1.
        -11    1    3    3    0    0  0.21721280325E+02 -0.72625875448E+01  0.88452264258E+00  0.22920331092E+02  0.51100000000E-03 0. -1.
         12    1    3    3    0    0  0.49569296410E+01  0.94117988610E+01  0.68334693968E+01  0.12643156776E+02  0.00000000000E+00 0. -1.
</event>
<event>
 7    1  0.2746803E-013  0.5052885E+02  0.7816164E-02  0.1300439E+00
        -11   -1    0    0    0    0  0.00000000000E+00  0.00000000000E+00  0.45593999997E+02  0.45594000000E+02  0.51100000000E-03 0.  1.
         11   -1    0    0    0    0 -0.00000000000E+00 -0.00000000000E+00 -0.45593999997E+02  0.45594000000E+02  0.51100000000E-03 0. -1.
    9900012    2    1    2    0    0 -0.83398271866E+01 -0.20048927282E+02  0.34375193749E+02  0.50528854068E+02  0.29999982425E+02 0.  0.
         12    1    1    2    0    0  0.83398271866E+01  0.20048927282E+02 -0.34375193749E+02  0.40659145932E+02  0.00000000000E+00 0. -1.
         11    1    3    3    0    0  0.30605725626E+01 -0.17290063456E+02  0.26606842475E+02  0.31878479660E+02  0.51100000000E-03 0. -1.
        -11    1    3    3    0    0 -0.27444990443E+00  0.32560762463E+01  0.45460668414E+01  0.55985783248E+01  0.51100000000E-03 0.  1.
        -12    1    3    3    0    0 -0.11125949845E+02 -0.60149400729E+01  0.32222844327E+01  0.13051796083E+02  0.00000000000E+00 0.  1.
</event>
<event>
 7    1  0.2746803E-013  0.5052886E+02  0.7816164E-02  0.1300439E+00
        -11   -1    0    0    0    0  0.00000000000E+00  0.00000000000E+00  0.45593999997E+02  0.45594000000E+02  0.51100000000E-03 0.  1.
         11   -1    0    0    0    0 -0.00000000000E+00 -0.00000000000E+00 -0.45593999997E+02  0.45594000000E+02  0.51100000000E-03 0. -1.
    9900012    2    1    2    0    0 -0.15384652698E+02 -0.37082842719E+02 -0.64296966841E+01  0.50528858811E+02  0.29999996843E+02 0.  0.
         12    1    1    2    0    0  0.15384652698E+02  0.37082842719E+02  0.64296966841E+01  0.40659141189E+02  0.00000000000E+00 0. -1.
         11    1    3    3    0    0  0.24520155734E+01  0.22222217100E+01  0.21965601732E-01  0.33092495296E+01  0.51100000000E-03 0. -1.
        -11    1    3    3    0    0  0.13545908799E+01 -0.13885344906E+02  0.24128192024E+01  0.14158369129E+02  0.51100000000E-03 0.  1.
        -12    1    3    3    0    0 -0.19191259151E+02 -0.25419719523E+02 -0.88644814882E+01  0.33061240153E+02  0.00000000000E+00 0.  1.
</event>
<event>
 7    1  0.2746803E-013  0.5052886E+02  0.7816164E-02  0.1300439E+00
        -11   -1    0    0    0    0  0.00000000000E+00  0.00000000000E+00  0.45593999997E+02  0.45594000000E+02  0.51100000000E-03 0.  1.
         11   -1    0    0    0    0 -0.00000000000E+00 -0.00000000000E+00 -0.45593999997E+02  0.45594000000E+02  0.51100000000E-03 0. -1.
    9900012    2    1    2    0    0 -0.33575104072E+02  0.22607943711E+01  0.22820323829E+02  0.50528856080E+02  0.29999988541E+02 0.  0.
         12    1    1    2    0    0  0.33575104072E+02 -0.22607943711E+01 -0.22820323829E+02  0.40659143920E+02  0.00000000000E+00 0. -1.
         11    1    3    3    0    0 -0.79569801665E+01  0.10538938444E+02  0.27039234637E+01  0.13479390166E+02  0.51100000000E-03 0. -1.
        -11    1    3    3    0    0 -0.94856373395E+01 -0.42946338453E+01  0.17305215862E+02  0.20196328673E+02  0.51100000000E-03 0.  1.
        -12    1    3    3    0    0 -0.16132486566E+02 -0.39835102273E+01  0.28111845036E+01  0.16853137241E+02  0.00000000000E+00 0.  1.
</event>
<event>
 7    1  0.2746803E-013  0.5052886E+02  0.7816164E-02  0.1300439E+00
        -11   -1    0    0    0    0  0.00000000000E+00  0.00000000000E+00  0.45593999997E+02  0.45594000000E+02  0.51100000000E-03 0.  1.
         11   -1    0    0    0    0 -0.00000000000E+00 -0.00000000000E+00 -0.45593999997E+02  0.45594000000E+02  0.51100000000E-03 0. -1.
    9900012    2    1    2    0    0 -0.39926203698E+02 -0.69946453429E+01  0.31842103464E+01  0.50528855878E+02  0.29999987927E+02 0.  0.
         12    1    1    2    0    0  0.39926203698E+02  0.69946453429E+01 -0.31842103464E+01  0.40659144122E+02  0.00000000000E+00 0. -1.
         11    1    3    3    0    0 -0.84812588668E+01  0.35182519895E+01 -0.25146758932E+01  0.95201598797E+01  0.51100000000E-03 0. -1.
        -11    1    3    3    0    0 -0.18264515825E+02  0.36200343277E+01  0.10108530192E+02  0.21186778183E+02  0.51100000000E-03 0.  1.
         12    1    3    3    0    0 -0.13180429007E+02 -0.14132931660E+02 -0.44096439526E+01  0.19821917816E+02  0.00000000000E+00 0. -1.
</event>
<event>
 7    1  0.2746803E-013  0.5052885E+02  0.7816164E-02  0.1300439E+00
        -11   -1    0    0    0    0  0.00000000000E+00  0.00000000000E+00  0.45593999997E+02  0.45594000000E+02  0.51100000000E-03 0. -1.
         11   -1    0    0    0    0 -0.00000000000E+00 -0.00000000000E+00 -0.45593999997E+02  0.45594000000E+02  0.51100000000E-03 0.  1.
    9900012    2    1    2    0    0 -0.14040430739E+02  0.19011082495E+02 -0.33084915054E+02  0.50528849036E+02  0.29999967131E+02 0.  0.
         12    1    1    2    0    0  0.14040430739E+02 -0.19011082495E+02  0.33084915054E+02  0.40659150964E+02  0.00000000000E+00 0. -1.
         11    1    3    3    0    0 -0.73405210211E-01  0.11271438709E+02 -0.95447175855E-01  0.11272081854E+02  0.51100000000E-03 0. -1.
        -11    1    3    3    0    0 -0.34906051382E+01  0.91117452701E+01 -0.10084679789E+02  0.14032426476E+02  0.51100000000E-03 0.  1.
         12    1    3    3    0    0 -0.10476420391E+02 -0.13721014843E+01 -0.22904788088E+02  0.25224340706E+02  0.00000000000E+00 0. -1.
</event>
<event>
 7    1  0.2746803E-013  0.5052882E+02  0.7816164E-02  0.1300439E+00
        -11   -1    0    0    0    0  0.00000000000E+00  0.00000000000E+00  0.45593999997E+02  0.45594000000E+02  0.51100000000E-03 0. -1.
         11   -1    0    0    0    0 -0.00000000000E+00 -0.00000000000E+00 -0.45593999997E+02  0.45594000000E+02  0.51100000000E-03 0.  1.
    9900012    2    1    2    0    0  0.25933545313E+02 -0.31154168317E+02 -0.31682691845E+01  0.50528820155E+02  0.29999879342E+02 0.  0.
         12    1    1    2    0    0 -0.25933545313E+02  0.31154168317E+02  0.31682691845E+01  0.40659179845E+02  0.00000000000E+00 0. -1.
         11    1    3    3    0    0  0.36285716871E+01 -0.10181343419E+02  0.69753239485E+01  0.12863958595E+02  0.51100000000E-03 0. -1.
        -11    1    3    3    0    0  0.23119613529E+02 -0.23849327978E+02 -0.99253674117E+01  0.34667274096E+02  0.51100000000E-03 0.  1.
         12    1    3    3    0    0 -0.81463990238E+00  0.28765030794E+01 -0.21822572134E+00  0.29975874636E+01  0.00000000000E+00 0. -1.
</event>
<event>
 7    1  0.2746803E-013  0.5052886E+02  0.7816164E-02  0.1300439E+00
        -11   -1    0    0    0    0  0.00000000000E+00  0.00000000000E+00  0.45593999997E+02  0.45594000000E+02  0.51100000000E-03 0.  1.
         11   -1    0    0    0    0 -0.00000000000E+00 -0.00000000000E+00 -0.45593999997E+02  0.45594000000E+02  0.51100000000E-03 0. -1.
    9900012    2    1    2    0    0 -0.11326842116E+02 -0.30569099903E+01  0.38929725798E+02  0.50528860784E+02  0.30000002840E+02 0.  0.
         12    1    1    2    0    0  0.11326842116E+02  0.30569099903E+01 -0.38929725798E+02  0.40659139216E+02  0.00000000000E+00 0. -1.
         11    1    3    3    0    0  0.12800344490E+01 -0.10202895972E+02  0.24508706233E+02  0.26578454731E+02  0.51100000000E-03 0. -1.
        -11    1    3    3    0    0 -0.64514912738E+01 -0.30873472500E+01  0.60346060413E+01  0.93578802638E+01  0.51100000000E-03 0.  1.
         12    1    3    3    0    0 -0.61553852912E+01  0.10233333232E+02  0.83864135246E+01  0.14592525790E+02  0.00000000000E+00 0. -1.
</event>
<event>
 7    1  0.2746803E-013  0.5052884E+02  0.7816164E-02  0.1300439E+00
        -11   -1    0    0    0    0  0.00000000000E+00  0.00000000000E+00  0.45593999997E+02  0.45594000000E+02  0.51100000000E-03 0. -1.
         11   -1    0    0    0    0 -0.00000000000E+00 -0.00000000000E+00 -0.45593999997E+02  0.45594000000E+02  0.51100000000E-03 0.  1.
    9900012    2    1    2    0    0  0.10618331431E+01  0.37896245003E+02 -0.14694032833E+02  0.50528837738E+02  0.29999932789E+02 0.  0.
         12    1    1    2    0    0 -0.10618331431E+01 -0.37896245003E+02  0.14694032833E+02  0.40659162262E+02  0.00000000000E+00 0. -1.
         11    1    3    3    0    0  0.50115615924E+01  0.24235099614E+01 -0.31295558166E+01  0.63861780431E+01  0.51100000000E-03 0. -1.
        -11    1    3    3    0    0  0.56990261685E+00  0.27293499895E+02 -0.18086186511E+02  0.32747061979E+02  0.51100000000E-03 0.  1.
         12    1    3    3    0    0 -0.45196310662E+01  0.81792351468E+01  0.65217094950E+01  0.11395597716E+02  0.00000000000E+00 0. -1.
</event>
<event>
 7    1  0.2746803E-013  0.5052885E+02  0.7816164E-02  0.1300439E+00
        -11   -1    0    0    0    0  0.00000000000E+00  0.00000000000E+00  0.45593999997E+02  0.45594000000E+02  0.51100000000E-03 0.  1.
         11   -1    0    0    0    0 -0.00000000000E+00 -0.00000000000E+00 -0.45593999997E+02  0.45594000000E+02  0.51100000000E-03 0. -1.
    9900012    2    1    2    0    0 -0.19926459908E+02  0.35430753366E+02 -0.87419718570E+00  0.50528852084E+02  0.29999976395E+02 0.  0.
         12    1    1    2    0    0  0.19926459908E+02 -0.35430753366E+02  0.87419718570E+00  0.40659147916E+02  0.00000000000E+00 0. -1.
         11    1    3    3    0    0 -0.82061023199E+00 -0.13651558614E+01 -0.74361790505E+01  0.76048544240E+01  0.51100000000E-03 0. -1.
        -11    1    3    3    0    0 -0.99984494299E+01  0.12044656522E+02  0.52758890189E+01  0.16519011682E+02  0.51100000000E-03 0.  1.
        -12    1    3    3    0    0 -0.91074002465E+01  0.24751252705E+02  0.12860928459E+01  0.26404985978E+02  0.00000000000E+00 0.  1.
</event>
<event>
 7    1  0.2746803E-013  0.5052886E+02  0.7816164E-02  0.1300439E+00
        -11   -1    0    0    0    0  0.00000000000E+00  0.00000000000E+00  0.45593999997E+02  0.45594000000E+02  0.51100000000E-03 0.  1.
         11   -1    0    0    0    0 -0.00000000000E+00 -0.00000000000E+00 -0.45593999997E+02  0.45594000000E+02  0.51100000000E-03 0. -1.
    9900012    2    1    2    0    0  0.13212653537E+02  0.36511808835E+02 -0.12061479306E+02  0.50528859811E+02  0.29999999880E+02 0.  0.
         12    1    1    2    0    0 -0.13212653537E+02 -0.36511808835E+02  0.12061479306E+02  0.40659140189E+02  0.00000000000E+00 0. -1.
         11    1    3    3    0    0  0.12611433851E+02  0.24388502303E+02 -0.16884340411E+02  0.32232410082E+02  0.51100000000E-03 0. -1.
        -11    1    3    3    0    0  0.37242210245E+01  0.11554569420E+02 -0.44276494644E+00  0.12148001390E+02  0.51100000000E-03 0.  1.
         12    1    3    3    0    0 -0.31230013384E+01  0.56873711253E+00  0.52656260507E+01  0.61484483382E+01  0.00000000000E+00 0. -1.
</event>
<event>
 7    1  0.2746803E-013  0.5052886E+02  0.7816164E-02  0.1300439E+00
        -11   -1    0    0    0    0  0.00000000000E+00  0.00000000000E+00  0.45593999997E+02  0.45594000000E+02  0.51100000000E-03 0.  1.
         11   -1    0    0    0    0 -0.00000000000E+00 -0.00000000000E+00 -0.45593999997E+02  0.45594000000E+02  0.51100000000E-03 0. -1.
    9900012    2    1    2    0    0  0.41474089693E+01  0.40233494194E+02  0.41510149037E+01  0.50528856121E+02  0.29999988665E+02 0.  0.
         12    1    1    2    0    0 -0.41474089693E+01 -0.40233494194E+02 -0.41510149037E+01  0.40659143879E+02  0.00000000000E+00 0. -1.
         11    1    3    3    0    0  0.51884441703E+01  0.26269829501E+01  0.75329706145E+01  0.95166506119E+01  0.51100000000E-03 0. -1.
        -11    1    3    3    0    0  0.67498068970E+01  0.25586463774E+02 -0.91764792050E+00  0.26477709485E+02  0.51100000000E-03 0.  1.
        -12    1    3    3    0    0 -0.77908420980E+01  0.12020047471E+02 -0.24643077903E+01  0.14534496024E+02  0.00000000000E+00 0.  1.
</event>
<event>
 7    1  0.2746803E-013  0.5052886E+02  0.7816164E-02  0.1300439E+00
        -11   -1    0    0    0    0  0.00000000000E+00  0.00000000000E+00  0.45593999997E+02  0.45594000000E+02  0.51100000000E-03 0. -1.
         11   -1    0    0    0    0 -0.00000000000E+00 -0.00000000000E+00 -0.45593999997E+02  0.45594000000E+02  0.51100000000E-03 0.  1.
    9900012    2    1    2    0    0  0.97149271044E+01  0.37062523843E+02  0.13607178270E+02  0.50528858559E+02  0.29999996075E+02 0.  0.
         12    1    1    2    0    0 -0.97149271044E+01 -0.37062523843E+02 -0.13607178270E+02  0.40659141441E+02  0.00000000000E+00 0. -1.
         11    1    3    3    0    0  0.16866675596E+02  0.17912126004E+02  0.78264458697E+01  0.25818254373E+02  0.51100000000E-03 0. -1.
        -11    1    3    3    0    0 -0.45976030821E+01  0.92299001715E+01  0.92929602160E+01  0.13881214684E+02  0.51100000000E-03 0.  1.
        -12    1    3    3    0    0 -0.25541454095E+01  0.99204976679E+01 -0.35122278156E+01  0.10829389502E+02  0.00000000000E+00 0.  1.
</event>
<event>
 7    1  0.2746803E-013  0.5052874E+02  0.7816164E-02  0.1300439E+00
        -11   -1    0    0    0    0  0.00000000000E+00  0.00000000000E+00  0.45593999997E+02  0.45594000000E+02  0.51100000000E-03 0. -1.
         11   -1    0    0    0    0 -0.00000000000E+00 -0.00000000000E+00 -0.45593999997E+02  0.45594000000E+02  0.51100000000E-03 0.  1.
    9900012    2    1    2    0    0  0.15420958764E+01  0.31289042608E+02 -0.25918977662E+02  0.50528737216E+02  0.29999627241E+02 0.  0.
         12    1    1    2    0    0 -0.15420958764E+01 -0.31289042608E+02  0.25918977662E+02  0.40659262784E+02  0.00000000000E+00 0. -1.
         11    1    3    3    0    0  0.10849163868E+02  0.18374149888E+02 -0.60622433933E+01  0.22182527718E+02  0.51100000000E-03 0. -1.
        -11    1    3    3    0    0  0.25373838888E+01  0.37025613257E+01 -0.17198528592E+01  0.48067839028E+01  0.51100000000E-03 0.  1.
        -12    1    3    3    0    0 -0.11844451881E+02  0.92123313945E+01 -0.18136881410E+02  0.23539425595E+02  0.00000000000E+00 0.  1.
</event>
<event>
 7    1  0.2746803E-013  0.5052885E+02  0.7816164E-02  0.1300439E+00
        -11   -1    0    0    0    0  0.00000000000E+00  0.00000000000E+00  0.45593999997E+02  0.45594000000E+02  0.51100000000E-03 0.  1.
         11   -1    0    0    0    0 -0.00000000000E+00 -0.00000000000E+00 -0.45593999997E+02  0.45594000000E+02  0.51100000000E-03 0. -1.
    9900012    2    1    2    0    0 -0.24648157247E+02 -0.25070472236E+02  0.20423180431E+02  0.50528849335E+02  0.29999968040E+02 0.  0.
         12    1    1    2    0    0  0.24648157247E+02  0.25070472236E+02 -0.20423180431E+02  0.40659150665E+02  0.00000000000E+00 0. -1.
         11    1    3    3    0    0  0.30906542429E+00 -0.51760581147E+01  0.51466782956E+01  0.73058467533E+01  0.51100000000E-03 0. -1.
        -11    1    3    3    0    0 -0.29200131884E+02 -0.15229548738E+02  0.16443694254E+02  0.36810079296E+02  0.51100000000E-03 0.  1.
         12    1    3    3    0    0  0.42429092126E+01 -0.46648653832E+01 -0.11671921180E+01  0.64129232858E+01  0.00000000000E+00 0. -1.
</event>
<event>
 7    1  0.2746803E-013  0.5052886E+02  0.7816164E-02  0.1300439E+00
        -11   -1    0    0    0    0  0.00000000000E+00  0.00000000000E+00  0.45593999997E+02  0.45594000000E+02  0.51100000000E-03 0.  1.
         11   -1    0    0    0    0 -0.00000000000E+00 -0.00000000000E+00 -0.45593999997E+02  0.45594000000E+02  0.51100000000E-03 0. -1.
    9900012    2    1    2    0    0  0.31707660106E+02 -0.20261135752E+02  0.15403780026E+02  0.50528858710E+02  0.29999996534E+02 0.  0.
         12    1    1    2    0    0 -0.31707660106E+02  0.20261135752E+02 -0.15403780026E+02  0.40659141290E+02  0.00000000000E+00 0. -1.
         11    1    3    3    0    0  0.12083169679E+02 -0.74521726527E+01 -0.70944479055E+01  0.15870383047E+02  0.51100000000E-03 0. -1.
        -11    1    3    3    0    0  0.11081542960E+02 -0.30992656085E+01  0.41960183842E+01  0.12247963595E+02  0.51100000000E-03 0.  1.
         12    1    3    3    0    0  0.85429474682E+01 -0.97096974910E+01  0.18302209547E+02  0.22410512067E+02  0.00000000000E+00 0. -1.
</event>
<event>
 7    1  0.2746803E-013  0.5052889E+02  0.7816164E-02  0.1300439E+00
        -11   -1    0    0    0    0  0.00000000000E+00  0.00000000000E+00  0.45593999997E+02  0.45594000000E+02  0.51100000000E-03 0. -1.
         11   -1    0    0    0    0 -0.00000000000E+00 -0.00000000000E+00 -0.45593999997E+02  0.45594000000E+02  0.51100000000E-03 0.  1.
    9900012    2    1    2    0    0  0.20565150739E+02 -0.11455156149E+02 -0.33151430400E+02  0.50528888292E+02  0.30000086453E+02 0.  0.
         12    1    1    2    0    0 -0.20565150739E+02  0.11455156149E+02  0.33151430400E+02  0.40659111708E+02  0.00000000000E+00 0. -1.
         11    1    3    3    0    0 -0.20030441083E+01  0.20509762739E+00 -0.54233657771E+00  0.20852769508E+01  0.51100000000E-03 0. -1.
        -11    1    3    3    0    0 -0.10314102814E+01 -0.37845535796E+01  0.30461389893E+01  0.49664490301E+01  0.51100000000E-03 0.  1.
        -12    1    3    3    0    0  0.23599605129E+02 -0.78757001967E+01 -0.35655232811E+02  0.43477162311E+02  0.00000000000E+00 0.  1.
</event>
<event>
 7    1  0.2746803E-013  0.5052886E+02  0.7816164E-02  0.1300439E+00
        -11   -1    0    0    0    0  0.00000000000E+00  0.00000000000E+00  0.45593999997E+02  0.45594000000E+02  0.51100000000E-03 0.  1.
         11   -1    0    0    0    0 -0.00000000000E+00 -0.00000000000E+00 -0.45593999997E+02  0.45594000000E+02  0.51100000000E-03 0. -1.
    9900012    2    1    2    0    0  0.28905466425E+02 -0.22657691960E+02  0.17443291749E+02  0.50528863004E+02  0.30000009587E+02 0.  0.
         12    1    1    2    0    0 -0.28905466425E+02  0.22657691960E+02 -0.17443291749E+02  0.40659136996E+02  0.00000000000E+00 0. -1.
         11    1    3    3    0    0  0.62350900685E+01 -0.20019066937E+02  0.40731429964E+01  0.21359538462E+02  0.51100000000E-03 0.  1.
        -11    1    3    3    0    0  0.65645810200E+00  0.15001834917E+00  0.56272179824E+01  0.56673649280E+01  0.51100000000E-03 0. -1.
        -12    1    3    3    0    0  0.22013918255E+02 -0.27886433730E+01  0.77429307698E+01  0.23501959614E+02  0.00000000000E+00 0.  1.
</event>
<event>
 7    1  0.2746803E-013  0.5052884E+02  0.7816164E-02  0.1300439E+00
        -11   -1    0    0    0    0  0.00000000000E+00  0.00000000000E+00  0.45593999997E+02  0.45594000000E+02  0.51100000000E-03 0.  1.
         11   -1    0    0    0    0 -0.00000000000E+00 -0.00000000000E+00 -0.45593999997E+02  0.45594000000E+02  0.51100000000E-03 0. -1.
    9900012    2    1    2    0    0 -0.21816350714E+00  0.40574817086E+02 -0.26083930953E+01  0.50528842466E+02  0.29999947159E+02 0.  0.
         12    1    1    2    0    0  0.21816350714E+00 -0.40574817086E+02  0.26083930953E+01  0.40659157534E+02  0.00000000000E+00 0. -1.
         11    1    3    3    0    0  0.45282974546E+01  0.15255441379E+02  0.35581345174E+01  0.16306265391E+02  0.51100000000E-03 0. -1.
        -11    1    3    3    0    0 -0.31182205447E+01  0.26464365086E+02 -0.11127283377E+02  0.28877367511E+02  0.51100000000E-03 0.  1.
         12    1    3    3    0    0 -0.16282404171E+01 -0.11449893786E+01  0.49607557639E+01  0.53452095639E+01  0.00000000000E+00 0. -1.
</event>
<event>
 7    1  0.2746803E-013  0.5052886E+02  0.7816164E-02  0.1300439E+00
        -11   -1    0    0    0    0  0.00000000000E+00  0.00000000000E+00  0.45593999997E+02  0.45594000000E+02  0.51100000000E-03 0. -1.
         11   -1    0    0    0    0 -0.00000000000E+00 -0.00000000000E+00 -0.45593999997E+02  0.45594000000E+02  0.51100000000E-03 0.  1.
    9900012    2    1    2    0    0  0.16014479510E+02 -0.37356597646E+02  0.10893605438E+01  0.50528860215E+02  0.30000001109E+02 0.  0.
         12    1    1    2    0    0 -0.16014479510E+02  0.37356597646E+02 -0.10893605438E+01  0.40659139785E+02  0.00000000000E+00 0. -1.
         11    1    3    3    0    0  0.25839329513E+01 -0.16970821946E+02  0.69723387491E+00  0.17180560012E+02  0.51100000000E-03 0. -1.
        -11    1    3    3    0    0  0.53772313168E+01 -0.10641284608E+02  0.11466602640E+02  0.16541902282E+02  0.51100000000E-03 0.  1.
        -12    1    3    3    0    0  0.80533152423E+01 -0.97444910925E+01 -0.11074475971E+02  0.16806397921E+02  0.00000000000E+00 0.  1.
</event>
<event>
 7    1  0.2746803E-013  0.5052887E+02  0.7816164E-02  0.1300439E+00
        -11   -1    0    0    0    0  0.00000000000E+00  0.00000000000E+00  0.45593999997E+02  0.45594000000E+02  0.51100000000E-03 0.  1.
         11   -1    0    0    0    0 -0.00000000000E+00 -0.00000000000E+00 -0.45593999997E+02  0.45594000000E+02  0.51100000000E-03 0. -1.
    9900012    2    1    2    0    0  0.23383661809E+01 -0.39852216612E+02  0.77134811623E+01  0.50528869206E+02  0.30000028439E+02 0.  0.
         12    1    1    2    0    0 -0.23383661809E+01  0.39852216612E+02 -0.77134811623E+01  0.40659130794E+02  0.00000000000E+00 0. -1.
         11    1    3    3    0    0  0.16323156755E+01  0.82827525161E+00 -0.13419639265E+01  0.22696611637E+01  0.51100000000E-03 0. -1.
        -11    1    3    3    0    0 -0.71031130546E+01 -0.98569960166E+01  0.11017736585E+02  0.16401375102E+02  0.51100000000E-03 0.  1.
        -12    1    3    3    0    0  0.78091635601E+01 -0.30823495847E+02 -0.19622914958E+01  0.31857832940E+02  0.00000000000E+00 0.  1.
</event>
<event>
 7    1  0.2746803E-013  0.5052879E+02  0.7816164E-02  0.1300439E+00
        -11   -1    0    0    0    0  0.00000000000E+00  0.00000000000E+00  0.45593999997E+02  0.45594000000E+02  0.51100000000E-03 0.  1.
         11   -1    0    0    0    0 -0.00000000000E+00 -0.00000000000E+00 -0.45593999997E+02  0.45594000000E+02  0.51100000000E-03 0. -1.
    9900012    2    1    2    0    0  0.17817885422E+02  0.55079589675E+01  0.36129715031E+02  0.50528794878E+02  0.29999802510E+02 0.  0.
         12    1    1    2    0    0 -0.17817885422E+02 -0.55079589675E+01 -0.36129715031E+02  0.40659205122E+02  0.00000000000E+00 0. -1.
         11    1    3    3    0    0 -0.22570230219E+00 -0.17453635058E+01  0.50132855415E+01  0.53132163026E+01  0.51100000000E-03 0. -1.
        -11    1    3    3    0    0  0.11096329069E+02  0.40196200114E+01 -0.13298933234E+01  0.11876635902E+02  0.51100000000E-03 0.  1.
        -12    1    3    3    0    0  0.69472586553E+01  0.32337024618E+01  0.32446322813E+02  0.33338942673E+02  0.00000000000E+00 0.  1.
</event>
<event>
 7    1  0.2746803E-013  0.5052887E+02  0.7816164E-02  0.1300439E+00
        -11   -1    0    0    0    0  0.00000000000E+00  0.00000000000E+00  0.45593999997E+02  0.45594000000E+02  0.51100000000E-03 0. -1.
         11   -1    0    0    0    0 -0.00000000000E+00 -0.00000000000E+00 -0.45593999997E+02  0.45594000000E+02  0.51100000000E-03 0.  1.
    9900012    2    1    2    0    0  0.36164628234E+02 -0.58155297187E+01 -0.17648346427E+02  0.50528869994E+02  0.30000030833E+02 0.  0.
         12    1    1    2    0    0 -0.36164628234E+02  0.58155297187E+01  0.17648346427E+02  0.40659130006E+02  0.00000000000E+00 0. -1.
         11    1    3    3    0    0  0.15032987316E+02 -0.17029210849E+00 -0.11572873941E+02  0.18972377779E+02  0.51100000000E-03 0. -1.
        -11    1    3    3    0    0 -0.36174928433E+00  0.36354221162E+01 -0.72469374331E+01  0.81157414281E+01  0.51100000000E-03 0.  1.
         12    1    3    3    0    0  0.21493390202E+02 -0.92806597265E+01  0.11714649467E+01  0.23440750787E+02  0.00000000000E+00 0. -1.
</event>
<event>
 7    1  0.2746803E-013  0.5052885E+02  0.7816164E-02  0.1300439E+00
        -11   -1    0    0    0    0  0.00000000000E+00  0.00000000000E+00  0.45593999997E+02  0.45594000000E+02  0.51100000000E-03 0. -1.
         11   -1    0    0    0    0 -0.00000000000E+00 -0.00000000000E+00 -0.45593999997E+02  0.45594000000E+02  0.51100000000E-03 0.  1.
    9900012    2    1    2    0    0 -0.28783790419E+02 -0.21530980036E+02 -0.19002014868E+02  0.50528852674E+02  0.29999978188E+02 0.  0.
         12    1    1    2    0    0  0.28783790419E+02  0.21530980036E+02  0.19002014868E+02  0.40659147326E+02  0.00000000000E+00 0. -1.
         11    1    3    3    0    0 -0.27105328732E+01 -0.26653334014E+01 -0.10939255473E+02  0.11580945608E+02  0.51100000000E-03 0. -1.
        -11    1    3    3    0    0 -0.28652066684E+02 -0.12548273968E+02 -0.67458184380E+01  0.31998533896E+02  0.51100000000E-03 0.  1.
         12    1    3    3    0    0  0.25788091376E+01 -0.63173726669E+01 -0.13169409565E+01  0.69493731706E+01  0.00000000000E+00 0. -1.
</event>
<event>
 7    1  0.2746803E-013  0.5052885E+02  0.7816164E-02  0.1300439E+00
        -11   -1    0    0    0    0  0.00000000000E+00  0.00000000000E+00  0.45593999997E+02  0.45594000000E+02  0.51100000000E-03 0.  1.
         11   -1    0    0    0    0 -0.00000000000E+00 -0.00000000000E+00 -0.45593999997E+02  0.45594000000E+02  0.51100000000E-03 0. -1.
    9900012    2    1    2    0    0 -0.45121193675E+01 -0.82651849972E+01  0.39553681231E+02  0.50528853389E+02  0.29999980362E+02 0.  0.
         12    1    1    2    0    0  0.45121193675E+01  0.82651849972E+01 -0.39553681231E+02  0.40659146611E+02  0.00000000000E+00 0. -1.
         11    1    3    3    0    0 -0.60679581041E+00  0.42283116349E+01  0.18064333358E+00  0.42754476622E+01  0.51100000000E-03 0. -1.
        -11    1    3    3    0    0 -0.42472414750E+01 -0.11562183035E+02  0.76182494201E+01  0.14483123322E+02  0.51100000000E-03 0.  1.
        -12    1    3    3    0    0  0.34191791787E+00 -0.93131359728E+00  0.31754788477E+02  0.31770282405E+02  0.00000000000E+00 0.  1.
</event>
<event>
 7    1  0.2746803E-013  0.5052886E+02  0.7816164E-02  0.1300439E+00
        -11   -1    0    0    0    0  0.00000000000E+00  0.00000000000E+00  0.45593999997E+02  0.45594000000E+02  0.51100000000E-03 0.  1.
         11   -1    0    0    0    0 -0.00000000000E+00 -0.00000000000E+00 -0.45593999997E+02  0.45594000000E+02  0.51100000000E-03 0. -1.
    9900012    2    1    2    0    0  0.23740528162E+02 -0.21960543936E+02  0.24643198580E+02  0.50528863221E+02  0.30000010245E+02 0.  0.
         12    1    1    2    0    0 -0.23740528162E+02  0.21960543936E+02 -0.24643198580E+02  0.40659136779E+02  0.00000000000E+00 0. -1.
         11    1    3    3    0    0 -0.23941785390E+01 -0.17085272461E+01 -0.39567872644E-01  0.29415509693E+01  0.51100000000E-03 0. -1.
        -11    1    3    3    0    0  0.33971358442E+01 -0.13303742530E+02  0.18467962123E+02  0.23012946845E+02  0.51100000000E-03 0.  1.
         12    1    3    3    0    0  0.22737570857E+02 -0.69482741605E+01  0.62148043296E+01  0.24574365407E+02  0.00000000000E+00 0. -1.
</event>
<event>
 7    1  0.2746803E-013  0.5052886E+02  0.7816164E-02  0.1300439E+00
        -11   -1    0    0    0    0  0.00000000000E+00  0.00000000000E+00  0.45593999997E+02  0.45594000000E+02  0.51100000000E-03 0.  1.
         11   -1    0    0    0    0 -0.00000000000E+00 -0.00000000000E+00 -0.45593999997E+02  0.45594000000E+02  0.51100000000E-03 0. -1.
    9900012    2    1    2    0    0  0.16823981865E+01  0.11675680061E+02  0.38910329416E+02  0.50528859529E+02  0.29999999026E+02 0.  0.
         12    1    1    2    0    0 -0.16823981865E+01 -0.11675680061E+02 -0.38910329416E+02  0.40659140471E+02  0.00000000000E+00 0. -1.
         11    1    3    3    0    0 -0.97214792654E-01  0.71017828420E+01  0.12891289471E+02  0.14718359784E+02  0.51100000000E-03 0. -1.
        -11    1    3    3    0    0  0.80507800137E+01 -0.21223607635E+00  0.26703930098E+02  0.27891934066E+02  0.51100000000E-03 0.  1.
         12    1    3    3    0    0 -0.62711670345E+01  0.47861332954E+01 -0.68489015341E+00  0.79185656793E+01  0.00000000000E+00 0. -1.
</event>
<event>
 7    1  0.2746803E-013  0.5052885E+02  0.7816164E-02  0.1300439E+00
        -11   -1    0    0    0    0  0.00000000000E+00  0.00000000000E+00  0.45593999997E+02  0.45594000000E+02  0.51100000000E-03 0.  1.
         11   -1    0    0    0    0 -0.00000000000E+00 -0.00000000000E+00 -0.45593999997E+02  0.45594000000E+02  0.51100000000E-03 0. -1.
    9900012    2    1    2    0    0 -0.35000601335E+02  0.14298437620E+02  0.14955899147E+02  0.50528851811E+02  0.29999975564E+02 0.  0.
         12    1    1    2    0    0  0.35000601335E+02 -0.14298437620E+02 -0.14955899147E+02  0.40659148189E+02  0.00000000000E+00 0. -1.
         11    1    3    3    0    0 -0.16962190959E+01 -0.51535367762E+01  0.22311087282E+01  0.58663401660E+01  0.51100000000E-03 0. -1.
        -11    1    3    3    0    0 -0.12030329980E+02  0.35984418696E+01  0.13075638665E+02  0.18128705141E+02  0.51100000000E-03 0.  1.
         12    1    3    3    0    0 -0.21274052259E+02  0.15853532527E+02 -0.35084824641E+00  0.26533806504E+02  0.00000000000E+00 0. -1.
</event>
<event>
 7    1  0.2746803E-013  0.5052886E+02  0.7816164E-02  0.1300439E+00
        -11   -1    0    0    0    0  0.00000000000E+00  0.00000000000E+00  0.45593999997E+02  0.45594000000E+02  0.51100000000E-03 0. -1.
         11   -1    0    0    0    0 -0.00000000000E+00 -0.00000000000E+00 -0.45593999997E+02  0.45594000000E+02  0.51100000000E-03 0.  1.
    9900012    2    1    2    0    0  0.38633405971E+02 -0.80091601880E+01  0.98223705284E+01  0.50528859987E+02  0.30000000415E+02 0.  0.
         12    1    1    2    0    0 -0.38633405971E+02  0.80091601880E+01 -0.98223705284E+01  0.40659140013E+02  0.00000000000E+00 0. -1.
         11    1    3    3    0    0  0.29365864984E+02 -0.95837006547E-01  0.11875957467E+02  0.31676514597E+02  0.51100000000E-03 0. -1.
        -11    1    3    3    0    0  0.11979502804E+02 -0.72347342778E+01  0.17803446368E+01  0.14107426937E+02  0.51100000000E-03 0.  1.
         12    1    3    3    0    0 -0.27119618173E+01 -0.67858890370E+00 -0.38339315750E+01  0.47449184525E+01  0.00000000000E+00 0. -1.
</event>
<event>
 7    1  0.2746803E-013  0.5052887E+02  0.7816164E-02  0.1300439E+00
        -11   -1    0    0    0    0  0.00000000000E+00  0.00000000000E+00  0.45593999997E+02  0.45594000000E+02  0.51100000000E-03 0.  1.
         11   -1    0    0    0    0 -0.00000000000E+00 -0.00000000000E+00 -0.45593999997E+02  0.45594000000E+02  0.51100000000E-03 0. -1.
    9900012    2    1    2    0    0 -0.28109408328E+02  0.11951610363E+02  0.26836270054E+02  0.50528865512E+02  0.30000017212E+02 0.  0.
         12    1    1    2    0    0  0.28109408328E+02 -0.11951610363E+02 -0.26836270054E+02  0.40659134488E+02  0.00000000000E+00 0. -1.
         11    1    3    3    0    0 -0.17810436217E+01 -0.30225759446E+01  0.12118843425E+02  0.12616435627E+02  0.51100000000E-03 0. -1.
        -11    1    3    3    0    0  0.20013247377E+01 -0.11764014011E+01  0.78191739129E+00  0.24496154862E+01  0.51100000000E-03 0.  1.
        -12    1    3    3    0    0 -0.28329689444E+02  0.16150587709E+02  0.13935509238E+02  0.35462814399E+02  0.00000000000E+00 0.  1.
</event>
<event>
 7    1  0.2746803E-013  0.5052886E+02  0.7816164E-02  0.1300439E+00
        -11   -1    0    0    0    0  0.00000000000E+00  0.00000000000E+00  0.45593999997E+02  0.45594000000E+02  0.51100000000E-03 0.  1.
         11   -1    0    0    0    0 -0.00000000000E+00 -0.00000000000E+00 -0.45593999997E+02  0.45594000000E+02  0.51100000000E-03 0. -1.
    9900012    2    1    2    0    0  0.27503628367E+02  0.53185810668E+01  0.29469109043E+02  0.50528864917E+02  0.30000015403E+02 0.  0.
         12    1    1    2    0    0 -0.27503628367E+02 -0.53185810668E+01 -0.29469109043E+02  0.40659135083E+02  0.00000000000E+00 0. -1.
         11    1    3    3    0    0  0.61111462562E+01  0.46030676262E+01  0.25963255423E+01  0.80793097922E+01  0.51100000000E-03 0. -1.
        -11    1    3    3    0    0  0.98104483588E+00 -0.53043616172E+01 -0.26869199687E+01  0.60264616745E+01  0.51100000000E-03 0.  1.
        -12    1    3    3    0    0  0.20411437275E+02  0.60198750578E+01  0.29559703469E+02  0.36423093451E+02  0.00000000000E+00 0.  1.
</event>
<event>
 7    1  0.2746803E-013  0.5052887E+02  0.7816164E-02  0.1300439E+00
        -11   -1    0    0    0    0  0.00000000000E+00  0.00000000000E+00  0.45593999997E+02  0.45594000000E+02  0.51100000000E-03 0. -1.
         11   -1    0    0    0    0 -0.00000000000E+00 -0.00000000000E+00 -0.45593999997E+02  0.45594000000E+02  0.51100000000E-03 0.  1.
    9900012    2    1    2    0    0 -0.38194370573E+02 -0.98899713410E+01 -0.98256491802E+01  0.50528869925E+02  0.30000030625E+02 0.  0.
         12    1    1    2    0    0  0.38194370573E+02  0.98899713410E+01  0.98256491802E+01  0.40659130075E+02  0.00000000000E+00 0. -1.
         11    1    3    3    0    0 -0.14703750804E+02 -0.10990498729E+02 -0.21367369364E-01  0.18357336595E+02  0.51100000000E-03 0.  1.
        -11    1    3    3    0    0 -0.14257682146E+02  0.64818133161E+01  0.25154265847E+01  0.15862621952E+02  0.51100000000E-03 0. -1.
        -12    1    3    3    0    0 -0.92329376230E+01 -0.53812859282E+01 -0.12319708396E+02  0.16308911378E+02  0.00000000000E+00 0.  1.
</event>
<event>
 7    1  0.2746803E-013  0.5052885E+02  0.7816164E-02  0.1300439E+00
        -11   -1    0    0    0    0  0.00000000000E+00  0.00000000000E+00  0.45593999997E+02  0.45594000000E+02  0.51100000000E-03 0. -1.
         11   -1    0    0    0    0 -0.00000000000E+00 -0.00000000000E+00 -0.45593999997E+02  0.45594000000E+02  0.51100000000E-03 0.  1.
    9900012    2    1    2    0    0  0.25907740315E+02  0.10660181867E+02 -0.29467202272E+02  0.50528849795E+02  0.29999969437E+02 0.  0.
         12    1    1    2    0    0 -0.25907740315E+02 -0.10660181867E+02  0.29467202272E+02  0.40659150205E+02  0.00000000000E+00 0. -1.
         11    1    3    3    0    0  0.14718357029E+02  0.13445488697E+02 -0.25309306940E+01  0.20095193713E+02  0.51100000000E-03 0.  1.
        -11    1    3    3    0    0  0.80642220846E+00  0.24195359458E+01 -0.48773411148E+01  0.55039011240E+01  0.51100000000E-03 0. -1.
        -12    1    3    3    0    0  0.10382961078E+02 -0.52048427763E+01 -0.22058930463E+02  0.24929754957E+02  0.00000000000E+00 0.  1.
</event>
<event>
 7    1  0.2746803E-013  0.5052883E+02  0.7816164E-02  0.1300439E+00
        -11   -1    0    0    0    0  0.00000000000E+00  0.00000000000E+00  0.45593999997E+02  0.45594000000E+02  0.51100000000E-03 0. -1.
         11   -1    0    0    0    0 -0.00000000000E+00 -0.00000000000E+00 -0.45593999997E+02  0.45594000000E+02  0.51100000000E-03 0.  1.
    9900012    2    1    2    0    0  0.15545859431E+02  0.24042080884E+02  0.28869922584E+02  0.50528833399E+02  0.29999919600E+02 0.  0.
         12    1    1    2    0    0 -0.15545859431E+02 -0.24042080884E+02 -0.28869922584E+02  0.40659166601E+02  0.00000000000E+00 0. -1.
         11    1    3    3    0    0  0.80096705899E+00  0.30634305649E+01  0.15094642913E+02  0.15423177364E+02  0.51100000000E-03 0. -1.
        -11    1    3    3    0    0 -0.33352831561E+01  0.13708833567E+01 -0.19947360533E+01  0.41209716200E+01  0.51100000000E-03 0.  1.
        -12    1    3    3    0    0  0.18080175529E+02  0.19607766962E+02  0.15770015724E+02  0.30984684415E+02  0.00000000000E+00 0.  1.
</event>
<event>
 7    1  0.2746803E-013  0.5052886E+02  0.7816164E-02  0.1300439E+00
        -11   -1    0    0    0    0  0.00000000000E+00  0.00000000000E+00  0.45593999997E+02  0.45594000000E+02  0.51100000000E-03 0. -1.
         11   -1    0    0    0    0 -0.00000000000E+00 -0.00000000000E+00 -0.45593999997E+02  0.45594000000E+02  0.51100000000E-03 0.  1.
    9900012    2    1    2    0    0 -0.13952154654E+02  0.27468516865E+02 -0.26532694750E+02  0.50528856761E+02  0.29999990611E+02 0.  0.
         12    1    1    2    0    0  0.13952154654E+02 -0.27468516865E+02  0.26532694750E+02  0.40659143239E+02  0.00000000000E+00 0. -1.
         11    1    3    3    0    0  0.17176846258E+01  0.17632261160E+01 -0.12606376608E+02  0.12844459438E+02  0.51100000000E-03 0. -1.
        -11    1    3    3    0    0 -0.88361995321E+01  0.98612956149E+01 -0.15467389613E+02  0.20360837779E+02  0.51100000000E-03 0.  1.
         12    1    3    3    0    0 -0.68336397472E+01  0.15843995134E+02  0.15410714711E+01  0.17323559544E+02  0.00000000000E+00 0. -1.
</event>
<event>
 7    1  0.2746803E-013  0.5052886E+02  0.7816164E-02  0.1300439E+00
        -11   -1    0    0    0    0  0.00000000000E+00  0.00000000000E+00  0.45593999997E+02  0.45594000000E+02  0.51100000000E-03 0.  1.
         11   -1    0    0    0    0 -0.00000000000E+00 -0.00000000000E+00 -0.45593999997E+02  0.45594000000E+02  0.51100000000E-03 0. -1.
    9900012    2    1    2    0    0 -0.37118284806E+02 -0.25643753655E+01  0.16395819861E+02  0.50528855925E+02  0.29999988070E+02 0.  0.
         12    1    1    2    0    0  0.37118284806E+02  0.25643753655E+01 -0.16395819861E+02  0.40659144075E+02  0.00000000000E+00 0. -1.
         11    1    3    3    0    0 -0.10010263965E+02  0.35697978017E+01  0.22287744383E+01  0.10858926132E+02  0.51100000000E-03 0. -1.
        -11    1    3    3    0    0 -0.17514751648E+02 -0.75656600846E+01 -0.36113723597E+01  0.19417717383E+02  0.51100000000E-03 0.  1.
        -12    1    3    3    0    0 -0.95932691943E+01  0.14314869174E+01  0.17778417783E+02  0.20252212410E+02  0.00000000000E+00 0.  1.
</event>
<event>
 7    1  0.2746803E-013  0.5052885E+02  0.7816164E-02  0.1300439E+00
        -11   -1    0    0    0    0  0.00000000000E+00  0.00000000000E+00  0.45593999997E+02  0.45594000000E+02  0.51100000000E-03 0.  1.
         11   -1    0    0    0    0 -0.00000000000E+00 -0.00000000000E+00 -0.45593999997E+02  0.45594000000E+02  0.51100000000E-03 0. -1.
    9900012    2    1    2    0    0  0.36439486188E+02  0.15184237976E+02  0.97349292180E+01  0.50528854861E+02  0.29999984835E+02 0.  0.
         12    1    1    2    0    0 -0.36439486188E+02 -0.15184237976E+02 -0.97349292180E+01  0.40659145139E+02  0.00000000000E+00 0. -1.
         11    1    3    3    0    0  0.18789916220E+02 -0.17297504927E+01 -0.12770981112E+01  0.18912534684E+02  0.51100000000E-03 0. -1.
        -11    1    3    3    0    0 -0.13978807189E+01  0.28196954859E+01 -0.27803884838E+01  0.41994420486E+01  0.51100000000E-03 0.  1.
        -12    1    3    3    0    0  0.19047450687E+02  0.14094292983E+02  0.13792415813E+02  0.27416878129E+02  0.00000000000E+00 0.  1.
</event>
<event>
 7    1  0.2746803E-013  0.5052887E+02  0.7816164E-02  0.1300439E+00
        -11   -1    0    0    0    0  0.00000000000E+00  0.00000000000E+00  0.45593999997E+02  0.45594000000E+02  0.51100000000E-03 0.  1.
         11   -1    0    0    0    0 -0.00000000000E+00 -0.00000000000E+00 -0.45593999997E+02  0.45594000000E+02  0.51100000000E-03 0. -1.
    9900012    2    1    2    0    0  0.15673851333E+02  0.15611526826E+02  0.34114148818E+02  0.50528873903E+02  0.30000042714E+02 0.  0.
         12    1    1    2    0    0 -0.15673851333E+02 -0.15611526826E+02 -0.34114148818E+02  0.40659126097E+02  0.00000000000E+00 0. -1.
         11    1    3    3    0    0 -0.38938765682E+01  0.75114518349E+00 -0.40640297057E+00  0.39864341774E+01  0.51100000000E-03 0. -1.
        -11    1    3    3    0    0  0.90722868037E+01 -0.32372597333E+01  0.15603290937E+02  0.18337091556E+02  0.51100000000E-03 0.  1.
        -12    1    3    3    0    0  0.10495441097E+02  0.18097641376E+02  0.18917260852E+02  0.28205348169E+02  0.00000000000E+00 0.  1.
</event>
<event>
 7    1  0.2746803E-013  0.5052886E+02  0.7816164E-02  0.1300439E+00
        -11   -1    0    0    0    0  0.00000000000E+00  0.00000000000E+00  0.45593999997E+02  0.45594000000E+02  0.51100000000E-03 0.  1.
         11   -1    0    0    0    0 -0.00000000000E+00 -0.00000000000E+00 -0.45593999997E+02  0.45594000000E+02  0.51100000000E-03 0. -1.
    9900012    2    1    2    0    0 -0.22909964249E+02 -0.18220753956E+02  0.28218850931E+02  0.50528857308E+02  0.29999992272E+02 0.  0.
         12    1    1    2    0    0  0.22909964249E+02  0.18220753956E+02 -0.28218850931E+02  0.40659142692E+02  0.00000000000E+00 0. -1.
         11    1    3    3    0    0 -0.92723972047E+01 -0.26831905893E+01  0.12616177087E+01  0.97349135160E+01  0.51100000000E-03 0. -1.
        -11    1    3    3    0    0  0.16260721218E+01 -0.97298092227E+01  0.72226389419E+00  0.98911558197E+01  0.51100000000E-03 0.  1.
         12    1    3    3    0    0 -0.15263639166E+02 -0.58077541440E+01  0.26234969328E+02  0.30902787972E+02  0.00000000000E+00 0. -1.
</event>
<event>
 7    1  0.2746803E-013  0.5052886E+02  0.7816164E-02  0.1300439E+00
        -11   -1    0    0    0    0  0.00000000000E+00  0.00000000000E+00  0.45593999997E+02  0.45594000000E+02  0.51100000000E-03 0.  1.
         11   -1    0    0    0    0 -0.00000000000E+00 -0.00000000000E+00 -0.45593999997E+02  0.45594000000E+02  0.51100000000E-03 0. -1.
    9900012    2    1    2    0    0  0.62972908545E+00 -0.19444253641E+02  0.35702806022E+02  0.50528856918E+02  0.29999991087E+02 0.  0.
         12    1    1    2    0    0 -0.62972908545E+00  0.19444253641E+02 -0.35702806022E+02  0.40659143082E+02  0.00000000000E+00 0. -1.
         11    1    3    3    0    0 -0.46043941072E+01 -0.93386860511E+01  0.21858814734E+02  0.24211965721E+02  0.51100000000E-03 0. -1.
        -11    1    3    3    0    0  0.86270100421E+01 -0.54316187699E+01  0.16934616785E+02  0.19766361088E+02  0.51100000000E-03 0.  1.
         12    1    3    3    0    0 -0.33928868495E+01 -0.46739488196E+01 -0.30906254973E+01  0.65505301088E+01  0.00000000000E+00 0. -1.
</event>
<event>
 7    1  0.2746803E-013  0.5052885E+02  0.7816164E-02  0.1300439E+00
        -11   -1    0    0    0    0  0.00000000000E+00  0.00000000000E+00  0.45593999997E+02  0.45594000000E+02  0.51100000000E-03 0. -1.
         11   -1    0    0    0    0 -0.00000000000E+00 -0.00000000000E+00 -0.45593999997E+02  0.45594000000E+02  0.51100000000E-03 0.  1.
    9900012    2    1    2    0    0 -0.12726103474E+02  0.34322508184E+02 -0.17696841797E+02  0.50528849895E+02  0.29999969742E+02 0.  0.
         12    1    1    2    0    0  0.12726103474E+02 -0.34322508184E+02  0.17696841797E+02  0.40659150105E+02  0.00000000000E+00 0. -1.
         11    1    3    3    0    0 -0.72848950762E+01  0.56265819889E+01 -0.71153666237E+01  0.11634283974E+02  0.51100000000E-03 0.  1.
        -11    1    3    3    0    0 -0.11846692871E+02  0.28350106335E+02 -0.68735389105E+01  0.31485206028E+02  0.51100000000E-03 0. -1.
         12    1    3    3    0    0  0.64054844726E+01  0.34581985962E+00 -0.37079362625E+01  0.74093598934E+01  0.00000000000E+00 0. -1.
</event>
<event>
 7    1  0.2746803E-013  0.5052888E+02  0.7816164E-02  0.1300439E+00
        -11   -1    0    0    0    0  0.00000000000E+00  0.00000000000E+00  0.45593999997E+02  0.45594000000E+02  0.51100000000E-03 0. -1.
         11   -1    0    0    0    0 -0.00000000000E+00 -0.00000000000E+00 -0.45593999997E+02  0.45594000000E+02  0.51100000000E-03 0.  1.
    9900012    2    1    2    0    0  0.17976140830E+02 -0.22131242353E+02 -0.28986726598E+02  0.50528882375E+02  0.30000068467E+02 0.  0.
         12    1    1    2    0    0 -0.17976140830E+02  0.22131242353E+02  0.28986726598E+02  0.40659117625E+02  0.00000000000E+00 0. -1.
         11    1    3    3    0    0  0.14868634107E+02 -0.18406690378E+02 -0.85963707142E+01  0.25174989982E+02  0.51100000000E-03 0. -1.
        -11    1    3    3    0    0  0.14085968122E+01 -0.90437602632E+01 -0.99872999977E+01  0.13546951915E+02  0.51100000000E-03 0.  1.
         12    1    3    3    0    0  0.16989099100E+01  0.53192082880E+01 -0.10403055886E+02  0.11806940478E+02  0.00000000000E+00 0. -1.
</event>
<event>
 7    1  0.2746803E-013  0.5052886E+02  0.7816164E-02  0.1300439E+00
        -11   -1    0    0    0    0  0.00000000000E+00  0.00000000000E+00  0.45593999997E+02  0.45594000000E+02  0.51100000000E-03 0. -1.
         11   -1    0    0    0    0 -0.00000000000E+00 -0.00000000000E+00 -0.45593999997E+02  0.45594000000E+02  0.51100000000E-03 0.  1.
    9900012    2    1    2    0    0 -0.19632558781E+02 -0.23465226885E+02 -0.26778930835E+02  0.50528863588E+02  0.30000011363E+02 0.  0.
         12    1    1    2    0    0  0.19632558781E+02  0.23465226885E+02  0.26778930835E+02  0.40659136412E+02  0.00000000000E+00 0. -1.
         11    1    3    3    0    0 -0.15734269281E+02 -0.81884160140E+01 -0.12971893544E+02  0.21974699292E+02  0.51100000000E-03 0.  1.
        -11    1    3    3    0    0  0.28831997932E+01 -0.13178875304E+02 -0.53281204480E+00  0.13501091966E+02  0.51100000000E-03 0. -1.
         12    1    3    3    0    0 -0.67814892934E+01 -0.20979355668E+01 -0.13274225247E+02  0.15053072330E+02  0.00000000000E+00 0. -1.
</event>
<event>
 7    1  0.2746803E-013  0.5052884E+02  0.7816164E-02  0.1300439E+00
        -11   -1    0    0    0    0  0.00000000000E+00  0.00000000000E+00  0.45593999997E+02  0.45594000000E+02  0.51100000000E-03 0.  1.
         11   -1    0    0    0    0 -0.00000000000E+00 -0.00000000000E+00 -0.45593999997E+02  0.45594000000E+02  0.51100000000E-03 0. -1.
    9900012    2    1    2    0    0  0.11276671786E+02 -0.25494774518E+02  0.29597642123E+02  0.50528840226E+02  0.29999940351E+02 0.  0.
         12    1    1    2    0    0 -0.11276671786E+02  0.25494774518E+02 -0.29597642123E+02  0.40659159774E+02  0.00000000000E+00 0. -1.
         11    1    3    3    0    0  0.30650715450E+01 -0.77176923184E+00  0.18355114261E+01  0.36550504483E+01  0.51100000000E-03 0.  1.
        -11    1    3    3    0    0  0.12307879182E+02 -0.18959869432E-01  0.59766325345E+01  0.13682265388E+02  0.51100000000E-03 0. -1.
        -12    1    3    3    0    0 -0.40962789411E+01 -0.24704045417E+02  0.21785498162E+02  0.33191524389E+02  0.00000000000E+00 0.  1.
</event>
<event>
 7    1  0.2746803E-013  0.5052886E+02  0.7816164E-02  0.1300439E+00
        -11   -1    0    0    0    0  0.00000000000E+00  0.00000000000E+00  0.45593999997E+02  0.45594000000E+02  0.51100000000E-03 0. -1.
         11   -1    0    0    0    0 -0.00000000000E+00 -0.00000000000E+00 -0.45593999997E+02  0.45594000000E+02  0.51100000000E-03 0.  1.
    9900012    2    1    2    0    0 -0.24830723285E+02  0.32122641101E+02 -0.21763759817E+01  0.50528862004E+02  0.30000006548E+02 0.  0.
         12    1    1    2    0    0  0.24830723285E+02 -0.32122641101E+02  0.21763759817E+01  0.40659137996E+02  0.00000000000E+00 0. -1.
         11    1    3    3    0    0 -0.13935033436E+02  0.11418320841E+02 -0.43907153391E+01  0.18542966029E+02  0.51100000000E-03 0. -1.
        -11    1    3    3    0    0 -0.60882021051E+01  0.24833733937E+02  0.19346759442E+01  0.25642221382E+02  0.51100000000E-03 0.  1.
         12    1    3    3    0    0 -0.48074877436E+01 -0.41294136773E+01  0.27966341320E+00  0.63436745935E+01  0.00000000000E+00 0. -1.
</event>
<event>
 7    1  0.2746803E-013  0.5052887E+02  0.7816164E-02  0.1300439E+00
        -11   -1    0    0    0    0  0.00000000000E+00  0.00000000000E+00  0.45593999997E+02  0.45594000000E+02  0.51100000000E-03 0.  1.
         11   -1    0    0    0    0 -0.00000000000E+00 -0.00000000000E+00 -0.45593999997E+02  0.45594000000E+02  0.51100000000E-03 0. -1.
    9900012    2    1    2    0    0  0.34801970328E+02  0.25597688188E+01  0.20867079440E+02  0.50528873602E+02  0.30000041800E+02 0.  0.
         12    1    1    2    0    0 -0.34801970328E+02 -0.25597688188E+01 -0.20867079440E+02  0.40659126398E+02  0.00000000000E+00 0. -1.
         11    1    3    3    0    0  0.20092115406E+02  0.30715060493E+01  0.18315593829E+02  0.27360340430E+02  0.51100000000E-03 0. -1.
        -11    1    3    3    0    0  0.11378297546E+02  0.78801921340E+01  0.28649722373E+01  0.14134042213E+02  0.51100000000E-03 0.  1.
         12    1    3    3    0    0  0.33315573766E+01 -0.83919293646E+01 -0.31348662598E+00  0.90344909584E+01  0.00000000000E+00 0. -1.
</event>
<event>
 7    1  0.2746803E-013  0.5052887E+02  0.7816164E-02  0.1300439E+00
        -11   -1    0    0    0    0  0.00000000000E+00  0.00000000000E+00  0.45593999997E+02  0.45594000000E+02  0.51100000000E-03 0.  1.
         11   -1    0    0    0    0 -0.00000000000E+00 -0.00000000000E+00 -0.45593999997E+02  0.45594000000E+02  0.51100000000E-03 0. -1.
    9900012    2    1    2    0    0 -0.34563347170E+02 -0.81668179543E+01  0.19795028609E+02  0.50528867684E+02  0.30000023812E+02 0.  0.
         12    1    1    2    0    0  0.34563347170E+02  0.81668179543E+01 -0.19795028609E+02  0.40659132316E+02  0.00000000000E+00 0. -1.
         11    1    3    3    0    0 -0.18697113378E+02  0.21793311156E+01 -0.21208572335E+01  0.18942797270E+02  0.51100000000E-03 0. -1.
        -11    1    3    3    0    0 -0.70424220583E+01  0.14592206877E+01  0.11405582773E+02  0.13483781076E+02  0.51100000000E-03 0.  1.
        -12    1    3    3    0    0 -0.88238117338E+01 -0.11805369758E+02  0.10510303070E+02  0.18102289337E+02  0.00000000000E+00 0.  1.
</event>
<event>
 7    1  0.2746803E-013  0.5052886E+02  0.7816164E-02  0.1300439E+00
        -11   -1    0    0    0    0  0.00000000000E+00  0.00000000000E+00  0.45593999997E+02  0.45594000000E+02  0.51100000000E-03 0.  1.
         11   -1    0    0    0    0 -0.00000000000E+00 -0.00000000000E+00 -0.45593999997E+02  0.45594000000E+02  0.51100000000E-03 0. -1.
    9900012    2    1    2    0    0 -0.27173856800E+02  0.19960399686E+02  0.22722883036E+02  0.50528862497E+02  0.30000008047E+02 0.  0.
         12    1    1    2    0    0  0.27173856800E+02 -0.19960399686E+02 -0.22722883036E+02  0.40659137503E+02  0.00000000000E+00 0. -1.
         11    1    3    3    0    0 -0.30927697264E+01 -0.28084168337E+01 -0.29624367579E+01  0.51213730091E+01  0.51100000000E-03 0. -1.
        -11    1    3    3    0    0 -0.24687349302E+02  0.13792391951E+02  0.21272692759E+02  0.35386759512E+02  0.51100000000E-03 0.  1.
         12    1    3    3    0    0  0.60626222779E+00  0.89764245682E+01  0.44126270349E+01  0.10020729977E+02  0.00000000000E+00 0. -1.
</event>
<event>
 7    1  0.2746803E-013  0.5052885E+02  0.7816164E-02  0.1300439E+00
        -11   -1    0    0    0    0  0.00000000000E+00  0.00000000000E+00  0.45593999997E+02  0.45594000000E+02  0.51100000000E-03 0. -1.
         11   -1    0    0    0    0 -0.00000000000E+00 -0.00000000000E+00 -0.45593999997E+02  0.45594000000E+02  0.51100000000E-03 0.  1.
    9900012    2    1    2    0    0 -0.27485334620E+02  0.22743297238E+02 -0.19505525267E+02  0.50528847225E+02  0.29999961625E+02 0.  0.
         12    1    1    2    0    0  0.27485334620E+02 -0.22743297238E+02  0.19505525267E+02  0.40659152775E+02  0.00000000000E+00 0. -1.
         11    1    3    3    0    0 -0.27421971210E+00 -0.36539171005E+01 -0.50080244004E+01  0.62053698748E+01  0.51100000000E-03 0. -1.
        -11    1    3    3    0    0 -0.83357528477E+01  0.83503878273E+01 -0.13858886990E+02  0.18201167580E+02  0.51100000000E-03 0.  1.
        -12    1    3    3    0    0 -0.18875362060E+02  0.18046826511E+02 -0.63861387625E+00  0.26122309770E+02  0.00000000000E+00 0.  1.
</event>
<event>
 7    1  0.2746803E-013  0.5052885E+02  0.7816164E-02  0.1300439E+00
        -11   -1    0    0    0    0  0.00000000000E+00  0.00000000000E+00  0.45593999997E+02  0.45594000000E+02  0.51100000000E-03 0. -1.
         11   -1    0    0    0    0 -0.00000000000E+00 -0.00000000000E+00 -0.45593999997E+02  0.45594000000E+02  0.51100000000E-03 0.  1.
    9900012    2    1    2    0    0  0.20474810473E+02  0.39454489802E+01 -0.34905331128E+02  0.50528848844E+02  0.29999966547E+02 0.  0.
         12    1    1    2    0    0 -0.20474810473E+02 -0.39454489802E+01  0.34905331128E+02  0.40659151156E+02  0.00000000000E+00 0. -1.
         11    1    3    3    0    0  0.46335163301E+01 -0.92223808037E+01 -0.32735854254E+01  0.10827656398E+02  0.51100000000E-03 0. -1.
        -11    1    3    3    0    0 -0.18353874413E+01  0.20587298345E+01 -0.18146251090E+01  0.33014966512E+01  0.51100000000E-03 0.  1.
        -12    1    3    3    0    0  0.17676681584E+02  0.11109099949E+02 -0.29817120594E+02  0.36399695795E+02  0.00000000000E+00 0.  1.
</event>
<event>
 7    1  0.2746803E-013  0.5052885E+02  0.7816164E-02  0.1300439E+00
        -11   -1    0    0    0    0  0.00000000000E+00  0.00000000000E+00  0.45593999997E+02  0.45594000000E+02  0.51100000000E-03 0.  1.
         11   -1    0    0    0    0 -0.00000000000E+00 -0.00000000000E+00 -0.45593999997E+02  0.45594000000E+02  0.51100000000E-03 0. -1.
    9900012    2    1    2    0    0  0.25962778305E+02  0.17700237967E+02 -0.25803136398E+02  0.50528854296E+02  0.29999983119E+02 0.  0.
         12    1    1    2    0    0 -0.25962778305E+02 -0.17700237967E+02  0.25803136398E+02  0.40659145704E+02  0.00000000000E+00 0. -1.
         11    1    3    3    0    0  0.39479009548E+01  0.82302438599E+01  0.43204733056E+01  0.10098976472E+02  0.51100000000E-03 0. -1.
        -11    1    3    3    0    0  0.77617545045E+00  0.48540678318E+01 -0.81868561206E+01  0.95492950654E+01  0.51100000000E-03 0.  1.
        -12    1    3    3    0    0  0.21238701900E+02  0.46159262756E+01 -0.21936753583E+02  0.30880582759E+02  0.00000000000E+00 0.  1.
</event>
<event>
 7    1  0.2746803E-013  0.5052887E+02  0.7816164E-02  0.1300439E+00
        -11   -1    0    0    0    0  0.00000000000E+00  0.00000000000E+00  0.45593999997E+02  0.45594000000E+02  0.51100000000E-03 0. -1.
         11   -1    0    0    0    0 -0.00000000000E+00 -0.00000000000E+00 -0.45593999997E+02  0.45594000000E+02  0.51100000000E-03 0.  1.
    9900012    2    1    2    0    0 -0.23646019425E+02  0.31006390305E+02 -0.11516716324E+02  0.50528865365E+02  0.30000016765E+02 0.  0.
         12    1    1    2    0    0  0.23646019425E+02 -0.31006390305E+02  0.11516716324E+02  0.40659134635E+02  0.00000000000E+00 0. -1.
         11    1    3    3    0    0  0.27678915474E+01 -0.35275662649E+01  0.91871567339E-01  0.44847952035E+01  0.51100000000E-03 0. -1.
        -11    1    3    3    0    0 -0.34947792573E+01  0.48005832527E+01 -0.53339656783E+01  0.79818714436E+01  0.51100000000E-03 0.  1.
        -12    1    3    3    0    0 -0.22919131715E+02  0.29733373317E+02 -0.62746222127E+01  0.38062198718E+02  0.00000000000E+00 0.  1.
</event>
<event>
 7    1  0.2746803E-013  0.5052886E+02  0.7816164E-02  0.1300439E+00
        -11   -1    0    0    0    0  0.00000000000E+00  0.00000000000E+00  0.45593999997E+02  0.45594000000E+02  0.51100000000E-03 0.  1.
         11   -1    0    0    0    0 -0.00000000000E+00 -0.00000000000E+00 -0.45593999997E+02  0.45594000000E+02  0.51100000000E-03 0. -1.
    9900012    2    1    2    0    0  0.64038054660E+01  0.33387221138E+02  0.22303592644E+02  0.50528861979E+02  0.30000006472E+02 0.  0.
         12    1    1    2    0    0 -0.64038054660E+01 -0.33387221138E+02 -0.22303592644E+02  0.40659138021E+02  0.00000000000E+00 0. -1.
         11    1    3    3    0    0 -0.14462903705E+01  0.13987080641E+02 -0.19164304848E+01  0.14191648486E+02  0.51100000000E-03 0. -1.
        -11    1    3    3    0    0  0.81299692520E+00  0.19783131468E+02  0.19894120065E+02  0.28067940218E+02  0.51100000000E-03 0.  1.
         12    1    3    3    0    0  0.70370989113E+01 -0.38299097097E+00  0.43259030640E+01  0.82692732746E+01  0.00000000000E+00 0. -1.
</event>
<event>
 7    1  0.2746803E-013  0.5052875E+02  0.7816164E-02  0.1300439E+00
        -11   -1    0    0    0    0  0.00000000000E+00  0.00000000000E+00  0.45593999997E+02  0.45594000000E+02  0.51100000000E-03 0.  1.
         11   -1    0    0    0    0 -0.00000000000E+00 -0.00000000000E+00 -0.45593999997E+02  0.45594000000E+02  0.51100000000E-03 0. -1.
    9900012    2    1    2    0    0 -0.36466036104E+02  0.17308854919E+02 -0.48791964529E+01  0.50528747600E+02  0.29999658802E+02 0.  0.
         12    1    1    2    0    0  0.36466036104E+02 -0.17308854919E+02  0.48791964529E+01  0.40659252400E+02  0.00000000000E+00 0. -1.
         11    1    3    3    0    0 -0.43734123857E+01  0.10747432378E+01  0.26456650191E+01  0.52231554234E+01  0.51100000000E-03 0.  1.
        -11    1    3    3    0    0 -0.13200445331E+02 -0.36329109984E+01  0.57445946252E+01  0.14847564343E+02  0.51100000000E-03 0. -1.
         12    1    3    3    0    0 -0.18892178387E+02  0.19867022680E+02 -0.13269456097E+02  0.30458027833E+02  0.00000000000E+00 0. -1.
</event>
<event>
 7    1  0.2746803E-013  0.5052886E+02  0.7816164E-02  0.1300439E+00
        -11   -1    0    0    0    0  0.00000000000E+00  0.00000000000E+00  0.45593999997E+02  0.45594000000E+02  0.51100000000E-03 0.  1.
         11   -1    0    0    0    0 -0.00000000000E+00 -0.00000000000E+00 -0.45593999997E+02  0.45594000000E+02  0.51100000000E-03 0. -1.
    9900012    2    1    2    0    0  0.34779752164E+01 -0.22584032977E+02  0.33630803298E+02  0.50528858499E+02  0.29999995895E+02 0.  0.
         12    1    1    2    0    0 -0.34779752164E+01  0.22584032977E+02 -0.33630803298E+02  0.40659141501E+02  0.00000000000E+00 0. -1.
         11    1    3    3    0    0  0.35492964698E+01 -0.11799392212E+01  0.15178364614E+02  0.15632418706E+02  0.51100000000E-03 0. -1.
        -11    1    3    3    0    0  0.91677580503E+01 -0.42753703760E+01  0.54431974246E+01  0.11487165794E+02  0.51100000000E-03 0.  1.
        -12    1    3    3    0    0 -0.92390793037E+01 -0.17128723380E+02  0.13009241259E+02  0.23409273999E+02  0.00000000000E+00 0.  1.
</event>
<event>
 7    1  0.3195270E-013  0.5052886E+02  0.7816164E-02  0.1300439E+00
        -11   -1    0    0    0    0  0.00000000000E+00  0.00000000000E+00  0.45593999997E+02  0.45594000000E+02  0.51100000000E-03 0. -1.
         11   -1    0    0    0    0 -0.00000000000E+00 -0.00000000000E+00 -0.45593999997E+02  0.45594000000E+02  0.51100000000E-03 0.  1.
    9900012    2    1    2    0    0  0.12104784093E+02 -0.15619601194E+02 -0.35534036573E+02  0.50528862103E+02  0.30000006848E+02 0.  0.
         12    1    1    2    0    0 -0.12104784093E+02  0.15619601194E+02  0.35534036573E+02  0.40659137897E+02  0.00000000000E+00 0. -1.
         11    1    3    3    0    0  0.92595526729E+01 -0.14902711173E+02 -0.15225499500E+02  0.23230280913E+02  0.51100000000E-03 0. -1.
        -11    1    3    3    0    0  0.38683843590E+01 -0.66153367762E+01 -0.19869349361E+02  0.21295964935E+02  0.51100000000E-03 0.  1.
         12    1    3    3    0    0 -0.10231529386E+01  0.58984467552E+01 -0.43918771146E+00  0.60026162550E+01  0.00000000000E+00 0. -1.
</event>
<event>
 7    1  0.2746803E-013  0.5052886E+02  0.7816164E-02  0.1300439E+00
        -11   -1    0    0    0    0  0.00000000000E+00  0.00000000000E+00  0.45593999997E+02  0.45594000000E+02  0.51100000000E-03 0. -1.
         11   -1    0    0    0    0 -0.00000000000E+00 -0.00000000000E+00 -0.45593999997E+02  0.45594000000E+02  0.51100000000E-03 0.  1.
    9900012    2    1    2    0    0 -0.15346226675E+01 -0.30137404556E+02 -0.27249723334E+02  0.50528860291E+02  0.30000001341E+02 0.  0.
         12    1    1    2    0    0  0.15346226675E+01  0.30137404556E+02  0.27249723334E+02  0.40659139709E+02  0.00000000000E+00 0. -1.
         11    1    3    3    0    0  0.47828713760E+01 -0.52798319086E+01 -0.22975682492E+02  0.24054822174E+02  0.51100000000E-03 0. -1.
        -11    1    3    3    0    0 -0.19672087213E+01 -0.49427576795E+01 -0.28617995660E+01  0.60407500071E+01  0.51100000000E-03 0.  1.
         12    1    3    3    0    0 -0.43502853222E+01 -0.19914814968E+02 -0.14122412760E+01  0.20433288110E+02  0.00000000000E+00 0. -1.
</event>
<event>
 7    1  0.2746803E-013  0.5052883E+02  0.7816164E-02  0.1300439E+00
        -11   -1    0    0    0    0  0.00000000000E+00  0.00000000000E+00  0.45593999997E+02  0.45594000000E+02  0.51100000000E-03 0.  1.
         11   -1    0    0    0    0 -0.00000000000E+00 -0.00000000000E+00 -0.45593999997E+02  0.45594000000E+02  0.51100000000E-03 0. -1.
    9900012    2    1    2    0    0  0.19783806289E+02  0.31911586179E+02  0.15601905867E+02  0.50528833870E+02  0.29999921030E+02 0.  0.
         12    1    1    2    0    0 -0.19783806289E+02 -0.31911586179E+02 -0.15601905867E+02  0.40659166130E+02  0.00000000000E+00 0. -1.
         11    1    3    3    0    0 -0.50081286826E+01  0.67238150662E+01  0.40313324020E+00  0.83936618121E+01  0.51100000000E-03 0. -1.
        -11    1    3    3    0    0  0.90694796003E+01  0.11268322505E+02  0.15410180255E+02  0.21135378115E+02  0.51100000000E-03 0.  1.
         12    1    3    3    0    0  0.15722455371E+02  0.13919448608E+02 -0.21140762865E+00  0.20999793943E+02  0.00000000000E+00 0. -1.
</event>
<event>
 7    1  0.2746803E-013  0.5052884E+02  0.7816164E-02  0.1300439E+00
        -11   -1    0    0    0    0  0.00000000000E+00  0.00000000000E+00  0.45593999997E+02  0.45594000000E+02  0.51100000000E-03 0. -1.
         11   -1    0    0    0    0 -0.00000000000E+00 -0.00000000000E+00 -0.45593999997E+02  0.45594000000E+02  0.51100000000E-03 0.  1.
    9900012    2    1    2    0    0 -0.26551627901E+02 -0.15799998392E+02 -0.26429880681E+02  0.50528837611E+02  0.29999932401E+02 0.  0.
         12    1    1    2    0    0  0.26551627901E+02  0.15799998392E+02  0.26429880681E+02  0.40659162389E+02  0.00000000000E+00 0. -1.
         11    1    3    3    0    0 -0.18860512361E+02 -0.54985223637E+01 -0.73836706627E+01  0.20987407353E+02  0.51100000000E-03 0. -1.
        -11    1    3    3    0    0 -0.27496250861E+01  0.52906236243E+01 -0.71860716369E+01  0.93375993852E+01  0.51100000000E-03 0.  1.
        -12    1    3    3    0    0 -0.49414904540E+01 -0.15592099652E+02 -0.11860138382E+02  0.20203830872E+02  0.00000000000E+00 0.  1.
</event>
<event>
 7    1  0.2746803E-013  0.5052885E+02  0.7816164E-02  0.1300439E+00
        -11   -1    0    0    0    0  0.00000000000E+00  0.00000000000E+00  0.45593999997E+02  0.45594000000E+02  0.51100000000E-03 0.  1.
         11   -1    0    0    0    0 -0.00000000000E+00 -0.00000000000E+00 -0.45593999997E+02  0.45594000000E+02  0.51100000000E-03 0. -1.
    9900012    2    1    2    0    0 -0.15402278011E+02 -0.24730435251E+01  0.37547570629E+02  0.50528853768E+02  0.29999981513E+02 0.  0.
         12    1    1    2    0    0  0.15402278011E+02  0.24730435251E+01 -0.37547570629E+02  0.40659146232E+02  0.00000000000E+00 0. -1.
         11    1    3    3    0    0  0.44489545218E+00  0.64029115989E+01  0.98235102771E+01  0.11734417895E+02  0.51100000000E-03 0. -1.
        -11    1    3    3    0    0 -0.13655167142E+02  0.38151645154E+01  0.16003461832E+02  0.21380595428E+02  0.51100000000E-03 0.  1.
        -12    1    3    3    0    0 -0.21920063206E+01 -0.12691119639E+02  0.11720598519E+02  0.17413840445E+02  0.00000000000E+00 0.  1.
</event>
<event>
 7    1  0.2746803E-013  0.5052885E+02  0.7816164E-02  0.1300439E+00
        -11   -1    0    0    0    0  0.00000000000E+00  0.00000000000E+00  0.45593999997E+02  0.45594000000E+02  0.51100000000E-03 0.  1.
         11   -1    0    0    0    0 -0.00000000000E+00 -0.00000000000E+00 -0.45593999997E+02  0.45594000000E+02  0.51100000000E-03 0. -1.
    9900012    2    1    2    0    0 -0.35164264138E+02  0.14237101359E+02 -0.14626905129E+02  0.50528845051E+02  0.29999955018E+02 0.  0.
         12    1    1    2    0    0  0.35164264138E+02 -0.14237101359E+02  0.14626905129E+02  0.40659154949E+02  0.00000000000E+00 0. -1.
         11    1    3    3    0    0 -0.10211176841E+02  0.14625499943E+02 -0.11404416507E+02  0.21171539792E+02  0.51100000000E-03 0. -1.
        -11    1    3    3    0    0 -0.79634209235E+00 -0.24202997134E+01  0.33794757162E+01  0.42323596029E+01  0.51100000000E-03 0.  1.
        -12    1    3    3    0    0 -0.24156745205E+02  0.20319011296E+01 -0.66019643385E+01  0.25124945656E+02  0.00000000000E+00 0.  1.
</event>
<event>
 7    1  0.2746803E-013  0.5052889E+02  0.7816164E-02  0.1300439E+00
        -11   -1    0    0    0    0  0.00000000000E+00  0.00000000000E+00  0.45593999997E+02  0.45594000000E+02  0.51100000000E-03 0.  1.
         11   -1    0    0    0    0 -0.00000000000E+00 -0.00000000000E+00 -0.45593999997E+02  0.45594000000E+02  0.51100000000E-03 0. -1.
    9900012    2    1    2    0    0 -0.29221664856E+02 -0.14806663828E+02 -0.24083609656E+02  0.50528889769E+02  0.30000090943E+02 0.  0.
         12    1    1    2    0    0  0.29221664856E+02  0.14806663828E+02  0.24083609656E+02  0.40659110231E+02  0.00000000000E+00 0. -1.
         11    1    3    3    0    0 -0.12238037681E+02 -0.10399732877E+02 -0.25955274874E+01  0.16268397997E+02  0.51100000000E-03 0. -1.
        -11    1    3    3    0    0 -0.14176821299E+02 -0.75502232944E+01 -0.43905358397E+01  0.16651274401E+02  0.51100000000E-03 0.  1.
        -12    1    3    3    0    0 -0.28068058761E+01  0.31432923427E+01 -0.17097546329E+02  0.17609217372E+02  0.00000000000E+00 0.  1.
</event>
<event>
 7    1  0.2746803E-013  0.5052886E+02  0.7816164E-02  0.1300439E+00
        -11   -1    0    0    0    0  0.00000000000E+00  0.00000000000E+00  0.45593999997E+02  0.45594000000E+02  0.51100000000E-03 0.  1.
         11   -1    0    0    0    0 -0.00000000000E+00 -0.00000000000E+00 -0.45593999997E+02  0.45594000000E+02  0.51100000000E-03 0. -1.
    9900012    2    1    2    0    0  0.27453265179E+02 -0.94847382620E+01  0.28452130395E+02  0.50528858926E+02  0.29999997190E+02 0.  0.
         12    1    1    2    0    0 -0.27453265179E+02  0.94847382620E+01 -0.28452130395E+02  0.40659141074E+02  0.00000000000E+00 0. -1.
         11    1    3    3    0    0  0.66501803439E+01 -0.70834032862E+01 -0.34705290191E+00  0.97221369410E+01  0.51100000000E-03 0. -1.
        -11    1    3    3    0    0 -0.20853855072E+01  0.28646020678E+01 -0.12797264899E+00  0.35455824600E+01  0.51100000000E-03 0.  1.
        -12    1    3    3    0    0  0.22888470343E+02 -0.52659370437E+01  0.28927155946E+02  0.37261139525E+02  0.00000000000E+00 0.  1.
</event>
<event>
 7    1  0.2746803E-013  0.5052886E+02  0.7816164E-02  0.1300439E+00
        -11   -1    0    0    0    0  0.00000000000E+00  0.00000000000E+00  0.45593999997E+02  0.45594000000E+02  0.51100000000E-03 0. -1.
         11   -1    0    0    0    0 -0.00000000000E+00 -0.00000000000E+00 -0.45593999997E+02  0.45594000000E+02  0.51100000000E-03 0.  1.
    9900012    2    1    2    0    0  0.40322726752E+02  0.48322270356E+01  0.19730994986E+01  0.50528857948E+02  0.29999994217E+02 0.  0.
         12    1    1    2    0    0 -0.40322726752E+02 -0.48322270356E+01 -0.19730994986E+01  0.40659142052E+02  0.00000000000E+00 0. -1.
         11    1    3    3    0    0  0.18162224193E+02  0.10174337850E+02  0.44209474313E+01  0.21282112554E+02  0.51100000000E-03 0. -1.
        -11    1    3    3    0    0 -0.59985150938E+00 -0.34035563148E+01  0.42163172068E+01  0.54517289432E+01  0.51100000000E-03 0.  1.
        -12    1    3    3    0    0  0.22760354068E+02 -0.19385544995E+01 -0.66641651395E+01  0.23795016450E+02  0.00000000000E+00 0.  1.
</event>
<event>
 7    1  0.2746803E-013  0.5052886E+02  0.7816164E-02  0.1300439E+00
        -11   -1    0    0    0    0  0.00000000000E+00  0.00000000000E+00  0.45593999997E+02  0.45594000000E+02  0.51100000000E-03 0.  1.
         11   -1    0    0    0    0 -0.00000000000E+00 -0.00000000000E+00 -0.45593999997E+02  0.45594000000E+02  0.51100000000E-03 0. -1.
    9900012    2    1    2    0    0 -0.38398526336E+02 -0.60113726989E+01 -0.11940768685E+02  0.50528863471E+02  0.30000011006E+02 0.  0.
         12    1    1    2    0    0  0.38398526336E+02  0.60113726989E+01  0.11940768685E+02  0.40659136529E+02  0.00000000000E+00 0. -1.
         11    1    3    3    0    0  0.96499807913E+00 -0.80368741419E+00 -0.64659985557E+00  0.14125248270E+01  0.51100000000E-03 0. -1.
        -11    1    3    3    0    0 -0.29892340904E+02 -0.28175401993E+01 -0.19963506304E+02  0.36055958754E+02  0.51100000000E-03 0.  1.
         12    1    3    3    0    0 -0.94711835109E+01 -0.23901450855E+01  0.86693374737E+01  0.13060379890E+02  0.00000000000E+00 0. -1.
</event>
<event>
 7    1  0.2746803E-013  0.5052886E+02  0.7816164E-02  0.1300439E+00
        -11   -1    0    0    0    0  0.00000000000E+00  0.00000000000E+00  0.45593999997E+02  0.45594000000E+02  0.51100000000E-03 0.  1.
         11   -1    0    0    0    0 -0.00000000000E+00 -0.00000000000E+00 -0.45593999997E+02  0.45594000000E+02  0.51100000000E-03 0. -1.
    9900012    2    1    2    0    0 -0.28464242883E+02  0.26821524347E+02  0.11115669294E+02  0.50528863326E+02  0.30000010567E+02 0.  0.
         12    1    1    2    0    0  0.28464242883E+02 -0.26821524347E+02 -0.11115669294E+02  0.40659136674E+02  0.00000000000E+00 0. -1.
         11    1    3    3    0    0 -0.24711504664E+01  0.64073908349E+01  0.66951140962E+01  0.95909225292E+01  0.51100000000E-03 0. -1.
        -11    1    3    3    0    0 -0.15009150375E+02  0.21410908097E+02  0.10693407177E+02  0.28249788280E+02  0.51100000000E-03 0.  1.
         12    1    3    3    0    0 -0.10983942042E+02 -0.99677458554E+00 -0.62728519791E+01  0.12688152517E+02  0.00000000000E+00 0. -1.
</event>
<event>
 7    1  0.2746803E-013  0.5052885E+02  0.7816164E-02  0.1300439E+00
        -11   -1    0    0    0    0  0.00000000000E+00  0.00000000000E+00  0.45593999997E+02  0.45594000000E+02  0.51100000000E-03 0. -1.
         11   -1    0    0    0    0 -0.00000000000E+00 -0.00000000000E+00 -0.45593999997E+02  0.45594000000E+02  0.51100000000E-03 0.  1.
    9900012    2    1    2    0    0 -0.16211927704E+02  0.13850729998E+02 -0.34619315507E+02  0.50528851860E+02  0.29999975712E+02 0.  0.
         12    1    1    2    0    0  0.16211927704E+02 -0.13850729998E+02  0.34619315507E+02  0.40659148140E+02  0.00000000000E+00 0. -1.
         11    1    3    3    0    0 -0.44986073794E+00  0.63544702410E+00 -0.11811726268E+01  0.14146860568E+01  0.51100000000E-03 0. -1.
        -11    1    3    3    0    0 -0.33666350386E+00  0.19157244401E+02 -0.20997820366E+02  0.28425724542E+02  0.51100000000E-03 0.  1.
         12    1    3    3    0    0 -0.15425403462E+02 -0.59419614267E+01 -0.12440322514E+02  0.20688441261E+02  0.00000000000E+00 0. -1.
</event>
<event>
 7    1  0.2746803E-013  0.5052885E+02  0.7816164E-02  0.1300439E+00
        -11   -1    0    0    0    0  0.00000000000E+00  0.00000000000E+00  0.45593999997E+02  0.45594000000E+02  0.51100000000E-03 0. -1.
         11   -1    0    0    0    0 -0.00000000000E+00 -0.00000000000E+00 -0.45593999997E+02  0.45594000000E+02  0.51100000000E-03 0.  1.
    9900012    2    1    2    0    0  0.16641033993E+02  0.35214211291E+02  0.11670560166E+02  0.50528847724E+02  0.29999963142E+02 0.  0.
         12    1    1    2    0    0 -0.16641033993E+02 -0.35214211291E+02 -0.11670560166E+02  0.40659152276E+02  0.00000000000E+00 0. -1.
         11    1    3    3    0    0  0.36320942915E-01  0.19094713048E+01 -0.57254238314E-01  0.19106747979E+01  0.51100000000E-03 0. -1.
        -11    1    3    3    0    0  0.13112861217E+02  0.12216416723E+02 -0.79115703098E+01  0.19590326997E+02  0.51100000000E-03 0.  1.
         12    1    3    3    0    0  0.34918518329E+01  0.21088323263E+02  0.19639384715E+02  0.29027845929E+02  0.00000000000E+00 0. -1.
</event>
<event>
 7    1  0.2746803E-013  0.5052885E+02  0.7816164E-02  0.1300439E+00
        -11   -1    0    0    0    0  0.00000000000E+00  0.00000000000E+00  0.45593999997E+02  0.45594000000E+02  0.51100000000E-03 0.  1.
         11   -1    0    0    0    0 -0.00000000000E+00 -0.00000000000E+00 -0.45593999997E+02  0.45594000000E+02  0.51100000000E-03 0. -1.
    9900012    2    1    2    0    0 -0.13368434632E+00 -0.11192427251E+02  0.39088081011E+02  0.50528851258E+02  0.29999973884E+02 0.  0.
         12    1    1    2    0    0  0.13368434632E+00  0.11192427251E+02 -0.39088081011E+02  0.40659148742E+02  0.00000000000E+00 0. -1.
         11    1    3    3    0    0  0.88675065945E+00 -0.71673858763E+01  0.84022726814E+00  0.72707447455E+01  0.51100000000E-03 0. -1.
        -11    1    3    3    0    0  0.80449847443E+01 -0.24381474425E+00  0.75816504422E+01  0.11057244180E+02  0.51100000000E-03 0.  1.
        -12    1    3    3    0    0 -0.90654197500E+01 -0.37812266307E+01  0.30666203301E+02  0.32200862333E+02  0.00000000000E+00 0.  1.
</event>
<event>
 7    1  0.2746803E-013  0.5052884E+02  0.7816164E-02  0.1300439E+00
        -11   -1    0    0    0    0  0.00000000000E+00  0.00000000000E+00  0.45593999997E+02  0.45594000000E+02  0.51100000000E-03 0. -1.
         11   -1    0    0    0    0 -0.00000000000E+00 -0.00000000000E+00 -0.45593999997E+02  0.45594000000E+02  0.51100000000E-03 0.  1.
    9900012    2    1    2    0    0  0.17686233943E+02  0.13634454727E+02 -0.33977429334E+02  0.50528844439E+02  0.29999953156E+02 0.  0.
         12    1    1    2    0    0 -0.17686233943E+02 -0.13634454727E+02  0.33977429334E+02  0.40659155561E+02  0.00000000000E+00 0. -1.
         11    1    3    3    0    0  0.47891222675E+01  0.13828857324E+02 -0.18646270097E+02  0.23703509777E+02  0.51100000000E-03 0.  1.
        -11    1    3    3    0    0 -0.11641996212E+00  0.44339388008E+01  0.18283922909E+01  0.47975395285E+01  0.51100000000E-03 0. -1.
         12    1    3    3    0    0  0.13013531638E+02 -0.46283413975E+01 -0.17159551528E+02  0.22027795133E+02  0.00000000000E+00 0. -1.
</event>
<event>
 7    1  0.2746803E-013  0.5052886E+02  0.7816164E-02  0.1300439E+00
        -11   -1    0    0    0    0  0.00000000000E+00  0.00000000000E+00  0.45593999997E+02  0.45594000000E+02  0.51100000000E-03 0.  1.
         11   -1    0    0    0    0 -0.00000000000E+00 -0.00000000000E+00 -0.45593999997E+02  0.45594000000E+02  0.51100000000E-03 0. -1.
    9900012    2    1    2    0    0  0.45620611951E+01  0.39811930250E+02  0.68820903908E+01  0.50528863749E+02  0.30000011850E+02 0.  0.
         12    1    1    2    0    0 -0.45620611951E+01 -0.39811930250E+02 -0.68820903908E+01  0.40659136251E+02  0.00000000000E+00 0. -1.
         11    1    3    3    0    0  0.24300231479E+01  0.16969978914E+02 -0.88737800086E+01  0.19303605071E+02  0.51100000000E-03 0. -1.
        -11    1    3    3    0    0 -0.53282135610E+01  0.11881892772E+02  0.43296939232E+01  0.13722808945E+02  0.51100000000E-03 0.  1.
         12    1    3    3    0    0  0.74602516083E+01  0.10960058563E+02  0.11426176476E+02  0.17502449733E+02  0.00000000000E+00 0. -1.
</event>
<event>
 7    1  0.2746803E-013  0.5052887E+02  0.7816164E-02  0.1300439E+00
        -11   -1    0    0    0    0  0.00000000000E+00  0.00000000000E+00  0.45593999997E+02  0.45594000000E+02  0.51100000000E-03 0.  1.
         11   -1    0    0    0    0 -0.00000000000E+00 -0.00000000000E+00 -0.45593999997E+02  0.45594000000E+02  0.51100000000E-03 0. -1.
    9900012    2    1    2    0    0  0.21165080078E+02 -0.34682706869E+02  0.15212302573E+01  0.50528869267E+02  0.30000028624E+02 0.  0.
         12    1    1    2    0    0 -0.21165080078E+02  0.34682706869E+02 -0.15212302573E+01  0.40659130733E+02  0.00000000000E+00 0. -1.
         11    1    3    3    0    0 -0.56396592406E+01 -0.61582178101E+01  0.34875041238E+01  0.90494247453E+01  0.51100000000E-03 0. -1.
        -11    1    3    3    0    0  0.10865506223E+02 -0.15674164897E+02  0.52323817971E+01  0.19776665296E+02  0.51100000000E-03 0.  1.
        -12    1    3    3    0    0  0.15939233096E+02 -0.12850324162E+02 -0.71986556636E+01  0.21702779225E+02  0.00000000000E+00 0.  1.
</event>
<event>
 7    1  0.2746803E-013  0.5052886E+02  0.7816164E-02  0.1300439E+00
        -11   -1    0    0    0    0  0.00000000000E+00  0.00000000000E+00  0.45593999997E+02  0.45594000000E+02  0.51100000000E-03 0. -1.
         11   -1    0    0    0    0 -0.00000000000E+00 -0.00000000000E+00 -0.45593999997E+02  0.45594000000E+02  0.51100000000E-03 0.  1.
    9900012    2    1    2    0    0 -0.16970799413E+02 -0.35712749230E+02  0.94740261770E+01  0.50528860040E+02  0.30000000578E+02 0.  0.
         12    1    1    2    0    0  0.16970799413E+02  0.35712749230E+02 -0.94740261770E+01  0.40659139960E+02  0.00000000000E+00 0. -1.
         11    1    3    3    0    0 -0.62808452441E+00 -0.93539859289E+01  0.12339325182E+01  0.94559046446E+01  0.51100000000E-03 0. -1.
        -11    1    3    3    0    0  0.34126496059E+01 -0.36011273008E+01  0.97067805195E+01  0.10901187251E+02  0.51100000000E-03 0.  1.
        -12    1    3    3    0    0 -0.19755364495E+02 -0.22757636000E+02 -0.14666868607E+01  0.30171768145E+02  0.00000000000E+00 0.  1.
</event>
<event>
 7    1  0.2746803E-013  0.5052886E+02  0.7816164E-02  0.1300439E+00
        -11   -1    0    0    0    0  0.00000000000E+00  0.00000000000E+00  0.45593999997E+02  0.45594000000E+02  0.51100000000E-03 0.  1.
         11   -1    0    0    0    0 -0.00000000000E+00 -0.00000000000E+00 -0.45593999997E+02  0.45594000000E+02  0.51100000000E-03 0. -1.
    9900012    2    1    2    0    0 -0.54867301033E+01 -0.17206140447E+02  0.36428147121E+02  0.50528863524E+02  0.30000011168E+02 0.  0.
         12    1    1    2    0    0  0.54867301033E+01  0.17206140447E+02 -0.36428147121E+02  0.40659136476E+02  0.00000000000E+00 0. -1.
         11    1    3    3    0    0 -0.42068816832E+01 -0.24378480543E+01  0.18091950510E+02  0.18733916572E+02  0.51100000000E-03 0. -1.
        -11    1    3    3    0    0  0.25697223093E+01 -0.18827220246E+02  0.18026878447E+02  0.26192289739E+02  0.51100000000E-03 0.  1.
         12    1    3    3    0    0 -0.38495707294E+01  0.40589278535E+01  0.30931816378E+00  0.56026572131E+01  0.00000000000E+00 0. -1.
</event>
<event>
 7    1  0.2746803E-013  0.5052882E+02  0.7816164E-02  0.1300439E+00
        -11   -1    0    0    0    0  0.00000000000E+00  0.00000000000E+00  0.45593999997E+02  0.45594000000E+02  0.51100000000E-03 0.  1.
         11   -1    0    0    0    0 -0.00000000000E+00 -0.00000000000E+00 -0.45593999997E+02  0.45594000000E+02  0.51100000000E-03 0. -1.
    9900012    2    1    2    0    0  0.36171440412E+02  0.18511700889E+02  0.14534215544E+01  0.50528823847E+02  0.29999890564E+02 0.  0.
         12    1    1    2    0    0 -0.36171440412E+02 -0.18511700889E+02 -0.14534215544E+01  0.40659176153E+02  0.00000000000E+00 0. -1.
         11    1    3    3    0    0  0.12070846522E+02  0.13720085331E+02 -0.32907083952E+01  0.18568113508E+02  0.51100000000E-03 0. -1.
        -11    1    3    3    0    0  0.20863070835E+02  0.37897405856E+01 -0.48787538267E+01  0.21758494836E+02  0.51100000000E-03 0.  1.
         12    1    3    3    0    0  0.32375230548E+01  0.10018749721E+01  0.96228837762E+01  0.10202215503E+02  0.00000000000E+00 0. -1.
</event>
<event>
 7    1  0.2746803E-013  0.5052886E+02  0.7816164E-02  0.1300439E+00
        -11   -1    0    0    0    0  0.00000000000E+00  0.00000000000E+00  0.45593999997E+02  0.45594000000E+02  0.51100000000E-03 0.  1.
         11   -1    0    0    0    0 -0.00000000000E+00 -0.00000000000E+00 -0.45593999997E+02  0.45594000000E+02  0.51100000000E-03 0. -1.
    9900012    2    1    2    0    0  0.37541845713E+02 -0.62252124170E+01  0.14318589653E+02  0.50528862542E+02  0.30000008182E+02 0.  0.
         12    1    1    2    0    0 -0.37541845713E+02  0.62252124170E+01 -0.14318589653E+02  0.40659137458E+02  0.00000000000E+00 0. -1.
         11    1    3    3    0    0 -0.14594038445E+01 -0.30130778147E+01  0.55255203009E+01  0.64606402434E+01  0.51100000000E-03 0. -1.
        -11    1    3    3    0    0 -0.85663368739E+00 -0.37477645713E+00  0.36642540377E+01  0.37816711360E+01  0.51100000000E-03 0.  1.
        -12    1    3    3    0    0  0.39857883245E+02 -0.28373581452E+01  0.51288153145E+01  0.40286551162E+02  0.00000000000E+00 0.  1.
</event>
<event>
 7    1  0.2746803E-013  0.5052885E+02  0.7816164E-02  0.1300439E+00
        -11   -1    0    0    0    0  0.00000000000E+00  0.00000000000E+00  0.45593999997E+02  0.45594000000E+02  0.51100000000E-03 0. -1.
         11   -1    0    0    0    0 -0.00000000000E+00 -0.00000000000E+00 -0.45593999997E+02  0.45594000000E+02  0.51100000000E-03 0.  1.
    9900012    2    1    2    0    0  0.29874578789E+02 -0.13147457155E+02 -0.24245007282E+02  0.50528850161E+02  0.29999970550E+02 0.  0.
         12    1    1    2    0    0 -0.29874578789E+02  0.13147457155E+02  0.24245007282E+02  0.40659149839E+02  0.00000000000E+00 0. -1.
         11    1    3    3    0    0  0.91011044755E+01 -0.25443712142E+01 -0.40752481875E+01  0.10291334977E+02  0.51100000000E-03 0. -1.
        -11    1    3    3    0    0  0.22492373020E+02 -0.10131493647E+02 -0.24979941947E+02  0.35107712935E+02  0.51100000000E-03 0.  1.
         12    1    3    3    0    0 -0.17188987059E+01 -0.47159229383E+00  0.48101828520E+01  0.51298022498E+01  0.00000000000E+00 0. -1.
</event>
<event>
 7    1  0.2746803E-013  0.5052886E+02  0.7816164E-02  0.1300439E+00
        -11   -1    0    0    0    0  0.00000000000E+00  0.00000000000E+00  0.45593999997E+02  0.45594000000E+02  0.51100000000E-03 0.  1.
         11   -1    0    0    0    0 -0.00000000000E+00 -0.00000000000E+00 -0.45593999997E+02  0.45594000000E+02  0.51100000000E-03 0. -1.
    9900012    2    1    2    0    0 -0.38905186761E+02  0.11080635721E+02 -0.40953353586E+01  0.50528858143E+02  0.29999994811E+02 0.  0.
         12    1    1    2    0    0  0.38905186761E+02 -0.11080635721E+02  0.40953353586E+01  0.40659141857E+02  0.00000000000E+00 0. -1.
         11    1    3    3    0    0 -0.13228559985E+02 -0.79590997446E+01  0.16015604455E+01  0.15521181145E+02  0.51100000000E-03 0. -1.
        -11    1    3    3    0    0 -0.21987682095E+02  0.11013976196E+02 -0.17856595174E+00  0.24592635516E+02  0.51100000000E-03 0.  1.
        -12    1    3    3    0    0 -0.36889446808E+01  0.80257592692E+01 -0.55183298524E+01  0.10415041482E+02  0.00000000000E+00 0.  1.
</event>
<event>
 7    1  0.2746803E-013  0.5052883E+02  0.7816164E-02  0.1300439E+00
        -11   -1    0    0    0    0  0.00000000000E+00  0.00000000000E+00  0.45593999997E+02  0.45594000000E+02  0.51100000000E-03 0.  1.
         11   -1    0    0    0    0 -0.00000000000E+00 -0.00000000000E+00 -0.45593999997E+02  0.45594000000E+02  0.51100000000E-03 0. -1.
    9900012    2    1    2    0    0  0.23001797955E+02 -0.30579800255E+02  0.13746305402E+02  0.50528833690E+02  0.29999920483E+02 0.  0.
         12    1    1    2    0    0 -0.23001797955E+02  0.30579800255E+02 -0.13746305402E+02  0.40659166310E+02  0.00000000000E+00 0. -1.
         11    1    3    3    0    0  0.93384577458E+01 -0.14720381171E+02  0.17607115910E+01  0.17521316173E+02  0.51100000000E-03 0.  1.
        -11    1    3    3    0    0  0.54249696978E+01 -0.18196903752E+02  0.14711549013E+02  0.24020559465E+02  0.51100000000E-03 0. -1.
         12    1    3    3    0    0  0.82383705116E+01  0.23374846669E+01 -0.27259552021E+01  0.89869580514E+01  0.00000000000E+00 0. -1.
</event>
<event>
 7    1  0.2746803E-013  0.5052886E+02  0.7816164E-02  0.1300439E+00
        -11   -1    0    0    0    0  0.00000000000E+00  0.00000000000E+00  0.45593999997E+02  0.45594000000E+02  0.51100000000E-03 0.  1.
         11   -1    0    0    0    0 -0.00000000000E+00 -0.00000000000E+00 -0.45593999997E+02  0.45594000000E+02  0.51100000000E-03 0. -1.
    9900012    2    1    2    0    0  0.14535490324E+02  0.36204339527E+02  0.11451259742E+02  0.50528855527E+02  0.29999986861E+02 0.  0.
         12    1    1    2    0    0 -0.14535490324E+02 -0.36204339527E+02 -0.11451259742E+02  0.40659144473E+02  0.00000000000E+00 0. -1.
         11    1    3    3    0    0  0.19623898759E+02  0.15160315835E+02  0.42210020904E+01  0.25154511278E+02  0.51100000000E-03 0. -1.
        -11    1    3    3    0    0  0.60581448019E+00  0.14545453528E+02  0.75630863727E+00  0.14577696407E+02  0.51100000000E-03 0.  1.
        -12    1    3    3    0    0 -0.56942229153E+01  0.64985701649E+01  0.64739490142E+01  0.10796647842E+02  0.00000000000E+00 0.  1.
</event>
<event>
 7    1  0.2746803E-013  0.5052896E+02  0.7816164E-02  0.1300438E+00
        -11   -1    0    0    0    0  0.00000000000E+00  0.00000000000E+00  0.45593999997E+02  0.45594000000E+02  0.51100000000E-03 0.  1.
         11   -1    0    0    0    0 -0.00000000000E+00 -0.00000000000E+00 -0.45593999997E+02  0.45594000000E+02  0.51100000000E-03 0. -1.
    9900012    2    1    2    0    0  0.60911583297E+01 -0.11637116947E+02  0.38478989286E+02  0.50528962664E+02  0.30000312511E+02 0.  0.
         12    1    1    2    0    0 -0.60911583297E+01  0.11637116947E+02 -0.38478989286E+02  0.40659037336E+02  0.00000000000E+00 0. -1.
         11    1    3    3    0    0  0.46421246186E+01 -0.22670015030E+01  0.11167994773E+01  0.52854383095E+01  0.51100000000E-03 0. -1.
        -11    1    3    3    0    0  0.12008333467E+02 -0.10415797190E+01  0.16923216533E+02  0.20776915533E+02  0.51100000000E-03 0.  1.
        -12    1    3    3    0    0 -0.10559299756E+02 -0.83285357255E+01  0.20438973276E+02  0.24466608822E+02  0.00000000000E+00 0.  1.
</event>
<event>
 7    1  0.2746803E-013  0.5052886E+02  0.7816164E-02  0.1300439E+00
        -11   -1    0    0    0    0  0.00000000000E+00  0.00000000000E+00  0.45593999997E+02  0.45594000000E+02  0.51100000000E-03 0. -1.
         11   -1    0    0    0    0 -0.00000000000E+00 -0.00000000000E+00 -0.45593999997E+02  0.45594000000E+02  0.51100000000E-03 0.  1.
    9900012    2    1    2    0    0  0.11901570526E+02 -0.14885346927E+02 -0.35915803194E+02  0.50528857692E+02  0.29999993442E+02 0.  0.
         12    1    1    2    0    0 -0.11901570526E+02  0.14885346927E+02  0.35915803194E+02  0.40659142308E+02  0.00000000000E+00 0. -1.
         11    1    3    3    0    0  0.28839775684E+01 -0.37184224873E+00 -0.17997979351E+02  0.18231370060E+02  0.51100000000E-03 0. -1.
        -11    1    3    3    0    0 -0.15210892936E+01 -0.15544471081E+02 -0.14098609451E+02  0.21040795672E+02  0.51100000000E-03 0.  1.
         12    1    3    3    0    0  0.10538682251E+02  0.10309664026E+01 -0.38192143919E+01  0.11256691960E+02  0.00000000000E+00 0. -1.
</event>
<event>
 7    1  0.2746803E-013  0.5052887E+02  0.7816164E-02  0.1300439E+00
        -11   -1    0    0    0    0  0.00000000000E+00  0.00000000000E+00  0.45593999997E+02  0.45594000000E+02  0.51100000000E-03 0.  1.
         11   -1    0    0    0    0 -0.00000000000E+00 -0.00000000000E+00 -0.45593999997E+02  0.45594000000E+02  0.51100000000E-03 0. -1.
    9900012    2    1    2    0    0 -0.13817252751E+02  0.36871451366E+02 -0.10136305301E+02  0.50528867145E+02  0.30000022173E+02 0.  0.
         12    1    1    2    0    0  0.13817252751E+02 -0.36871451366E+02  0.10136305301E+02  0.40659132855E+02  0.00000000000E+00 0. -1.
         11    1    3    3    0    0 -0.35381740853E-01  0.14521344669E+02 -0.12498442092E+02  0.19159377805E+02  0.51100000000E-03 0. -1.
        -11    1    3    3    0    0 -0.12236777860E+02  0.18731091338E+02 -0.50869396998E+01  0.22944922551E+02  0.51100000000E-03 0.  1.
        -12    1    3    3    0    0 -0.15450931499E+01  0.36190153586E+01  0.74490764915E+01  0.84245667891E+01  0.00000000000E+00 0.  1.
</event>
<event>
 7    1  0.2746803E-013  0.5052893E+02  0.7816164E-02  0.1300439E+00
        -11   -1    0    0    0    0  0.00000000000E+00  0.00000000000E+00  0.45593999997E+02  0.45594000000E+02  0.51100000000E-03 0.  1.
         11   -1    0    0    0    0 -0.00000000000E+00 -0.00000000000E+00 -0.45593999997E+02  0.45594000000E+02  0.51100000000E-03 0. -1.
    9900012    2    1    2    0    0 -0.35702767584E+02  0.63172365284E+01  0.18400138803E+02  0.50528927231E+02  0.30000204809E+02 0.  0.
         12    1    1    2    0    0  0.35702767584E+02 -0.63172365284E+01 -0.18400138803E+02  0.40659072769E+02  0.00000000000E+00 0. -1.
         11    1    3    3    0    0 -0.81025059436E+01  0.31519671412E+01 -0.39102075762E+01  0.95328496776E+01  0.51100000000E-03 0. -1.
        -11    1    3    3    0    0 -0.21844523855E+02 -0.65649256218E+01  0.17311469800E+02  0.28635091370E+02  0.51100000000E-03 0.  1.
         12    1    3    3    0    0 -0.57557377854E+01  0.97301950090E+01  0.49988765793E+01  0.12360986183E+02  0.00000000000E+00 0. -1.
</event>
<event>
 7    1  0.2746803E-013  0.5052886E+02  0.7816164E-02  0.1300439E+00
        -11   -1    0    0    0    0  0.00000000000E+00  0.00000000000E+00  0.45593999997E+02  0.45594000000E+02  0.51100000000E-03 0.  1.
         11   -1    0    0    0    0 -0.00000000000E+00 -0.00000000000E+00 -0.45593999997E+02  0.45594000000E+02  0.51100000000E-03 0. -1.
    9900012    2    1    2    0    0  0.25494069671E+02  0.78052251695E+00  0.31664004843E+02  0.50528855808E+02  0.29999987713E+02 0.  0.
         12    1    1    2    0    0 -0.25494069671E+02 -0.78052251695E+00 -0.31664004843E+02  0.40659144192E+02  0.00000000000E+00 0. -1.
         11    1    3    3    0    0  0.81307001994E+01 -0.50767299515E+01  0.52416672447E+01  0.10925042265E+02  0.51100000000E-03 0. -1.
        -11    1    3    3    0    0  0.12702015779E+02  0.47295115332E+01  0.30456880819E+02  0.33336632608E+02  0.51100000000E-03 0.  1.
         12    1    3    3    0    0  0.46613536922E+01  0.11277409353E+01 -0.40345432208E+01  0.62671809342E+01  0.00000000000E+00 0. -1.
</event>
<event>
 7    1  0.2746803E-013  0.5052886E+02  0.7816164E-02  0.1300439E+00
        -11   -1    0    0    0    0  0.00000000000E+00  0.00000000000E+00  0.45593999997E+02  0.45594000000E+02  0.51100000000E-03 0.  1.
         11   -1    0    0    0    0 -0.00000000000E+00 -0.00000000000E+00 -0.45593999997E+02  0.45594000000E+02  0.51100000000E-03 0. -1.
    9900012    2    1    2    0    0  0.15440721031E+02 -0.34598292358E+02  0.14754928530E+02  0.50528860610E+02  0.30000002309E+02 0.  0.
         12    1    1    2    0    0 -0.15440721031E+02  0.34598292358E+02 -0.14754928530E+02  0.40659139390E+02  0.00000000000E+00 0. -1.
         11    1    3    3    0    0  0.64148434186E+01 -0.15010369898E+02 -0.81834074657E+00  0.16344145815E+02  0.51100000000E-03 0. -1.
        -11    1    3    3    0    0  0.87477349380E+01 -0.10311477290E+01 -0.15377633580E+01  0.89415238405E+01  0.51100000000E-03 0.  1.
         12    1    3    3    0    0  0.27814267419E+00 -0.18556774731E+02  0.17111032634E+02  0.25243190955E+02  0.00000000000E+00 0. -1.
</event>
<event>
 7    1  0.2746803E-013  0.5052886E+02  0.7816164E-02  0.1300439E+00
        -11   -1    0    0    0    0  0.00000000000E+00  0.00000000000E+00  0.45593999997E+02  0.45594000000E+02  0.51100000000E-03 0.  1.
         11   -1    0    0    0    0 -0.00000000000E+00 -0.00000000000E+00 -0.45593999997E+02  0.45594000000E+02  0.51100000000E-03 0. -1.
    9900012    2    1    2    0    0  0.55804761972E+01 -0.13545322359E+02  0.37928197229E+02  0.50528860591E+02  0.30000002252E+02 0.  0.
         12    1    1    2    0    0 -0.55804761972E+01  0.13545322359E+02 -0.37928197229E+02  0.40659139409E+02  0.00000000000E+00 0. -1.
         11    1    3    3    0    0  0.65080538537E+01 -0.51608387972E+01 -0.54489784239E+00  0.83238173919E+01  0.51100000000E-03 0. -1.
        -11    1    3    3    0    0  0.60221866880E+01 -0.39974890402E+01  0.86614698536E+01  0.11281299190E+02  0.51100000000E-03 0.  1.
         12    1    3    3    0    0 -0.69497643446E+01 -0.43869945219E+01  0.29811625218E+02  0.30923744009E+02  0.00000000000E+00 0. -1.
</event>
<event>
 7    1  0.2746803E-013  0.5052886E+02  0.7816164E-02  0.1300439E+00
        -11   -1    0    0    0    0  0.00000000000E+00  0.00000000000E+00  0.45593999997E+02  0.45594000000E+02  0.51100000000E-03 0.  1.
         11   -1    0    0    0    0 -0.00000000000E+00 -0.00000000000E+00 -0.45593999997E+02  0.45594000000E+02  0.51100000000E-03 0. -1.
    9900012    2    1    2    0    0 -0.11244248564E+02  0.24318913607E+02  0.30583057001E+02  0.50528855146E+02  0.29999985700E+02 0.  0.
         12    1    1    2    0    0  0.11244248564E+02 -0.24318913607E+02 -0.30583057001E+02  0.40659144854E+02  0.00000000000E+00 0. -1.
         11    1    3    3    0    0  0.22542355121E+01  0.12696819712E+02  0.14033062963E+02  0.19058270250E+02  0.51100000000E-03 0. -1.
        -11    1    3    3    0    0 -0.92282318518E+01  0.17118740771E+02  0.14356303764E+02  0.24172608604E+02  0.51100000000E-03 0.  1.
        -12    1    3    3    0    0 -0.42702522243E+01 -0.54966468757E+01  0.21936902736E+01  0.72979762915E+01  0.00000000000E+00 0.  1.
</event>
<event>
 7    1  0.2746803E-013  0.5052889E+02  0.7816164E-02  0.1300439E+00
        -11   -1    0    0    0    0  0.00000000000E+00  0.00000000000E+00  0.45593999997E+02  0.45594000000E+02  0.51100000000E-03 0.  1.
         11   -1    0    0    0    0 -0.00000000000E+00 -0.00000000000E+00 -0.45593999997E+02  0.45594000000E+02  0.51100000000E-03 0. -1.
    9900012    2    1    2    0    0 -0.35999416873E+01 -0.39791766912E+02  0.75378376627E+01  0.50528889204E+02  0.30000089223E+02 0.  0.
         12    1    1    2    0    0  0.35999416873E+01  0.39791766912E+02 -0.75378376627E+01  0.40659110796E+02  0.00000000000E+00 0. -1.
         11    1    3    3    0    0 -0.68266646550E+01 -0.21173051534E+01 -0.92382735809E+00  0.72069264374E+01  0.51100000000E-03 0. -1.
        -11    1    3    3    0    0  0.10823691182E+02 -0.17816311189E+02  0.70781212677E+01  0.22015290962E+02  0.51100000000E-03 0.  1.
         12    1    3    3    0    0 -0.75969682139E+01 -0.19858150569E+02  0.13835437530E+01  0.21306671805E+02  0.00000000000E+00 0. -1.
</event>
<event>
 7    1  0.2746803E-013  0.5052886E+02  0.7816164E-02  0.1300439E+00
        -11   -1    0    0    0    0  0.00000000000E+00  0.00000000000E+00  0.45593999997E+02  0.45594000000E+02  0.51100000000E-03 0. -1.
         11   -1    0    0    0    0 -0.00000000000E+00 -0.00000000000E+00 -0.45593999997E+02  0.45594000000E+02  0.51100000000E-03 0.  1.
    9900012    2    1    2    0    0  0.16112482571E+02 -0.21623453811E+02  0.30429911124E+02  0.50528863999E+02  0.30000012612E+02 0.  0.
         12    1    1    2    0    0 -0.16112482571E+02  0.21623453811E+02 -0.30429911124E+02  0.40659136001E+02  0.00000000000E+00 0. -1.
         11    1    3    3    0    0  0.52996176926E+01 -0.11981160817E+02  0.59757396314E+01  0.14399431468E+02  0.51100000000E-03 0. -1.
        -11    1    3    3    0    0  0.14025403485E+02 -0.45435735360E+01  0.46962740170E+01  0.15472911598E+02  0.51100000000E-03 0.  1.
         12    1    3    3    0    0 -0.32125386073E+01 -0.50987194585E+01  0.19757897476E+02  0.20656520933E+02  0.00000000000E+00 0. -1.
</event>
<event>
 7    1  0.2746803E-013  0.5052885E+02  0.7816164E-02  0.1300439E+00
        -11   -1    0    0    0    0  0.00000000000E+00  0.00000000000E+00  0.45593999997E+02  0.45594000000E+02  0.51100000000E-03 0.  1.
         11   -1    0    0    0    0 -0.00000000000E+00 -0.00000000000E+00 -0.45593999997E+02  0.45594000000E+02  0.51100000000E-03 0. -1.
    9900012    2    1    2    0    0 -0.53412825406E+01  0.40123778146E+02  0.38366450530E+01  0.50528847068E+02  0.29999961146E+02 0.  0.
         12    1    1    2    0    0  0.53412825406E+01 -0.40123778146E+02 -0.38366450530E+01  0.40659152932E+02  0.00000000000E+00 0. -1.
         11    1    3    3    0    0  0.17604226048E+01  0.42476295087E+01 -0.37500651013E+01  0.59333323450E+01  0.51100000000E-03 0. -1.
        -11    1    3    3    0    0  0.10092074150E+01  0.71477532895E+01 -0.81194456776E+01  0.10864358014E+02  0.51100000000E-03 0.  1.
        -12    1    3    3    0    0 -0.81109125604E+01  0.28728395348E+02  0.15706155832E+02  0.33731156708E+02  0.00000000000E+00 0.  1.
</event>
<event>
 7    1  0.2746803E-013  0.5052882E+02  0.7816164E-02  0.1300439E+00
        -11   -1    0    0    0    0  0.00000000000E+00  0.00000000000E+00  0.45593999997E+02  0.45594000000E+02  0.51100000000E-03 0. -1.
         11   -1    0    0    0    0 -0.00000000000E+00 -0.00000000000E+00 -0.45593999997E+02  0.45594000000E+02  0.51100000000E-03 0.  1.
    9900012    2    1    2    0    0  0.15375570782E+01 -0.10188766164E+02 -0.39331838444E+02  0.50528824491E+02  0.29999892523E+02 0.  0.
         12    1    1    2    0    0 -0.15375570782E+01  0.10188766164E+02  0.39331838444E+02  0.40659175509E+02  0.00000000000E+00 0. -1.
         11    1    3    3    0    0 -0.22993821671E+01 -0.12821920017E+02 -0.27556285459E+02  0.30480119091E+02  0.51100000000E-03 0. -1.
        -11    1    3    3    0    0  0.51781470711E+01  0.27137968685E+00 -0.14977676627E+02  0.15849847047E+02  0.51100000000E-03 0.  1.
         12    1    3    3    0    0 -0.13412078258E+01  0.23617741662E+01  0.32021236421E+01  0.41988583523E+01  0.00000000000E+00 0. -1.
</event>
<event>
 7    1  0.2746803E-013  0.5052883E+02  0.7816164E-02  0.1300439E+00
        -11   -1    0    0    0    0  0.00000000000E+00  0.00000000000E+00  0.45593999997E+02  0.45594000000E+02  0.51100000000E-03 0.  1.
         11   -1    0    0    0    0 -0.00000000000E+00 -0.00000000000E+00 -0.45593999997E+02  0.45594000000E+02  0.51100000000E-03 0. -1.
    9900012    2    1    2    0    0 -0.56226669924E+01  0.24250587170E+02  0.32147513487E+02  0.50528831469E+02  0.29999913734E+02 0.  0.
         12    1    1    2    0    0  0.56226669924E+01 -0.24250587170E+02 -0.32147513487E+02  0.40659168531E+02  0.00000000000E+00 0. -1.
         11    1    3    3    0    0 -0.19425836217E+01  0.76701140955E+01  0.96266958977E+01  0.12461041511E+02  0.51100000000E-03 0. -1.
        -11    1    3    3    0    0 -0.86105953098E+01  0.11149172890E+02 -0.30688902221E+00  0.14090443175E+02  0.51100000000E-03 0.  1.
         12    1    3    3    0    0  0.49305119391E+01  0.54313001848E+01  0.22827706611E+02  0.23977346784E+02  0.00000000000E+00 0. -1.
</event>
<event>
 7    1  0.2746803E-013  0.5052887E+02  0.7816164E-02  0.1300439E+00
        -11   -1    0    0    0    0  0.00000000000E+00  0.00000000000E+00  0.45593999997E+02  0.45594000000E+02  0.51100000000E-03 0. -1.
         11   -1    0    0    0    0 -0.00000000000E+00 -0.00000000000E+00 -0.45593999997E+02  0.45594000000E+02  0.51100000000E-03 0.  1.
    9900012    2    1    2    0    0  0.28045622721E+02 -0.48102677085E+01  0.29042545324E+02  0.50528867346E+02  0.30000022786E+02 0.  0.
         12    1    1    2    0    0 -0.28045622721E+02  0.48102677085E+01 -0.29042545324E+02  0.40659132654E+02  0.00000000000E+00 0. -1.
         11    1    3    3    0    0  0.17543745997E+02  0.21607379073E+01  0.22253285135E+02  0.28419368597E+02  0.51100000000E-03 0. -1.
        -11    1    3    3    0    0  0.82848595775E+01  0.42047238142E+01  0.10435653021E+01  0.93492047455E+01  0.51100000000E-03 0.  1.
        -12    1    3    3    0    0  0.22170171461E+01 -0.11175729430E+02  0.57456948875E+01  0.12760294004E+02  0.00000000000E+00 0.  1.
</event>
<event>
 7    1  0.2746803E-013  0.5052886E+02  0.7816164E-02  0.1300439E+00
        -11   -1    0    0    0    0  0.00000000000E+00  0.00000000000E+00  0.45593999997E+02  0.45594000000E+02  0.51100000000E-03 0.  1.
         11   -1    0    0    0    0 -0.00000000000E+00 -0.00000000000E+00 -0.45593999997E+02  0.45594000000E+02  0.51100000000E-03 0. -1.
    9900012    2    1    2    0    0  0.83259864604E+01  0.32492360021E+02  0.22980220959E+02  0.50528855080E+02  0.29999985502E+02 0.  0.
         12    1    1    2    0    0 -0.83259864604E+01 -0.32492360021E+02 -0.22980220959E+02  0.40659144920E+02  0.00000000000E+00 0. -1.
         11    1    3    3    0    0  0.37030548320E+01  0.63657226196E+01  0.39184788360E+00  0.73748616654E+01  0.51100000000E-03 0. -1.
        -11    1    3    3    0    0  0.10386025651E+02  0.19402299777E+01  0.12381768082E+02  0.16277045257E+02  0.51100000000E-03 0.  1.
        -12    1    3    3    0    0 -0.57630940227E+01  0.24186407424E+02  0.10206604993E+02  0.26876948158E+02  0.00000000000E+00 0.  1.
</event>
<event>
 7    1  0.2746803E-013  0.5052884E+02  0.7816164E-02  0.1300439E+00
        -11   -1    0    0    0    0  0.00000000000E+00  0.00000000000E+00  0.45593999997E+02  0.45594000000E+02  0.51100000000E-03 0.  1.
         11   -1    0    0    0    0 -0.00000000000E+00 -0.00000000000E+00 -0.45593999997E+02  0.45594000000E+02  0.51100000000E-03 0. -1.
    9900012    2    1    2    0    0  0.21368162216E+02 -0.10739610378E+02  0.32882051741E+02  0.50528844644E+02  0.29999953781E+02 0.  0.
         12    1    1    2    0    0 -0.21368162216E+02  0.10739610378E+02 -0.32882051741E+02  0.40659155356E+02  0.00000000000E+00 0. -1.
         11    1    3    3    0    0 -0.18811691620E+01  0.36730463561E+01  0.29354316428E+01  0.50642695565E+01  0.51100000000E-03 0. -1.
        -11    1    3    3    0    0  0.14123044520E+02 -0.11868960759E+01  0.24848642524E+02  0.28606365452E+02  0.51100000000E-03 0.  1.
        -12    1    3    3    0    0  0.91262868574E+01 -0.13225760658E+02  0.50979775739E+01  0.16858209636E+02  0.00000000000E+00 0.  1.
</event>
<event>
 7    1  0.2746803E-013  0.5052886E+02  0.7816164E-02  0.1300439E+00
        -11   -1    0    0    0    0  0.00000000000E+00  0.00000000000E+00  0.45593999997E+02  0.45594000000E+02  0.51100000000E-03 0. -1.
         11   -1    0    0    0    0 -0.00000000000E+00 -0.00000000000E+00 -0.45593999997E+02  0.45594000000E+02  0.51100000000E-03 0.  1.
    9900012    2    1    2    0    0 -0.27258958903E+02 -0.28618979764E+02 -0.95430122661E+01  0.50528856793E+02  0.29999990709E+02 0.  0.
         12    1    1    2    0    0  0.27258958903E+02  0.28618979764E+02  0.95430122661E+01  0.40659143207E+02  0.00000000000E+00 0. -1.
         11    1    3    3    0    0 -0.17541608307E+01 -0.13642730014E+02  0.47002815679E-01  0.13755121664E+02  0.51100000000E-03 0.  1.
        -11    1    3    3    0    0 -0.68827532300E+01 -0.93423029585E+01 -0.12551945687E+02  0.17093924575E+02  0.51100000000E-03 0. -1.
        -12    1    3    3    0    0 -0.18622044842E+02 -0.56339467912E+01  0.29619306053E+01  0.19679810555E+02  0.00000000000E+00 0.  1.
</event>
<event>
 7    1  0.2746803E-013  0.5052887E+02  0.7816164E-02  0.1300439E+00
        -11   -1    0    0    0    0  0.00000000000E+00  0.00000000000E+00  0.45593999997E+02  0.45594000000E+02  0.51100000000E-03 0. -1.
         11   -1    0    0    0    0 -0.00000000000E+00 -0.00000000000E+00 -0.45593999997E+02  0.45594000000E+02  0.51100000000E-03 0.  1.
    9900012    2    1    2    0    0  0.35388695252E+02 -0.74486238916E+01 -0.18582865174E+02  0.50528872764E+02  0.30000039254E+02 0.  0.
         12    1    1    2    0    0 -0.35388695252E+02  0.74486238916E+01  0.18582865174E+02  0.40659127236E+02  0.00000000000E+00 0. -1.
         11    1    3    3    0    0  0.20024239165E+02 -0.79674348073E+01 -0.50214501895E+01  0.22128378473E+02  0.51100000000E-03 0.  1.
        -11    1    3    3    0    0 -0.38838777856E+01  0.10997290270E+01 -0.69553438549E+01  0.80418106784E+01  0.51100000000E-03 0. -1.
         12    1    3    3    0    0  0.19248333872E+02 -0.58091811130E+00 -0.66060711292E+01  0.20358683613E+02  0.00000000000E+00 0. -1.
</event>
<event>
 7    1  0.2746803E-013  0.5052886E+02  0.7816164E-02  0.1300439E+00
        -11   -1    0    0    0    0  0.00000000000E+00  0.00000000000E+00  0.45593999997E+02  0.45594000000E+02  0.51100000000E-03 0. -1.
         11   -1    0    0    0    0 -0.00000000000E+00 -0.00000000000E+00 -0.45593999997E+02  0.45594000000E+02  0.51100000000E-03 0.  1.
    9900012    2    1    2    0    0  0.29279133677E+02  0.27518648699E+02  0.62146297507E+01  0.50528864273E+02  0.30000013445E+02 0.  0.
         12    1    1    2    0    0 -0.29279133677E+02 -0.27518648699E+02 -0.62146297507E+01  0.40659135727E+02  0.00000000000E+00 0. -1.
         11    1    3    3    0    0  0.72363489128E+01  0.18925625332E+02  0.34161006979E+01  0.20547841347E+02  0.51100000000E-03 0. -1.
        -11    1    3    3    0    0  0.21225443624E+02  0.12583355229E+02 -0.59073398173E+00  0.24682164669E+02  0.51100000000E-03 0.  1.
         12    1    3    3    0    0  0.81734114042E+00 -0.39903318620E+01  0.33892630346E+01  0.52988582568E+01  0.00000000000E+00 0. -1.
</event>
<event>
 7    1  0.2746803E-013  0.5052887E+02  0.7816164E-02  0.1300439E+00
        -11   -1    0    0    0    0  0.00000000000E+00  0.00000000000E+00  0.45593999997E+02  0.45594000000E+02  0.51100000000E-03 0.  1.
         11   -1    0    0    0    0 -0.00000000000E+00 -0.00000000000E+00 -0.45593999997E+02  0.45594000000E+02  0.51100000000E-03 0. -1.
    9900012    2    1    2    0    0  0.80220944727E+01 -0.65128262261E+01  0.39324213894E+02  0.50528871830E+02  0.30000036415E+02 0.  0.
         12    1    1    2    0    0 -0.80220944727E+01  0.65128262261E+01 -0.39324213894E+02  0.40659128170E+02  0.00000000000E+00 0. -1.
         11    1    3    3    0    0  0.45581847617E+01 -0.53191642529E+01  0.39687085770E-01  0.70051503907E+01  0.51100000000E-03 0. -1.
        -11    1    3    3    0    0  0.45318584828E+01  0.49979246981E+01  0.43471378337E+01  0.80258706819E+01  0.51100000000E-03 0.  1.
        -12    1    3    3    0    0 -0.10679487717E+01 -0.61915866713E+01  0.34937388974E+02  0.35497850758E+02  0.00000000000E+00 0.  1.
</event>
<event>
 7    1  0.2746803E-013  0.5052886E+02  0.7816164E-02  0.1300439E+00
        -11   -1    0    0    0    0  0.00000000000E+00  0.00000000000E+00  0.45593999997E+02  0.45594000000E+02  0.51100000000E-03 0. -1.
         11   -1    0    0    0    0 -0.00000000000E+00 -0.00000000000E+00 -0.45593999997E+02  0.45594000000E+02  0.51100000000E-03 0.  1.
    9900012    2    1    2    0    0  0.98344569087E+01  0.32920529475E+02 -0.21741376931E+02  0.50528864809E+02  0.30000015073E+02 0.  0.
         12    1    1    2    0    0 -0.98344569087E+01 -0.32920529475E+02  0.21741376931E+02  0.40659135191E+02  0.00000000000E+00 0. -1.
         11    1    3    3    0    0  0.50019914214E+01  0.55109419576E+01  0.15981302463E+01  0.76121232245E+01  0.51100000000E-03 0. -1.
        -11    1    3    3    0    0 -0.73521153706E+01  0.19847222643E+01 -0.31573518600E+01  0.82438822116E+01  0.51100000000E-03 0.  1.
        -12    1    3    3    0    0  0.12184580858E+02  0.25424865253E+02 -0.20182155317E+02  0.34672859373E+02  0.00000000000E+00 0.  1.
</event>
<event>
 7    1  0.2746803E-013  0.5052881E+02  0.7816164E-02  0.1300439E+00
        -11   -1    0    0    0    0  0.00000000000E+00  0.00000000000E+00  0.45593999997E+02  0.45594000000E+02  0.51100000000E-03 0.  1.
         11   -1    0    0    0    0 -0.00000000000E+00 -0.00000000000E+00 -0.45593999997E+02  0.45594000000E+02  0.51100000000E-03 0. -1.
    9900012    2    1    2    0    0  0.18373472026E+01 -0.33222849876E+02  0.23367415894E+02  0.50528810089E+02  0.29999848746E+02 0.  0.
         12    1    1    2    0    0 -0.18373472026E+01  0.33222849876E+02 -0.23367415894E+02  0.40659189911E+02  0.00000000000E+00 0. -1.
         11    1    3    3    0    0 -0.87002690898E+01 -0.49399406535E+01  0.42006562342E+00  0.10013698182E+02  0.51100000000E-03 0. -1.
        -11    1    3    3    0    0  0.46496906896E+01 -0.71613900406E+00  0.59992966622E+01  0.76239123345E+01  0.51100000000E-03 0.  1.
        -12    1    3    3    0    0  0.58879256028E+01 -0.27566770219E+02  0.16948053608E+02  0.32891199572E+02  0.00000000000E+00 0.  1.
</event>
<event>
 7    1  0.2746803E-013  0.5052885E+02  0.7816164E-02  0.1300439E+00
        -11   -1    0    0    0    0  0.00000000000E+00  0.00000000000E+00  0.45593999997E+02  0.45594000000E+02  0.51100000000E-03 0. -1.
         11   -1    0    0    0    0 -0.00000000000E+00 -0.00000000000E+00 -0.45593999997E+02  0.45594000000E+02  0.51100000000E-03 0.  1.
    9900012    2    1    2    0    0 -0.36638130777E+01 -0.30200125796E+02 -0.26975822576E+02  0.50528854313E+02  0.29999983169E+02 0.  0.
         12    1    1    2    0    0  0.36638130777E+01  0.30200125796E+02  0.26975822576E+02  0.40659145687E+02  0.00000000000E+00 0. -1.
         11    1    3    3    0    0 -0.15527113481E+01 -0.19578768585E+02 -0.12160487102E+01  0.19677852183E+02  0.51100000000E-03 0.  1.
        -11    1    3    3    0    0 -0.12974727907E+01  0.29968823843E+01 -0.39413703791E+01  0.51185095872E+01  0.51100000000E-03 0. -1.
        -12    1    3    3    0    0 -0.81362893890E+00 -0.13618239595E+02 -0.21818403487E+02  0.25732492542E+02  0.00000000000E+00 0.  1.
</event>
<event>
 7    1  0.2746803E-013  0.5052886E+02  0.7816164E-02  0.1300439E+00
        -11   -1    0    0    0    0  0.00000000000E+00  0.00000000000E+00  0.45593999997E+02  0.45594000000E+02  0.51100000000E-03 0.  1.
         11   -1    0    0    0    0 -0.00000000000E+00 -0.00000000000E+00 -0.45593999997E+02  0.45594000000E+02  0.51100000000E-03 0. -1.
    9900012    2    1    2    0    0  0.49900760537E+01 -0.38027390142E+02  0.13497494433E+02  0.50528860609E+02  0.30000002308E+02 0.  0.
         12    1    1    2    0    0 -0.49900760537E+01  0.38027390142E+02 -0.13497494433E+02  0.40659139391E+02  0.00000000000E+00 0. -1.
         11    1    3    3    0    0  0.86807118105E+01 -0.29422170264E+01  0.14230397346E+01  0.92755830498E+01  0.51100000000E-03 0. -1.
        -11    1    3    3    0    0  0.56530085838E+01 -0.48199573958E+01  0.21754100476E+00  0.74320804419E+01  0.51100000000E-03 0.  1.
        -12    1    3    3    0    0 -0.93436443406E+01 -0.30265215720E+02  0.11856913694E+02  0.33821197118E+02  0.00000000000E+00 0.  1.
</event>
<event>
 7    1  0.2746803E-013  0.5052886E+02  0.7816164E-02  0.1300439E+00
        -11   -1    0    0    0    0  0.00000000000E+00  0.00000000000E+00  0.45593999997E+02  0.45594000000E+02  0.51100000000E-03 0.  1.
         11   -1    0    0    0    0 -0.00000000000E+00 -0.00000000000E+00 -0.45593999997E+02  0.45594000000E+02  0.51100000000E-03 0. -1.
    9900012    2    1    2    0    0  0.35074243076E+01  0.40471171669E+02  0.17169935865E+01  0.50528857995E+02  0.29999994363E+02 0.  0.
         12    1    1    2    0    0 -0.35074243076E+01 -0.40471171669E+02 -0.17169935865E+01  0.40659142005E+02  0.00000000000E+00 0. -1.
         11    1    3    3    0    0  0.10150131331E+02  0.21202936341E+02  0.65472045568E+01  0.24401958186E+02  0.51100000000E-03 0. -1.
        -11    1    3    3    0    0  0.20851091476E+01  0.12728376877E+02  0.22934462528E+01  0.13100349387E+02  0.51100000000E-03 0.  1.
        -12    1    3    3    0    0 -0.87278161716E+01  0.65398584513E+01 -0.71236572231E+01  0.13026550423E+02  0.00000000000E+00 0.  1.
</event>
<event>
 7    1  0.2746803E-013  0.5052886E+02  0.7816164E-02  0.1300439E+00
        -11   -1    0    0    0    0  0.00000000000E+00  0.00000000000E+00  0.45593999997E+02  0.45594000000E+02  0.51100000000E-03 0. -1.
         11   -1    0    0    0    0 -0.00000000000E+00 -0.00000000000E+00 -0.45593999997E+02  0.45594000000E+02  0.51100000000E-03 0.  1.
    9900012    2    1    2    0    0  0.25382171990E+02  0.17389560382E+02  0.26580332368E+02  0.50528861617E+02  0.30000005371E+02 0.  0.
         12    1    1    2    0    0 -0.25382171990E+02 -0.17389560382E+02 -0.26580332368E+02  0.40659138383E+02  0.00000000000E+00 0. -1.
         11    1    3    3    0    0  0.20211304119E+02  0.15069366063E+02  0.30602884905E+02  0.39649958039E+02  0.51100000000E-03 0. -1.
        -11    1    3    3    0    0  0.43197372917E+01  0.39058622070E+01  0.66134766482E+00  0.58611663383E+01  0.51100000000E-03 0.  1.
         12    1    3    3    0    0  0.85113057974E+00 -0.15856678878E+01 -0.46839002013E+01  0.50177372400E+01  0.00000000000E+00 0. -1.
</event>
<event>
 7    1  0.2746803E-013  0.5052884E+02  0.7816164E-02  0.1300439E+00
        -11   -1    0    0    0    0  0.00000000000E+00  0.00000000000E+00  0.45593999997E+02  0.45594000000E+02  0.51100000000E-03 0.  1.
         11   -1    0    0    0    0 -0.00000000000E+00 -0.00000000000E+00 -0.45593999997E+02  0.45594000000E+02  0.51100000000E-03 0. -1.
    9900012    2    1    2    0    0  0.70123373962E+01  0.11863472196E+02  0.38252479662E+02  0.50528842992E+02  0.29999948760E+02 0.  0.
         12    1    1    2    0    0 -0.70123373962E+01 -0.11863472196E+02 -0.38252479662E+02  0.40659157008E+02  0.00000000000E+00 0. -1.
         11    1    3    3    0    0  0.38414683770E+01  0.30796686361E+01 -0.39862896321E+01  0.63349619961E+01  0.51100000000E-03 0. -1.
        -11    1    3    3    0    0 -0.12951059182E+01  0.73105380764E+01  0.17462402496E+02  0.18975161857E+02  0.51100000000E-03 0.  1.
        -12    1    3    3    0    0  0.44659749374E+01  0.14732654836E+01  0.24776366798E+02  0.25218719140E+02  0.00000000000E+00 0.  1.
</event>
<event>
 7    1  0.2746803E-013  0.5052877E+02  0.7816164E-02  0.1300439E+00
        -11   -1    0    0    0    0  0.00000000000E+00  0.00000000000E+00  0.45593999997E+02  0.45594000000E+02  0.51100000000E-03 0. -1.
         11   -1    0    0    0    0 -0.00000000000E+00 -0.00000000000E+00 -0.45593999997E+02  0.45594000000E+02  0.51100000000E-03 0.  1.
    9900012    2    1    2    0    0  0.38443368232E+02  0.66782698781E+01 -0.11431583303E+02  0.50528770465E+02  0.29999728304E+02 0.  0.
         12    1    1    2    0    0 -0.38443368232E+02 -0.66782698781E+01  0.11431583303E+02  0.40659229535E+02  0.00000000000E+00 0. -1.
         11    1    3    3    0    0  0.23772123012E+02  0.11877878784E+02 -0.22322149648E+01  0.26667969941E+02  0.51100000000E-03 0. -1.
        -11    1    3    3    0    0  0.10475137462E+02  0.36589084114E+01 -0.86036948466E+01  0.14040643891E+02  0.51100000000E-03 0.  1.
         12    1    3    3    0    0  0.41961077584E+01 -0.88585173171E+01 -0.59567349117E+00  0.98201566324E+01  0.00000000000E+00 0. -1.
</event>
<event>
 7    1  0.2746803E-013  0.5052886E+02  0.7816164E-02  0.1300439E+00
        -11   -1    0    0    0    0  0.00000000000E+00  0.00000000000E+00  0.45593999997E+02  0.45594000000E+02  0.51100000000E-03 0.  1.
         11   -1    0    0    0    0 -0.00000000000E+00 -0.00000000000E+00 -0.45593999997E+02  0.45594000000E+02  0.51100000000E-03 0. -1.
    9900012    2    1    2    0    0  0.74132677505E+01 -0.96743657552E+00  0.39965904500E+02  0.50528855951E+02  0.29999988149E+02 0.  0.
         12    1    1    2    0    0 -0.74132677505E+01  0.96743657552E+00 -0.39965904500E+02  0.40659144049E+02  0.00000000000E+00 0. -1.
         11    1    3    3    0    0 -0.17871094704E+01  0.63879851257E+01  0.58206099276E+01  0.88249427429E+01  0.51100000000E-03 0. -1.
        -11    1    3    3    0    0  0.31623716235E+01 -0.37153458140E+01  0.34306503929E+02  0.34651704156E+02  0.51100000000E-03 0.  1.
         12    1    3    3    0    0  0.60380055974E+01 -0.36400758872E+01 -0.16120935686E+00  0.70522090521E+01  0.00000000000E+00 0. -1.
</event>
<event>
 7    1  0.2746803E-013  0.5052885E+02  0.7816164E-02  0.1300439E+00
        -11   -1    0    0    0    0  0.00000000000E+00  0.00000000000E+00  0.45593999997E+02  0.45594000000E+02  0.51100000000E-03 0.  1.
         11   -1    0    0    0    0 -0.00000000000E+00 -0.00000000000E+00 -0.45593999997E+02  0.45594000000E+02  0.51100000000E-03 0. -1.
    9900012    2    1    2    0    0  0.28011058924E+01 -0.25060225531E+01  0.40485058022E+02  0.50528852612E+02  0.29999977999E+02 0.  0.
         12    1    1    2    0    0 -0.28011058924E+01  0.25060225531E+01 -0.40485058022E+02  0.40659147388E+02  0.00000000000E+00 0. -1.
         11    1    3    3    0    0 -0.32329864897E+01  0.73175734905E+01  0.11310549173E+02  0.13853793931E+02  0.51100000000E-03 0. -1.
        -11    1    3    3    0    0 -0.66423887987E+01 -0.35683858542E+01  0.14229698607E+02  0.16104006621E+02  0.51100000000E-03 0.  1.
        -12    1    3    3    0    0  0.12676481181E+02 -0.62552101895E+01  0.14944810242E+02  0.20571052059E+02  0.00000000000E+00 0.  1.
</event>
<event>
 7    1  0.2746803E-013  0.5052885E+02  0.7816164E-02  0.1300439E+00
        -11   -1    0    0    0    0  0.00000000000E+00  0.00000000000E+00  0.45593999997E+02  0.45594000000E+02  0.51100000000E-03 0.  1.
         11   -1    0    0    0    0 -0.00000000000E+00 -0.00000000000E+00 -0.45593999997E+02  0.45594000000E+02  0.51100000000E-03 0. -1.
    9900012    2    1    2    0    0  0.26176700706E+02  0.97053482715E+01  0.29559307677E+02  0.50528854470E+02  0.29999983646E+02 0.  0.
         12    1    1    2    0    0 -0.26176700706E+02 -0.97053482715E+01 -0.29559307677E+02  0.40659145530E+02  0.00000000000E+00 0. -1.
         11    1    3    3    0    0  0.18973753695E+02  0.61774390441E+01  0.54785463767E+01  0.20692475760E+02  0.51100000000E-03 0. -1.
        -11    1    3    3    0    0  0.10727801456E+02 -0.12701674836E+01  0.10767321975E+02  0.15252353008E+02  0.51100000000E-03 0.  1.
         12    1    3    3    0    0 -0.35248544451E+01  0.47980767109E+01  0.13313439326E+02  0.14584025702E+02  0.00000000000E+00 0. -1.
</event>
<event>
 7    1  0.2746803E-013  0.5052886E+02  0.7816164E-02  0.1300439E+00
        -11   -1    0    0    0    0  0.00000000000E+00  0.00000000000E+00  0.45593999997E+02  0.45594000000E+02  0.51100000000E-03 0.  1.
         11   -1    0    0    0    0 -0.00000000000E+00 -0.00000000000E+00 -0.45593999997E+02  0.45594000000E+02  0.51100000000E-03 0. -1.
    9900012    2    1    2    0    0 -0.52262107706E+01 -0.33126077633E+02  0.22989459908E+02  0.50528861234E+02  0.30000004206E+02 0.  0.
         12    1    1    2    0    0  0.52262107706E+01  0.33126077633E+02 -0.22989459908E+02  0.40659138766E+02  0.00000000000E+00 0. -1.
         11    1    3    3    0    0 -0.36663186435E+01 -0.47160186268E+01  0.84623059593E+01  0.10358250166E+02  0.51100000000E-03 0. -1.
        -11    1    3    3    0    0 -0.11984080099E+02 -0.17154706835E+02  0.13268351196E+02  0.24778040402E+02  0.51100000000E-03 0.  1.
        -12    1    3    3    0    0  0.10424187972E+02 -0.11255352171E+02  0.12588027532E+01  0.15392570667E+02  0.00000000000E+00 0.  1.
</event>
<event>
 7    1  0.2746803E-013  0.5052886E+02  0.7816164E-02  0.1300439E+00
        -11   -1    0    0    0    0  0.00000000000E+00  0.00000000000E+00  0.45593999997E+02  0.45594000000E+02  0.51100000000E-03 0. -1.
         11   -1    0    0    0    0 -0.00000000000E+00 -0.00000000000E+00 -0.45593999997E+02  0.45594000000E+02  0.51100000000E-03 0.  1.
    9900012    2    1    2    0    0  0.21714014246E+02  0.10675180576E+02 -0.32675797007E+02  0.50528860744E+02  0.30000002716E+02 0.  0.
         12    1    1    2    0    0 -0.21714014246E+02 -0.10675180576E+02  0.32675797007E+02  0.40659139256E+02  0.00000000000E+00 0. -1.
         11    1    3    3    0    0  0.27257942585E+02  0.75042025448E+01 -0.28577835425E+02  0.40199517007E+02  0.51100000000E-03 0. -1.
        -11    1    3    3    0    0 -0.61562637991E+00  0.23243827898E+01 -0.47132239251E+01  0.52911464941E+01  0.51100000000E-03 0.  1.
         12    1    3    3    0    0 -0.49283019586E+01  0.84659524171E+00  0.61526234301E+00  0.50381972420E+01  0.00000000000E+00 0. -1.
</event>
<event>
 7    1  0.2746803E-013  0.5052887E+02  0.7816164E-02  0.1300439E+00
        -11   -1    0    0    0    0  0.00000000000E+00  0.00000000000E+00  0.45593999997E+02  0.45594000000E+02  0.51100000000E-03 0.  1.
         11   -1    0    0    0    0 -0.00000000000E+00 -0.00000000000E+00 -0.45593999997E+02  0.45594000000E+02  0.51100000000E-03 0. -1.
    9900012    2    1    2    0    0  0.27661130370E+02  0.12369097294E+02  0.27111479688E+02  0.50528867790E+02  0.30000024134E+02 0.  0.
         12    1    1    2    0    0 -0.27661130370E+02 -0.12369097294E+02 -0.27111479688E+02  0.40659132210E+02  0.00000000000E+00 0. -1.
         11    1    3    3    0    0  0.89066467139E+00 -0.65243320960E+01  0.84929095491E+01  0.10746613686E+02  0.51100000000E-03 0. -1.
        -11    1    3    3    0    0  0.98241141733E+01  0.21099379348E+01  0.10634035129E+02  0.14630371177E+02  0.51100000000E-03 0.  1.
        -12    1    3    3    0    0  0.16946351525E+02  0.16783491456E+02  0.79845350096E+01  0.25151882927E+02  0.00000000000E+00 0.  1.
</event>
<event>
 7    1  0.2746803E-013  0.5052886E+02  0.7816164E-02  0.1300439E+00
        -11   -1    0    0    0    0  0.00000000000E+00  0.00000000000E+00  0.45593999997E+02  0.45594000000E+02  0.51100000000E-03 0.  1.
         11   -1    0    0    0    0 -0.00000000000E+00 -0.00000000000E+00 -0.45593999997E+02  0.45594000000E+02  0.51100000000E-03 0. -1.
    9900012    2    1    2    0    0 -0.86854802365E+01 -0.39670715174E+02  0.19905203622E+01  0.50528863504E+02  0.30000011106E+02 0.  0.
         12    1    1    2    0    0  0.86854802365E+01  0.39670715174E+02 -0.19905203622E+01  0.40659136496E+02  0.00000000000E+00 0. -1.
         11    1    3    3    0    0 -0.31823480049E+01 -0.11414100108E+02  0.76706892981E+01  0.14115540892E+02  0.51100000000E-03 0. -1.
        -11    1    3    3    0    0  0.46265457501E+01 -0.21248483130E+02  0.20949906451E+01  0.21847012312E+02  0.51100000000E-03 0.  1.
        -12    1    3    3    0    0 -0.10129677982E+02 -0.70081319356E+01 -0.77751595809E+01  0.14566310300E+02  0.00000000000E+00 0.  1.
</event>
<event>
 7    1  0.2746803E-013  0.5052887E+02  0.7816164E-02  0.1300439E+00
        -11   -1    0    0    0    0  0.00000000000E+00  0.00000000000E+00  0.45593999997E+02  0.45594000000E+02  0.51100000000E-03 0.  1.
         11   -1    0    0    0    0 -0.00000000000E+00 -0.00000000000E+00 -0.45593999997E+02  0.45594000000E+02  0.51100000000E-03 0. -1.
    9900012    2    1    2    0    0  0.32405746074E+01  0.34722419968E+02  0.20904959070E+02  0.50528867128E+02  0.30000022121E+02 0.  0.
         12    1    1    2    0    0 -0.32405746074E+01 -0.34722419968E+02 -0.20904959070E+02  0.40659132872E+02  0.00000000000E+00 0. -1.
         11    1    3    3    0    0 -0.59207708896E+01  0.13943322385E+02  0.81859399794E+00  0.15170427267E+02  0.51100000000E-03 0. -1.
        -11    1    3    3    0    0  0.66213406348E+00 -0.28087852500E+01 -0.48579500417E+00  0.29263788452E+01  0.51100000000E-03 0.  1.
        -12    1    3    3    0    0  0.84992114334E+01  0.23587882832E+02  0.20572160077E+02  0.32432061016E+02  0.00000000000E+00 0.  1.
</event>
<event>
 7    1  0.2746803E-013  0.5052886E+02  0.7816164E-02  0.1300439E+00
        -11   -1    0    0    0    0  0.00000000000E+00  0.00000000000E+00  0.45593999997E+02  0.45594000000E+02  0.51100000000E-03 0.  1.
         11   -1    0    0    0    0 -0.00000000000E+00 -0.00000000000E+00 -0.45593999997E+02  0.45594000000E+02  0.51100000000E-03 0. -1.
    9900012    2    1    2    0    0 -0.98504560412E+01  0.23844415819E+02  0.31425759080E+02  0.50528856087E+02  0.29999988563E+02 0.  0.
         12    1    1    2    0    0  0.98504560412E+01 -0.23844415819E+02 -0.31425759080E+02  0.40659143913E+02  0.00000000000E+00 0. -1.
         11    1    3    3    0    0 -0.12068098225E+02  0.16074204718E+02  0.25206159610E+02  0.32239254561E+02  0.51100000000E-03 0. -1.
        -11    1    3    3    0    0  0.47516431957E+01  0.69743023141E+01  0.10365127861E+02  0.13366184260E+02  0.51100000000E-03 0.  1.
        -12    1    3    3    0    0 -0.25340010123E+01  0.79590878736E+00 -0.41455283923E+01  0.49234172664E+01  0.00000000000E+00 0.  1.
</event>
<event>
 7    1  0.2746803E-013  0.5052873E+02  0.7816164E-02  0.1300439E+00
        -11   -1    0    0    0    0  0.00000000000E+00  0.00000000000E+00  0.45593999997E+02  0.45594000000E+02  0.51100000000E-03 0.  1.
         11   -1    0    0    0    0 -0.00000000000E+00 -0.00000000000E+00 -0.45593999997E+02  0.45594000000E+02  0.51100000000E-03 0. -1.
    9900012    2    1    2    0    0  0.36958875654E+01 -0.40066057973E+02 -0.58504280253E+01  0.50528731752E+02  0.29999610630E+02 0.  0.
         12    1    1    2    0    0 -0.36958875654E+01  0.40066057973E+02  0.58504280253E+01  0.40659268248E+02  0.00000000000E+00 0. -1.
         11    1    3    3    0    0  0.91027112690E+01 -0.27735843985E+02 -0.11589393485E+02  0.31407808513E+02  0.51100000000E-03 0. -1.
        -11    1    3    3    0    0 -0.13253260212E+01 -0.12463283287E+02  0.58766331610E+00  0.12547321140E+02  0.51100000000E-03 0.  1.
         12    1    3    3    0    0 -0.40814976825E+01  0.13306929884E+00  0.51513021437E+01  0.65736020982E+01  0.00000000000E+00 0. -1.
</event>
<event>
 7    1  0.2746803E-013  0.5052886E+02  0.7816164E-02  0.1300439E+00
        -11   -1    0    0    0    0  0.00000000000E+00  0.00000000000E+00  0.45593999997E+02  0.45594000000E+02  0.51100000000E-03 0. -1.
         11   -1    0    0    0    0 -0.00000000000E+00 -0.00000000000E+00 -0.45593999997E+02  0.45594000000E+02  0.51100000000E-03 0.  1.
    9900012    2    1    2    0    0 -0.18733251174E+02 -0.98283616139E+01 -0.34722243744E+02  0.50528860779E+02  0.30000002824E+02 0.  0.
         12    1    1    2    0    0  0.18733251174E+02  0.98283616139E+01  0.34722243744E+02  0.40659139221E+02  0.00000000000E+00 0. -1.
         11    1    3    3    0    0 -0.69214541481E+01  0.43760376422E+01 -0.15437796073E+02  0.17475176132E+02  0.51100000000E-03 0. -1.
        -11    1    3    3    0    0 -0.34813316736E+01 -0.96323992146E+01 -0.21030500285E+02  0.23391979979E+02  0.51100000000E-03 0.  1.
        -12    1    3    3    0    0 -0.83304653526E+01 -0.45720000415E+01  0.17460526139E+01  0.96617046684E+01  0.00000000000E+00 0.  1.
</event>
<event>
 7    1  0.2746803E-013  0.5052886E+02  0.7816164E-02  0.1300439E+00
        -11   -1    0    0    0    0  0.00000000000E+00  0.00000000000E+00  0.45593999997E+02  0.45594000000E+02  0.51100000000E-03 0.  1.
         11   -1    0    0    0    0 -0.00000000000E+00 -0.00000000000E+00 -0.45593999997E+02  0.45594000000E+02  0.51100000000E-03 0. -1.
    9900012    2    1    2    0    0  0.29523897091E+02 -0.20091197010E+01  0.27883126278E+02  0.50528858439E+02  0.29999995711E+02 0.  0.
         12    1    1    2    0    0 -0.29523897091E+02  0.20091197010E+01 -0.27883126278E+02  0.40659141561E+02  0.00000000000E+00 0. -1.
         11    1    3    3    0    0 -0.42693283959E+00 -0.50990206850E+01 -0.64678378873E+00  0.51575782230E+01  0.51100000000E-03 0. -1.
        -11    1    3    3    0    0  0.11641244890E+02 -0.46615584880E+01  0.20282240352E+02  0.23845712069E+02  0.51100000000E-03 0.  1.
        -12    1    3    3    0    0  0.18309585041E+02  0.77514594721E+01  0.82476697151E+01  0.21525568147E+02  0.00000000000E+00 0.  1.
</event>
<event>
 7    1  0.2746803E-013  0.5052886E+02  0.7816164E-02  0.1300439E+00
        -11   -1    0    0    0    0  0.00000000000E+00  0.00000000000E+00  0.45593999997E+02  0.45594000000E+02  0.51100000000E-03 0.  1.
         11   -1    0    0    0    0 -0.00000000000E+00 -0.00000000000E+00 -0.45593999997E+02  0.45594000000E+02  0.51100000000E-03 0. -1.
    9900012    2    1    2    0    0  0.37575096248E+01 -0.89846388964E+01  0.39475599743E+02  0.50528860932E+02  0.30000003290E+02 0.  0.
         12    1    1    2    0    0 -0.37575096248E+01  0.89846388964E+01 -0.39475599743E+02  0.40659139068E+02  0.00000000000E+00 0. -1.
         11    1    3    3    0    0  0.15732564591E+01  0.34773490493E+01 -0.13504561792E+01  0.40485583175E+01  0.51100000000E-03 0. -1.
        -11    1    3    3    0    0  0.85105657341E+01 -0.14742685570E+01  0.10404857717E+02  0.13522731279E+02  0.51100000000E-03 0.  1.
        -12    1    3    3    0    0 -0.63263125684E+01 -0.10987719389E+02  0.30421198205E+02  0.32957571335E+02  0.00000000000E+00 0.  1.
</event>
<event>
 7    1  0.2746803E-013  0.5052886E+02  0.7816164E-02  0.1300439E+00
        -11   -1    0    0    0    0  0.00000000000E+00  0.00000000000E+00  0.45593999997E+02  0.45594000000E+02  0.51100000000E-03 0.  1.
         11   -1    0    0    0    0 -0.00000000000E+00 -0.00000000000E+00 -0.45593999997E+02  0.45594000000E+02  0.51100000000E-03 0. -1.
    9900012    2    1    2    0    0  0.93313236759E+01 -0.14771028626E+02  0.36713876014E+02  0.50528861050E+02  0.30000003648E+02 0.  0.
         12    1    1    2    0    0 -0.93313236759E+01  0.14771028626E+02 -0.36713876014E+02  0.40659138950E+02  0.00000000000E+00 0. -1.
         11    1    3    3    0    0  0.69040038543E+00 -0.32269320754E+01 -0.28675141262E+01  0.43717709039E+01  0.51100000000E-03 0. -1.
        -11    1    3    3    0    0  0.13705670060E+02 -0.64242064624E+01  0.18638913287E+02  0.24010933119E+02  0.51100000000E-03 0.  1.
        -12    1    3    3    0    0 -0.50647467692E+01 -0.51198900879E+01  0.20942476853E+02  0.22146157027E+02  0.00000000000E+00 0.  1.
</event>
<event>
 7    1  0.2746803E-013  0.5052886E+02  0.7816164E-02  0.1300439E+00
        -11   -1    0    0    0    0  0.00000000000E+00  0.00000000000E+00  0.45593999997E+02  0.45594000000E+02  0.51100000000E-03 0. -1.
         11   -1    0    0    0    0 -0.00000000000E+00 -0.00000000000E+00 -0.45593999997E+02  0.45594000000E+02  0.51100000000E-03 0.  1.
    9900012    2    1    2    0    0  0.94714513123E+01 -0.39515654804E+02 -0.14036052311E+01  0.50528862378E+02  0.30000007684E+02 0.  0.
         12    1    1    2    0    0 -0.94714513123E+01  0.39515654804E+02  0.14036052311E+01  0.40659137622E+02  0.00000000000E+00 0. -1.
         11    1    3    3    0    0  0.10424935476E+02 -0.12728586866E+02 -0.14851314305E+01  0.16519740280E+02  0.51100000000E-03 0. -1.
        -11    1    3    3    0    0  0.53786855686E+01 -0.75236247645E+01 -0.79531168820E+01  0.12197838187E+02  0.51100000000E-03 0.  1.
         12    1    3    3    0    0 -0.63321697322E+01 -0.19263443173E+02  0.80346430814E+01  0.21811283911E+02  0.00000000000E+00 0. -1.
</event>
<event>
 7    1  0.2746803E-013  0.5052888E+02  0.7816164E-02  0.1300439E+00
        -11   -1    0    0    0    0  0.00000000000E+00  0.00000000000E+00  0.45593999997E+02  0.45594000000E+02  0.51100000000E-03 0. -1.
         11   -1    0    0    0    0 -0.00000000000E+00 -0.00000000000E+00 -0.45593999997E+02  0.45594000000E+02  0.51100000000E-03 0.  1.
    9900012    2    1    2    0    0  0.28688810105E+02  0.28566422266E+02 -0.37518151126E+01  0.50528875281E+02  0.30000046903E+02 0.  0.
         12    1    1    2    0    0 -0.28688810105E+02 -0.28566422266E+02  0.37518151126E+01  0.40659124719E+02  0.00000000000E+00 0. -1.
         11    1    3    3    0    0  0.30015731051E+01  0.70375165096E+01  0.31789044338E+01  0.82850174042E+01  0.51100000000E-03 0. -1.
        -11    1    3    3    0    0  0.27766460470E+02  0.22219994578E+02 -0.62484958905E+00  0.35568172899E+02  0.51100000000E-03 0.  1.
         12    1    3    3    0    0 -0.20792234706E+01 -0.69108882174E+00 -0.63058699573E+01  0.66756849775E+01  0.00000000000E+00 0. -1.
</event>
<event>
 7    1  0.2746803E-013  0.5052881E+02  0.7816164E-02  0.1300439E+00
        -11   -1    0    0    0    0  0.00000000000E+00  0.00000000000E+00  0.45593999997E+02  0.45594000000E+02  0.51100000000E-03 0.  1.
         11   -1    0    0    0    0 -0.00000000000E+00 -0.00000000000E+00 -0.45593999997E+02  0.45594000000E+02  0.51100000000E-03 0. -1.
    9900012    2    1    2    0    0 -0.10206483388E+02 -0.17494439775E+02  0.35255381146E+02  0.50528811297E+02  0.29999852418E+02 0.  0.
         12    1    1    2    0    0  0.10206483388E+02  0.17494439775E+02 -0.35255381146E+02  0.40659188703E+02  0.00000000000E+00 0. -1.
         11    1    3    3    0    0 -0.14923554131E+02 -0.75686825065E+01  0.11295069448E+02  0.20188512003E+02  0.51100000000E-03 0. -1.
        -11    1    3    3    0    0  0.30208264752E+01  0.21370505914E+01  0.14363964596E+02  0.14832931504E+02  0.51100000000E-03 0.  1.
        -12    1    3    3    0    0  0.16962442672E+01 -0.12062807860E+02  0.95963471020E+01  0.15507367790E+02  0.00000000000E+00 0.  1.
</event>
<event>
 7    1  0.2746803E-013  0.5052886E+02  0.7816164E-02  0.1300439E+00
        -11   -1    0    0    0    0  0.00000000000E+00  0.00000000000E+00  0.45593999997E+02  0.45594000000E+02  0.51100000000E-03 0.  1.
         11   -1    0    0    0    0 -0.00000000000E+00 -0.00000000000E+00 -0.45593999997E+02  0.45594000000E+02  0.51100000000E-03 0. -1.
    9900012    2    1    2    0    0 -0.66548306117E+01  0.40039950731E+02 -0.23834745156E+01  0.50528863563E+02  0.30000011286E+02 0.  0.
         12    1    1    2    0    0  0.66548306117E+01 -0.40039950731E+02  0.23834745156E+01  0.40659136437E+02  0.00000000000E+00 0. -1.
         11    1    3    3    0    0  0.37696749146E+01  0.16593278169E+02 -0.75298657085E+01  0.18607692152E+02  0.51100000000E-03 0. -1.
        -11    1    3    3    0    0 -0.32040539858E+01 -0.17288309733E+01  0.44122887753E+01  0.57204117838E+01  0.51100000000E-03 0.  1.
        -12    1    3    3    0    0 -0.72204515405E+01  0.25175503535E+02  0.73410241763E+00  0.26200759627E+02  0.00000000000E+00 0.  1.
</event>
<event>
 7    1  0.2746803E-013  0.5052885E+02  0.7816164E-02  0.1300439E+00
        -11   -1    0    0    0    0  0.00000000000E+00  0.00000000000E+00  0.45593999997E+02  0.45594000000E+02  0.51100000000E-03 0.  1.
         11   -1    0    0    0    0 -0.00000000000E+00 -0.00000000000E+00 -0.45593999997E+02  0.45594000000E+02  0.51100000000E-03 0. -1.
    9900012    2    1    2    0    0 -0.40080110622E+02 -0.56566322183E+01  0.38410150222E+01  0.50528854018E+02  0.29999982275E+02 0.  0.
         12    1    1    2    0    0  0.40080110622E+02  0.56566322183E+01 -0.38410150222E+01  0.40659145982E+02  0.00000000000E+00 0. -1.
         11    1    3    3    0    0 -0.15610285901E+00 -0.94818878631E+01 -0.77173875972E+00  0.95145229268E+01  0.51100000000E-03 0. -1.
        -11    1    3    3    0    0 -0.89431454707E+01 -0.13480709014E+01  0.31266007689E+01  0.95693666820E+01  0.51100000000E-03 0.  1.
         12    1    3    3    0    0 -0.30980862293E+02  0.51733265462E+01  0.14861530131E+01  0.31444964410E+02  0.00000000000E+00 0. -1.
</event>
<event>
 7    1  0.2746803E-013  0.5052885E+02  0.7816164E-02  0.1300439E+00
        -11   -1    0    0    0    0  0.00000000000E+00  0.00000000000E+00  0.45593999997E+02  0.45594000000E+02  0.51100000000E-03 0.  1.
         11   -1    0    0    0    0 -0.00000000000E+00 -0.00000000000E+00 -0.45593999997E+02  0.45594000000E+02  0.51100000000E-03 0. -1.
    9900012    2    1    2    0    0 -0.16853702398E+01  0.39374439023E+02  0.99989798957E+01  0.50528849490E+02  0.29999968509E+02 0.  0.
         12    1    1    2    0    0  0.16853702398E+01 -0.39374439023E+02 -0.99989798957E+01  0.40659150510E+02  0.00000000000E+00 0. -1.
         11    1    3    3    0    0  0.40553605727E+01  0.79520743864E-01  0.38425950870E+01  0.55872900576E+01  0.51100000000E-03 0. -1.
        -11    1    3    3    0    0  0.62429401834E+01  0.14559132363E+02 -0.26885314093E+01  0.16067695501E+02  0.51100000000E-03 0.  1.
        -12    1    3    3    0    0 -0.11983670996E+02  0.24735785917E+02  0.88449162179E+01  0.28873863932E+02  0.00000000000E+00 0.  1.
</event>
<event>
 7    1  0.2746803E-013  0.5052886E+02  0.7816164E-02  0.1300439E+00
        -11   -1    0    0    0    0  0.00000000000E+00  0.00000000000E+00  0.45593999997E+02  0.45594000000E+02  0.51100000000E-03 0.  1.
         11   -1    0    0    0    0 -0.00000000000E+00 -0.00000000000E+00 -0.45593999997E+02  0.45594000000E+02  0.51100000000E-03 0. -1.
    9900012    2    1    2    0    0  0.23708196696E+02 -0.29798083026E+02  0.14253453478E+02  0.50528864758E+02  0.30000014919E+02 0.  0.
         12    1    1    2    0    0 -0.23708196696E+02  0.29798083026E+02 -0.14253453478E+02  0.40659135242E+02  0.00000000000E+00 0. -1.
         11    1    3    3    0    0  0.10615126141E+02 -0.71902643193E+01  0.61903146845E+01  0.14237303120E+02  0.51100000000E-03 0.  1.
        -11    1    3    3    0    0  0.17270696778E+02 -0.63203056484E+01  0.60308836735E+01  0.19354451396E+02  0.51100000000E-03 0. -1.
         12    1    3    3    0    0 -0.41776262238E+01 -0.16287513058E+02  0.20322551196E+01  0.16937110242E+02  0.00000000000E+00 0. -1.
</event>
<event>
 7    1  0.2746803E-013  0.5052886E+02  0.7816164E-02  0.1300439E+00
        -11   -1    0    0    0    0  0.00000000000E+00  0.00000000000E+00  0.45593999997E+02  0.45594000000E+02  0.51100000000E-03 0.  1.
         11   -1    0    0    0    0 -0.00000000000E+00 -0.00000000000E+00 -0.45593999997E+02  0.45594000000E+02  0.51100000000E-03 0. -1.
    9900012    2    1    2    0    0  0.42841318382E+01  0.11737140038E+02  0.38691750641E+02  0.50528858229E+02  0.29999995073E+02 0.  0.
         12    1    1    2    0    0 -0.42841318382E+01 -0.11737140038E+02 -0.38691750641E+02  0.40659141771E+02  0.00000000000E+00 0. -1.
         11    1    3    3    0    0  0.19704869098E+01  0.10305871552E+02  0.74774339138E+01  0.12884324791E+02  0.51100000000E-03 0.  1.
        -11    1    3    3    0    0 -0.42564260825E+01 -0.82587753969E+01  0.15024413692E+02  0.17665150469E+02  0.51100000000E-03 0. -1.
         12    1    3    3    0    0  0.65700710109E+01  0.96900438829E+01  0.16189903036E+02  0.19979382970E+02  0.00000000000E+00 0. -1.
</event>
<event>
 7    1  0.2746803E-013  0.5052887E+02  0.7816164E-02  0.1300439E+00
        -11   -1    0    0    0    0  0.00000000000E+00  0.00000000000E+00  0.45593999997E+02  0.45594000000E+02  0.51100000000E-03 0. -1.
         11   -1    0    0    0    0 -0.00000000000E+00 -0.00000000000E+00 -0.45593999997E+02  0.45594000000E+02  0.51100000000E-03 0.  1.
    9900012    2    1    2    0    0 -0.26795618351E+01  0.62419855299E+01 -0.40087689107E+02  0.50528865074E+02  0.30000015878E+02 0.  0.
         12    1    1    2    0    0  0.26795618351E+01 -0.62419855299E+01  0.40087689107E+02  0.40659134926E+02  0.00000000000E+00 0. -1.
         11    1    3    3    0    0 -0.28775921539E+01  0.15062867753E+01 -0.11304821796E+02  0.11762161049E+02  0.51100000000E-03 0. -1.
        -11    1    3    3    0    0  0.89670607191E+00 -0.99318700758E+01 -0.59282690124E+01  0.11601314526E+02  0.51100000000E-03 0.  1.
         12    1    3    3    0    0 -0.69867575315E+00  0.14667568830E+02 -0.22854598299E+02  0.27165389499E+02  0.00000000000E+00 0. -1.
</event>
<event>
 7    1  0.2746803E-013  0.5052885E+02  0.7816164E-02  0.1300439E+00
        -11   -1    0    0    0    0  0.00000000000E+00  0.00000000000E+00  0.45593999997E+02  0.45594000000E+02  0.51100000000E-03 0.  1.
         11   -1    0    0    0    0 -0.00000000000E+00 -0.00000000000E+00 -0.45593999997E+02  0.45594000000E+02  0.51100000000E-03 0. -1.
    9900012    2    1    2    0    0  0.18385611039E+02  0.87293362772E+01  0.35198506396E+02  0.50528845340E+02  0.29999955897E+02 0.  0.
         12    1    1    2    0    0 -0.18385611039E+02 -0.87293362772E+01 -0.35198506396E+02  0.40659154660E+02  0.00000000000E+00 0. -1.
         11    1    3    3    0    0 -0.26192997458E+00  0.73073526638E+01  0.25958127816E+01  0.77591400634E+01  0.51100000000E-03 0. -1.
        -11    1    3    3    0    0  0.59150618724E+01  0.75579758352E+01  0.24872659759E+02  0.26660085510E+02  0.51100000000E-03 0.  1.
         12    1    3    3    0    0  0.12732479141E+02 -0.61359922218E+01  0.77300338559E+01  0.16109619767E+02  0.00000000000E+00 0. -1.
</event>
<event>
 7    1  0.2746803E-013  0.5052887E+02  0.7816164E-02  0.1300439E+00
        -11   -1    0    0    0    0  0.00000000000E+00  0.00000000000E+00  0.45593999997E+02  0.45594000000E+02  0.51100000000E-03 0. -1.
         11   -1    0    0    0    0 -0.00000000000E+00 -0.00000000000E+00 -0.45593999997E+02  0.45594000000E+02  0.51100000000E-03 0.  1.
    9900012    2    1    2    0    0 -0.30002013848E+02 -0.69552271192E+01 -0.26545603243E+02  0.50528867314E+02  0.30000022687E+02 0.  0.
         12    1    1    2    0    0  0.30002013848E+02  0.69552271192E+01  0.26545603243E+02  0.40659132686E+02  0.00000000000E+00 0. -1.
         11    1    3    3    0    0 -0.89827460183E+01  0.76773152575E+01 -0.15455953360E+02  0.19455523383E+02  0.51100000000E-03 0. -1.
        -11    1    3    3    0    0 -0.55294066429E+00 -0.39303552913E+01 -0.63623981174E+01  0.74989029970E+01  0.51100000000E-03 0.  1.
         12    1    3    3    0    0 -0.20466327166E+02 -0.10702187085E+02 -0.47272517662E+01  0.23574440934E+02  0.00000000000E+00 0. -1.
</event>
<event>
 7    1  0.2746803E-013  0.5052886E+02  0.7816164E-02  0.1300439E+00
        -11   -1    0    0    0    0  0.00000000000E+00  0.00000000000E+00  0.45593999997E+02  0.45594000000E+02  0.51100000000E-03 0.  1.
         11   -1    0    0    0    0 -0.00000000000E+00 -0.00000000000E+00 -0.45593999997E+02  0.45594000000E+02  0.51100000000E-03 0. -1.
    9900012    2    1    2    0    0  0.67579857468E+01 -0.96098552364E+01  0.38924880131E+02  0.50528856105E+02  0.29999988617E+02 0.  0.
         12    1    1    2    0    0 -0.67579857468E+01  0.96098552364E+01 -0.38924880131E+02  0.40659143895E+02  0.00000000000E+00 0. -1.
         11    1    3    3    0    0 -0.28745401607E+01 -0.64010680808E+00  0.13309878691E+02  0.13631785975E+02  0.51100000000E-03 0. -1.
        -11    1    3    3    0    0 -0.49052946469E+01 -0.39152602266E+01  0.19239702595E+02  0.20237522932E+02  0.51100000000E-03 0.  1.
         12    1    3    3    0    0  0.14537820554E+02 -0.50544882017E+01  0.63752988455E+01  0.16659547197E+02  0.00000000000E+00 0. -1.
</event>
<event>
 7    1  0.2746803E-013  0.5052886E+02  0.7816164E-02  0.1300439E+00
        -11   -1    0    0    0    0  0.00000000000E+00  0.00000000000E+00  0.45593999997E+02  0.45594000000E+02  0.51100000000E-03 0.  1.
         11   -1    0    0    0    0 -0.00000000000E+00 -0.00000000000E+00 -0.45593999997E+02  0.45594000000E+02  0.51100000000E-03 0. -1.
    9900012    2    1    2    0    0 -0.17996788438E+02 -0.26269779290E+02  0.25282012009E+02  0.50528857987E+02  0.29999994337E+02 0.  0.
         12    1    1    2    0    0  0.17996788438E+02  0.26269779290E+02 -0.25282012009E+02  0.40659142013E+02  0.00000000000E+00 0. -1.
         11    1    3    3    0    0 -0.45212342120E+01 -0.23929433183E+02  0.37676408163E+01  0.24642533328E+02  0.51100000000E-03 0. -1.
        -11    1    3    3    0    0 -0.43255354828E+01 -0.13971215975E+01  0.37944558159E+01  0.59211570804E+01  0.51100000000E-03 0.  1.
         12    1    3    3    0    0 -0.91500187428E+01 -0.94322450986E+00  0.17719915377E+02  0.19965167578E+02  0.00000000000E+00 0. -1.
</event>
<event>
 7    1  0.2746803E-013  0.5052886E+02  0.7816164E-02  0.1300439E+00
        -11   -1    0    0    0    0  0.00000000000E+00  0.00000000000E+00  0.45593999997E+02  0.45594000000E+02  0.51100000000E-03 0.  1.
         11   -1    0    0    0    0 -0.00000000000E+00 -0.00000000000E+00 -0.45593999997E+02  0.45594000000E+02  0.51100000000E-03 0. -1.
    9900012    2    1    2    0    0  0.87165070530E+01 -0.23481333046E+02  0.32028352426E+02  0.50528857659E+02  0.29999993339E+02 0.  0.
         12    1    1    2    0    0 -0.87165070530E+01  0.23481333046E+02 -0.32028352426E+02  0.40659142341E+02  0.00000000000E+00 0. -1.
         11    1    3    3    0    0 -0.32898727076E+01 -0.12765150396E+02  0.44238145262E+01  0.13904764014E+02  0.51100000000E-03 0. -1.
        -11    1    3    3    0    0 -0.17629982401E+01 -0.10111609529E+02  0.12563295279E+02  0.16223106934E+02  0.51100000000E-03 0.  1.
        -12    1    3    3    0    0  0.13769378001E+02 -0.60457312060E+00  0.15041242621E+02  0.20400986710E+02  0.00000000000E+00 0.  1.
</event>
<event>
 7    1  0.2746803E-013  0.5052885E+02  0.7816164E-02  0.1300439E+00
        -11   -1    0    0    0    0  0.00000000000E+00  0.00000000000E+00  0.45593999997E+02  0.45594000000E+02  0.51100000000E-03 0. -1.
         11   -1    0    0    0    0 -0.00000000000E+00 -0.00000000000E+00 -0.45593999997E+02  0.45594000000E+02  0.51100000000E-03 0.  1.
    9900012    2    1    2    0    0 -0.24831861639E+02 -0.30270614889E+02 -0.10965180418E+02  0.50528847773E+02  0.29999963292E+02 0.  0.
         12    1    1    2    0    0  0.24831861639E+02  0.30270614889E+02  0.10965180418E+02  0.40659152227E+02  0.00000000000E+00 0. -1.
         11    1    3    3    0    0 -0.18149407114E+02 -0.19359029756E+02  0.23489921814E+01  0.26640022076E+02  0.51100000000E-03 0. -1.
        -11    1    3    3    0    0 -0.73211199025E+01  0.10483808066E+01 -0.26623322780E+01  0.78604015395E+01  0.51100000000E-03 0.  1.
        -12    1    3    3    0    0  0.63866537811E+00 -0.11959965939E+02 -0.10651840322E+02  0.16028424158E+02  0.00000000000E+00 0.  1.
</event>
<event>
 7    1  0.2746803E-013  0.5052886E+02  0.7816164E-02  0.1300439E+00
        -11   -1    0    0    0    0  0.00000000000E+00  0.00000000000E+00  0.45593999997E+02  0.45594000000E+02  0.51100000000E-03 0. -1.
         11   -1    0    0    0    0 -0.00000000000E+00 -0.00000000000E+00 -0.45593999997E+02  0.45594000000E+02  0.51100000000E-03 0.  1.
    9900012    2    1    2    0    0 -0.24092301922E+02  0.32739925586E+02 -0.90791566360E+00  0.50528855271E+02  0.29999986080E+02 0.  0.
         12    1    1    2    0    0  0.24092301922E+02 -0.32739925586E+02  0.90791566360E+00  0.40659144729E+02  0.00000000000E+00 0. -1.
         11    1    3    3    0    0 -0.44800338814E+01  0.67072535572E+01  0.94210886732E+01  0.12402212138E+02  0.51100000000E-03 0. -1.
        -11    1    3    3    0    0 -0.52428063764E+01  0.20731797759E+02 -0.61040948026E+01  0.22238579780E+02  0.51100000000E-03 0.  1.
        -12    1    3    3    0    0 -0.14369461664E+02  0.53008742704E+01 -0.42249095341E+01  0.15888063353E+02  0.00000000000E+00 0.  1.
</event>
<event>
 7    1  0.2746803E-013  0.5052887E+02  0.7816164E-02  0.1300439E+00
        -11   -1    0    0    0    0  0.00000000000E+00  0.00000000000E+00  0.45593999997E+02  0.45594000000E+02  0.51100000000E-03 0. -1.
         11   -1    0    0    0    0 -0.00000000000E+00 -0.00000000000E+00 -0.45593999997E+02  0.45594000000E+02  0.51100000000E-03 0.  1.
    9900012    2    1    2    0    0  0.28695022653E+02 -0.13213539165E+02 -0.25596152885E+02  0.50528868371E+02  0.30000025902E+02 0.  0.
         12    1    1    2    0    0 -0.28695022653E+02  0.13213539165E+02  0.25596152885E+02  0.40659131629E+02  0.00000000000E+00 0. -1.
         11    1    3    3    0    0 -0.51182095192E+00 -0.48223828299E+01  0.16271687435E+01  0.51151749947E+01  0.51100000000E-03 0. -1.
        -11    1    3    3    0    0  0.17085980860E+02 -0.76737525528E+01 -0.39187072383E+01  0.19135660084E+02  0.51100000000E-03 0.  1.
        -12    1    3    3    0    0  0.12120862745E+02 -0.71740378236E+00 -0.23304614390E+02  0.26278033293E+02  0.00000000000E+00 0.  1.
</event>
<event>
 7    1  0.2746803E-013  0.5052886E+02  0.7816164E-02  0.1300439E+00
        -11   -1    0    0    0    0  0.00000000000E+00  0.00000000000E+00  0.45593999997E+02  0.45594000000E+02  0.51100000000E-03 0. -1.
         11   -1    0    0    0    0 -0.00000000000E+00 -0.00000000000E+00 -0.45593999997E+02  0.45594000000E+02  0.51100000000E-03 0.  1.
    9900012    2    1    2    0    0  0.10323629995E+02 -0.38879853098E+02  0.59114608932E+01  0.50528859784E+02  0.29999999799E+02 0.  0.
         12    1    1    2    0    0 -0.10323629995E+02  0.38879853098E+02 -0.59114608932E+01  0.40659140216E+02  0.00000000000E+00 0. -1.
         11    1    3    3    0    0  0.74479826193E+01 -0.36679868552E+02  0.30252008727E+01  0.37550459953E+02  0.51100000000E-03 0. -1.
        -11    1    3    3    0    0 -0.57882708776E+00 -0.35914667487E+01 -0.38402565532E+01  0.52897301311E+01  0.51100000000E-03 0.  1.
         12    1    3    3    0    0  0.34544744636E+01  0.13914822021E+01  0.67265165736E+01  0.76886696999E+01  0.00000000000E+00 0. -1.
</event>
<event>
 7    1  0.2746803E-013  0.5052879E+02  0.7816164E-02  0.1300439E+00
        -11   -1    0    0    0    0  0.00000000000E+00  0.00000000000E+00  0.45593999997E+02  0.45594000000E+02  0.51100000000E-03 0.  1.
         11   -1    0    0    0    0 -0.00000000000E+00 -0.00000000000E+00 -0.45593999997E+02  0.45594000000E+02  0.51100000000E-03 0. -1.
    9900012    2    1    2    0    0  0.11120064802E+02 -0.25996366856E+01  0.39022524640E+02  0.50528789711E+02  0.29999786804E+02 0.  0.
         12    1    1    2    0    0 -0.11120064802E+02  0.25996366856E+01 -0.39022524640E+02  0.40659210289E+02  0.00000000000E+00 0. -1.
         11    1    3    3    0    0 -0.30491150270E+01  0.22282645851E+01 -0.27707115165E+01  0.46839201613E+01  0.51100000000E-03 0. -1.
        -11    1    3    3    0    0  0.67536085205E+01  0.71440236808E+00  0.66585092051E+01  0.95109065755E+01  0.51100000000E-03 0.  1.
        -12    1    3    3    0    0  0.74155713081E+01 -0.55423036388E+01  0.35134726951E+02  0.36333962974E+02  0.00000000000E+00 0.  1.
</event>
<event>
 7    1  0.2746803E-013  0.5052886E+02  0.7816164E-02  0.1300439E+00
        -11   -1    0    0    0    0  0.00000000000E+00  0.00000000000E+00  0.45593999997E+02  0.45594000000E+02  0.51100000000E-03 0. -1.
         11   -1    0    0    0    0 -0.00000000000E+00 -0.00000000000E+00 -0.45593999997E+02  0.45594000000E+02  0.51100000000E-03 0.  1.
    9900012    2    1    2    0    0 -0.12421623718E+02 -0.34745581477E+02  0.17076698151E+02  0.50528858498E+02  0.29999995890E+02 0.  0.
         12    1    1    2    0    0  0.12421623718E+02  0.34745581477E+02 -0.17076698151E+02  0.40659141502E+02  0.00000000000E+00 0. -1.
         11    1    3    3    0    0 -0.38688192031E+01 -0.19387522012E+02  0.11148966806E+01  0.19801180941E+02  0.51100000000E-03 0. -1.
        -11    1    3    3    0    0 -0.13658864367E+02 -0.91635230048E+01  0.50984202137E+01  0.17220006347E+02  0.51100000000E-03 0.  1.
         12    1    3    3    0    0  0.51060598527E+01 -0.61945364598E+01  0.10863381257E+02  0.13507671209E+02  0.00000000000E+00 0. -1.
</event>
<event>
 7    1  0.2746803E-013  0.5052886E+02  0.7816164E-02  0.1300439E+00
        -11   -1    0    0    0    0  0.00000000000E+00  0.00000000000E+00  0.45593999997E+02  0.45594000000E+02  0.51100000000E-03 0.  1.
         11   -1    0    0    0    0 -0.00000000000E+00 -0.00000000000E+00 -0.45593999997E+02  0.45594000000E+02  0.51100000000E-03 0. -1.
    9900012    2    1    2    0    0 -0.27670929173E+02  0.11224953357E+02  0.27595034174E+02  0.50528858221E+02  0.29999995048E+02 0.  0.
         12    1    1    2    0    0  0.27670929173E+02 -0.11224953357E+02 -0.27595034174E+02  0.40659141779E+02  0.00000000000E+00 0. -1.
         11    1    3    3    0    0 -0.20522115123E+02  0.90697820847E-02  0.81795290298E+01  0.22092124995E+02  0.51100000000E-03 0. -1.
        -11    1    3    3    0    0 -0.45820701539E+01  0.83956394118E+01  0.98427017604E+00  0.96151399402E+01  0.51100000000E-03 0.  1.
        -12    1    3    3    0    0 -0.25667438961E+01  0.28202441631E+01  0.18431234968E+02  0.18821593286E+02  0.00000000000E+00 0.  1.
</event>
<event>
 7    1  0.2746803E-013  0.5052887E+02  0.7816164E-02  0.1300439E+00
        -11   -1    0    0    0    0  0.00000000000E+00  0.00000000000E+00  0.45593999997E+02  0.45594000000E+02  0.51100000000E-03 0.  1.
         11   -1    0    0    0    0 -0.00000000000E+00 -0.00000000000E+00 -0.45593999997E+02  0.45594000000E+02  0.51100000000E-03 0. -1.
    9900012    2    1    2    0    0 -0.66400755395E+01 -0.15052467801E+02  0.37181956122E+02  0.50528865096E+02  0.30000015946E+02 0.  0.
         12    1    1    2    0    0  0.66400755395E+01  0.15052467801E+02 -0.37181956122E+02  0.40659134904E+02  0.00000000000E+00 0. -1.
         11    1    3    3    0    0 -0.37722960233E+00  0.21254019242E+01  0.95744348406E+01  0.98147561503E+01  0.51100000000E-03 0. -1.
        -11    1    3    3    0    0  0.52615603135E+01 -0.15219040198E+02  0.23157805400E+02  0.28206154517E+02  0.51100000000E-03 0.  1.
         12    1    3    3    0    0 -0.11524406251E+02 -0.19588295278E+01  0.44497158818E+01  0.12507954428E+02  0.00000000000E+00 0. -1.
</event>
<event>
 7    1  0.2746803E-013  0.5052886E+02  0.7816164E-02  0.1300439E+00
        -11   -1    0    0    0    0  0.00000000000E+00  0.00000000000E+00  0.45593999997E+02  0.45594000000E+02  0.51100000000E-03 0.  1.
         11   -1    0    0    0    0 -0.00000000000E+00 -0.00000000000E+00 -0.45593999997E+02  0.45594000000E+02  0.51100000000E-03 0. -1.
    9900012    2    1    2    0    0  0.21533431143E+02 -0.17550908027E+02  0.29689104114E+02  0.50528856718E+02  0.29999990480E+02 0.  0.
         12    1    1    2    0    0 -0.21533431143E+02  0.17550908027E+02 -0.29689104114E+02  0.40659143282E+02  0.00000000000E+00 0. -1.
         11    1    3    3    0    0 -0.40323403555E+01 -0.68914502380E+00 -0.30971015273E+01  0.51309577798E+01  0.51100000000E-03 0. -1.
        -11    1    3    3    0    0  0.61508127910E+01 -0.71429214619E+01  0.12732622267E+02  0.15842143007E+02  0.51100000000E-03 0.  1.
        -12    1    3    3    0    0  0.19414958707E+02 -0.97188415411E+01  0.20053583375E+02  0.29555755931E+02  0.00000000000E+00 0.  1.
</event>
<event>
 7    1  0.2746803E-013  0.5052885E+02  0.7816164E-02  0.1300439E+00
        -11   -1    0    0    0    0  0.00000000000E+00  0.00000000000E+00  0.45593999997E+02  0.45594000000E+02  0.51100000000E-03 0. -1.
         11   -1    0    0    0    0 -0.00000000000E+00 -0.00000000000E+00 -0.45593999997E+02  0.45594000000E+02  0.51100000000E-03 0.  1.
    9900012    2    1    2    0    0  0.26134688237E+02 -0.31032660848E+02  0.26680537315E+01  0.50528849993E+02  0.29999970039E+02 0.  0.
         12    1    1    2    0    0 -0.26134688237E+02  0.31032660848E+02 -0.26680537315E+01  0.40659150007E+02  0.00000000000E+00 0. -1.
         11    1    3    3    0    0  0.78030949396E+01  0.42031898527E+01  0.31710406946E+00  0.88688021077E+01  0.51100000000E-03 0. -1.
        -11    1    3    3    0    0  0.64757951229E+01 -0.66954259252E+01  0.51237394328E+01  0.10630962178E+02  0.51100000000E-03 0.  1.
        -12    1    3    3    0    0  0.11855798175E+02 -0.28540424776E+02 -0.27727897708E+01  0.31029085707E+02  0.00000000000E+00 0.  1.
</event>
<event>
 7    1  0.2746803E-013  0.5052894E+02  0.7816164E-02  0.1300439E+00
        -11   -1    0    0    0    0  0.00000000000E+00  0.00000000000E+00  0.45593999997E+02  0.45594000000E+02  0.51100000000E-03 0.  1.
         11   -1    0    0    0    0 -0.00000000000E+00 -0.00000000000E+00 -0.45593999997E+02  0.45594000000E+02  0.51100000000E-03 0. -1.
    9900012    2    1    2    0    0  0.93454953935E+00  0.11950173031E+02  0.38852013706E+02  0.50528942124E+02  0.30000250079E+02 0.  0.
         12    1    1    2    0    0 -0.93454953935E+00 -0.11950173031E+02 -0.38852013706E+02  0.40659057876E+02  0.00000000000E+00 0. -1.
         11    1    3    3    0    0  0.10501324363E+01  0.30273302699E+01 -0.24294013948E+01  0.40211314446E+01  0.51100000000E-03 0. -1.
        -11    1    3    3    0    0 -0.60486761089E+01  0.84127714570E+01  0.38618831150E+02  0.39984688644E+02  0.51100000000E-03 0.  1.
         12    1    3    3    0    0  0.59330932120E+01  0.51007130462E+00  0.26625839511E+01  0.65231220359E+01  0.00000000000E+00 0. -1.
</event>
<event>
 7    1  0.2746803E-013  0.5052885E+02  0.7816164E-02  0.1300439E+00
        -11   -1    0    0    0    0  0.00000000000E+00  0.00000000000E+00  0.45593999997E+02  0.45594000000E+02  0.51100000000E-03 0.  1.
         11   -1    0    0    0    0 -0.00000000000E+00 -0.00000000000E+00 -0.45593999997E+02  0.45594000000E+02  0.51100000000E-03 0. -1.
    9900012    2    1    2    0    0 -0.11021918575E+01 -0.87307035735E+01  0.39695416389E+02  0.50528854730E+02  0.29999984437E+02 0.  0.
         12    1    1    2    0    0  0.11021918575E+01  0.87307035735E+01 -0.39695416389E+02  0.40659145270E+02  0.00000000000E+00 0. -1.
         11    1    3    3    0    0  0.50260311781E+01 -0.42411178201E+01  0.95034986765E+01  0.11557013331E+02  0.51100000000E-03 0. -1.
        -11    1    3    3    0    0  0.75335556287E+01 -0.72099916970E+01  0.15898886955E+02  0.19013496453E+02  0.51100000000E-03 0.  1.
         12    1    3    3    0    0 -0.13661778664E+02  0.27204059437E+01  0.14293030758E+02  0.19958344947E+02  0.00000000000E+00 0. -1.
</event>
<event>
 7    1  0.2746803E-013  0.5052887E+02  0.7816164E-02  0.1300439E+00
        -11   -1    0    0    0    0  0.00000000000E+00  0.00000000000E+00  0.45593999997E+02  0.45594000000E+02  0.51100000000E-03 0.  1.
         11   -1    0    0    0    0 -0.00000000000E+00 -0.00000000000E+00 -0.45593999997E+02  0.45594000000E+02  0.51100000000E-03 0. -1.
    9900012    2    1    2    0    0  0.33481788360E+02  0.22669322813E+02  0.42703886813E+01  0.50528873496E+02  0.30000041478E+02 0.  0.
         12    1    1    2    0    0 -0.33481788360E+02 -0.22669322813E+02 -0.42703886813E+01  0.40659126504E+02  0.00000000000E+00 0. -1.
         11    1    3    3    0    0  0.69124531170E+01  0.93311087283E+01  0.89477229325E+01  0.14659923060E+02  0.51100000000E-03 0. -1.
        -11    1    3    3    0    0  0.82503223115E+01 -0.47960944211E+01 -0.31401439823E+01  0.10046434414E+02  0.51100000000E-03 0.  1.
         12    1    3    3    0    0  0.18319012932E+02  0.18134308506E+02 -0.15371902689E+01  0.25822516022E+02  0.00000000000E+00 0. -1.
</event>
<event>
 7    1  0.2746803E-013  0.5052886E+02  0.7816164E-02  0.1300439E+00
        -11   -1    0    0    0    0  0.00000000000E+00  0.00000000000E+00  0.45593999997E+02  0.45594000000E+02  0.51100000000E-03 0. -1.
         11   -1    0    0    0    0 -0.00000000000E+00 -0.00000000000E+00 -0.45593999997E+02  0.45594000000E+02  0.51100000000E-03 0.  1.
    9900012    2    1    2    0    0 -0.37219326413E+02 -0.15934001791E+02  0.37409879503E+01  0.50528860037E+02  0.30000000568E+02 0.  0.
         12    1    1    2    0    0  0.37219326413E+02  0.15934001791E+02 -0.37409879503E+01  0.40659139963E+02  0.00000000000E+00 0. -1.
         11    1    3    3    0    0 -0.60346378636E+01  0.45241785436E+01 -0.16403261113E+01  0.77185306666E+01  0.51100000000E-03 0. -1.
        -11    1    3    3    0    0 -0.22000625787E+02 -0.38387744881E+01 -0.20342535657E+01  0.22425474631E+02  0.51100000000E-03 0.  1.
        -12    1    3    3    0    0 -0.91840627626E+01 -0.16619405846E+02  0.74155676273E+01  0.20384854739E+02  0.00000000000E+00 0.  1.
</event>
<event>
 7    1  0.2746803E-013  0.5052886E+02  0.7816164E-02  0.1300439E+00
        -11   -1    0    0    0    0  0.00000000000E+00  0.00000000000E+00  0.45593999997E+02  0.45594000000E+02  0.51100000000E-03 0.  1.
         11   -1    0    0    0    0 -0.00000000000E+00 -0.00000000000E+00 -0.45593999997E+02  0.45594000000E+02  0.51100000000E-03 0. -1.
    9900012    2    1    2    0    0 -0.31326391688E+02 -0.90070363622E+01  0.24304234096E+02  0.50528864308E+02  0.30000013551E+02 0.  0.
         12    1    1    2    0    0  0.31326391688E+02  0.90070363622E+01 -0.24304234096E+02  0.40659135692E+02  0.00000000000E+00 0. -1.
         11    1    3    3    0    0 -0.85246059585E+01 -0.71719370881E+01 -0.46623887655E+01  0.12076566466E+02  0.51100000000E-03 0. -1.
        -11    1    3    3    0    0 -0.78276416691E+01 -0.45842108307E+01  0.59232389293E+01  0.10833823089E+02  0.51100000000E-03 0.  1.
        -12    1    3    3    0    0 -0.14974144060E+02  0.27491115565E+01  0.23043383932E+02  0.27618474754E+02  0.00000000000E+00 0.  1.
</event>
<event>
 7    1  0.2746803E-013  0.5052885E+02  0.7816164E-02  0.1300439E+00
        -11   -1    0    0    0    0  0.00000000000E+00  0.00000000000E+00  0.45593999997E+02  0.45594000000E+02  0.51100000000E-03 0. -1.
         11   -1    0    0    0    0 -0.00000000000E+00 -0.00000000000E+00 -0.45593999997E+02  0.45594000000E+02  0.51100000000E-03 0.  1.
    9900012    2    1    2    0    0  0.23063143727E+02 -0.16835868793E+02 -0.28944972477E+02  0.50528849636E+02  0.29999968954E+02 0.  0.
         12    1    1    2    0    0 -0.23063143727E+02  0.16835868793E+02  0.28944972477E+02  0.40659150364E+02  0.00000000000E+00 0. -1.
         11    1    3    3    0    0 -0.48614218631E+00  0.42334102790E+01  0.16908211207E+01  0.45844272422E+01  0.51100000000E-03 0. -1.
        -11    1    3    3    0    0  0.17192760188E+01 -0.25183789073E+01 -0.10485454479E+02  0.10919839662E+02  0.51100000000E-03 0.  1.
         12    1    3    3    0    0  0.21830009895E+02 -0.18550900165E+02 -0.20150339119E+02  0.35024582732E+02  0.00000000000E+00 0. -1.
</event>
<event>
 7    1  0.2746803E-013  0.5052886E+02  0.7816164E-02  0.1300439E+00
        -11   -1    0    0    0    0  0.00000000000E+00  0.00000000000E+00  0.45593999997E+02  0.45594000000E+02  0.51100000000E-03 0. -1.
         11   -1    0    0    0    0 -0.00000000000E+00 -0.00000000000E+00 -0.45593999997E+02  0.45594000000E+02  0.51100000000E-03 0.  1.
    9900012    2    1    2    0    0  0.18454452783E+02  0.25892153823E+02 -0.25341578368E+02  0.50528855256E+02  0.29999986036E+02 0.  0.
         12    1    1    2    0    0 -0.18454452783E+02 -0.25892153823E+02  0.25341578368E+02  0.40659144744E+02  0.00000000000E+00 0. -1.
         11    1    3    3    0    0  0.19557709804E+01  0.89075507043E+01 -0.19099449328E+02  0.21165029284E+02  0.51100000000E-03 0. -1.
        -11    1    3    3    0    0  0.14450092816E+02  0.45720947468E+01 -0.71352333593E+01  0.16751739854E+02  0.51100000000E-03 0.  1.
         12    1    3    3    0    0  0.20485889865E+01  0.12412508372E+02  0.89310431959E+00  0.12612086118E+02  0.00000000000E+00 0. -1.
</event>
<event>
 7    1  0.2746803E-013  0.5052887E+02  0.7816164E-02  0.1300439E+00
        -11   -1    0    0    0    0  0.00000000000E+00  0.00000000000E+00  0.45593999997E+02  0.45594000000E+02  0.51100000000E-03 0. -1.
         11   -1    0    0    0    0 -0.00000000000E+00 -0.00000000000E+00 -0.45593999997E+02  0.45594000000E+02  0.51100000000E-03 0.  1.
    9900012    2    1    2    0    0 -0.25715819766E+02  0.23660471951E+02 -0.20785665347E+02  0.50528865687E+02  0.30000017742E+02 0.  0.
         12    1    1    2    0    0  0.25715819766E+02 -0.23660471951E+02  0.20785665347E+02  0.40659134313E+02  0.00000000000E+00 0. -1.
         11    1    3    3    0    0 -0.15103649963E+02  0.89814015708E+01 -0.11729436918E+02  0.21127363940E+02  0.51100000000E-03 0. -1.
        -11    1    3    3    0    0 -0.36163006032E+00  0.11443703639E+02 -0.13559920807E+02  0.17747128834E+02  0.51100000000E-03 0.  1.
         12    1    3    3    0    0 -0.10250539742E+02  0.32353667407E+01  0.45036923782E+01  0.11654372913E+02  0.00000000000E+00 0. -1.
</event>
<event>
 7    1  0.2746803E-013  0.5052886E+02  0.7816164E-02  0.1300439E+00
        -11   -1    0    0    0    0  0.00000000000E+00  0.00000000000E+00  0.45593999997E+02  0.45594000000E+02  0.51100000000E-03 0. -1.
         11   -1    0    0    0    0 -0.00000000000E+00 -0.00000000000E+00 -0.45593999997E+02  0.45594000000E+02  0.51100000000E-03 0.  1.
    9900012    2    1    2    0    0 -0.30507150688E+02 -0.33441433160E+01 -0.26670131088E+02  0.50528862898E+02  0.30000009265E+02 0.  0.
         12    1    1    2    0    0  0.30507150688E+02  0.33441433160E+01  0.26670131088E+02  0.40659137102E+02  0.00000000000E+00 0. -1.
         11    1    3    3    0    0 -0.18882040028E+01 -0.56595794717E+01 -0.96402850177E+01  0.11337162327E+02  0.51100000000E-03 0. -1.
        -11    1    3    3    0    0 -0.92947070386E-02  0.63829383138E+01 -0.26039033091E+01  0.68936420427E+01  0.51100000000E-03 0.  1.
        -12    1    3    3    0    0 -0.28609651979E+02 -0.40675021581E+01 -0.14425942761E+02  0.32298058528E+02  0.00000000000E+00 0.  1.
</event>
<event>
 7    1  0.2746803E-013  0.5052890E+02  0.7816164E-02  0.1300439E+00
        -11   -1    0    0    0    0  0.00000000000E+00  0.00000000000E+00  0.45593999997E+02  0.45594000000E+02  0.51100000000E-03 0. -1.
         11   -1    0    0    0    0 -0.00000000000E+00 -0.00000000000E+00 -0.45593999997E+02  0.45594000000E+02  0.51100000000E-03 0.  1.
    9900012    2    1    2    0    0  0.33653699863E+02 -0.22810231470E+02 -0.53278349407E+00  0.50528904678E+02  0.30000136258E+02 0.  0.
         12    1    1    2    0    0 -0.33653699863E+02  0.22810231470E+02  0.53278349407E+00  0.40659095322E+02  0.00000000000E+00 0. -1.
         11    1    3    3    0    0  0.14127910787E+01  0.28854675707E+01  0.78232197833E+00  0.33066493120E+01  0.51100000000E-03 0. -1.
        -11    1    3    3    0    0  0.50883047539E+01 -0.13434505799E+02  0.74288778201E+01  0.16172971813E+02  0.51100000000E-03 0.  1.
        -12    1    3    3    0    0  0.27152604030E+02 -0.12261193242E+02 -0.87439832925E+01  0.31049283553E+02  0.00000000000E+00 0.  1.
</event>
<event>
 7    1  0.2746803E-013  0.5052887E+02  0.7816164E-02  0.1300439E+00
        -11   -1    0    0    0    0  0.00000000000E+00  0.00000000000E+00  0.45593999997E+02  0.45594000000E+02  0.51100000000E-03 0.  1.
         11   -1    0    0    0    0 -0.00000000000E+00 -0.00000000000E+00 -0.45593999997E+02  0.45594000000E+02  0.51100000000E-03 0. -1.
    9900012    2    1    2    0    0 -0.10445396379E+02 -0.29384497579E+02  0.26088503939E+02  0.50528867677E+02  0.30000023791E+02 0.  0.
         12    1    1    2    0    0  0.10445396379E+02  0.29384497579E+02 -0.26088503939E+02  0.40659132323E+02  0.00000000000E+00 0. -1.
         11    1    3    3    0    0 -0.37511752714E+01 -0.69014433621E+01 -0.10303013206E+01  0.79222949623E+01  0.51100000000E-03 0. -1.
        -11    1    3    3    0    0 -0.40327164012E+01  0.38931001628E+01  0.16463719782E+01  0.58420519855E+01  0.51100000000E-03 0.  1.
        -12    1    3    3    0    0 -0.26615047067E+01 -0.26376154380E+02  0.25472433281E+02  0.36764520729E+02  0.00000000000E+00 0.  1.
</event>
<event>
 7    1  0.2746803E-013  0.5052885E+02  0.7816164E-02  0.1300439E+00
        -11   -1    0    0    0    0  0.00000000000E+00  0.00000000000E+00  0.45593999997E+02  0.45594000000E+02  0.51100000000E-03 0. -1.
         11   -1    0    0    0    0 -0.00000000000E+00 -0.00000000000E+00 -0.45593999997E+02  0.45594000000E+02  0.51100000000E-03 0.  1.
    9900012    2    1    2    0    0  0.22073687295E+00  0.72669391061E+01 -0.40003862127E+02  0.50528854487E+02  0.29999983698E+02 0.  0.
         12    1    1    2    0    0 -0.22073687295E+00 -0.72669391061E+01  0.40003862127E+02  0.40659145513E+02  0.00000000000E+00 0. -1.
         11    1    3    3    0    0 -0.27653953075E+01 -0.45222298303E+01 -0.13379746866E+02  0.14391511398E+02  0.51100000000E-03 0. -1.
        -11    1    3    3    0    0 -0.71001816358E+01  0.11691298245E+02 -0.19370738340E+02  0.23713383099E+02  0.51100000000E-03 0.  1.
         12    1    3    3    0    0  0.10086313816E+02  0.97870691516E-01 -0.72533769215E+01  0.12423959990E+02  0.00000000000E+00 0. -1.
</event>
<event>
 7    1  0.2746803E-013  0.5052889E+02  0.7816164E-02  0.1300439E+00
        -11   -1    0    0    0    0  0.00000000000E+00  0.00000000000E+00  0.45593999997E+02  0.45594000000E+02  0.51100000000E-03 0. -1.
         11   -1    0    0    0    0 -0.00000000000E+00 -0.00000000000E+00 -0.45593999997E+02  0.45594000000E+02  0.51100000000E-03 0.  1.
    9900012    2    1    2    0    0 -0.38459470151E+02 -0.11515587527E+02  0.64361246468E+01  0.50528889079E+02  0.30000088845E+02 0.  0.
         12    1    1    2    0    0  0.38459470151E+02  0.11515587527E+02 -0.64361246468E+01  0.40659110921E+02  0.00000000000E+00 0. -1.
         11    1    3    3    0    0 -0.12150451400E+02  0.23073563798E+01  0.25363210133E+01  0.12624986623E+02  0.51100000000E-03 0.  1.
        -11    1    3    3    0    0 -0.97630043773E+01 -0.16826429593E+02 -0.30809913417E+01  0.19696128940E+02  0.51100000000E-03 0. -1.
         12    1    3    3    0    0 -0.16546014374E+02  0.30034856864E+01  0.69807949752E+01  0.18207773516E+02  0.00000000000E+00 0. -1.
</event>
<event>
 7    1  0.2746803E-013  0.5052886E+02  0.7816164E-02  0.1300439E+00
        -11   -1    0    0    0    0  0.00000000000E+00  0.00000000000E+00  0.45593999997E+02  0.45594000000E+02  0.51100000000E-03 0.  1.
         11   -1    0    0    0    0 -0.00000000000E+00 -0.00000000000E+00 -0.45593999997E+02  0.45594000000E+02  0.51100000000E-03 0. -1.
    9900012    2    1    2    0    0 -0.19380206554E+02 -0.21897446550E+02  0.28250224437E+02  0.50528858934E+02  0.29999997217E+02 0.  0.
         12    1    1    2    0    0  0.19380206554E+02  0.21897446550E+02 -0.28250224437E+02  0.40659141066E+02  0.00000000000E+00 0. -1.
         11    1    3    3    0    0 -0.11119701577E+02 -0.93207458938E+01  0.18593279002E+01  0.14628095149E+02  0.51100000000E-03 0. -1.
        -11    1    3    3    0    0 -0.75777009610E+01 -0.16862450621E+02  0.15320211484E+02  0.24009845334E+02  0.51100000000E-03 0.  1.
         12    1    3    3    0    0 -0.68280401548E+00  0.42857499646E+01  0.11070685053E+02  0.11890918452E+02  0.00000000000E+00 0. -1.
</event>
<event>
 7    1  0.2746803E-013  0.5052886E+02  0.7816164E-02  0.1300439E+00
        -11   -1    0    0    0    0  0.00000000000E+00  0.00000000000E+00  0.45593999997E+02  0.45594000000E+02  0.51100000000E-03 0. -1.
         11   -1    0    0    0    0 -0.00000000000E+00 -0.00000000000E+00 -0.45593999997E+02  0.45594000000E+02  0.51100000000E-03 0.  1.
    9900012    2    1    2    0    0  0.24990998244E+02  0.26207896364E+02  0.18486804933E+02  0.50528858572E+02  0.29999996115E+02 0.  0.
         12    1    1    2    0    0 -0.24990998244E+02 -0.26207896364E+02 -0.18486804933E+02  0.40659141428E+02  0.00000000000E+00 0. -1.
         11    1    3    3    0    0  0.19688387887E+02  0.53870525559E+00  0.11202320331E+02  0.22658658433E+02  0.51100000000E-03 0. -1.
        -11    1    3    3    0    0 -0.11839486220E+01  0.29539169186E+01  0.12086305541E+00  0.31846456068E+01  0.51100000000E-03 0.  1.
        -12    1    3    3    0    0  0.64865589796E+01  0.22715274189E+02  0.71636215462E+01  0.24685554532E+02  0.00000000000E+00 0.  1.
</event>
<event>
 7    1  0.2746803E-013  0.5052886E+02  0.7816164E-02  0.1300439E+00
        -11   -1    0    0    0    0  0.00000000000E+00  0.00000000000E+00  0.45593999997E+02  0.45594000000E+02  0.51100000000E-03 0.  1.
         11   -1    0    0    0    0 -0.00000000000E+00 -0.00000000000E+00 -0.45593999997E+02  0.45594000000E+02  0.51100000000E-03 0. -1.
    9900012    2    1    2    0    0  0.79909142227E+01 -0.39698819399E+02  0.36489849305E+01  0.50528855115E+02  0.29999985607E+02 0.  0.
         12    1    1    2    0    0 -0.79909142227E+01  0.39698819399E+02 -0.36489849305E+01  0.40659144885E+02  0.00000000000E+00 0. -1.
         11    1    3    3    0    0 -0.60764205575E+01 -0.12123715608E+02  0.58034290526E+01  0.14750835771E+02  0.51100000000E-03 0. -1.
        -11    1    3    3    0    0  0.11775951082E+02 -0.18914963087E+02  0.66146452816E+01  0.23242254300E+02  0.51100000000E-03 0.  1.
         12    1    3    3    0    0  0.22913836984E+01 -0.86601407036E+01 -0.87690894036E+01  0.12535765044E+02  0.00000000000E+00 0. -1.
</event>
<event>
 7    1  0.2746803E-013  0.5052887E+02  0.7816164E-02  0.1300439E+00
        -11   -1    0    0    0    0  0.00000000000E+00  0.00000000000E+00  0.45593999997E+02  0.45594000000E+02  0.51100000000E-03 0. -1.
         11   -1    0    0    0    0 -0.00000000000E+00 -0.00000000000E+00 -0.45593999997E+02  0.45594000000E+02  0.51100000000E-03 0.  1.
    9900012    2    1    2    0    0 -0.36720813301E+02 -0.46370189848E+01 -0.16829878593E+02  0.50528869562E+02  0.30000029520E+02 0.  0.
         12    1    1    2    0    0  0.36720813301E+02  0.46370189848E+01  0.16829878593E+02  0.40659130438E+02  0.00000000000E+00 0. -1.
         11    1    3    3    0    0 -0.36454230638E+01  0.16275456422E+01  0.32042833053E+01  0.51191255008E+01  0.51100000000E-03 0. -1.
        -11    1    3    3    0    0 -0.44170891273E+01  0.49479375798E+01  0.26877524316E+01  0.71565896939E+01  0.51100000000E-03 0.  1.
         12    1    3    3    0    0 -0.28658301110E+02 -0.11212502207E+02 -0.22721914330E+02  0.38253154367E+02  0.00000000000E+00 0. -1.
</event>
<event>
 7    1  0.2746803E-013  0.5052886E+02  0.7816164E-02  0.1300439E+00
        -11   -1    0    0    0    0  0.00000000000E+00  0.00000000000E+00  0.45593999997E+02  0.45594000000E+02  0.51100000000E-03 0.  1.
         11   -1    0    0    0    0 -0.00000000000E+00 -0.00000000000E+00 -0.45593999997E+02  0.45594000000E+02  0.51100000000E-03 0. -1.
    9900012    2    1    2    0    0 -0.65522994988E+01  0.21071030941E+02  0.34150329838E+02  0.50528855867E+02  0.29999987893E+02 0.  0.
         12    1    1    2    0    0  0.65522994988E+01 -0.21071030941E+02 -0.34150329838E+02  0.40659144133E+02  0.00000000000E+00 0. -1.
         11    1    3    3    0    0  0.48654084814E+00 -0.18880307329E+01  0.43098178132E+00  0.19967793073E+01  0.51100000000E-03 0. -1.
        -11    1    3    3    0    0  0.72064951580E+01 -0.59069077611E+00  0.52638435156E+01  0.89437428895E+01  0.51100000000E-03 0.  1.
        -12    1    3    3    0    0 -0.14245335505E+02  0.23549752450E+02  0.28455504541E+02  0.39588333670E+02  0.00000000000E+00 0.  1.
</event>
<event>
 7    1  0.2746803E-013  0.5052888E+02  0.7816164E-02  0.1300439E+00
        -11   -1    0    0    0    0  0.00000000000E+00  0.00000000000E+00  0.45593999997E+02  0.45594000000E+02  0.51100000000E-03 0.  1.
         11   -1    0    0    0    0 -0.00000000000E+00 -0.00000000000E+00 -0.45593999997E+02  0.45594000000E+02  0.51100000000E-03 0. -1.
    9900012    2    1    2    0    0  0.20364512982E+02  0.33294695908E+02  0.11397988815E+02  0.50528876625E+02  0.30000050988E+02 0.  0.
         12    1    1    2    0    0 -0.20364512982E+02 -0.33294695908E+02 -0.11397988815E+02  0.40659123375E+02  0.00000000000E+00 0. -1.
         11    1    3    3    0    0 -0.56974431644E+01  0.30473538313E+01  0.11956283150E+00  0.64623153371E+01  0.51100000000E-03 0.  1.
        -11    1    3    3    0    0  0.34986407110E+01  0.14400383862E+02  0.60304635015E+01  0.15999313501E+02  0.51100000000E-03 0. -1.
         12    1    3    3    0    0  0.22563315435E+02  0.15846958215E+02  0.52479624818E+01  0.28067247787E+02  0.00000000000E+00 0. -1.
</event>
<event>
 7    1  0.2746803E-013  0.5052886E+02  0.7816164E-02  0.1300439E+00
        -11   -1    0    0    0    0  0.00000000000E+00  0.00000000000E+00  0.45593999997E+02  0.45594000000E+02  0.51100000000E-03 0. -1.
         11   -1    0    0    0    0 -0.00000000000E+00 -0.00000000000E+00 -0.45593999997E+02  0.45594000000E+02  0.51100000000E-03 0.  1.
    9900012    2    1    2    0    0 -0.11578218464E+02 -0.28153348550E+02 -0.26953654221E+02  0.50528860151E+02  0.30000000916E+02 0.  0.
         12    1    1    2    0    0  0.11578218464E+02  0.28153348550E+02  0.26953654221E+02  0.40659139849E+02  0.00000000000E+00 0. -1.
         11    1    3    3    0    0 -0.13046391158E+00 -0.21442507272E+02 -0.20890053003E+02  0.29936473634E+02  0.51100000000E-03 0. -1.
        -11    1    3    3    0    0 -0.27370304283E+01 -0.99597551901E+01 -0.39482204765E+01  0.11057870690E+02  0.51100000000E-03 0.  1.
         12    1    3    3    0    0 -0.87107241238E+01  0.32489139122E+01 -0.21153807417E+01  0.95345158269E+01  0.00000000000E+00 0. -1.
</event>
<event>
 7    1  0.2746803E-013  0.5052885E+02  0.7816164E-02  0.1300439E+00
        -11   -1    0    0    0    0  0.00000000000E+00  0.00000000000E+00  0.45593999997E+02  0.45594000000E+02  0.51100000000E-03 0.  1.
         11   -1    0    0    0    0 -0.00000000000E+00 -0.00000000000E+00 -0.45593999997E+02  0.45594000000E+02  0.51100000000E-03 0. -1.
    9900012    2    1    2    0    0 -0.85629749997E+01 -0.34826438673E+02  0.19156229144E+02  0.50528849904E+02  0.29999969768E+02 0.  0.
         12    1    1    2    0    0  0.85629749997E+01  0.34826438673E+02 -0.19156229144E+02  0.40659150096E+02  0.00000000000E+00 0. -1.
         11    1    3    3    0    0 -0.15775245099E+02 -0.23363023631E+02  0.16764563231E+01  0.28240037840E+02  0.51100000000E-03 0. -1.
        -11    1    3    3    0    0  0.31637282111E+01 -0.33238246859E+01  0.43795694167E+01  0.63433126419E+01  0.51100000000E-03 0.  1.
        -12    1    3    3    0    0  0.40485418883E+01 -0.81395903561E+01  0.13100203404E+02  0.15945499422E+02  0.00000000000E+00 0.  1.
</event>
<event>
 7    1  0.2746803E-013  0.5052885E+02  0.7816164E-02  0.1300439E+00
        -11   -1    0    0    0    0  0.00000000000E+00  0.00000000000E+00  0.45593999997E+02  0.45594000000E+02  0.51100000000E-03 0.  1.
         11   -1    0    0    0    0 -0.00000000000E+00 -0.00000000000E+00 -0.45593999997E+02  0.45594000000E+02  0.51100000000E-03 0. -1.
    9900012    2    1    2    0    0  0.23436204607E+02  0.39201007154E+01  0.32993080337E+02  0.50528853107E+02  0.29999979503E+02 0.  0.
         12    1    1    2    0    0 -0.23436204607E+02 -0.39201007154E+01 -0.32993080337E+02  0.40659146893E+02  0.00000000000E+00 0. -1.
         11    1    3    3    0    0  0.22807866036E+02  0.13560112910E+01  0.31213869074E+02  0.38682594827E+02  0.51100000000E-03 0.  1.
        -11    1    3    3    0    0  0.38292010914E+01 -0.32684766260E+01  0.38932436681E+00  0.50494845456E+01  0.51100000000E-03 0. -1.
         12    1    3    3    0    0 -0.32008625209E+01  0.58325660505E+01  0.13898868963E+01  0.67967737343E+01  0.00000000000E+00 0. -1.
</event>
<event>
 7    1  0.2746803E-013  0.5052886E+02  0.7816164E-02  0.1300439E+00
        -11   -1    0    0    0    0  0.00000000000E+00  0.00000000000E+00  0.45593999997E+02  0.45594000000E+02  0.51100000000E-03 0.  1.
         11   -1    0    0    0    0 -0.00000000000E+00 -0.00000000000E+00 -0.45593999997E+02  0.45594000000E+02  0.51100000000E-03 0. -1.
    9900012    2    1    2    0    0 -0.23423489567E+02  0.23313063759E+01  0.33152230927E+02  0.50528864884E+02  0.30000015302E+02 0.  0.
         12    1    1    2    0    0  0.23423489567E+02 -0.23313063759E+01 -0.33152230927E+02  0.40659135116E+02  0.00000000000E+00 0. -1.
         11    1    3    3    0    0 -0.88148979920E+01  0.14654590215E+01  0.24284111779E+01  0.92599772064E+01  0.51100000000E-03 0. -1.
        -11    1    3    3    0    0 -0.14369108385E+01  0.10869329644E+02  0.13467891499E+02  0.17366379627E+02  0.51100000000E-03 0.  1.
         12    1    3    3    0    0 -0.13171680737E+02 -0.10003482289E+02  0.17255928250E+02  0.23902508051E+02  0.00000000000E+00 0. -1.
</event>
<event>
 7    1  0.2746803E-013  0.5052886E+02  0.7816164E-02  0.1300439E+00
        -11   -1    0    0    0    0  0.00000000000E+00  0.00000000000E+00  0.45593999997E+02  0.45594000000E+02  0.51100000000E-03 0.  1.
         11   -1    0    0    0    0 -0.00000000000E+00 -0.00000000000E+00 -0.45593999997E+02  0.45594000000E+02  0.51100000000E-03 0. -1.
    9900012    2    1    2    0    0  0.36625770607E+01  0.43898012152E+01  0.40255195537E+02  0.50528860890E+02  0.30000003162E+02 0.  0.
         12    1    1    2    0    0 -0.36625770607E+01 -0.43898012152E+01 -0.40255195537E+02  0.40659139110E+02  0.00000000000E+00 0. -1.
         11    1    3    3    0    0  0.15288786423E+01 -0.42697918219E+01  0.11324954933E+02  0.12199311317E+02  0.51100000000E-03 0.  1.
        -11    1    3    3    0    0 -0.21628905711E+00  0.13506430587E+02  0.60098820286E+01  0.14784760073E+02  0.51100000000E-03 0. -1.
         12    1    3    3    0    0  0.23499874756E+01 -0.48468375503E+01  0.22920358575E+02  0.23544789500E+02  0.00000000000E+00 0. -1.
</event>
<event>
 7    1  0.2746803E-013  0.5052885E+02  0.7816164E-02  0.1300439E+00
        -11   -1    0    0    0    0  0.00000000000E+00  0.00000000000E+00  0.45593999997E+02  0.45594000000E+02  0.51100000000E-03 0.  1.
         11   -1    0    0    0    0 -0.00000000000E+00 -0.00000000000E+00 -0.45593999997E+02  0.45594000000E+02  0.51100000000E-03 0. -1.
    9900012    2    1    2    0    0  0.27755411088E+02  0.27506931964E+02  0.11232643762E+02  0.50528850518E+02  0.29999971634E+02 0.  0.
         12    1    1    2    0    0 -0.27755411088E+02 -0.27506931964E+02 -0.11232643762E+02  0.40659149482E+02  0.00000000000E+00 0. -1.
         11    1    3    3    0    0  0.12368395662E+02  0.25094359494E+01  0.78222851897E+01  0.14847983900E+02  0.51100000000E-03 0. -1.
        -11    1    3    3    0    0  0.92768437504E+01  0.13442022568E+02  0.11799580109E+02  0.20148893064E+02  0.51100000000E-03 0.  1.
        -12    1    3    3    0    0  0.61101716754E+01  0.11555473446E+02 -0.83892215372E+01  0.15531973554E+02  0.00000000000E+00 0.  1.
</event>
<event>
 7    1  0.2746803E-013  0.5052888E+02  0.7816164E-02  0.1300439E+00
        -11   -1    0    0    0    0  0.00000000000E+00  0.00000000000E+00  0.45593999997E+02  0.45594000000E+02  0.51100000000E-03 0.  1.
         11   -1    0    0    0    0 -0.00000000000E+00 -0.00000000000E+00 -0.45593999997E+02  0.45594000000E+02  0.51100000000E-03 0. -1.
    9900012    2    1    2    0    0 -0.31634210897E+02  0.15059116859E+02  0.20631613696E+02  0.50528883146E+02  0.30000070809E+02 0.  0.
         12    1    1    2    0    0  0.31634210897E+02 -0.15059116859E+02 -0.20631613696E+02  0.40659116854E+02  0.00000000000E+00 0. -1.
         11    1    3    3    0    0 -0.86265039562E+01 -0.47426888976E+01  0.37831629301E+01  0.10546183694E+02  0.51100000000E-03 0. -1.
        -11    1    3    3    0    0 -0.23099948509E+02  0.12105910996E+02  0.18669774988E+02  0.32073683925E+02  0.51100000000E-03 0.  1.
         12    1    3    3    0    0  0.92241568124E-01  0.76958947611E+01 -0.18213242219E+01  0.79090155268E+01  0.00000000000E+00 0. -1.
</event>
<event>
 7    1  0.2746803E-013  0.5052886E+02  0.7816164E-02  0.1300439E+00
        -11   -1    0    0    0    0  0.00000000000E+00  0.00000000000E+00  0.45593999997E+02  0.45594000000E+02  0.51100000000E-03 0.  1.
         11   -1    0    0    0    0 -0.00000000000E+00 -0.00000000000E+00 -0.45593999997E+02  0.45594000000E+02  0.51100000000E-03 0. -1.
    9900012    2    1    2    0    0 -0.29307074553E+02 -0.25499336365E+02 -0.12001886812E+02  0.50528855137E+02  0.29999985676E+02 0.  0.
         12    1    1    2    0    0  0.29307074553E+02  0.25499336365E+02  0.12001886812E+02  0.40659144863E+02  0.00000000000E+00 0. -1.
         11    1    3    3    0    0 -0.19898768306E+02 -0.86376736327E+01 -0.14627423198E+02  0.26163560453E+02  0.51100000000E-03 0. -1.
        -11    1    3    3    0    0 -0.36323198955E+01 -0.14340336478E+01 -0.48904116857E+01  0.62583006514E+01  0.51100000000E-03 0.  1.
        -12    1    3    3    0    0 -0.57759863514E+01 -0.15427629084E+02  0.75159480719E+01  0.18106994033E+02  0.00000000000E+00 0.  1.
</event>
<event>
 7    1  0.2746803E-013  0.5052886E+02  0.7816164E-02  0.1300439E+00
        -11   -1    0    0    0    0  0.00000000000E+00  0.00000000000E+00  0.45593999997E+02  0.45594000000E+02  0.51100000000E-03 0. -1.
         11   -1    0    0    0    0 -0.00000000000E+00 -0.00000000000E+00 -0.45593999997E+02  0.45594000000E+02  0.51100000000E-03 0.  1.
    9900012    2    1    2    0    0  0.14063192640E+02  0.78279537679E+01 -0.37337859746E+02  0.50528855667E+02  0.29999987287E+02 0.  0.
         12    1    1    2    0    0 -0.14063192640E+02 -0.78279537679E+01  0.37337859746E+02  0.40659144333E+02  0.00000000000E+00 0. -1.
         11    1    3    3    0    0  0.66909393388E+00 -0.43623386097E+01 -0.13345595527E+02  0.14056407972E+02  0.51100000000E-03 0. -1.
        -11    1    3    3    0    0  0.18536080690E+02  0.65524019566E+01 -0.15344032026E+02  0.24939117422E+02  0.51100000000E-03 0.  1.
         12    1    3    3    0    0 -0.51419819835E+01  0.56378904209E+01 -0.86482321934E+01  0.11533330273E+02  0.00000000000E+00 0. -1.
</event>
<event>
 7    1  0.2746803E-013  0.5052886E+02  0.7816164E-02  0.1300439E+00
        -11   -1    0    0    0    0  0.00000000000E+00  0.00000000000E+00  0.45593999997E+02  0.45594000000E+02  0.51100000000E-03 0. -1.
         11   -1    0    0    0    0 -0.00000000000E+00 -0.00000000000E+00 -0.45593999997E+02  0.45594000000E+02  0.51100000000E-03 0.  1.
    9900012    2    1    2    0    0  0.78891947151E+01 -0.11898758657E+02 -0.38070278359E+02  0.50528856561E+02  0.29999990004E+02 0.  0.
         12    1    1    2    0    0 -0.78891947151E+01  0.11898758657E+02  0.38070278359E+02  0.40659143439E+02  0.00000000000E+00 0. -1.
         11    1    3    3    0    0 -0.56496989926E+01 -0.84464186845E+00 -0.11594051840E+01  0.58289569594E+01  0.51100000000E-03 0. -1.
        -11    1    3    3    0    0 -0.25776235659E+01  0.14435519210E+00 -0.15265513706E+02  0.15482276662E+02  0.51100000000E-03 0.  1.
        -12    1    3    3    0    0  0.16116517274E+02 -0.11198471980E+02 -0.21645359469E+02  0.29217622940E+02  0.00000000000E+00 0.  1.
</event>
<event>
 7    1  0.2746803E-013  0.5052889E+02  0.7816164E-02  0.1300439E+00
        -11   -1    0    0    0    0  0.00000000000E+00  0.00000000000E+00  0.45593999997E+02  0.45594000000E+02  0.51100000000E-03 0.  1.
         11   -1    0    0    0    0 -0.00000000000E+00 -0.00000000000E+00 -0.45593999997E+02  0.45594000000E+02  0.51100000000E-03 0. -1.
    9900012    2    1    2    0    0 -0.18326255006E+02  0.28809359728E+02  0.22075597339E+02  0.50528894889E+02  0.30000106506E+02 0.  0.
         12    1    1    2    0    0  0.18326255006E+02 -0.28809359728E+02 -0.22075597339E+02  0.40659105111E+02  0.00000000000E+00 0. -1.
         11    1    3    3    0    0 -0.71796332155E+01  0.16216766564E+02  0.99082420493E+01  0.20315115349E+02  0.51100000000E-03 0.  1.
        -11    1    3    3    0    0  0.40806977561E+01  0.11320447747E+02  0.77292192899E+01  0.14301939115E+02  0.51100000000E-03 0. -1.
         12    1    3    3    0    0 -0.15227319547E+02  0.12721454176E+01  0.44381360001E+01  0.15911840424E+02  0.00000000000E+00 0. -1.
</event>
<event>
 7    1  0.2746803E-013  0.5052885E+02  0.7816164E-02  0.1300439E+00
        -11   -1    0    0    0    0  0.00000000000E+00  0.00000000000E+00  0.45593999997E+02  0.45594000000E+02  0.51100000000E-03 0.  1.
         11   -1    0    0    0    0 -0.00000000000E+00 -0.00000000000E+00 -0.45593999997E+02  0.45594000000E+02  0.51100000000E-03 0. -1.
    9900012    2    1    2    0    0  0.29979698965E+02 -0.59935768183E+01  0.26804124418E+02  0.50528850982E+02  0.29999973044E+02 0.  0.
         12    1    1    2    0    0 -0.29979698965E+02  0.59935768183E+01 -0.26804124418E+02  0.40659149018E+02  0.00000000000E+00 0. -1.
         11    1    3    3    0    0  0.34609642557E+01 -0.84932928258E+01  0.25137783445E+01  0.95096465986E+01  0.51100000000E-03 0. -1.
        -11    1    3    3    0    0  0.20732227304E+02 -0.67753300529E+01  0.13456720900E+02  0.25628376538E+02  0.51100000000E-03 0.  1.
        -12    1    3    3    0    0  0.57865074048E+01  0.92750460604E+01  0.10833625173E+02  0.15390827845E+02  0.00000000000E+00 0.  1.
</event>
<event>
 7    1  0.2746803E-013  0.5052886E+02  0.7816164E-02  0.1300439E+00
        -11   -1    0    0    0    0  0.00000000000E+00  0.00000000000E+00  0.45593999997E+02  0.45594000000E+02  0.51100000000E-03 0.  1.
         11   -1    0    0    0    0 -0.00000000000E+00 -0.00000000000E+00 -0.45593999997E+02  0.45594000000E+02  0.51100000000E-03 0. -1.
    9900012    2    1    2    0    0  0.10664507127E+02  0.35404913096E+02  0.16909344315E+02  0.50528861928E+02  0.30000006318E+02 0.  0.
         12    1    1    2    0    0 -0.10664507127E+02 -0.35404913096E+02 -0.16909344315E+02  0.40659138072E+02  0.00000000000E+00 0. -1.
         11    1    3    3    0    0  0.11479899301E+02  0.84925696141E+01 -0.42514663563E+01  0.14899221223E+02  0.51100000000E-03 0. -1.
        -11    1    3    3    0    0 -0.47186025097E+01  0.85102820617E+01  0.88056040186E+01  0.13123596032E+02  0.51100000000E-03 0.  1.
        -12    1    3    3    0    0  0.39032103355E+01  0.18402061420E+02  0.12355206652E+02  0.22506044673E+02  0.00000000000E+00 0.  1.
</event>
<event>
 7    1  0.2746803E-013  0.5052885E+02  0.7816164E-02  0.1300439E+00
        -11   -1    0    0    0    0  0.00000000000E+00  0.00000000000E+00  0.45593999997E+02  0.45594000000E+02  0.51100000000E-03 0.  1.
         11   -1    0    0    0    0 -0.00000000000E+00 -0.00000000000E+00 -0.45593999997E+02  0.45594000000E+02  0.51100000000E-03 0. -1.
    9900012    2    1    2    0    0 -0.29814453548E+02 -0.27350073955E+02  0.40296948414E+01  0.50528848186E+02  0.29999964547E+02 0.  0.
         12    1    1    2    0    0  0.29814453548E+02  0.27350073955E+02 -0.40296948414E+01  0.40659151814E+02  0.00000000000E+00 0. -1.
         11    1    3    3    0    0  0.18254187564E+01  0.68784258115E+00  0.10912633575E+00  0.19537630028E+01  0.51100000000E-03 0. -1.
        -11    1    3    3    0    0 -0.18907530631E+02 -0.10898711444E+02 -0.90136722645E+01  0.23611923124E+02  0.51100000000E-03 0.  1.
         12    1    3    3    0    0 -0.12732341673E+02 -0.17139205093E+02  0.12934240770E+02  0.24963162059E+02  0.00000000000E+00 0. -1.
</event>
<event>
 7    1  0.2746803E-013  0.5052887E+02  0.7816164E-02  0.1300439E+00
        -11   -1    0    0    0    0  0.00000000000E+00  0.00000000000E+00  0.45593999997E+02  0.45594000000E+02  0.51100000000E-03 0.  1.
         11   -1    0    0    0    0 -0.00000000000E+00 -0.00000000000E+00 -0.45593999997E+02  0.45594000000E+02  0.51100000000E-03 0. -1.
    9900012    2    1    2    0    0  0.27397460588E+02 -0.17032974192E+02  0.24747163777E+02  0.50528866075E+02  0.30000018922E+02 0.  0.
         12    1    1    2    0    0 -0.27397460588E+02  0.17032974192E+02 -0.24747163777E+02  0.40659133925E+02  0.00000000000E+00 0. -1.
         11    1    3    3    0    0  0.21283630393E+00 -0.48703234290E+00 -0.15905373794E+01  0.16769941001E+01  0.51100000000E-03 0. -1.
        -11    1    3    3    0    0  0.38017131262E+01 -0.13034337766E+02  0.20344460496E+02  0.24459028126E+02  0.51100000000E-03 0.  1.
        -12    1    3    3    0    0  0.23382911158E+02 -0.35116040834E+01  0.59932406602E+01  0.24392843849E+02  0.00000000000E+00 0.  1.
</event>
<event>
 7    1  0.2746803E-013  0.5052886E+02  0.7816164E-02  0.1300439E+00
        -11   -1    0    0    0    0  0.00000000000E+00  0.00000000000E+00  0.45593999997E+02  0.45594000000E+02  0.51100000000E-03 0.  1.
         11   -1    0    0    0    0 -0.00000000000E+00 -0.00000000000E+00 -0.45593999997E+02  0.45594000000E+02  0.51100000000E-03 0. -1.
    9900012    2    1    2    0    0  0.15344928216E+02  0.27401131770E+02  0.25823959833E+02  0.50528859014E+02  0.29999997460E+02 0.  0.
         12    1    1    2    0    0 -0.15344928216E+02 -0.27401131770E+02 -0.25823959833E+02  0.40659140986E+02  0.00000000000E+00 0. -1.
         11    1    3    3    0    0 -0.33633195007E+01 -0.36721121389E+01  0.46936156323E+01  0.68429784151E+01  0.51100000000E-03 0. -1.
        -11    1    3    3    0    0  0.47145192609E+01  0.37196838996E+01  0.86329785393E+01  0.10516228359E+02  0.51100000000E-03 0.  1.
        -12    1    3    3    0    0  0.13993728456E+02  0.27353560009E+02  0.12497365662E+02  0.33169652240E+02  0.00000000000E+00 0.  1.
</event>
<event>
 7    1  0.2746803E-013  0.5052886E+02  0.7816164E-02  0.1300439E+00
        -11   -1    0    0    0    0  0.00000000000E+00  0.00000000000E+00  0.45593999997E+02  0.45594000000E+02  0.51100000000E-03 0.  1.
         11   -1    0    0    0    0 -0.00000000000E+00 -0.00000000000E+00 -0.45593999997E+02  0.45594000000E+02  0.51100000000E-03 0. -1.
    9900012    2    1    2    0    0 -0.14983662426E+02  0.13430883559E+02  0.35330815668E+02  0.50528864389E+02  0.30000013797E+02 0.  0.
         12    1    1    2    0    0  0.14983662426E+02 -0.13430883559E+02 -0.35330815668E+02  0.40659135611E+02  0.00000000000E+00 0. -1.
         11    1    3    3    0    0 -0.81363825650E+01 -0.37922784138E+01  0.45279280980E+01  0.10054065344E+02  0.51100000000E-03 0. -1.
        -11    1    3    3    0    0 -0.13187335028E+02  0.12077338403E+02  0.18690021542E+02  0.25866673802E+02  0.51100000000E-03 0.  1.
        -12    1    3    3    0    0  0.63400551674E+01  0.51458235694E+01  0.12112866028E+02  0.14608125244E+02  0.00000000000E+00 0.  1.
</event>
<event>
 7    1  0.2746803E-013  0.5052886E+02  0.7816164E-02  0.1300439E+00
        -11   -1    0    0    0    0  0.00000000000E+00  0.00000000000E+00  0.45593999997E+02  0.45594000000E+02  0.51100000000E-03 0.  1.
         11   -1    0    0    0    0 -0.00000000000E+00 -0.00000000000E+00 -0.45593999997E+02  0.45594000000E+02  0.51100000000E-03 0. -1.
    9900012    2    1    2    0    0 -0.20393230559E+02 -0.32426175792E+02  0.13631771800E+02  0.50528856729E+02  0.29999990514E+02 0.  0.
         12    1    1    2    0    0  0.20393230559E+02  0.32426175792E+02 -0.13631771800E+02  0.40659143271E+02  0.00000000000E+00 0. -1.
         11    1    3    3    0    0  0.15780562654E+01  0.32739229829E+01  0.14676291386E+01  0.39195368125E+01  0.51100000000E-03 0. -1.
        -11    1    3    3    0    0 -0.19763343426E+02 -0.17518339533E+02  0.96718414229E+01  0.28125192980E+02  0.51100000000E-03 0.  1.
         12    1    3    3    0    0 -0.22079433987E+01 -0.18181759241E+02  0.24923012384E+01  0.18484126937E+02  0.00000000000E+00 0. -1.
</event>
<event>
 7    1  0.2746803E-013  0.5052886E+02  0.7816164E-02  0.1300439E+00
        -11   -1    0    0    0    0  0.00000000000E+00  0.00000000000E+00  0.45593999997E+02  0.45594000000E+02  0.51100000000E-03 0.  1.
         11   -1    0    0    0    0 -0.00000000000E+00 -0.00000000000E+00 -0.45593999997E+02  0.45594000000E+02  0.51100000000E-03 0. -1.
    9900012    2    1    2    0    0 -0.32769474700E+02  0.22346277612E+01  0.23965266303E+02  0.50528855613E+02  0.29999987120E+02 0.  0.
         12    1    1    2    0    0  0.32769474700E+02 -0.22346277612E+01 -0.23965266303E+02  0.40659144387E+02  0.00000000000E+00 0. -1.
         11    1    3    3    0    0 -0.30671310080E+01 -0.52871966638E+01  0.22603586931E+01  0.65169749781E+01  0.51100000000E-03 0. -1.
        -11    1    3    3    0    0  0.26192868851E+01  0.43129741761E+01  0.62762531798E+01  0.80531834866E+01  0.51100000000E-03 0.  1.
        -12    1    3    3    0    0 -0.32321630577E+02  0.32088502489E+01  0.15428654430E+02  0.35958697148E+02  0.00000000000E+00 0.  1.
</event>
<event>
 7    1  0.2746803E-013  0.5052887E+02  0.7816164E-02  0.1300439E+00
        -11   -1    0    0    0    0  0.00000000000E+00  0.00000000000E+00  0.45593999997E+02  0.45594000000E+02  0.51100000000E-03 0. -1.
         11   -1    0    0    0    0 -0.00000000000E+00 -0.00000000000E+00 -0.45593999997E+02  0.45594000000E+02  0.51100000000E-03 0.  1.
    9900012    2    1    2    0    0 -0.33881622025E+02  0.10790844028E+02 -0.19716962445E+02  0.50528865307E+02  0.30000016588E+02 0.  0.
         12    1    1    2    0    0  0.33881622025E+02 -0.10790844028E+02  0.19716962445E+02  0.40659134693E+02  0.00000000000E+00 0. -1.
         11    1    3    3    0    0  0.17165102478E+01  0.16444726389E+01  0.48235208901E+00  0.24255641591E+01  0.51100000000E-03 0. -1.
        -11    1    3    3    0    0  0.25035011172E+01  0.24816688256E+00 -0.59543350088E+01  0.64639933713E+01  0.51100000000E-03 0.  1.
        -12    1    3    3    0    0 -0.38101633390E+02  0.88982045061E+01 -0.14244979525E+02  0.41639307777E+02  0.00000000000E+00 0.  1.
</event>
<event>
 7    1  0.2746803E-013  0.5052886E+02  0.7816164E-02  0.1300439E+00
        -11   -1    0    0    0    0  0.00000000000E+00  0.00000000000E+00  0.45593999997E+02  0.45594000000E+02  0.51100000000E-03 0.  1.
         11   -1    0    0    0    0 -0.00000000000E+00 -0.00000000000E+00 -0.45593999997E+02  0.45594000000E+02  0.51100000000E-03 0. -1.
    9900012    2    1    2    0    0  0.37099029584E+02 -0.16592237394E+02  0.12350527994E+01  0.50528859659E+02  0.29999999419E+02 0.  0.
         12    1    1    2    0    0 -0.37099029584E+02  0.16592237394E+02 -0.12350527994E+01  0.40659140341E+02  0.00000000000E+00 0. -1.
         11    1    3    3    0    0 -0.83204976662E+00  0.40940406902E+01 -0.26483421103E+01  0.49464322679E+01  0.51100000000E-03 0. -1.
        -11    1    3    3    0    0  0.55929158568E+01 -0.87103801582E+01  0.40010849373E+01  0.11097752530E+02  0.51100000000E-03 0.  1.
        -12    1    3    3    0    0  0.32338163494E+02 -0.11975897926E+02 -0.11769002756E+00  0.34484674861E+02  0.00000000000E+00 0.  1.
</event>
<event>
 7    1  0.2746803E-013  0.5052886E+02  0.7816164E-02  0.1300439E+00
        -11   -1    0    0    0    0  0.00000000000E+00  0.00000000000E+00  0.45593999997E+02  0.45594000000E+02  0.51100000000E-03 0. -1.
         11   -1    0    0    0    0 -0.00000000000E+00 -0.00000000000E+00 -0.45593999997E+02  0.45594000000E+02  0.51100000000E-03 0.  1.
    9900012    2    1    2    0    0  0.29943774474E+02 -0.19586283094E+02 -0.19310959758E+02  0.50528864717E+02  0.30000014794E+02 0.  0.
         12    1    1    2    0    0 -0.29943774474E+02  0.19586283094E+02  0.19310959758E+02  0.40659135283E+02  0.00000000000E+00 0. -1.
         11    1    3    3    0    0  0.37430383158E+01  0.47440101388E+01  0.37205154562E+01  0.70963514253E+01  0.51100000000E-03 0. -1.
        -11    1    3    3    0    0  0.98070071815E+01 -0.14210059452E+02 -0.81721706459E+01  0.19102030071E+02  0.51100000000E-03 0.  1.
        -12    1    3    3    0    0  0.16393728977E+02 -0.10120233781E+02 -0.14859304568E+02  0.24330483221E+02  0.00000000000E+00 0.  1.
</event>
<event>
 7    1  0.2746803E-013  0.5052887E+02  0.7816164E-02  0.1300439E+00
        -11   -1    0    0    0    0  0.00000000000E+00  0.00000000000E+00  0.45593999997E+02  0.45594000000E+02  0.51100000000E-03 0. -1.
         11   -1    0    0    0    0 -0.00000000000E+00 -0.00000000000E+00 -0.45593999997E+02  0.45594000000E+02  0.51100000000E-03 0.  1.
    9900012    2    1    2    0    0 -0.10144391223E+02  0.24563515539E+02 -0.30771580483E+02  0.50528866533E+02  0.30000020313E+02 0.  0.
         12    1    1    2    0    0  0.10144391223E+02 -0.24563515539E+02  0.30771580483E+02  0.40659133467E+02  0.00000000000E+00 0. -1.
         11    1    3    3    0    0 -0.84558988092E+01  0.17438513900E+02 -0.45028370607E+01  0.19896721679E+02  0.51100000000E-03 0. -1.
        -11    1    3    3    0    0 -0.68454412370E+01  0.11555617155E+01 -0.72277471946E+01  0.10021762239E+02  0.51100000000E-03 0.  1.
         12    1    3    3    0    0  0.51569488237E+01  0.59694399230E+01 -0.19040996228E+02  0.20610382614E+02  0.00000000000E+00 0. -1.
</event>
<event>
 7    1  0.2746803E-013  0.5052888E+02  0.7816164E-02  0.1300439E+00
        -11   -1    0    0    0    0  0.00000000000E+00  0.00000000000E+00  0.45593999997E+02  0.45594000000E+02  0.51100000000E-03 0.  1.
         11   -1    0    0    0    0 -0.00000000000E+00 -0.00000000000E+00 -0.45593999997E+02  0.45594000000E+02  0.51100000000E-03 0. -1.
    9900012    2    1    2    0    0  0.17868581456E+01 -0.65636788797E+01  0.40086026410E+02  0.50528877336E+02  0.30000053151E+02 0.  0.
         12    1    1    2    0    0 -0.17868581456E+01  0.65636788797E+01 -0.40086026410E+02  0.40659122664E+02  0.00000000000E+00 0. -1.
         11    1    3    3    0    0  0.53920883777E+01 -0.61823429118E+01  0.20880977437E+02  0.22434598279E+02  0.51100000000E-03 0. -1.
        -11    1    3    3    0    0 -0.56787183721E+01 -0.88676917985E+01  0.15182168985E+02  0.18476527150E+02  0.51100000000E-03 0.  1.
         12    1    3    3    0    0  0.20734881400E+01  0.84863558306E+01  0.40228799874E+01  0.96177519069E+01  0.00000000000E+00 0. -1.
</event>
<event>
 7    1  0.2746803E-013  0.5052885E+02  0.7816164E-02  0.1300439E+00
        -11   -1    0    0    0    0  0.00000000000E+00  0.00000000000E+00  0.45593999997E+02  0.45594000000E+02  0.51100000000E-03 0. -1.
         11   -1    0    0    0    0 -0.00000000000E+00 -0.00000000000E+00 -0.45593999997E+02  0.45594000000E+02  0.51100000000E-03 0.  1.
    9900012    2    1    2    0    0 -0.33509198976E+02  0.12389385114E+02 -0.19411422842E+02  0.50528848308E+02  0.29999964918E+02 0.  0.
         12    1    1    2    0    0  0.33509198976E+02 -0.12389385114E+02  0.19411422842E+02  0.40659151692E+02  0.00000000000E+00 0. -1.
         11    1    3    3    0    0 -0.64551636108E-02 -0.85966808868E+00 -0.71024965081E+00  0.11151348436E+01  0.51100000000E-03 0. -1.
        -11    1    3    3    0    0 -0.37061380705E+02  0.13441778467E+02 -0.11002576791E+02  0.40930233867E+02  0.51100000000E-03 0.  1.
        -12    1    3    3    0    0  0.35586368924E+01 -0.19272526453E+00 -0.76985963995E+01  0.84834795975E+01  0.00000000000E+00 0.  1.
</event>
<event>
 7    1  0.2746803E-013  0.5052888E+02  0.7816164E-02  0.1300439E+00
        -11   -1    0    0    0    0  0.00000000000E+00  0.00000000000E+00  0.45593999997E+02  0.45594000000E+02  0.51100000000E-03 0. -1.
         11   -1    0    0    0    0 -0.00000000000E+00 -0.00000000000E+00 -0.45593999997E+02  0.45594000000E+02  0.51100000000E-03 0.  1.
    9900012    2    1    2    0    0 -0.26894318879E+02  0.27099609129E+02  0.13981080822E+02  0.50528882648E+02  0.30000069296E+02 0.  0.
         12    1    1    2    0    0  0.26894318879E+02 -0.27099609129E+02 -0.13981080822E+02  0.40659117352E+02  0.00000000000E+00 0. -1.
         11    1    3    3    0    0  0.18166643577E+01 -0.65925461562E+00  0.45589802788E+01  0.49516853172E+01  0.51100000000E-03 0. -1.
        -11    1    3    3    0    0 -0.12183519784E+02  0.13169124078E+02  0.14366285251E+02  0.22983779834E+02  0.51100000000E-03 0.  1.
        -12    1    3    3    0    0 -0.16527463453E+02  0.14589739667E+02 -0.49441847075E+01  0.22593417496E+02  0.00000000000E+00 0.  1.
</event>
<event>
 7    1  0.2746803E-013  0.5052886E+02  0.7816164E-02  0.1300439E+00
        -11   -1    0    0    0    0  0.00000000000E+00  0.00000000000E+00  0.45593999997E+02  0.45594000000E+02  0.51100000000E-03 0.  1.
         11   -1    0    0    0    0 -0.00000000000E+00 -0.00000000000E+00 -0.45593999997E+02  0.45594000000E+02  0.51100000000E-03 0. -1.
    9900012    2    1    2    0    0  0.60163641007E+01 -0.39555962041E+02  0.72315371841E+01  0.50528857117E+02  0.29999991692E+02 0.  0.
         12    1    1    2    0    0 -0.60163641007E+01  0.39555962041E+02 -0.72315371841E+01  0.40659142883E+02  0.00000000000E+00 0. -1.
         11    1    3    3    0    0  0.70254739543E+01 -0.78313270056E+01  0.13590450226E+02  0.17186835210E+02  0.51100000000E-03 0. -1.
        -11    1    3    3    0    0 -0.11260448466E+01 -0.69493019877E+00 -0.13858555491E+01  0.19161160826E+01  0.51100000000E-03 0.  1.
         12    1    3    3    0    0  0.11693499305E+00 -0.31029704836E+02 -0.49730574925E+01  0.31425905824E+02  0.00000000000E+00 0. -1.
</event>
<event>
 7    1  0.2746803E-013  0.5052886E+02  0.7816164E-02  0.1300439E+00
        -11   -1    0    0    0    0  0.00000000000E+00  0.00000000000E+00  0.45593999997E+02  0.45594000000E+02  0.51100000000E-03 0.  1.
         11   -1    0    0    0    0 -0.00000000000E+00 -0.00000000000E+00 -0.45593999997E+02  0.45594000000E+02  0.51100000000E-03 0. -1.
    9900012    2    1    2    0    0 -0.21013562085E+02 -0.22871611817E+02  0.26239007043E+02  0.50528857004E+02  0.29999991350E+02 0.  0.
         12    1    1    2    0    0  0.21013562085E+02  0.22871611817E+02 -0.26239007043E+02  0.40659142996E+02  0.00000000000E+00 0. -1.
         11    1    3    3    0    0  0.21681090245E+01 -0.67779347714E+01  0.15873956097E+02  0.17396079413E+02  0.51100000000E-03 0. -1.
        -11    1    3    3    0    0 -0.10644289955E+02  0.19524833480E+00  0.56142721899E+01  0.12035741898E+02  0.51100000000E-03 0.  1.
        -12    1    3    3    0    0 -0.12537381154E+02 -0.16288925380E+02  0.47507787556E+01  0.21097035693E+02  0.00000000000E+00 0.  1.
</event>
<event>
 7    1  0.2746803E-013  0.5052886E+02  0.7816164E-02  0.1300439E+00
        -11   -1    0    0    0    0  0.00000000000E+00  0.00000000000E+00  0.45593999997E+02  0.45594000000E+02  0.51100000000E-03 0.  1.
         11   -1    0    0    0    0 -0.00000000000E+00 -0.00000000000E+00 -0.45593999997E+02  0.45594000000E+02  0.51100000000E-03 0. -1.
    9900012    2    1    2    0    0  0.18112132958E+02 -0.21583274637E+02  0.29313455804E+02  0.50528858402E+02  0.29999995598E+02 0.  0.
         12    1    1    2    0    0 -0.18112132958E+02  0.21583274637E+02 -0.29313455804E+02  0.40659141598E+02  0.00000000000E+00 0. -1.
         11    1    3    3    0    0  0.21525154567E+01  0.26145078344E+01  0.18089116446E+01  0.38394186547E+01  0.51100000000E-03 0. -1.
        -11    1    3    3    0    0  0.18488791206E+01  0.39728833219E+01  0.93506306364E+01  0.10326492602E+02  0.51100000000E-03 0.  1.
        -12    1    3    3    0    0  0.14110738381E+02 -0.28170665793E+02  0.18153913522E+02  0.36362947145E+02  0.00000000000E+00 0.  1.
</event>
<event>
 7    1  0.2746803E-013  0.5052886E+02  0.7816164E-02  0.1300439E+00
        -11   -1    0    0    0    0  0.00000000000E+00  0.00000000000E+00  0.45593999997E+02  0.45594000000E+02  0.51100000000E-03 0. -1.
         11   -1    0    0    0    0 -0.00000000000E+00 -0.00000000000E+00 -0.45593999997E+02  0.45594000000E+02  0.51100000000E-03 0.  1.
    9900012    2    1    2    0    0  0.26618291179E+02  0.26942641961E+02 -0.14789392765E+02  0.50528861796E+02  0.30000005914E+02 0.  0.
         12    1    1    2    0    0 -0.26618291179E+02 -0.26942641961E+02  0.14789392765E+02  0.40659138204E+02  0.00000000000E+00 0. -1.
         11    1    3    3    0    0  0.31233853681E+01 -0.55378178712E+01 -0.19843893008E+01  0.66603876832E+01  0.51100000000E-03 0. -1.
        -11    1    3    3    0    0  0.16295960024E+02  0.14984581489E+02 -0.11390605051E+02  0.24896623852E+02  0.51100000000E-03 0.  1.
        -12    1    3    3    0    0  0.71989457869E+01  0.17495878343E+02 -0.14143984132E+01  0.18971850261E+02  0.00000000000E+00 0.  1.
</event>
<event>
 7    1  0.2746803E-013  0.5052886E+02  0.7816164E-02  0.1300439E+00
        -11   -1    0    0    0    0  0.00000000000E+00  0.00000000000E+00  0.45593999997E+02  0.45594000000E+02  0.51100000000E-03 0. -1.
         11   -1    0    0    0    0 -0.00000000000E+00 -0.00000000000E+00 -0.45593999997E+02  0.45594000000E+02  0.51100000000E-03 0.  1.
    9900012    2    1    2    0    0  0.12019491681E+02  0.21771972725E+01 -0.38780886667E+02  0.50528861557E+02  0.30000005188E+02 0.  0.
         12    1    1    2    0    0 -0.12019491681E+02 -0.21771972725E+01  0.38780886667E+02  0.40659138443E+02  0.00000000000E+00 0. -1.
         11    1    3    3    0    0  0.84259841664E+01 -0.39264602249E+01 -0.65285618320E+01  0.11359419832E+02  0.51100000000E-03 0. -1.
        -11    1    3    3    0    0 -0.46313997550E+01 -0.31986458178E+01 -0.23015131637E+02  0.23693405903E+02  0.51100000000E-03 0.  1.
         12    1    3    3    0    0  0.82249072697E+01  0.93023033153E+01 -0.92371931984E+01  0.15476035822E+02  0.00000000000E+00 0. -1.
</event>
<event>
 7    1  0.2746803E-013  0.5052888E+02  0.7816164E-02  0.1300439E+00
        -11   -1    0    0    0    0  0.00000000000E+00  0.00000000000E+00  0.45593999997E+02  0.45594000000E+02  0.51100000000E-03 0. -1.
         11   -1    0    0    0    0 -0.00000000000E+00 -0.00000000000E+00 -0.45593999997E+02  0.45594000000E+02  0.51100000000E-03 0.  1.
    9900012    2    1    2    0    0 -0.32014490366E+02  0.23377895716E+02 -0.90393782194E+01  0.50528880972E+02  0.30000064204E+02 0.  0.
         12    1    1    2    0    0  0.32014490366E+02 -0.23377895716E+02  0.90393782194E+01  0.40659119028E+02  0.00000000000E+00 0. -1.
         11    1    3    3    0    0 -0.18013104465E+02  0.58554794270E+01 -0.31960998039E+00  0.18943619574E+02  0.51100000000E-03 0. -1.
        -11    1    3    3    0    0 -0.11765213011E+02  0.25721369822E+01 -0.10984255404E+02  0.16299999782E+02  0.51100000000E-03 0.  1.
         12    1    3    3    0    0 -0.22361728905E+01  0.14950279307E+02  0.22644871649E+01  0.15285261616E+02  0.00000000000E+00 0. -1.
</event>
<event>
 7    1  0.2746803E-013  0.5052889E+02  0.7816164E-02  0.1300439E+00
        -11   -1    0    0    0    0  0.00000000000E+00  0.00000000000E+00  0.45593999997E+02  0.45594000000E+02  0.51100000000E-03 0. -1.
         11   -1    0    0    0    0 -0.00000000000E+00 -0.00000000000E+00 -0.45593999997E+02  0.45594000000E+02  0.51100000000E-03 0.  1.
    9900012    2    1    2    0    0 -0.40635592563E+02 -0.11928991178E+01  0.69930601359E+00  0.50528887612E+02  0.30000084385E+02 0.  0.
         12    1    1    2    0    0  0.40635592563E+02  0.11928991178E+01 -0.69930601359E+00  0.40659112388E+02  0.00000000000E+00 0. -1.
         11    1    3    3    0    0 -0.14449906632E+01  0.42059293275E+01  0.16498711455E+01  0.47434074865E+01  0.51100000000E-03 0. -1.
        -11    1    3    3    0    0 -0.29147757404E+02  0.43805508659E+01 -0.73476559585E+01  0.30377113686E+02  0.51100000000E-03 0.  1.
        -12    1    3    3    0    0 -0.10042844497E+02 -0.97793793112E+01  0.63970908266E+01  0.15408366440E+02  0.00000000000E+00 0.  1.
</event>
<event>
 7    1  0.2746803E-013  0.5052886E+02  0.7816164E-02  0.1300439E+00
        -11   -1    0    0    0    0  0.00000000000E+00  0.00000000000E+00  0.45593999997E+02  0.45594000000E+02  0.51100000000E-03 0.  1.
         11   -1    0    0    0    0 -0.00000000000E+00 -0.00000000000E+00 -0.45593999997E+02  0.45594000000E+02  0.51100000000E-03 0. -1.
    9900012    2    1    2    0    0 -0.22121569873E+02 -0.34090675966E+02 -0.12757067327E+01  0.50528862415E+02  0.30000007798E+02 0.  0.
         12    1    1    2    0    0  0.22121569873E+02  0.34090675966E+02  0.12757067327E+01  0.40659137585E+02  0.00000000000E+00 0. -1.
         11    1    3    3    0    0 -0.24706792827E+02 -0.25865756575E+02 -0.31330916262E+01  0.35906534759E+02  0.51100000000E-03 0. -1.
        -11    1    3    3    0    0 -0.15085302615E+01  0.23021889950E+01 -0.10716136343E+01  0.29536576919E+01  0.51100000000E-03 0.  1.
         12    1    3    3    0    0  0.40937532159E+01 -0.10527108386E+02  0.29289985278E+01  0.11668669964E+02  0.00000000000E+00 0. -1.
</event>
<event>
 7    1  0.2746803E-013  0.5052886E+02  0.7816164E-02  0.1300439E+00
        -11   -1    0    0    0    0  0.00000000000E+00  0.00000000000E+00  0.45593999997E+02  0.45594000000E+02  0.51100000000E-03 0.  1.
         11   -1    0    0    0    0 -0.00000000000E+00 -0.00000000000E+00 -0.45593999997E+02  0.45594000000E+02  0.51100000000E-03 0. -1.
    9900012    2    1    2    0    0  0.26739215940E+02 -0.12430423024E+02  0.27994007963E+02  0.50528861206E+02  0.30000004121E+02 0.  0.
         12    1    1    2    0    0 -0.26739215940E+02  0.12430423024E+02 -0.27994007963E+02  0.40659138794E+02  0.00000000000E+00 0. -1.
         11    1    3    3    0    0  0.17579808721E+01  0.72122901874E+00 -0.22181391149E+01  0.29207549432E+01  0.51100000000E-03 0. -1.
        -11    1    3    3    0    0 -0.14856632039E+01 -0.60131485740E+01  0.15065679030E+02  0.16289255226E+02  0.51100000000E-03 0.  1.
        -12    1    3    3    0    0  0.26466898272E+02 -0.71385034683E+01  0.15146468048E+02  0.31318851036E+02  0.00000000000E+00 0.  1.
</event>
<event>
 7    1  0.2746803E-013  0.5052886E+02  0.7816164E-02  0.1300439E+00
        -11   -1    0    0    0    0  0.00000000000E+00  0.00000000000E+00  0.45593999997E+02  0.45594000000E+02  0.51100000000E-03 0.  1.
         11   -1    0    0    0    0 -0.00000000000E+00 -0.00000000000E+00 -0.45593999997E+02  0.45594000000E+02  0.51100000000E-03 0. -1.
    9900012    2    1    2    0    0 -0.53083191653E+01 -0.39655132249E+02  0.72427652864E+01  0.50528863081E+02  0.30000009820E+02 0.  0.
         12    1    1    2    0    0  0.53083191653E+01  0.39655132249E+02 -0.72427652864E+01  0.40659136919E+02  0.00000000000E+00 0. -1.
         11    1    3    3    0    0  0.24802450911E+01 -0.33728749837E+01  0.63057347923E+01  0.75690285308E+01  0.51100000000E-03 0. -1.
        -11    1    3    3    0    0  0.41495057497E+01 -0.11865704353E+01  0.38385999173E+01  0.57759152479E+01  0.51100000000E-03 0.  1.
         12    1    3    3    0    0 -0.11938070006E+02 -0.35095686830E+02 -0.29015694232E+01  0.37183919302E+02  0.00000000000E+00 0. -1.
</event>
<event>
 7    1  0.2746803E-013  0.5052885E+02  0.7816164E-02  0.1300439E+00
        -11   -1    0    0    0    0  0.00000000000E+00  0.00000000000E+00  0.45593999997E+02  0.45594000000E+02  0.51100000000E-03 0.  1.
         11   -1    0    0    0    0 -0.00000000000E+00 -0.00000000000E+00 -0.45593999997E+02  0.45594000000E+02  0.51100000000E-03 0. -1.
    9900012    2    1    2    0    0  0.26494102212E+02 -0.10883590015E+02  0.28857864549E+02  0.50528851829E+02  0.29999975621E+02 0.  0.
         12    1    1    2    0    0 -0.26494102212E+02  0.10883590015E+02 -0.28857864549E+02  0.40659148171E+02  0.00000000000E+00 0. -1.
         11    1    3    3    0    0 -0.33786831177E+00 -0.71530892847E+01  0.28115540372E+01  0.76932228407E+01  0.51100000000E-03 0. -1.
        -11    1    3    3    0    0  0.80807646646E+01 -0.11092678611E+02  0.12470101868E+02  0.18543185196E+02  0.51100000000E-03 0.  1.
        -12    1    3    3    0    0  0.18751205859E+02  0.73621778807E+01  0.13576208644E+02  0.24292443793E+02  0.00000000000E+00 0.  1.
</event>
<event>
 7    1  0.2746803E-013  0.5052886E+02  0.7816164E-02  0.1300439E+00
        -11   -1    0    0    0    0  0.00000000000E+00  0.00000000000E+00  0.45593999997E+02  0.45594000000E+02  0.51100000000E-03 0. -1.
         11   -1    0    0    0    0 -0.00000000000E+00 -0.00000000000E+00 -0.45593999997E+02  0.45594000000E+02  0.51100000000E-03 0.  1.
    9900012    2    1    2    0    0 -0.76532286295E+01  0.39134212471E+02  0.79440031927E+01  0.50528859811E+02  0.29999999880E+02 0.  0.
         12    1    1    2    0    0  0.76532286295E+01 -0.39134212471E+02 -0.79440031927E+01  0.40659140189E+02  0.00000000000E+00 0. -1.
         11    1    3    3    0    0  0.24548325841E+01  0.15140346737E+02 -0.53197634559E+01  0.16234413627E+02  0.51100000000E-03 0. -1.
        -11    1    3    3    0    0  0.21022859739E+01  0.10483964057E+02 -0.15698570077E+01  0.10807291980E+02  0.51100000000E-03 0.  1.
        -12    1    3    3    0    0 -0.12210347187E+02  0.13509901678E+02  0.14833623656E+02  0.23487154203E+02  0.00000000000E+00 0.  1.
</event>
<event>
 7    1  0.2746803E-013  0.5052886E+02  0.7816164E-02  0.1300439E+00
        -11   -1    0    0    0    0  0.00000000000E+00  0.00000000000E+00  0.45593999997E+02  0.45594000000E+02  0.51100000000E-03 0. -1.
         11   -1    0    0    0    0 -0.00000000000E+00 -0.00000000000E+00 -0.45593999997E+02  0.45594000000E+02  0.51100000000E-03 0.  1.
    9900012    2    1    2    0    0  0.30362960595E+02 -0.18536753962E+02 -0.19688705025E+02  0.50528859218E+02  0.29999998080E+02 0.  0.
         12    1    1    2    0    0 -0.30362960595E+02  0.18536753962E+02  0.19688705025E+02  0.40659140782E+02  0.00000000000E+00 0. -1.
         11    1    3    3    0    0  0.85646940577E+01 -0.50250272067E+01  0.56465250749E+01  0.11423140042E+02  0.51100000000E-03 0. -1.
        -11    1    3    3    0    0  0.72694484485E+01  0.25685994872E+01 -0.39649536194E+01  0.86696852040E+01  0.51100000000E-03 0.  1.
         12    1    3    3    0    0  0.14528818089E+02 -0.16080326243E+02 -0.21370276481E+02  0.30436033973E+02  0.00000000000E+00 0. -1.
</event>
<event>
 7    1  0.2746803E-013  0.5052886E+02  0.7816164E-02  0.1300439E+00
        -11   -1    0    0    0    0  0.00000000000E+00  0.00000000000E+00  0.45593999997E+02  0.45594000000E+02  0.51100000000E-03 0.  1.
         11   -1    0    0    0    0 -0.00000000000E+00 -0.00000000000E+00 -0.45593999997E+02  0.45594000000E+02  0.51100000000E-03 0. -1.
    9900012    2    1    2    0    0  0.97271054304E+01  0.28199563115E+02  0.27628501521E+02  0.50528855442E+02  0.29999986600E+02 0.  0.
         12    1    1    2    0    0 -0.97271054304E+01 -0.28199563115E+02 -0.27628501521E+02  0.40659144558E+02  0.00000000000E+00 0. -1.
         11    1    3    3    0    0  0.95514228785E+01  0.73224503926E+01 -0.23903117156E+01  0.12270352445E+02  0.51100000000E-03 0. -1.
        -11    1    3    3    0    0 -0.44449270624E+01  0.78490343404E+01  0.70398595303E+01  0.11442217405E+02  0.51100000000E-03 0.  1.
        -12    1    3    3    0    0  0.46206096144E+01  0.13028078382E+02  0.22978953706E+02  0.26816285592E+02  0.00000000000E+00 0.  1.
</event>
<event>
 7    1  0.2746803E-013  0.5052886E+02  0.7816164E-02  0.1300439E+00
        -11   -1    0    0    0    0  0.00000000000E+00  0.00000000000E+00  0.45593999997E+02  0.45594000000E+02  0.51100000000E-03 0.  1.
         11   -1    0    0    0    0 -0.00000000000E+00 -0.00000000000E+00 -0.45593999997E+02  0.45594000000E+02  0.51100000000E-03 0. -1.
    9900012    2    1    2    0    0 -0.13844173488E+02  0.34876538478E+01  0.38070210769E+02  0.50528858138E+02  0.29999994796E+02 0.  0.
         12    1    1    2    0    0  0.13844173488E+02 -0.34876538478E+01 -0.38070210769E+02  0.40659141862E+02  0.00000000000E+00 0. -1.
         11    1    3    3    0    0 -0.24421210004E+01 -0.38120610033E+01 -0.27383645823E+01  0.52909739103E+01  0.51100000000E-03 0.  1.
        -11    1    3    3    0    0 -0.11597974382E+01  0.72026916864E+00 -0.10004962806E+01  0.16926047506E+01  0.51100000000E-03 0. -1.
        -12    1    3    3    0    0 -0.10242255050E+02  0.65794456824E+01  0.41809071632E+02  0.43545279477E+02  0.00000000000E+00 0.  1.
</event>
<event>
 7    1  0.2746803E-013  0.5052886E+02  0.7816164E-02  0.1300439E+00
        -11   -1    0    0    0    0  0.00000000000E+00  0.00000000000E+00  0.45593999997E+02  0.45594000000E+02  0.51100000000E-03 0.  1.
         11   -1    0    0    0    0 -0.00000000000E+00 -0.00000000000E+00 -0.45593999997E+02  0.45594000000E+02  0.51100000000E-03 0. -1.
    9900012    2    1    2    0    0  0.13732865915E+02  0.32478468019E+02  0.20241616484E+02  0.50528861680E+02  0.30000005562E+02 0.  0.
         12    1    1    2    0    0 -0.13732865915E+02 -0.32478468019E+02 -0.20241616484E+02  0.40659138320E+02  0.00000000000E+00 0. -1.
         11    1    3    3    0    0  0.63219497088E+00  0.51770460354E+01  0.14135783390E+02  0.15067244222E+02  0.51100000000E-03 0. -1.
        -11    1    3    3    0    0  0.12827594930E+02  0.97024258933E+01  0.76162221224E+01  0.17795816913E+02  0.51100000000E-03 0.  1.
         12    1    3    3    0    0  0.27307601352E+00  0.17598996090E+02 -0.15103890284E+01  0.17665800545E+02  0.00000000000E+00 0. -1.
</event>
<event>
 7    1  0.2746803E-013  0.5052887E+02  0.7816164E-02  0.1300439E+00
        -11   -1    0    0    0    0  0.00000000000E+00  0.00000000000E+00  0.45593999997E+02  0.45594000000E+02  0.51100000000E-03 0.  1.
         11   -1    0    0    0    0 -0.00000000000E+00 -0.00000000000E+00 -0.45593999997E+02  0.45594000000E+02  0.51100000000E-03 0. -1.
    9900012    2    1    2    0    0  0.34831628688E+02 -0.81617220408E+01  0.19321202478E+02  0.50528869059E+02  0.30000027991E+02 0.  0.
         12    1    1    2    0    0 -0.34831628688E+02  0.81617220408E+01 -0.19321202478E+02  0.40659130941E+02  0.00000000000E+00 0. -1.
         11    1    3    3    0    0 -0.17685105245E+00 -0.20516613752E+01 -0.51670575356E+01  0.55622904033E+01  0.51100000000E-03 0. -1.
        -11    1    3    3    0    0  0.66064842480E+01 -0.62507565763E+01  0.39458673586E+01  0.99140032967E+01  0.51100000000E-03 0.  1.
        -12    1    3    3    0    0  0.28401995492E+02  0.14069591061E+00  0.20542392655E+02  0.35052575359E+02  0.00000000000E+00 0.  1.
</event>
<event>
 7    1  0.2746803E-013  0.5052887E+02  0.7816164E-02  0.1300439E+00
        -11   -1    0    0    0    0  0.00000000000E+00  0.00000000000E+00  0.45593999997E+02  0.45594000000E+02  0.51100000000E-03 0.  1.
         11   -1    0    0    0    0 -0.00000000000E+00 -0.00000000000E+00 -0.45593999997E+02  0.45594000000E+02  0.51100000000E-03 0. -1.
    9900012    2    1    2    0    0 -0.38391925214E+01 -0.36245135485E+02  0.18019865647E+02  0.50528870601E+02  0.30000032678E+02 0.  0.
         12    1    1    2    0    0  0.38391925214E+01  0.36245135485E+02 -0.18019865647E+02  0.40659129399E+02  0.00000000000E+00 0. -1.
         11    1    3    3    0    0  0.96185921986E+01 -0.16314944655E+02  0.96307260806E+00  0.18963708606E+02  0.51100000000E-03 0. -1.
        -11    1    3    3    0    0 -0.39072578853E+01 -0.42906168604E+01 -0.94222881174E+00  0.58791030455E+01  0.51100000000E-03 0.  1.
         12    1    3    3    0    0 -0.95505268347E+01 -0.15639573970E+02  0.17999021851E+02  0.25686058950E+02  0.00000000000E+00 0. -1.
</event>
<event>
 7    1  0.2746803E-013  0.5052885E+02  0.7816164E-02  0.1300439E+00
        -11   -1    0    0    0    0  0.00000000000E+00  0.00000000000E+00  0.45593999997E+02  0.45594000000E+02  0.51100000000E-03 0.  1.
         11   -1    0    0    0    0 -0.00000000000E+00 -0.00000000000E+00 -0.45593999997E+02  0.45594000000E+02  0.51100000000E-03 0. -1.
    9900012    2    1    2    0    0  0.14710645008E+02  0.99575594853E+01  0.36573357348E+02  0.50528849306E+02  0.29999967951E+02 0.  0.
         12    1    1    2    0    0 -0.14710645008E+02 -0.99575594853E+01 -0.36573357348E+02  0.40659150694E+02  0.00000000000E+00 0. -1.
         11    1    3    3    0    0  0.13246078570E+02 -0.38428573613E+01  0.10502408592E+02  0.17335706985E+02  0.51100000000E-03 0. -1.
        -11    1    3    3    0    0  0.79309653601E+01  0.79388039309E+01  0.10634360850E+02  0.15460092184E+02  0.51100000000E-03 0.  1.
         12    1    3    3    0    0 -0.64663989219E+01  0.58616129158E+01  0.15436587906E+02  0.17733050137E+02  0.00000000000E+00 0. -1.
</event>
<event>
 7    1  0.2746803E-013  0.5052886E+02  0.7816164E-02  0.1300439E+00
        -11   -1    0    0    0    0  0.00000000000E+00  0.00000000000E+00  0.45593999997E+02  0.45594000000E+02  0.51100000000E-03 0. -1.
         11   -1    0    0    0    0 -0.00000000000E+00 -0.00000000000E+00 -0.45593999997E+02  0.45594000000E+02  0.51100000000E-03 0.  1.
    9900012    2    1    2    0    0 -0.24006605996E+02  0.29192597742E+02 -0.14988013475E+02  0.50528862745E+02  0.30000008801E+02 0.  0.
         12    1    1    2    0    0  0.24006605996E+02 -0.29192597742E+02  0.14988013475E+02  0.40659137255E+02  0.00000000000E+00 0. -1.
         11    1    3    3    0    0 -0.45699506932E+01  0.23669394221E+02 -0.83561152199E+01  0.25513708746E+02  0.51100000000E-03 0. -1.
        -11    1    3    3    0    0 -0.23355189665E+00  0.16930525349E+01  0.28001773249E+01  0.32805436571E+01  0.51100000000E-03 0.  1.
        -12    1    3    3    0    0 -0.19203103406E+02  0.38301509858E+01 -0.94320755796E+01  0.21734610342E+02  0.00000000000E+00 0.  1.
</event>
<event>
 7    1  0.2746803E-013  0.5052886E+02  0.7816164E-02  0.1300439E+00
        -11   -1    0    0    0    0  0.00000000000E+00  0.00000000000E+00  0.45593999997E+02  0.45594000000E+02  0.51100000000E-03 0. -1.
         11   -1    0    0    0    0 -0.00000000000E+00 -0.00000000000E+00 -0.45593999997E+02  0.45594000000E+02  0.51100000000E-03 0.  1.
    9900012    2    1    2    0    0 -0.33872721026E+02 -0.17919646840E+02  0.13590096027E+02  0.50528859790E+02  0.29999999817E+02 0.  0.
         12    1    1    2    0    0  0.33872721026E+02  0.17919646840E+02 -0.13590096027E+02  0.40659140210E+02  0.00000000000E+00 0. -1.
         11    1    3    3    0    0 -0.26069980221E+01 -0.55517786394E+01  0.94051059173E+01  0.11228299173E+02  0.51100000000E-03 0. -1.
        -11    1    3    3    0    0 -0.20655268017E+02 -0.16856505289E+02  0.67411867095E+01  0.27499553922E+02  0.51100000000E-03 0.  1.
         12    1    3    3    0    0 -0.10610454987E+02  0.44886370879E+01 -0.25561965995E+01  0.11801006694E+02  0.00000000000E+00 0. -1.
</event>
<event>
 7    1  0.2746803E-013  0.5052886E+02  0.7816164E-02  0.1300439E+00
        -11   -1    0    0    0    0  0.00000000000E+00  0.00000000000E+00  0.45593999997E+02  0.45594000000E+02  0.51100000000E-03 0.  1.
         11   -1    0    0    0    0 -0.00000000000E+00 -0.00000000000E+00 -0.45593999997E+02  0.45594000000E+02  0.51100000000E-03 0. -1.
    9900012    2    1    2    0    0 -0.30296970485E+02  0.25620120975E+02  0.88808134371E+01  0.50528857527E+02  0.29999992939E+02 0.  0.
         12    1    1    2    0    0  0.30296970485E+02 -0.25620120975E+02 -0.88808134371E+01  0.40659142473E+02  0.00000000000E+00 0. -1.
         11    1    3    3    0    0 -0.42633147189E+01  0.10185338476E+02  0.28495538201E+01  0.11403373602E+02  0.51100000000E-03 0. -1.
        -11    1    3    3    0    0 -0.21674681110E+02  0.21927827748E+02  0.45534048607E+01  0.31166567457E+02  0.51100000000E-03 0.  1.
         12    1    3    3    0    0 -0.43589746560E+01 -0.64930452495E+01  0.14778547563E+01  0.79589164680E+01  0.00000000000E+00 0. -1.
</event>
<event>
 7    1  0.2746803E-013  0.5052886E+02  0.7816164E-02  0.1300439E+00
        -11   -1    0    0    0    0  0.00000000000E+00  0.00000000000E+00  0.45593999997E+02  0.45594000000E+02  0.51100000000E-03 0.  1.
         11   -1    0    0    0    0 -0.00000000000E+00 -0.00000000000E+00 -0.45593999997E+02  0.45594000000E+02  0.51100000000E-03 0. -1.
    9900012    2    1    2    0    0 -0.11665525390E+02 -0.38276885845E+02  0.72084159525E+01  0.50528859169E+02  0.29999997929E+02 0.  0.
         12    1    1    2    0    0  0.11665525390E+02  0.38276885845E+02 -0.72084159525E+01  0.40659140831E+02  0.00000000000E+00 0. -1.
         11    1    3    3    0    0 -0.59265940411E+01 -0.10276175639E+02 -0.52636883054E+01  0.12978086051E+02  0.51100000000E-03 0. -1.
        -11    1    3    3    0    0 -0.23810830342E+01 -0.16142930688E+02 -0.41702740873E+01  0.16842059073E+02  0.51100000000E-03 0.  1.
        -12    1    3    3    0    0 -0.33578483149E+01 -0.11857779517E+02  0.16642378345E+02  0.20708714045E+02  0.00000000000E+00 0.  1.
</event>
<event>
 7    1  0.2746803E-013  0.5052887E+02  0.7816164E-02  0.1300439E+00
        -11   -1    0    0    0    0  0.00000000000E+00  0.00000000000E+00  0.45593999997E+02  0.45594000000E+02  0.51100000000E-03 0.  1.
         11   -1    0    0    0    0 -0.00000000000E+00 -0.00000000000E+00 -0.45593999997E+02  0.45594000000E+02  0.51100000000E-03 0. -1.
    9900012    2    1    2    0    0 -0.31583312522E+02 -0.85967895856E+01  0.24119590506E+02  0.50528867358E+02  0.30000022820E+02 0.  0.
         12    1    1    2    0    0  0.31583312522E+02  0.85967895856E+01 -0.24119590506E+02  0.40659132642E+02  0.00000000000E+00 0. -1.
         11    1    3    3    0    0 -0.37523210643E+01  0.16896541510E+01  0.13988469685E+02  0.14581225220E+02  0.51100000000E-03 0. -1.
        -11    1    3    3    0    0 -0.15835636128E+01 -0.75743450320E+01  0.45500409337E+01  0.89767059180E+01  0.51100000000E-03 0.  1.
        -12    1    3    3    0    0 -0.26247427845E+02 -0.27120987047E+01  0.55810798875E+01  0.26970936220E+02  0.00000000000E+00 0.  1.
</event>
<event>
 7    1  0.2746803E-013  0.5052885E+02  0.7816164E-02  0.1300439E+00
        -11   -1    0    0    0    0  0.00000000000E+00  0.00000000000E+00  0.45593999997E+02  0.45594000000E+02  0.51100000000E-03 0.  1.
         11   -1    0    0    0    0 -0.00000000000E+00 -0.00000000000E+00 -0.45593999997E+02  0.45594000000E+02  0.51100000000E-03 0. -1.
    9900012    2    1    2    0    0 -0.22443653736E+02  0.19096942852E+02  0.28013486896E+02  0.50528852599E+02  0.29999977960E+02 0.  0.
         12    1    1    2    0    0  0.22443653736E+02 -0.19096942852E+02 -0.28013486896E+02  0.40659147401E+02  0.00000000000E+00 0. -1.
         11    1    3    3    0    0 -0.76006815764E+01  0.12233901426E+01  0.53297778719E+01  0.93634169132E+01  0.51100000000E-03 0. -1.
        -11    1    3    3    0    0 -0.11935736586E+02  0.14511680544E+02  0.76986328056E+00  0.18805407993E+02  0.51100000000E-03 0.  1.
        -12    1    3    3    0    0 -0.29072355733E+01  0.33618721652E+01  0.21913845744E+02  0.22360027692E+02  0.00000000000E+00 0.  1.
</event>
<event>
 7    1  0.2746803E-013  0.5052887E+02  0.7816164E-02  0.1300439E+00
        -11   -1    0    0    0    0  0.00000000000E+00  0.00000000000E+00  0.45593999997E+02  0.45594000000E+02  0.51100000000E-03 0.  1.
         11   -1    0    0    0    0 -0.00000000000E+00 -0.00000000000E+00 -0.45593999997E+02  0.45594000000E+02  0.51100000000E-03 0. -1.
    9900012    2    1    2    0    0 -0.32116121974E+02  0.13666028280E+02  0.20855684389E+02  0.50528865837E+02  0.30000018198E+02 0.  0.
         12    1    1    2    0    0  0.32116121974E+02 -0.13666028280E+02 -0.20855684389E+02  0.40659134163E+02  0.00000000000E+00 0. -1.
         11    1    3    3    0    0  0.35390904687E+01  0.55968628561E+01  0.10262120540E+02  0.12213154933E+02  0.51100000000E-03 0. -1.
        -11    1    3    3    0    0 -0.28216666624E+00 -0.14607796176E+00  0.55456362588E+00  0.63913838464E+00  0.51100000000E-03 0.  1.
         12    1    3    3    0    0 -0.35373045776E+02  0.82152433856E+01  0.10039000223E+02  0.37676572520E+02  0.00000000000E+00 0. -1.
</event>
<event>
 7    1  0.2746803E-013  0.5052886E+02  0.7816164E-02  0.1300439E+00
        -11   -1    0    0    0    0  0.00000000000E+00  0.00000000000E+00  0.45593999997E+02  0.45594000000E+02  0.51100000000E-03 0. -1.
         11   -1    0    0    0    0 -0.00000000000E+00 -0.00000000000E+00 -0.45593999997E+02  0.45594000000E+02  0.51100000000E-03 0.  1.
    9900012    2    1    2    0    0  0.28155102348E+02  0.28180133597E+02 -0.81446964782E+01  0.50528858365E+02  0.29999995487E+02 0.  0.
         12    1    1    2    0    0 -0.28155102348E+02 -0.28180133597E+02  0.81446964782E+01  0.40659141635E+02  0.00000000000E+00 0. -1.
         11    1    3    3    0    0  0.39783101356E+01  0.25277625330E+01 -0.74808007312E+01  0.88418841205E+01  0.51100000000E-03 0. -1.
        -11    1    3    3    0    0  0.25231381128E+02  0.28829831791E+02 -0.98012366953E+00  0.38324175626E+02  0.51100000000E-03 0.  1.
         12    1    3    3    0    0 -0.10545889157E+01 -0.31774607271E+01  0.31622792259E+00  0.33627986191E+01  0.00000000000E+00 0. -1.
</event>
<event>
 7    1  0.2746803E-013  0.5052885E+02  0.7816164E-02  0.1300439E+00
        -11   -1    0    0    0    0  0.00000000000E+00  0.00000000000E+00  0.45593999997E+02  0.45594000000E+02  0.51100000000E-03 0.  1.
         11   -1    0    0    0    0 -0.00000000000E+00 -0.00000000000E+00 -0.45593999997E+02  0.45594000000E+02  0.51100000000E-03 0. -1.
    9900012    2    1    2    0    0 -0.30422456927E+02 -0.10793652061E+02  0.24721193278E+02  0.50528853337E+02  0.29999980204E+02 0.  0.
         12    1    1    2    0    0  0.30422456927E+02  0.10793652061E+02 -0.24721193278E+02  0.40659146663E+02  0.00000000000E+00 0. -1.
         11    1    3    3    0    0 -0.20035118926E+02 -0.38947573382E+01  0.14188834433E+02  0.24857557159E+02  0.51100000000E-03 0. -1.
        -11    1    3    3    0    0 -0.10788445091E+02 -0.10801527675E+02  0.13789557514E+02  0.20572200765E+02  0.51100000000E-03 0.  1.
         12    1    3    3    0    0  0.40110709032E+00  0.39026329531E+01 -0.32571986690E+01  0.50990954133E+01  0.00000000000E+00 0. -1.
</event>
<event>
 7    1  0.2746803E-013  0.5052886E+02  0.7816164E-02  0.1300439E+00
        -11   -1    0    0    0    0  0.00000000000E+00  0.00000000000E+00  0.45593999997E+02  0.45594000000E+02  0.51100000000E-03 0.  1.
         11   -1    0    0    0    0 -0.00000000000E+00 -0.00000000000E+00 -0.45593999997E+02  0.45594000000E+02  0.51100000000E-03 0. -1.
    9900012    2    1    2    0    0 -0.17979022742E+00  0.27568875104E+02  0.29884618276E+02  0.50528860701E+02  0.30000002588E+02 0.  0.
         12    1    1    2    0    0  0.17979022742E+00 -0.27568875104E+02 -0.29884618276E+02  0.40659139299E+02  0.00000000000E+00 0. -1.
         11    1    3    3    0    0  0.26412131368E+01 -0.19622577641E+01 -0.13210431387E+00  0.32930098964E+01  0.51100000000E-03 0. -1.
        -11    1    3    3    0    0  0.43628936021E+01  0.16300483863E+02  0.27064403630E+02  0.31893926677E+02  0.51100000000E-03 0.  1.
        -12    1    3    3    0    0 -0.71838969663E+01  0.13230649005E+02  0.29523189597E+01  0.15341924128E+02  0.00000000000E+00 0.  1.
</event>
<event>
 7    1  0.2746803E-013  0.5052885E+02  0.7816164E-02  0.1300439E+00
        -11   -1    0    0    0    0  0.00000000000E+00  0.00000000000E+00  0.45593999997E+02  0.45594000000E+02  0.51100000000E-03 0.  1.
         11   -1    0    0    0    0 -0.00000000000E+00 -0.00000000000E+00 -0.45593999997E+02  0.45594000000E+02  0.51100000000E-03 0. -1.
    9900012    2    1    2    0    0 -0.40689251043E+01  0.14613347517E+02  0.37723469900E+02  0.50528852709E+02  0.29999978294E+02 0.  0.
         12    1    1    2    0    0  0.40689251043E+01 -0.14613347517E+02 -0.37723469900E+02  0.40659147291E+02  0.00000000000E+00 0. -1.
         11    1    3    3    0    0 -0.14136716899E+02  0.13208253009E+02  0.28445898147E+02  0.34401654522E+02  0.51100000000E-03 0.  1.
        -11    1    3    3    0    0  0.77801210973E+01  0.43748710864E+01  0.84437503771E+01  0.12286850777E+02  0.51100000000E-03 0. -1.
        -12    1    3    3    0    0  0.22876706975E+01 -0.29697765780E+01  0.83382137602E+00  0.38403474101E+01  0.00000000000E+00 0.  1.
</event>
<event>
 7    1  0.2746803E-013  0.5052886E+02  0.7816164E-02  0.1300439E+00
        -11   -1    0    0    0    0  0.00000000000E+00  0.00000000000E+00  0.45593999997E+02  0.45594000000E+02  0.51100000000E-03 0.  1.
         11   -1    0    0    0    0 -0.00000000000E+00 -0.00000000000E+00 -0.45593999997E+02  0.45594000000E+02  0.51100000000E-03 0. -1.
    9900012    2    1    2    0    0  0.82651110924E+00 -0.30523869284E+02  0.26847274773E+02  0.50528857369E+02  0.29999992460E+02 0.  0.
         12    1    1    2    0    0 -0.82651110924E+00  0.30523869284E+02 -0.26847274773E+02  0.40659142631E+02  0.00000000000E+00 0. -1.
         11    1    3    3    0    0 -0.63562221189E+01 -0.18276083755E+02  0.12900442021E+02  0.23255928312E+02  0.51100000000E-03 0. -1.
        -11    1    3    3    0    0 -0.43894316152E+01  0.17809163270E+01  0.53868780359E+01  0.71733693689E+01  0.51100000000E-03 0.  1.
         12    1    3    3    0    0  0.11572164843E+02 -0.14028701857E+02  0.85599547158E+01  0.20099559689E+02  0.00000000000E+00 0. -1.
</event>
<event>
 7    1  0.2746803E-013  0.5052887E+02  0.7816164E-02  0.1300439E+00
        -11   -1    0    0    0    0  0.00000000000E+00  0.00000000000E+00  0.45593999997E+02  0.45594000000E+02  0.51100000000E-03 0. -1.
         11   -1    0    0    0    0 -0.00000000000E+00 -0.00000000000E+00 -0.45593999997E+02  0.45594000000E+02  0.51100000000E-03 0.  1.
    9900012    2    1    2    0    0  0.11965795576E+02 -0.22873543921E+02 -0.31413138755E+02  0.50528873574E+02  0.30000041716E+02 0.  0.
         12    1    1    2    0    0 -0.11965795576E+02  0.22873543921E+02  0.31413138755E+02  0.40659126426E+02  0.00000000000E+00 0. -1.
         11    1    3    3    0    0  0.69177238192E+01 -0.21920981433E+02 -0.12145563957E+02  0.25998058657E+02  0.51100000000E-03 0. -1.
        -11    1    3    3    0    0 -0.26021239147E+01 -0.50004128392E-01  0.10465699204E+01  0.28051485059E+01  0.51100000000E-03 0.  1.
        -12    1    3    3    0    0  0.76501956712E+01 -0.90255835956E+00 -0.20314144718E+02  0.21725666411E+02  0.00000000000E+00 0.  1.
</event>
<event>
 7    1  0.2746803E-013  0.5052882E+02  0.7816164E-02  0.1300439E+00
        -11   -1    0    0    0    0  0.00000000000E+00  0.00000000000E+00  0.45593999997E+02  0.45594000000E+02  0.51100000000E-03 0.  1.
         11   -1    0    0    0    0 -0.00000000000E+00 -0.00000000000E+00 -0.45593999997E+02  0.45594000000E+02  0.51100000000E-03 0. -1.
    9900012    2    1    2    0    0 -0.33686595276E+02 -0.22552913129E+02  0.31221719714E+01  0.50528824532E+02  0.29999892649E+02 0.  0.
         12    1    1    2    0    0  0.33686595276E+02  0.22552913129E+02 -0.31221719714E+01  0.40659175468E+02  0.00000000000E+00 0. -1.
         11    1    3    3    0    0 -0.32290003576E+00 -0.65193508429E+01 -0.44663210226E+01  0.79091228075E+01  0.51100000000E-03 0. -1.
        -11    1    3    3    0    0 -0.64806570482E+01 -0.12932799003E+02  0.55070648601E+01  0.15478500233E+02  0.51100000000E-03 0.  1.
         12    1    3    3    0    0 -0.26883038192E+02 -0.31007632834E+01  0.20814281339E+01  0.27141201492E+02  0.00000000000E+00 0. -1.
</event>
<event>
 7    1  0.2746803E-013  0.5052886E+02  0.7816164E-02  0.1300439E+00
        -11   -1    0    0    0    0  0.00000000000E+00  0.00000000000E+00  0.45593999997E+02  0.45594000000E+02  0.51100000000E-03 0.  1.
         11   -1    0    0    0    0 -0.00000000000E+00 -0.00000000000E+00 -0.45593999997E+02  0.45594000000E+02  0.51100000000E-03 0. -1.
    9900012    2    1    2    0    0  0.25700384845E+01 -0.19121224990E+02  0.35790213092E+02  0.50528859624E+02  0.29999999313E+02 0.  0.
         12    1    1    2    0    0 -0.25700384845E+01  0.19121224990E+02 -0.35790213092E+02  0.40659140376E+02  0.00000000000E+00 0. -1.
         11    1    3    3    0    0 -0.11236922089E+02 -0.81672145898E+01  0.99286468065E+01  0.17074830596E+02  0.51100000000E-03 0. -1.
        -11    1    3    3    0    0  0.52221119030E+00  0.15833829498E+01  0.70047982386E+01  0.72004864223E+01  0.51100000000E-03 0.  1.
         12    1    3    3    0    0  0.13284749384E+02 -0.12537393350E+02  0.18856768047E+02  0.26253542606E+02  0.00000000000E+00 0. -1.
</event>
<event>
 7    1  0.2746803E-013  0.5052884E+02  0.7816164E-02  0.1300439E+00
        -11   -1    0    0    0    0  0.00000000000E+00  0.00000000000E+00  0.45593999997E+02  0.45594000000E+02  0.51100000000E-03 0.  1.
         11   -1    0    0    0    0 -0.00000000000E+00 -0.00000000000E+00 -0.45593999997E+02  0.45594000000E+02  0.51100000000E-03 0. -1.
    9900012    2    1    2    0    0 -0.33434630368E+02 -0.21846173858E+02  0.76182146643E+01  0.50528843408E+02  0.29999950023E+02 0.  0.
         12    1    1    2    0    0  0.33434630368E+02  0.21846173858E+02 -0.76182146643E+01  0.40659156592E+02  0.00000000000E+00 0. -1.
         11    1    3    3    0    0  0.21722826606E+01 -0.33117595222E+00  0.48388486900E+00  0.22500298435E+01  0.51100000000E-03 0. -1.
        -11    1    3    3    0    0 -0.30649471631E+02 -0.65419159935E+01  0.10010132229E+01  0.31355841623E+02  0.51100000000E-03 0.  1.
         12    1    3    3    0    0 -0.49574413974E+01 -0.14973081912E+02  0.61333165724E+01  0.16922971942E+02  0.00000000000E+00 0. -1.
</event>
<event>
 7    1  0.2746803E-013  0.5052886E+02  0.7816164E-02  0.1300439E+00
        -11   -1    0    0    0    0  0.00000000000E+00  0.00000000000E+00  0.45593999997E+02  0.45594000000E+02  0.51100000000E-03 0.  1.
         11   -1    0    0    0    0 -0.00000000000E+00 -0.00000000000E+00 -0.45593999997E+02  0.45594000000E+02  0.51100000000E-03 0. -1.
    9900012    2    1    2    0    0  0.63872456480E+01  0.31631263142E+01  0.40029534431E+02  0.50528857095E+02  0.29999991626E+02 0.  0.
         12    1    1    2    0    0 -0.63872456480E+01 -0.31631263142E+01 -0.40029534431E+02  0.40659142905E+02  0.00000000000E+00 0. -1.
         11    1    3    3    0    0  0.14004565542E+01  0.12921611311E+02  0.20361722632E+02  0.24156346293E+02  0.51100000000E-03 0. -1.
        -11    1    3    3    0    0  0.27948931893E+01  0.15871215725E+01  0.12194740234E+02  0.12611188384E+02  0.51100000000E-03 0.  1.
        -12    1    3    3    0    0  0.21918959045E+01 -0.11345606569E+02  0.74730715642E+01  0.13761322417E+02  0.00000000000E+00 0.  1.
</event>
<event>
 7    1  0.2746803E-013  0.5052887E+02  0.7816164E-02  0.1300439E+00
        -11   -1    0    0    0    0  0.00000000000E+00  0.00000000000E+00  0.45593999997E+02  0.45594000000E+02  0.51100000000E-03 0. -1.
         11   -1    0    0    0    0 -0.00000000000E+00 -0.00000000000E+00 -0.45593999997E+02  0.45594000000E+02  0.51100000000E-03 0.  1.
    9900012    2    1    2    0    0  0.34725887091E+02 -0.15823068581E+02 -0.14032384363E+02  0.50528873786E+02  0.30000042359E+02 0.  0.
         12    1    1    2    0    0 -0.34725887091E+02  0.15823068581E+02  0.14032384363E+02  0.40659126214E+02  0.00000000000E+00 0. -1.
         11    1    3    3    0    0 -0.25601185516E+01  0.13652735218E+01 -0.34773759752E+00  0.29221739315E+01  0.51100000000E-03 0. -1.
        -11    1    3    3    0    0  0.67288199669E+01 -0.95319638039E+01 -0.10925328484E+02  0.15984309646E+02  0.51100000000E-03 0.  1.
        -12    1    3    3    0    0  0.30557185676E+02 -0.76563782991E+01 -0.27593182812E+01  0.31622390208E+02  0.00000000000E+00 0.  1.
</event>
<event>
 7    1  0.2746803E-013  0.5052884E+02  0.7816164E-02  0.1300439E+00
        -11   -1    0    0    0    0  0.00000000000E+00  0.00000000000E+00  0.45593999997E+02  0.45594000000E+02  0.51100000000E-03 0.  1.
         11   -1    0    0    0    0 -0.00000000000E+00 -0.00000000000E+00 -0.45593999997E+02  0.45594000000E+02  0.51100000000E-03 0. -1.
    9900012    2    1    2    0    0  0.18814758687E+02  0.33717296735E+02  0.12740341972E+02  0.50528836738E+02  0.29999929750E+02 0.  0.
         12    1    1    2    0    0 -0.18814758687E+02 -0.33717296735E+02 -0.12740341972E+02  0.40659163262E+02  0.00000000000E+00 0. -1.
         11    1    3    3    0    0  0.14799932516E+02  0.13427808924E+02  0.51048313170E+01  0.20625308677E+02  0.51100000000E-03 0. -1.
        -11    1    3    3    0    0  0.45952616091E+01  0.41644567271E+01  0.11719549925E+02  0.13259222443E+02  0.51100000000E-03 0.  1.
         12    1    3    3    0    0 -0.58043543804E+00  0.16125031084E+02 -0.40840392705E+01  0.16644305618E+02  0.00000000000E+00 0. -1.
</event>
<event>
 7    1  0.2746803E-013  0.5052886E+02  0.7816164E-02  0.1300439E+00
        -11   -1    0    0    0    0  0.00000000000E+00  0.00000000000E+00  0.45593999997E+02  0.45594000000E+02  0.51100000000E-03 0. -1.
         11   -1    0    0    0    0 -0.00000000000E+00 -0.00000000000E+00 -0.45593999997E+02  0.45594000000E+02  0.51100000000E-03 0.  1.
    9900012    2    1    2    0    0  0.18172138112E+02 -0.33080207105E+02 -0.15120814233E+02  0.50528859223E+02  0.29999998094E+02 0.  0.
         12    1    1    2    0    0 -0.18172138112E+02  0.33080207105E+02  0.15120814233E+02  0.40659140777E+02  0.00000000000E+00 0. -1.
         11    1    3    3    0    0  0.13424731789E+01 -0.21743135154E+02 -0.14228205232E+02  0.26019377105E+02  0.51100000000E-03 0.  1.
        -11    1    3    3    0    0  0.98357433397E+01 -0.13380894390E+02 -0.31047147602E+01  0.16894657017E+02  0.51100000000E-03 0. -1.
         12    1    3    3    0    0  0.69939215936E+01  0.20438224397E+01  0.22121057585E+01  0.76148251004E+01  0.00000000000E+00 0. -1.
</event>
<event>
 7    1  0.2746803E-013  0.5052886E+02  0.7816164E-02  0.1300439E+00
        -11   -1    0    0    0    0  0.00000000000E+00  0.00000000000E+00  0.45593999997E+02  0.45594000000E+02  0.51100000000E-03 0.  1.
         11   -1    0    0    0    0 -0.00000000000E+00 -0.00000000000E+00 -0.45593999997E+02  0.45594000000E+02  0.51100000000E-03 0. -1.
    9900012    2    1    2    0    0 -0.17647059255E+02 -0.19527968968E+01  0.36577778375E+02  0.50528856047E+02  0.29999988442E+02 0.  0.
         12    1    1    2    0    0  0.17647059255E+02  0.19527968968E+01 -0.36577778375E+02  0.40659143953E+02  0.00000000000E+00 0. -1.
         11    1    3    3    0    0  0.15326071884E+01 -0.23868346091E+01  0.32955321854E+00  0.28556032341E+01  0.51100000000E-03 0. -1.
        -11    1    3    3    0    0 -0.35349703001E+01 -0.10823192875E+02  0.10325987727E+02  0.15370866658E+02  0.51100000000E-03 0.  1.
        -12    1    3    3    0    0 -0.15644696144E+02  0.11257230588E+02  0.25922237430E+02  0.32302386155E+02  0.00000000000E+00 0.  1.
</event>
<event>
 7    1  0.2746803E-013  0.5052885E+02  0.7816164E-02  0.1300439E+00
        -11   -1    0    0    0    0  0.00000000000E+00  0.00000000000E+00  0.45593999997E+02  0.45594000000E+02  0.51100000000E-03 0. -1.
         11   -1    0    0    0    0 -0.00000000000E+00 -0.00000000000E+00 -0.45593999997E+02  0.45594000000E+02  0.51100000000E-03 0.  1.
    9900012    2    1    2    0    0  0.32927275773E+02  0.54185636653E+01 -0.23229288471E+02  0.50528853859E+02  0.29999981791E+02 0.  0.
         12    1    1    2    0    0 -0.32927275773E+02 -0.54185636653E+01  0.23229288471E+02  0.40659146141E+02  0.00000000000E+00 0. -1.
         11    1    3    3    0    0  0.93357471946E+01 -0.35758565036E+01  0.22200265473E+01  0.10240675932E+02  0.51100000000E-03 0. -1.
        -11    1    3    3    0    0  0.12349750008E+02  0.11029338892E+02 -0.57724601356E+01  0.17535219928E+02  0.51100000000E-03 0.  1.
        -12    1    3    3    0    0  0.11241778570E+02 -0.20349187229E+01 -0.19676854883E+02  0.22752957999E+02  0.00000000000E+00 0.  1.
</event>
<event>
 7    1  0.2746803E-013  0.5052886E+02  0.7816164E-02  0.1300439E+00
        -11   -1    0    0    0    0  0.00000000000E+00  0.00000000000E+00  0.45593999997E+02  0.45594000000E+02  0.51100000000E-03 0. -1.
         11   -1    0    0    0    0 -0.00000000000E+00 -0.00000000000E+00 -0.45593999997E+02  0.45594000000E+02  0.51100000000E-03 0.  1.
    9900012    2    1    2    0    0 -0.14366609252E+00 -0.24823271154E+02 -0.32201717917E+02  0.50528855056E+02  0.29999985429E+02 0.  0.
         12    1    1    2    0    0  0.14366609252E+00  0.24823271154E+02  0.32201717917E+02  0.40659144944E+02  0.00000000000E+00 0. -1.
         11    1    3    3    0    0 -0.36988284492E+01  0.12529215619E+01 -0.19314513821E+01  0.43567934354E+01  0.51100000000E-03 0. -1.
        -11    1    3    3    0    0 -0.32966286541E+01 -0.66308016508E+01 -0.23236684176E+02  0.24388086902E+02  0.51100000000E-03 0.  1.
         12    1    3    3    0    0  0.68517910108E+01 -0.19445391065E+02 -0.70335823597E+01  0.21783974718E+02  0.00000000000E+00 0. -1.
</event>
<event>
 7    1  0.2746803E-013  0.5052887E+02  0.7816164E-02  0.1300439E+00
        -11   -1    0    0    0    0  0.00000000000E+00  0.00000000000E+00  0.45593999997E+02  0.45594000000E+02  0.51100000000E-03 0.  1.
         11   -1    0    0    0    0 -0.00000000000E+00 -0.00000000000E+00 -0.45593999997E+02  0.45594000000E+02  0.51100000000E-03 0. -1.
    9900012    2    1    2    0    0 -0.37344328438E+02 -0.88623071036E+01 -0.13417353069E+02  0.50528871663E+02  0.30000035908E+02 0.  0.
         12    1    1    2    0    0  0.37344328438E+02  0.88623071036E+01  0.13417353069E+02  0.40659128337E+02  0.00000000000E+00 0. -1.
         11    1    3    3    0    0 -0.68332446967E+01  0.64234529770E+01  0.49188816868E+01  0.10590060365E+02  0.51100000000E-03 0. -1.
        -11    1    3    3    0    0 -0.70655941433E+01  0.48285464994E+00 -0.51608836505E+01  0.87630182885E+01  0.51100000000E-03 0.  1.
        -12    1    3    3    0    0 -0.23445489599E+02 -0.15768614731E+02 -0.13175351105E+02  0.31175793010E+02  0.00000000000E+00 0.  1.
</event>
<event>
 7    1  0.2746803E-013  0.5052886E+02  0.7816164E-02  0.1300439E+00
        -11   -1    0    0    0    0  0.00000000000E+00  0.00000000000E+00  0.45593999997E+02  0.45594000000E+02  0.51100000000E-03 0. -1.
         11   -1    0    0    0    0 -0.00000000000E+00 -0.00000000000E+00 -0.45593999997E+02  0.45594000000E+02  0.51100000000E-03 0.  1.
    9900012    2    1    2    0    0 -0.23529826081E+02 -0.98152925962E+01 -0.31672911099E+02  0.50528856113E+02  0.29999988641E+02 0.  0.
         12    1    1    2    0    0  0.23529826081E+02  0.98152925962E+01  0.31672911099E+02  0.40659143887E+02  0.00000000000E+00 0. -1.
         11    1    3    3    0    0 -0.47153466605E+00 -0.82764618309E+01  0.11754709373E+01  0.83728070303E+01  0.51100000000E-03 0. -1.
        -11    1    3    3    0    0 -0.37599487458E+01  0.44410129800E+01 -0.45551310924E+01  0.73897923104E+01  0.51100000000E-03 0.  1.
        -12    1    3    3    0    0 -0.19298342669E+02 -0.59798437453E+01 -0.28293250944E+02  0.34766256772E+02  0.00000000000E+00 0.  1.
</event>
<event>
 7    1  0.2746803E-013  0.5052888E+02  0.7816164E-02  0.1300439E+00
        -11   -1    0    0    0    0  0.00000000000E+00  0.00000000000E+00  0.45593999997E+02  0.45594000000E+02  0.51100000000E-03 0. -1.
         11   -1    0    0    0    0 -0.00000000000E+00 -0.00000000000E+00 -0.45593999997E+02  0.45594000000E+02  0.51100000000E-03 0.  1.
    9900012    2    1    2    0    0 -0.18049817845E+02  0.74370729364E+01 -0.35665922235E+02  0.50528880642E+02  0.30000063199E+02 0.  0.
         12    1    1    2    0    0  0.18049817845E+02 -0.74370729364E+01  0.35665922235E+02  0.40659119358E+02  0.00000000000E+00 0. -1.
         11    1    3    3    0    0  0.16683536081E+01 -0.23538502074E+01 -0.46086568418E+01  0.54372541514E+01  0.51100000000E-03 0.  1.
        -11    1    3    3    0    0 -0.11180769384E+02  0.96055712463E+01 -0.33167403871E+02  0.36295361726E+02  0.51100000000E-03 0. -1.
         12    1    3    3    0    0 -0.85374020689E+01  0.18535189744E+00  0.21101384782E+01  0.87962647646E+01  0.00000000000E+00 0. -1.
</event>
<event>
 7    1  0.2746803E-013  0.5052886E+02  0.7816164E-02  0.1300439E+00
        -11   -1    0    0    0    0  0.00000000000E+00  0.00000000000E+00  0.45593999997E+02  0.45594000000E+02  0.51100000000E-03 0.  1.
         11   -1    0    0    0    0 -0.00000000000E+00 -0.00000000000E+00 -0.45593999997E+02  0.45594000000E+02  0.51100000000E-03 0. -1.
    9900012    2    1    2    0    0  0.21081147203E+02  0.12835825746E+02  0.32310876855E+02  0.50528856463E+02  0.29999989706E+02 0.  0.
         12    1    1    2    0    0 -0.21081147203E+02 -0.12835825746E+02 -0.32310876855E+02  0.40659143537E+02  0.00000000000E+00 0. -1.
         11    1    3    3    0    0 -0.10389327818E+01 -0.31198891459E+01  0.14273366332E+01  0.35847426314E+01  0.51100000000E-03 0. -1.
        -11    1    3    3    0    0  0.12896431420E+02  0.21446408070E+01  0.14570623433E+01  0.13154484349E+02  0.51100000000E-03 0.  1.
        -12    1    3    3    0    0  0.92236485653E+01  0.13811074085E+02  0.29426477879E+02  0.33789629483E+02  0.00000000000E+00 0.  1.
</event>
<event>
 7    1  0.2746803E-013  0.5052886E+02  0.7816164E-02  0.1300439E+00
        -11   -1    0    0    0    0  0.00000000000E+00  0.00000000000E+00  0.45593999997E+02  0.45594000000E+02  0.51100000000E-03 0.  1.
         11   -1    0    0    0    0 -0.00000000000E+00 -0.00000000000E+00 -0.45593999997E+02  0.45594000000E+02  0.51100000000E-03 0. -1.
    9900012    2    1    2    0    0 -0.34015358909E+02  0.21846477010E+02 -0.43419471303E+01  0.50528859523E+02  0.29999999005E+02 0.  0.
         12    1    1    2    0    0  0.34015358909E+02 -0.21846477010E+02  0.43419471303E+01  0.40659140477E+02  0.00000000000E+00 0. -1.
         11    1    3    3    0    0 -0.10241800596E+02  0.49305056771E+01 -0.54680424482E+01  0.12613637626E+02  0.51100000000E-03 0. -1.
        -11    1    3    3    0    0 -0.18589703778E+02 -0.16061239264E+01  0.88335532229E+00  0.18679856464E+02  0.51100000000E-03 0.  1.
        -12    1    3    3    0    0 -0.51838545350E+01  0.18522095260E+02  0.24273999561E+00  0.19235365433E+02  0.00000000000E+00 0.  1.
</event>
<event>
 7    1  0.2746803E-013  0.5052887E+02  0.7816164E-02  0.1300439E+00
        -11   -1    0    0    0    0  0.00000000000E+00  0.00000000000E+00  0.45593999997E+02  0.45594000000E+02  0.51100000000E-03 0.  1.
         11   -1    0    0    0    0 -0.00000000000E+00 -0.00000000000E+00 -0.45593999997E+02  0.45594000000E+02  0.51100000000E-03 0. -1.
    9900012    2    1    2    0    0 -0.26563438010E+02  0.29909726747E+02 -0.72771264179E+01  0.50528873572E+02  0.30000041709E+02 0.  0.
         12    1    1    2    0    0  0.26563438010E+02 -0.29909726747E+02  0.72771264179E+01  0.40659126428E+02  0.00000000000E+00 0. -1.
         11    1    3    3    0    0 -0.17349141476E+01 -0.34541574162E+01 -0.47252857685E+01  0.61048715310E+01  0.51100000000E-03 0. -1.
        -11    1    3    3    0    0 -0.11626573971E+02  0.44476364775E+01  0.71740362013E+00  0.12468895731E+02  0.51100000000E-03 0.  1.
         12    1    3    3    0    0 -0.13201949892E+02  0.28916247685E+02 -0.32692442696E+01  0.31955106309E+02  0.00000000000E+00 0. -1.
</event>
<event>
 7    1  0.2746803E-013  0.5052886E+02  0.7816164E-02  0.1300439E+00
        -11   -1    0    0    0    0  0.00000000000E+00  0.00000000000E+00  0.45593999997E+02  0.45594000000E+02  0.51100000000E-03 0.  1.
         11   -1    0    0    0    0 -0.00000000000E+00 -0.00000000000E+00 -0.45593999997E+02  0.45594000000E+02  0.51100000000E-03 0. -1.
    9900012    2    1    2    0    0 -0.21089657549E+02  0.20437935440E+02  0.28119081984E+02  0.50528860410E+02  0.30000001703E+02 0.  0.
         12    1    1    2    0    0  0.21089657549E+02 -0.20437935440E+02 -0.28119081984E+02  0.40659139590E+02  0.00000000000E+00 0. -1.
         11    1    3    3    0    0  0.15252330577E+01  0.10117531120E+02  0.45037584768E+01  0.11179204467E+02  0.51100000000E-03 0. -1.
        -11    1    3    3    0    0 -0.25920146419E+01  0.11094735525E+02  0.75667163022E+01  0.13677239931E+02  0.51100000000E-03 0.  1.
        -12    1    3    3    0    0 -0.20022875964E+02 -0.77433120467E+00  0.16048607205E+02  0.25672416012E+02  0.00000000000E+00 0.  1.
</event>
<event>
 7    1  0.2746803E-013  0.5052885E+02  0.7816164E-02  0.1300439E+00
        -11   -1    0    0    0    0  0.00000000000E+00  0.00000000000E+00  0.45593999997E+02  0.45594000000E+02  0.51100000000E-03 0. -1.
         11   -1    0    0    0    0 -0.00000000000E+00 -0.00000000000E+00 -0.45593999997E+02  0.45594000000E+02  0.51100000000E-03 0.  1.
    9900012    2    1    2    0    0  0.37517414505E+02  0.13772772744E+02 -0.74780168616E+01  0.50528851013E+02  0.29999973138E+02 0.  0.
         12    1    1    2    0    0 -0.37517414505E+02 -0.13772772744E+02  0.74780168616E+01  0.40659148987E+02  0.00000000000E+00 0. -1.
         11    1    3    3    0    0  0.23575100814E+01  0.27071941675E+01 -0.74692956806E+01  0.82871667215E+01  0.51100000000E-03 0. -1.
        -11    1    3    3    0    0  0.31223917713E+02  0.16541844489E+02 -0.13703189727E+01  0.35361609562E+02  0.51100000000E-03 0.  1.
         12    1    3    3    0    0  0.39359867106E+01 -0.54762659127E+01  0.13615977917E+01  0.68800747292E+01  0.00000000000E+00 0. -1.
</event>
<event>
 7    1  0.2746803E-013  0.5052886E+02  0.7816164E-02  0.1300439E+00
        -11   -1    0    0    0    0  0.00000000000E+00  0.00000000000E+00  0.45593999997E+02  0.45594000000E+02  0.51100000000E-03 0.  1.
         11   -1    0    0    0    0 -0.00000000000E+00 -0.00000000000E+00 -0.45593999997E+02  0.45594000000E+02  0.51100000000E-03 0. -1.
    9900012    2    1    2    0    0  0.25672539728E+02  0.31251927594E+02 -0.41717660875E+01  0.50528857034E+02  0.29999991441E+02 0.  0.
         12    1    1    2    0    0 -0.25672539728E+02 -0.31251927594E+02  0.41717660875E+01  0.40659142966E+02  0.00000000000E+00 0. -1.
         11    1    3    3    0    0 -0.86816422943E+00 -0.73813064106E+00  0.12849586418E+01  0.17174588626E+01  0.51100000000E-03 0. -1.
        -11    1    3    3    0    0  0.25103214242E+02  0.12921627048E+02  0.19584130246E+01  0.28301505131E+02  0.51100000000E-03 0.  1.
        -12    1    3    3    0    0  0.14374897155E+01  0.19068431187E+02 -0.74151377539E+01  0.20509893040E+02  0.00000000000E+00 0.  1.
</event>
<event>
 7    1  0.2746803E-013  0.5052886E+02  0.7816164E-02  0.1300439E+00
        -11   -1    0    0    0    0  0.00000000000E+00  0.00000000000E+00  0.45593999997E+02  0.45594000000E+02  0.51100000000E-03 0.  1.
         11   -1    0    0    0    0 -0.00000000000E+00 -0.00000000000E+00 -0.45593999997E+02  0.45594000000E+02  0.51100000000E-03 0. -1.
    9900012    2    1    2    0    0  0.33893639872E+02  0.55284889478E+01  0.21767473886E+02  0.50528856708E+02  0.29999990451E+02 0.  0.
         12    1    1    2    0    0 -0.33893639872E+02 -0.55284889478E+01 -0.21767473886E+02  0.40659143292E+02  0.00000000000E+00 0. -1.
         11    1    3    3    0    0  0.19406161457E+02 -0.88469043683E+01  0.58004303826E+01  0.22102303325E+02  0.51100000000E-03 0. -1.
        -11    1    3    3    0    0  0.90190449163E+01  0.51974820425E+01  0.16139495682E+01  0.10533841856E+02  0.51100000000E-03 0.  1.
        -12    1    3    3    0    0  0.54684334995E+01  0.91779112735E+01  0.14353093935E+02  0.17892711527E+02  0.00000000000E+00 0.  1.
</event>
<event>
 7    1  0.2746803E-013  0.5052886E+02  0.7816164E-02  0.1300439E+00
        -11   -1    0    0    0    0  0.00000000000E+00  0.00000000000E+00  0.45593999997E+02  0.45594000000E+02  0.51100000000E-03 0.  1.
         11   -1    0    0    0    0 -0.00000000000E+00 -0.00000000000E+00 -0.45593999997E+02  0.45594000000E+02  0.51100000000E-03 0. -1.
    9900012    2    1    2    0    0  0.22430974335E+02  0.16648362365E+02  0.29544024494E+02  0.50528856350E+02  0.29999989360E+02 0.  0.
         12    1    1    2    0    0 -0.22430974335E+02 -0.16648362365E+02 -0.29544024494E+02  0.40659143650E+02  0.00000000000E+00 0. -1.
         11    1    3    3    0    0  0.80941371539E+01  0.15430651755E+02  0.26246081424E+02  0.31503600750E+02  0.51100000000E-03 0. -1.
        -11    1    3    3    0    0  0.68215653146E+01  0.61563023145E+01  0.39651726473E+01  0.10007817240E+02  0.51100000000E-03 0.  1.
        -12    1    3    3    0    0  0.75152718669E+01 -0.49385917037E+01 -0.66722957790E+00  0.90174383590E+01  0.00000000000E+00 0.  1.
</event>
<event>
 7    1  0.2746803E-013  0.5052888E+02  0.7816164E-02  0.1300439E+00
        -11   -1    0    0    0    0  0.00000000000E+00  0.00000000000E+00  0.45593999997E+02  0.45594000000E+02  0.51100000000E-03 0.  1.
         11   -1    0    0    0    0 -0.00000000000E+00 -0.00000000000E+00 -0.45593999997E+02  0.45594000000E+02  0.51100000000E-03 0. -1.
    9900012    2    1    2    0    0 -0.34509478106E+02 -0.25161826109E+01  0.21352489142E+02  0.50528879909E+02  0.30000060970E+02 0.  0.
         12    1    1    2    0    0  0.34509478106E+02  0.25161826109E+01 -0.21352489142E+02  0.40659120091E+02  0.00000000000E+00 0. -1.
         11    1    3    3    0    0 -0.58651990667E-01 -0.78568076508E+01  0.82145658854E+01  0.11367143857E+02  0.51100000000E-03 0. -1.
        -11    1    3    3    0    0 -0.68096202776E+00 -0.17027841712E+01 -0.74093723141E+00  0.19779209941E+01  0.51100000000E-03 0.  1.
        -12    1    3    3    0    0 -0.33769864087E+02  0.70434092111E+01  0.13878860488E+02  0.37183815057E+02  0.00000000000E+00 0.  1.
</event>
<event>
 7    1  0.2746803E-013  0.5052886E+02  0.7816164E-02  0.1300439E+00
        -11   -1    0    0    0    0  0.00000000000E+00  0.00000000000E+00  0.45593999997E+02  0.45594000000E+02  0.51100000000E-03 0.  1.
         11   -1    0    0    0    0 -0.00000000000E+00 -0.00000000000E+00 -0.45593999997E+02  0.45594000000E+02  0.51100000000E-03 0. -1.
    9900012    2    1    2    0    0 -0.25271859221E+01 -0.17764917047E+02  0.36485429913E+02  0.50528861515E+02  0.30000005062E+02 0.  0.
         12    1    1    2    0    0  0.25271859221E+01  0.17764917047E+02 -0.36485429913E+02  0.40659138485E+02  0.00000000000E+00 0. -1.
         11    1    3    3    0    0  0.76610023961E-01 -0.67504550798E+01  0.59620643756E+01  0.90067044339E+01  0.51100000000E-03 0. -1.
        -11    1    3    3    0    0  0.67588760097E+01 -0.13190545897E+02  0.75812722890E+01  0.16647780505E+02  0.51100000000E-03 0.  1.
        -12    1    3    3    0    0 -0.93626719558E+01  0.21760839294E+01  0.22942093249E+02  0.24874376576E+02  0.00000000000E+00 0.  1.
</event>
<event>
 7    1  0.2746803E-013  0.5052885E+02  0.7816164E-02  0.1300439E+00
        -11   -1    0    0    0    0  0.00000000000E+00  0.00000000000E+00  0.45593999997E+02  0.45594000000E+02  0.51100000000E-03 0.  1.
         11   -1    0    0    0    0 -0.00000000000E+00 -0.00000000000E+00 -0.45593999997E+02  0.45594000000E+02  0.51100000000E-03 0. -1.
    9900012    2    1    2    0    0  0.32823816805E+02 -0.15681817169E+02  0.18161608855E+02  0.50528851269E+02  0.29999973916E+02 0.  0.
         12    1    1    2    0    0 -0.32823816805E+02  0.15681817169E+02 -0.18161608855E+02  0.40659148731E+02  0.00000000000E+00 0. -1.
         11    1    3    3    0    0  0.59294523820E+01 -0.10865648092E+02  0.24463424124E+01  0.12617658478E+02  0.51100000000E-03 0. -1.
        -11    1    3    3    0    0  0.27149075876E+02 -0.99121322755E+01  0.10880801126E+02  0.30882268708E+02  0.51100000000E-03 0.  1.
         12    1    3    3    0    0 -0.25471145304E+00  0.50959631990E+01  0.48344653169E+01  0.70289240820E+01  0.00000000000E+00 0. -1.
</event>
<event>
 7    1  0.2746803E-013  0.5052886E+02  0.7816164E-02  0.1300439E+00
        -11   -1    0    0    0    0  0.00000000000E+00  0.00000000000E+00  0.45593999997E+02  0.45594000000E+02  0.51100000000E-03 0.  1.
         11   -1    0    0    0    0 -0.00000000000E+00 -0.00000000000E+00 -0.45593999997E+02  0.45594000000E+02  0.51100000000E-03 0. -1.
    9900012    2    1    2    0    0  0.17301558502E+02  0.26656345071E+02  0.25362596630E+02  0.50528856293E+02  0.29999989189E+02 0.  0.
         12    1    1    2    0    0 -0.17301558502E+02 -0.26656345071E+02 -0.25362596630E+02  0.40659143707E+02  0.00000000000E+00 0. -1.
         11    1    3    3    0    0 -0.16620903740E+01 -0.43176001711E+01  0.45166313709E+01  0.64656148084E+01  0.51100000000E-03 0. -1.
        -11    1    3    3    0    0  0.14950152317E+02  0.11531755810E+02  0.86868611480E+01  0.20783406921E+02  0.51100000000E-03 0.  1.
        -12    1    3    3    0    0  0.40134965584E+01  0.19442189432E+02  0.12159104112E+02  0.23279834564E+02  0.00000000000E+00 0.  1.
</event>
<event>
 7    1  0.2746803E-013  0.5052886E+02  0.7816164E-02  0.1300439E+00
        -11   -1    0    0    0    0  0.00000000000E+00  0.00000000000E+00  0.45593999997E+02  0.45594000000E+02  0.51100000000E-03 0.  1.
         11   -1    0    0    0    0 -0.00000000000E+00 -0.00000000000E+00 -0.45593999997E+02  0.45594000000E+02  0.51100000000E-03 0. -1.
    9900012    2    1    2    0    0 -0.19887951438E+02 -0.21878496104E+01  0.35395593989E+02  0.50528863608E+02  0.30000011424E+02 0.  0.
         12    1    1    2    0    0  0.19887951438E+02  0.21878496104E+01 -0.35395593989E+02  0.40659136392E+02  0.00000000000E+00 0. -1.
         11    1    3    3    0    0 -0.30176981432E+00 -0.10284987339E+02  0.43733162160E+01  0.11180247071E+02  0.51100000000E-03 0. -1.
        -11    1    3    3    0    0 -0.32454759460E+00  0.25526429493E+01  0.99037301137E+01  0.10232555282E+02  0.51100000000E-03 0.  1.
        -12    1    3    3    0    0 -0.19261634029E+02  0.55444947790E+01  0.21118547659E+02  0.29116061256E+02  0.00000000000E+00 0.  1.
</event>
<event>
 7    1  0.2746803E-013  0.5052886E+02  0.7816164E-02  0.1300439E+00
        -11   -1    0    0    0    0  0.00000000000E+00  0.00000000000E+00  0.45593999997E+02  0.45594000000E+02  0.51100000000E-03 0. -1.
         11   -1    0    0    0    0 -0.00000000000E+00 -0.00000000000E+00 -0.45593999997E+02  0.45594000000E+02  0.51100000000E-03 0.  1.
    9900012    2    1    2    0    0 -0.36968277349E+02  0.12296529050E+02  0.11632180648E+02  0.50528858550E+02  0.29999996048E+02 0.  0.
         12    1    1    2    0    0  0.36968277349E+02 -0.12296529050E+02 -0.11632180648E+02  0.40659141450E+02  0.00000000000E+00 0. -1.
         11    1    3    3    0    0 -0.80518375303E+01  0.87101581198E+01 -0.72303642938E+01  0.13891620142E+02  0.51100000000E-03 0.  1.
        -11    1    3    3    0    0 -0.18681753069E+02 -0.22882410236E+01  0.75165168038E+01  0.20266770089E+02  0.51100000000E-03 0. -1.
        -12    1    3    3    0    0 -0.10234686750E+02  0.58746119536E+01  0.11346028138E+02  0.16370468319E+02  0.00000000000E+00 0.  1.
</event>
<event>
 7    1  0.2746803E-013  0.5052887E+02  0.7816164E-02  0.1300439E+00
        -11   -1    0    0    0    0  0.00000000000E+00  0.00000000000E+00  0.45593999997E+02  0.45594000000E+02  0.51100000000E-03 0. -1.
         11   -1    0    0    0    0 -0.00000000000E+00 -0.00000000000E+00 -0.45593999997E+02  0.45594000000E+02  0.51100000000E-03 0.  1.
    9900012    2    1    2    0    0 -0.36723911563E+02 -0.10405006095E+01 -0.17419439443E+02  0.50528865817E+02  0.30000018137E+02 0.  0.
         12    1    1    2    0    0  0.36723911563E+02  0.10405006095E+01  0.17419439443E+02  0.40659134183E+02  0.00000000000E+00 0. -1.
         11    1    3    3    0    0 -0.11798301699E+02 -0.29397526604E+01 -0.94019724450E+01  0.15370073351E+02  0.51100000000E-03 0. -1.
        -11    1    3    3    0    0 -0.29515218156E+02  0.22559054540E+01 -0.64506012831E+01  0.30295997581E+02  0.51100000000E-03 0.  1.
         12    1    3    3    0    0  0.45896082924E+01 -0.35665340313E+00 -0.15668657150E+01  0.48627948853E+01  0.00000000000E+00 0. -1.
</event>
<event>
 7    1  0.2746803E-013  0.5052886E+02  0.7816164E-02  0.1300439E+00
        -11   -1    0    0    0    0  0.00000000000E+00  0.00000000000E+00  0.45593999997E+02  0.45594000000E+02  0.51100000000E-03 0.  1.
         11   -1    0    0    0    0 -0.00000000000E+00 -0.00000000000E+00 -0.45593999997E+02  0.45594000000E+02  0.51100000000E-03 0. -1.
    9900012    2    1    2    0    0  0.14162998515E+02  0.17965324010E+02  0.33612834279E+02  0.50528855617E+02  0.29999987133E+02 0.  0.
         12    1    1    2    0    0 -0.14162998515E+02 -0.17965324010E+02 -0.33612834279E+02  0.40659144383E+02  0.00000000000E+00 0. -1.
         11    1    3    3    0    0  0.38294668005E+01 -0.19007758005E+01 -0.40775072152E+00  0.42946508044E+01  0.51100000000E-03 0. -1.
        -11    1    3    3    0    0  0.17082298335E+02  0.14772628206E+02  0.21921985788E+02  0.31473940358E+02  0.51100000000E-03 0.  1.
         12    1    3    3    0    0 -0.67487666200E+01  0.50934716039E+01  0.12098599212E+02  0.14760264455E+02  0.00000000000E+00 0. -1.
</event>
<event>
 7    1  0.2746803E-013  0.5052886E+02  0.7816164E-02  0.1300439E+00
        -11   -1    0    0    0    0  0.00000000000E+00  0.00000000000E+00  0.45593999997E+02  0.45594000000E+02  0.51100000000E-03 0.  1.
         11   -1    0    0    0    0 -0.00000000000E+00 -0.00000000000E+00 -0.45593999997E+02  0.45594000000E+02  0.51100000000E-03 0. -1.
    9900012    2    1    2    0    0  0.21063924815E+02  0.29652461076E+02  0.18171628379E+02  0.50528862597E+02  0.30000008349E+02 0.  0.
         12    1    1    2    0    0 -0.21063924815E+02 -0.29652461076E+02 -0.18171628379E+02  0.40659137403E+02  0.00000000000E+00 0. -1.
         11    1    3    3    0    0  0.36048533625E+01 -0.33310469011E+01  0.64415881455E+01  0.80984504270E+01  0.51100000000E-03 0. -1.
        -11    1    3    3    0    0  0.71486348659E+01  0.47183731886E+01  0.86712872580E+01  0.12188406334E+02  0.51100000000E-03 0.  1.
         12    1    3    3    0    0  0.10310436587E+02  0.28265134788E+02  0.30587529751E+01  0.30242005836E+02  0.00000000000E+00 0. -1.
</event>
<event>
 7    1  0.2746803E-013  0.5052886E+02  0.7816164E-02  0.1300439E+00
        -11   -1    0    0    0    0  0.00000000000E+00  0.00000000000E+00  0.45593999997E+02  0.45594000000E+02  0.51100000000E-03 0.  1.
         11   -1    0    0    0    0 -0.00000000000E+00 -0.00000000000E+00 -0.45593999997E+02  0.45594000000E+02  0.51100000000E-03 0. -1.
    9900012    2    1    2    0    0  0.34610390136E+02 -0.20736321373E+02 -0.50290605056E+01  0.50528861064E+02  0.30000003691E+02 0.  0.
         12    1    1    2    0    0 -0.34610390136E+02  0.20736321373E+02  0.50290605056E+01  0.40659138936E+02  0.00000000000E+00 0. -1.
         11    1    3    3    0    0  0.84714011975E+01 -0.43204621812E+01  0.32571221645E+00  0.95150996010E+01  0.51100000000E-03 0. -1.
        -11    1    3    3    0    0  0.25771084407E+02 -0.29395885198E+01  0.13175771230E+01  0.25971638029E+02  0.51100000000E-03 0.  1.
         12    1    3    3    0    0  0.36790453171E+00 -0.13476270672E+02 -0.66723498450E+01  0.15042123434E+02  0.00000000000E+00 0. -1.
</event>
<event>
 7    1  0.2746803E-013  0.5052886E+02  0.7816164E-02  0.1300439E+00
        -11   -1    0    0    0    0  0.00000000000E+00  0.00000000000E+00  0.45593999997E+02  0.45594000000E+02  0.51100000000E-03 0. -1.
         11   -1    0    0    0    0 -0.00000000000E+00 -0.00000000000E+00 -0.45593999997E+02  0.45594000000E+02  0.51100000000E-03 0.  1.
    9900012    2    1    2    0    0 -0.34376337788E+02 -0.15938943799E+02 -0.14743927689E+02  0.50528856713E+02  0.29999990464E+02 0.  0.
         12    1    1    2    0    0  0.34376337788E+02  0.15938943799E+02  0.14743927689E+02  0.40659143287E+02  0.00000000000E+00 0. -1.
         11    1    3    3    0    0 -0.23752513182E+01 -0.62183742169E+01 -0.12892296490E+02  0.14509352355E+02  0.51100000000E-03 0. -1.
        -11    1    3    3    0    0 -0.20812600961E+02 -0.48189906588E+01 -0.73930192715E+01  0.22606277091E+02  0.51100000000E-03 0.  1.
        -12    1    3    3    0    0 -0.11188485509E+02 -0.49015789229E+01  0.55413880719E+01  0.13413227266E+02  0.00000000000E+00 0.  1.
</event>
<event>
 7    1  0.2746803E-013  0.5052886E+02  0.7816164E-02  0.1300439E+00
        -11   -1    0    0    0    0  0.00000000000E+00  0.00000000000E+00  0.45593999997E+02  0.45594000000E+02  0.51100000000E-03 0.  1.
         11   -1    0    0    0    0 -0.00000000000E+00 -0.00000000000E+00 -0.45593999997E+02  0.45594000000E+02  0.51100000000E-03 0. -1.
    9900012    2    1    2    0    0  0.47099298693E+01 -0.39603528953E+02 -0.79084039973E+01  0.50528858363E+02  0.29999995479E+02 0.  0.
         12    1    1    2    0    0 -0.47099298693E+01  0.39603528953E+02  0.79084039973E+01  0.40659141637E+02  0.00000000000E+00 0. -1.
         11    1    3    3    0    0  0.87389515425E+00 -0.26027228643E+02 -0.13355969487E+02  0.29267084664E+02  0.51100000000E-03 0. -1.
        -11    1    3    3    0    0 -0.24968832444E+01 -0.95439839143E+01 -0.26544231180E+01  0.10216066623E+02  0.51100000000E-03 0.  1.
        -12    1    3    3    0    0  0.63329179594E+01 -0.40323163960E+01  0.81019886077E+01  0.11045707076E+02  0.00000000000E+00 0.  1.
</event>
<event>
 7    1  0.2746803E-013  0.5052883E+02  0.7816164E-02  0.1300439E+00
        -11   -1    0    0    0    0  0.00000000000E+00  0.00000000000E+00  0.45593999997E+02  0.45594000000E+02  0.51100000000E-03 0.  1.
         11   -1    0    0    0    0 -0.00000000000E+00 -0.00000000000E+00 -0.45593999997E+02  0.45594000000E+02  0.51100000000E-03 0. -1.
    9900012    2    1    2    0    0  0.13833494429E+01  0.35905870699E+02  0.19026890123E+02  0.50528834316E+02  0.29999922387E+02 0.  0.
         12    1    1    2    0    0 -0.13833494429E+01 -0.35905870699E+02 -0.19026890123E+02  0.40659165684E+02  0.00000000000E+00 0. -1.
         11    1    3    3    0    0 -0.36363520163E+01  0.61796400512E+01  0.48981750101E+00  0.71868580475E+01  0.51100000000E-03 0. -1.
        -11    1    3    3    0    0  0.84745313299E+01  0.19531617168E+00  0.34112086728E+00  0.84836426949E+01  0.51100000000E-03 0.  1.
         12    1    3    3    0    0 -0.34548298707E+01  0.29530914476E+02  0.18195951755E+02  0.34858333574E+02  0.00000000000E+00 0. -1.
</event>
<event>
 7    1  0.2746803E-013  0.5052887E+02  0.7816164E-02  0.1300439E+00
        -11   -1    0    0    0    0  0.00000000000E+00  0.00000000000E+00  0.45593999997E+02  0.45594000000E+02  0.51100000000E-03 0.  1.
         11   -1    0    0    0    0 -0.00000000000E+00 -0.00000000000E+00 -0.45593999997E+02  0.45594000000E+02  0.51100000000E-03 0. -1.
    9900012    2    1    2    0    0  0.31156815101E+02  0.26060170916E+02 -0.18125248929E+01  0.50528869637E+02  0.30000029748E+02 0.  0.
         12    1    1    2    0    0 -0.31156815101E+02 -0.26060170916E+02  0.18125248929E+01  0.40659130363E+02  0.00000000000E+00 0. -1.
         11    1    3    3    0    0  0.67293026565E+01  0.11912377725E+02  0.63905362881E+01  0.15100569910E+02  0.51100000000E-03 0. -1.
        -11    1    3    3    0    0  0.18542066517E+02  0.64454002051E+01  0.38051730551E+01  0.19995768471E+02  0.51100000000E-03 0.  1.
         12    1    3    3    0    0  0.58854459272E+01  0.77023929861E+01 -0.12008234236E+02  0.15432531255E+02  0.00000000000E+00 0. -1.
</event>
<event>
 7    1  0.2746803E-013  0.5052886E+02  0.7816164E-02  0.1300439E+00
        -11   -1    0    0    0    0  0.00000000000E+00  0.00000000000E+00  0.45593999997E+02  0.45594000000E+02  0.51100000000E-03 0.  1.
         11   -1    0    0    0    0 -0.00000000000E+00 -0.00000000000E+00 -0.45593999997E+02  0.45594000000E+02  0.51100000000E-03 0. -1.
    9900012    2    1    2    0    0 -0.28653262011E+02 -0.28376426033E+02  0.51898931284E+01  0.50528856269E+02  0.29999989115E+02 0.  0.
         12    1    1    2    0    0  0.28653262011E+02  0.28376426033E+02 -0.51898931284E+01  0.40659143731E+02  0.00000000000E+00 0. -1.
         11    1    3    3    0    0 -0.99774394480E+01 -0.54277195356E+00  0.13758480771E+00  0.99931391051E+01  0.51100000000E-03 0. -1.
        -11    1    3    3    0    0 -0.22814690774E+02 -0.24501305057E+02  0.80526089638E+01  0.34433538534E+02  0.51100000000E-03 0.  1.
         12    1    3    3    0    0  0.41388682113E+01 -0.33323490226E+01 -0.30003006430E+01  0.61021786296E+01  0.00000000000E+00 0. -1.
</event>
<event>
 7    1  0.2746803E-013  0.5052885E+02  0.7816164E-02  0.1300439E+00
        -11   -1    0    0    0    0  0.00000000000E+00  0.00000000000E+00  0.45593999997E+02  0.45594000000E+02  0.51100000000E-03 0. -1.
         11   -1    0    0    0    0 -0.00000000000E+00 -0.00000000000E+00 -0.45593999997E+02  0.45594000000E+02  0.51100000000E-03 0.  1.
    9900012    2    1    2    0    0 -0.27119479478E+02 -0.30277937926E+02  0.97282403149E+00  0.50528854918E+02  0.29999985008E+02 0.  0.
         12    1    1    2    0    0  0.27119479478E+02  0.30277937926E+02 -0.97282403149E+00  0.40659145082E+02  0.00000000000E+00 0. -1.
         11    1    3    3    0    0  0.20539394048E+01  0.18766552793E+01 -0.20520760648E+00  0.27897334172E+01  0.51100000000E-03 0. -1.
        -11    1    3    3    0    0 -0.14855383756E+02 -0.29681030808E+02  0.55698196843E+00  0.33195726315E+02  0.51100000000E-03 0.  1.
         12    1    3    3    0    0 -0.14318035127E+02 -0.24735623972E+01  0.62104966955E+00  0.14543395186E+02  0.00000000000E+00 0. -1.
</event>
<event>
 7    1  0.2746803E-013  0.5052886E+02  0.7816164E-02  0.1300439E+00
        -11   -1    0    0    0    0  0.00000000000E+00  0.00000000000E+00  0.45593999997E+02  0.45594000000E+02  0.51100000000E-03 0.  1.
         11   -1    0    0    0    0 -0.00000000000E+00 -0.00000000000E+00 -0.45593999997E+02  0.45594000000E+02  0.51100000000E-03 0. -1.
    9900012    2    1    2    0    0  0.95645667187E+01 -0.26722349357E+02  0.29113583144E+02  0.50528860620E+02  0.30000002340E+02 0.  0.
         12    1    1    2    0    0 -0.95645667187E+01  0.26722349357E+02 -0.29113583144E+02  0.40659139380E+02  0.00000000000E+00 0. -1.
         11    1    3    3    0    0 -0.60082827922E+01 -0.97348140298E+00  0.11008181021E+02  0.12578838492E+02  0.51100000000E-03 0. -1.
        -11    1    3    3    0    0  0.21597481323E+01 -0.16833975004E+02  0.11717660984E+02  0.20624034659E+02  0.51100000000E-03 0.  1.
        -12    1    3    3    0    0  0.13413101379E+02 -0.89148929500E+01  0.63877411384E+01  0.17325987468E+02  0.00000000000E+00 0.  1.
</event>
<event>
 7    1  0.2746803E-013  0.5052886E+02  0.7816164E-02  0.1300439E+00
        -11   -1    0    0    0    0  0.00000000000E+00  0.00000000000E+00  0.45593999997E+02  0.45594000000E+02  0.51100000000E-03 0. -1.
         11   -1    0    0    0    0 -0.00000000000E+00 -0.00000000000E+00 -0.45593999997E+02  0.45594000000E+02  0.51100000000E-03 0.  1.
    9900012    2    1    2    0    0  0.39491566902E+02  0.39303815500E+01 -0.88393482401E+01  0.50528857943E+02  0.29999994204E+02 0.  0.
         12    1    1    2    0    0 -0.39491566902E+02 -0.39303815500E+01  0.88393482401E+01  0.40659142057E+02  0.00000000000E+00 0. -1.
         11    1    3    3    0    0  0.10645349062E+02 -0.49089681676E+01 -0.14909332263E+01  0.11817119246E+02  0.51100000000E-03 0. -1.
        -11    1    3    3    0    0  0.62180739907E+01  0.55087381527E+01  0.77051077949E+01  0.11330460122E+02  0.51100000000E-03 0.  1.
        -12    1    3    3    0    0  0.22628143849E+02  0.33306115649E+01 -0.15053522809E+02  0.27381278575E+02  0.00000000000E+00 0.  1.
</event>
<event>
 7    1  0.2746803E-013  0.5052886E+02  0.7816164E-02  0.1300439E+00
        -11   -1    0    0    0    0  0.00000000000E+00  0.00000000000E+00  0.45593999997E+02  0.45594000000E+02  0.51100000000E-03 0.  1.
         11   -1    0    0    0    0 -0.00000000000E+00 -0.00000000000E+00 -0.45593999997E+02  0.45594000000E+02  0.51100000000E-03 0. -1.
    9900012    2    1    2    0    0 -0.60674947505E+01 -0.40102625966E+02  0.28513918136E+01  0.50528861578E+02  0.30000005252E+02 0.  0.
         12    1    1    2    0    0  0.60674947505E+01  0.40102625966E+02 -0.28513918136E+01  0.40659138422E+02  0.00000000000E+00 0. -1.
         11    1    3    3    0    0  0.29212170043E+01 -0.26650705024E+01 -0.38109673886E+01  0.54917740546E+01  0.51100000000E-03 0. -1.
        -11    1    3    3    0    0 -0.10069363185E+02 -0.24579913978E+02 -0.57006161060E+01  0.27167283087E+02  0.51100000000E-03 0.  1.
        -12    1    3    3    0    0  0.10806514304E+01 -0.12857641486E+02  0.12362975308E+02  0.17869804436E+02  0.00000000000E+00 0.  1.
</event>
<event>
 7    1  0.2746803E-013  0.5052886E+02  0.7816164E-02  0.1300439E+00
        -11   -1    0    0    0    0  0.00000000000E+00  0.00000000000E+00  0.45593999997E+02  0.45594000000E+02  0.51100000000E-03 0. -1.
         11   -1    0    0    0    0 -0.00000000000E+00 -0.00000000000E+00 -0.45593999997E+02  0.45594000000E+02  0.51100000000E-03 0.  1.
    9900012    2    1    2    0    0 -0.36598862587E+01  0.49916480555E+01 -0.40185247201E+02  0.50528863138E+02  0.30000009995E+02 0.  0.
         12    1    1    2    0    0  0.36598862587E+01 -0.49916480555E+01  0.40185247201E+02  0.40659136862E+02  0.00000000000E+00 0. -1.
         11    1    3    3    0    0  0.35663965948E+01 -0.49419096524E+01 -0.26399954283E+01  0.66416287013E+01  0.51100000000E-03 0. -1.
        -11    1    3    3    0    0  0.42051545641E+01  0.30185702444E-01 -0.21219729584E+02  0.21632409943E+02  0.51100000000E-03 0.  1.
        -12    1    3    3    0    0 -0.11431437418E+02  0.99033720055E+01 -0.16325522189E+02  0.22254824494E+02  0.00000000000E+00 0.  1.
</event>
<event>
 7    1  0.2746803E-013  0.5052886E+02  0.7816164E-02  0.1300439E+00
        -11   -1    0    0    0    0  0.00000000000E+00  0.00000000000E+00  0.45593999997E+02  0.45594000000E+02  0.51100000000E-03 0.  1.
         11   -1    0    0    0    0 -0.00000000000E+00 -0.00000000000E+00 -0.45593999997E+02  0.45594000000E+02  0.51100000000E-03 0. -1.
    9900012    2    1    2    0    0  0.18263823544E+02  0.77633006183E+01  0.35487033832E+02  0.50528860104E+02  0.30000000772E+02 0.  0.
         12    1    1    2    0    0 -0.18263823544E+02 -0.77633006183E+01 -0.35487033832E+02  0.40659139896E+02  0.00000000000E+00 0. -1.
         11    1    3    3    0    0  0.44081021904E+01  0.65618879600E+01  0.26647412154E+01  0.83420971300E+01  0.51100000000E-03 0. -1.
        -11    1    3    3    0    0  0.10247958474E+02 -0.46316934982E+01  0.30747519367E+01  0.11658787985E+02  0.51100000000E-03 0.  1.
        -12    1    3    3    0    0  0.36077628788E+01  0.58331061566E+01  0.29747540680E+02  0.30527974989E+02  0.00000000000E+00 0.  1.
</event>
<event>
 7    1  0.2746803E-013  0.5052887E+02  0.7816164E-02  0.1300439E+00
        -11   -1    0    0    0    0  0.00000000000E+00  0.00000000000E+00  0.45593999997E+02  0.45594000000E+02  0.51100000000E-03 0.  1.
         11   -1    0    0    0    0 -0.00000000000E+00 -0.00000000000E+00 -0.45593999997E+02  0.45594000000E+02  0.51100000000E-03 0. -1.
    9900012    2    1    2    0    0  0.22526204576E+02  0.20259209003E+02  0.27116410896E+02  0.50528865947E+02  0.30000018532E+02 0.  0.
         12    1    1    2    0    0 -0.22526204576E+02 -0.20259209003E+02 -0.27116410896E+02  0.40659134053E+02  0.00000000000E+00 0. -1.
         11    1    3    3    0    0  0.10253468448E+02  0.41220431583E+01  0.68745778243E+00  0.11072373435E+02  0.51100000000E-03 0. -1.
        -11    1    3    3    0    0  0.11877741723E+02  0.40147935031E+01  0.24013336001E+02  0.27089474367E+02  0.51100000000E-03 0.  1.
         12    1    3    3    0    0  0.39499440537E+00  0.12122372342E+02  0.24156171131E+01  0.12367018146E+02  0.00000000000E+00 0. -1.
</event>
<event>
 7    1  0.2746803E-013  0.5052887E+02  0.7816164E-02  0.1300439E+00
        -11   -1    0    0    0    0  0.00000000000E+00  0.00000000000E+00  0.45593999997E+02  0.45594000000E+02  0.51100000000E-03 0.  1.
         11   -1    0    0    0    0 -0.00000000000E+00 -0.00000000000E+00 -0.45593999997E+02  0.45594000000E+02  0.51100000000E-03 0. -1.
    9900012    2    1    2    0    0  0.16348676247E+02 -0.21031130870E+02  0.30717696638E+02  0.50528873504E+02  0.30000041503E+02 0.  0.
         12    1    1    2    0    0 -0.16348676247E+02  0.21031130870E+02 -0.30717696638E+02  0.40659126496E+02  0.00000000000E+00 0. -1.
         11    1    3    3    0    0  0.10818400145E+02 -0.21258508379E+01  0.13082473114E+02  0.17108714929E+02  0.51100000000E-03 0. -1.
        -11    1    3    3    0    0  0.56875676888E+01 -0.19526609480E+02  0.21445812258E+02  0.29556044520E+02  0.51100000000E-03 0.  1.
         12    1    3    3    0    0 -0.15729158651E+00  0.62132944822E+00 -0.38105887345E+01  0.38641140550E+01  0.00000000000E+00 0. -1.
</event>
<event>
 7    1  0.2746803E-013  0.5052886E+02  0.7816164E-02  0.1300439E+00
        -11   -1    0    0    0    0  0.00000000000E+00  0.00000000000E+00  0.45593999997E+02  0.45594000000E+02  0.51100000000E-03 0.  1.
         11   -1    0    0    0    0 -0.00000000000E+00 -0.00000000000E+00 -0.45593999997E+02  0.45594000000E+02  0.51100000000E-03 0. -1.
    9900012    2    1    2    0    0 -0.12130319457E+02 -0.76063065441E+01  0.38054764689E+02  0.50528860008E+02  0.30000000479E+02 0.  0.
         12    1    1    2    0    0  0.12130319457E+02  0.76063065441E+01 -0.38054764689E+02  0.40659139992E+02  0.00000000000E+00 0. -1.
         11    1    3    3    0    0 -0.19270052933E+01 -0.62869162486E+01  0.46569853010E+01  0.80576781812E+01  0.51100000000E-03 0. -1.
        -11    1    3    3    0    0 -0.34590549830E+01 -0.12615223778E+02  0.16752239737E+02  0.21254328237E+02  0.51100000000E-03 0.  1.
         12    1    3    3    0    0 -0.67442591805E+01  0.11295833482E+02  0.16645539651E+02  0.21216853589E+02  0.00000000000E+00 0. -1.
</event>
<event>
 7    1  0.2746803E-013  0.5052884E+02  0.7816164E-02  0.1300439E+00
        -11   -1    0    0    0    0  0.00000000000E+00  0.00000000000E+00  0.45593999997E+02  0.45594000000E+02  0.51100000000E-03 0. -1.
         11   -1    0    0    0    0 -0.00000000000E+00 -0.00000000000E+00 -0.45593999997E+02  0.45594000000E+02  0.51100000000E-03 0.  1.
    9900012    2    1    2    0    0  0.40114354660E+02  0.65492055101E+01 -0.10552259577E+01  0.50528843043E+02  0.29999948914E+02 0.  0.
         12    1    1    2    0    0 -0.40114354660E+02 -0.65492055101E+01  0.10552259577E+01  0.40659156957E+02  0.00000000000E+00 0. -1.
         11    1    3    3    0    0  0.20112124271E+02  0.91056678981E+01 -0.10492250725E+02  0.24443773361E+02  0.51100000000E-03 0. -1.
        -11    1    3    3    0    0  0.15353017698E+02  0.98418533281E+00  0.48221953843E+00  0.15392085926E+02  0.51100000000E-03 0.  1.
         12    1    3    3    0    0  0.46492126909E+01 -0.35406477208E+01  0.89548052292E+01  0.10692983757E+02  0.00000000000E+00 0. -1.
</event>
<event>
 7    1  0.2746803E-013  0.5052888E+02  0.7816164E-02  0.1300439E+00
        -11   -1    0    0    0    0  0.00000000000E+00  0.00000000000E+00  0.45593999997E+02  0.45594000000E+02  0.51100000000E-03 0.  1.
         11   -1    0    0    0    0 -0.00000000000E+00 -0.00000000000E+00 -0.45593999997E+02  0.45594000000E+02  0.51100000000E-03 0. -1.
    9900012    2    1    2    0    0  0.23783324194E+02 -0.12376794595E+02  0.30566847486E+02  0.50528883932E+02  0.30000073201E+02 0.  0.
         12    1    1    2    0    0 -0.23783324194E+02  0.12376794595E+02 -0.30566847486E+02  0.40659116068E+02  0.00000000000E+00 0. -1.
         11    1    3    3    0    0  0.63915260185E+01 -0.90846381403E+01  0.21889239326E+02  0.24546304274E+02  0.51100000000E-03 0. -1.
        -11    1    3    3    0    0 -0.85486144276E+00  0.42715902645E+01  0.34316428360E+01  0.55455788056E+01  0.51100000000E-03 0.  1.
         12    1    3    3    0    0  0.18246659619E+02 -0.75637467196E+01  0.52459653235E+01  0.20437000853E+02  0.00000000000E+00 0. -1.
</event>
<event>
 7    1  0.2746803E-013  0.5052887E+02  0.7816164E-02  0.1300439E+00
        -11   -1    0    0    0    0  0.00000000000E+00  0.00000000000E+00  0.45593999997E+02  0.45594000000E+02  0.51100000000E-03 0. -1.
         11   -1    0    0    0    0 -0.00000000000E+00 -0.00000000000E+00 -0.45593999997E+02  0.45594000000E+02  0.51100000000E-03 0.  1.
    9900012    2    1    2    0    0  0.34735834792E+02  0.21006207672E+02 -0.23077768262E+01  0.50528870480E+02  0.30000032312E+02 0.  0.
         12    1    1    2    0    0 -0.34735834792E+02 -0.21006207672E+02  0.23077768262E+01  0.40659129520E+02  0.00000000000E+00 0. -1.
         11    1    3    3    0    0  0.23100730985E+02  0.15105716166E+02  0.29910993105E+01  0.27762800800E+02  0.51100000000E-03 0. -1.
        -11    1    3    3    0    0  0.15551106423E+02  0.72946450692E+01 -0.66138015529E+01  0.18406279605E+02  0.51100000000E-03 0.  1.
        -12    1    3    3    0    0 -0.39160026160E+01 -0.13941535634E+01  0.13149254162E+01  0.43597900749E+01  0.00000000000E+00 0.  1.
</event>
<event>
 7    1  0.2746803E-013  0.5052886E+02  0.7816164E-02  0.1300439E+00
        -11   -1    0    0    0    0  0.00000000000E+00  0.00000000000E+00  0.45593999997E+02  0.45594000000E+02  0.51100000000E-03 0.  1.
         11   -1    0    0    0    0 -0.00000000000E+00 -0.00000000000E+00 -0.45593999997E+02  0.45594000000E+02  0.51100000000E-03 0. -1.
    9900012    2    1    2    0    0  0.14026394251E+02 -0.55009166687E+01  0.37764609782E+02  0.50528861152E+02  0.30000003956E+02 0.  0.
         12    1    1    2    0    0 -0.14026394251E+02  0.55009166687E+01 -0.37764609782E+02  0.40659138848E+02  0.00000000000E+00 0. -1.
         11    1    3    3    0    0  0.54811114744E+00  0.33427411001E+00 -0.20571481401E+01  0.21549997081E+01  0.51100000000E-03 0. -1.
        -11    1    3    3    0    0  0.18384825236E+02 -0.18112513323E+01  0.18566259967E+02  0.26191381021E+02  0.51100000000E-03 0.  1.
        -12    1    3    3    0    0 -0.49065421327E+01 -0.40239394464E+01  0.21255497955E+02  0.22182480422E+02  0.00000000000E+00 0.  1.
</event>
<event>
 7    1  0.2746803E-013  0.5052886E+02  0.7816164E-02  0.1300439E+00
        -11   -1    0    0    0    0  0.00000000000E+00  0.00000000000E+00  0.45593999997E+02  0.45594000000E+02  0.51100000000E-03 0.  1.
         11   -1    0    0    0    0 -0.00000000000E+00 -0.00000000000E+00 -0.45593999997E+02  0.45594000000E+02  0.51100000000E-03 0. -1.
    9900012    2    1    2    0    0 -0.40129862555E+02 -0.12725747857E+01  0.64140636164E+01  0.50528861700E+02  0.30000005622E+02 0.  0.
         12    1    1    2    0    0  0.40129862555E+02  0.12725747857E+01 -0.64140636164E+01  0.40659138300E+02  0.00000000000E+00 0. -1.
         11    1    3    3    0    0 -0.12326685237E+02 -0.10774447814E+01 -0.45050879290E+01  0.13168290462E+02  0.51100000000E-03 0. -1.
        -11    1    3    3    0    0 -0.20533158713E+02  0.83290001214E+01  0.65738601813E+00  0.22167882316E+02  0.51100000000E-03 0.  1.
        -12    1    3    3    0    0 -0.72700186050E+01 -0.85241301257E+01  0.10261765527E+02  0.15192688921E+02  0.00000000000E+00 0.  1.
</event>
<event>
 7    1  0.2746803E-013  0.5052885E+02  0.7816164E-02  0.1300439E+00
        -11   -1    0    0    0    0  0.00000000000E+00  0.00000000000E+00  0.45593999997E+02  0.45594000000E+02  0.51100000000E-03 0.  1.
         11   -1    0    0    0    0 -0.00000000000E+00 -0.00000000000E+00 -0.45593999997E+02  0.45594000000E+02  0.51100000000E-03 0. -1.
    9900012    2    1    2    0    0 -0.18119197027E+01 -0.68179482365E+01  0.40042466317E+02  0.50528848756E+02  0.29999966278E+02 0.  0.
         12    1    1    2    0    0  0.18119197027E+01  0.68179482365E+01 -0.40042466317E+02  0.40659151244E+02  0.00000000000E+00 0. -1.
         11    1    3    3    0    0 -0.20215361659E+01 -0.27792614258E+01 -0.30927956526E+00  0.34505878707E+01  0.51100000000E-03 0. -1.
        -11    1    3    3    0    0 -0.10762360789E+02 -0.58564816693E+01  0.27347701897E+02  0.29967041672E+02  0.51100000000E-03 0.  1.
         12    1    3    3    0    0  0.10971977253E+02  0.18177948586E+01  0.13004043985E+02  0.17111219213E+02  0.00000000000E+00 0. -1.
</event>
<event>
 7    1  0.2746803E-013  0.5052886E+02  0.7816164E-02  0.1300439E+00
        -11   -1    0    0    0    0  0.00000000000E+00  0.00000000000E+00  0.45593999997E+02  0.45594000000E+02  0.51100000000E-03 0. -1.
         11   -1    0    0    0    0 -0.00000000000E+00 -0.00000000000E+00 -0.45593999997E+02  0.45594000000E+02  0.51100000000E-03 0.  1.
    9900012    2    1    2    0    0 -0.26183677722E+02  0.82098761884E+01  0.30002978474E+02  0.50528858797E+02  0.29999996799E+02 0.  0.
         12    1    1    2    0    0  0.26183677722E+02 -0.82098761884E+01 -0.30002978474E+02  0.40659141203E+02  0.00000000000E+00 0. -1.
         11    1    3    3    0    0 -0.69548632485E+01  0.54859945982E+01  0.87070232985E+01  0.12420890247E+02  0.51100000000E-03 0. -1.
        -11    1    3    3    0    0  0.54973764869E+01  0.35728631371E+01  0.67400954914E+01  0.94029456411E+01  0.51100000000E-03 0.  1.
        -12    1    3    3    0    0 -0.24726190960E+02 -0.84898154696E+00  0.14555859684E+02  0.28705022909E+02  0.00000000000E+00 0.  1.
</event>
<event>
 7    1  0.2746803E-013  0.5052887E+02  0.7816164E-02  0.1300439E+00
        -11   -1    0    0    0    0  0.00000000000E+00  0.00000000000E+00  0.45593999997E+02  0.45594000000E+02  0.51100000000E-03 0.  1.
         11   -1    0    0    0    0 -0.00000000000E+00 -0.00000000000E+00 -0.45593999997E+02  0.45594000000E+02  0.51100000000E-03 0. -1.
    9900012    2    1    2    0    0  0.37856610012E+02  0.13218594255E+02 -0.67313122523E+01  0.50528871624E+02  0.30000035787E+02 0.  0.
         12    1    1    2    0    0 -0.37856610012E+02 -0.13218594255E+02  0.67313122523E+01  0.40659128376E+02  0.00000000000E+00 0. -1.
         11    1    3    3    0    0  0.99806661303E+01  0.79291442497E+01  0.97682723063E+01  0.16059395040E+02  0.51100000000E-03 0. -1.
        -11    1    3    3    0    0  0.13546737490E+02  0.19199079550E+01 -0.20360638968E+01  0.13832776281E+02  0.51100000000E-03 0.  1.
        -12    1    3    3    0    0  0.14329206392E+02  0.33695420499E+01 -0.14463520662E+02  0.20636700302E+02  0.00000000000E+00 0.  1.
</event>
<event>
 7    1  0.2746803E-013  0.5052886E+02  0.7816164E-02  0.1300439E+00
        -11   -1    0    0    0    0  0.00000000000E+00  0.00000000000E+00  0.45593999997E+02  0.45594000000E+02  0.51100000000E-03 0.  1.
         11   -1    0    0    0    0 -0.00000000000E+00 -0.00000000000E+00 -0.45593999997E+02  0.45594000000E+02  0.51100000000E-03 0. -1.
    9900012    2    1    2    0    0 -0.17285725054E+02  0.33823462906E+02 -0.14503200235E+02  0.50528858954E+02  0.29999997275E+02 0.  0.
         12    1    1    2    0    0  0.17285725054E+02 -0.33823462906E+02  0.14503200235E+02  0.40659141046E+02  0.00000000000E+00 0. -1.
         11    1    3    3    0    0 -0.75445616950E+01 -0.86558660781E+00 -0.28048872345E+01  0.80954952909E+01  0.51100000000E-03 0. -1.
        -11    1    3    3    0    0 -0.33322402219E+01  0.66035882041E+01 -0.11442207960E+02  0.13624805515E+02  0.51100000000E-03 0.  1.
        -12    1    3    3    0    0 -0.64089231375E+01  0.28085461309E+02 -0.25610503994E+00  0.28808558147E+02  0.00000000000E+00 0.  1.
</event>
<event>
 7    1  0.2746803E-013  0.5052886E+02  0.7816164E-02  0.1300439E+00
        -11   -1    0    0    0    0  0.00000000000E+00  0.00000000000E+00  0.45593999997E+02  0.45594000000E+02  0.51100000000E-03 0. -1.
         11   -1    0    0    0    0 -0.00000000000E+00 -0.00000000000E+00 -0.45593999997E+02  0.45594000000E+02  0.51100000000E-03 0.  1.
    9900012    2    1    2    0    0 -0.24520723761E+02  0.32175999959E+02  0.40748889159E+01  0.50528860968E+02  0.30000003398E+02 0.  0.
         12    1    1    2    0    0  0.24520723761E+02 -0.32175999959E+02 -0.40748889159E+01  0.40659139032E+02  0.00000000000E+00 0. -1.
         11    1    3    3    0    0 -0.68006594943E+01  0.16065068154E+02  0.66091707940E+00  0.17457725968E+02  0.51100000000E-03 0. -1.
        -11    1    3    3    0    0 -0.19114953995E+01  0.37812250287E+01 -0.86790525682E+01  0.96580241832E+01  0.51100000000E-03 0.  1.
        -12    1    3    3    0    0 -0.15808568868E+02  0.12329706777E+02  0.12093024405E+02  0.23413110816E+02  0.00000000000E+00 0.  1.
</event>
<event>
 7    1  0.2746803E-013  0.5052886E+02  0.7816164E-02  0.1300439E+00
        -11   -1    0    0    0    0  0.00000000000E+00  0.00000000000E+00  0.45593999997E+02  0.45594000000E+02  0.51100000000E-03 0. -1.
         11   -1    0    0    0    0 -0.00000000000E+00 -0.00000000000E+00 -0.45593999997E+02  0.45594000000E+02  0.51100000000E-03 0.  1.
    9900012    2    1    2    0    0  0.31595035831E+02  0.25546429961E+02 -0.15162306776E+01  0.50528864147E+02  0.30000013060E+02 0.  0.
         12    1    1    2    0    0 -0.31595035831E+02 -0.25546429961E+02  0.15162306776E+01  0.40659135853E+02  0.00000000000E+00 0. -1.
         11    1    3    3    0    0  0.51005823045E+01  0.12939318051E+01  0.26866332303E+01  0.59083159814E+01  0.51100000000E-03 0. -1.
        -11    1    3    3    0    0  0.22283899247E+02  0.28712580331E+02  0.13165445248E+01  0.36369186472E+02  0.51100000000E-03 0.  1.
         12    1    3    3    0    0  0.42105542794E+01 -0.44600821749E+01 -0.55194084326E+01  0.82513616932E+01  0.00000000000E+00 0. -1.
</event>
<event>
 7    1  0.2746803E-013  0.5052887E+02  0.7816164E-02  0.1300439E+00
        -11   -1    0    0    0    0  0.00000000000E+00  0.00000000000E+00  0.45593999997E+02  0.45594000000E+02  0.51100000000E-03 0.  1.
         11   -1    0    0    0    0 -0.00000000000E+00 -0.00000000000E+00 -0.45593999997E+02  0.45594000000E+02  0.51100000000E-03 0. -1.
    9900012    2    1    2    0    0 -0.10836051236E+01 -0.19976453326E+02  0.35396773715E+02  0.50528874616E+02  0.30000044881E+02 0.  0.
         12    1    1    2    0    0  0.10836051236E+01  0.19976453326E+02 -0.35396773715E+02  0.40659125384E+02  0.00000000000E+00 0. -1.
         11    1    3    3    0    0 -0.41366267820E+01 -0.38072126856E+01  0.21700309205E+02  0.22416734138E+02  0.51100000000E-03 0. -1.
        -11    1    3    3    0    0  0.24936011801E+01 -0.14175414511E+02  0.18171549777E+02  0.23181148483E+02  0.51100000000E-03 0.  1.
         12    1    3    3    0    0  0.55942047840E+00 -0.19938261296E+01 -0.44750852668E+01  0.49309919947E+01  0.00000000000E+00 0. -1.
</event>
<event>
 7    1  0.2746803E-013  0.5052886E+02  0.7816164E-02  0.1300439E+00
        -11   -1    0    0    0    0  0.00000000000E+00  0.00000000000E+00  0.45593999997E+02  0.45594000000E+02  0.51100000000E-03 0.  1.
         11   -1    0    0    0    0 -0.00000000000E+00 -0.00000000000E+00 -0.45593999997E+02  0.45594000000E+02  0.51100000000E-03 0. -1.
    9900012    2    1    2    0    0  0.17000460752E+00 -0.23432031933E+02  0.33227653788E+02  0.50528855908E+02  0.29999988018E+02 0.  0.
         12    1    1    2    0    0 -0.17000460752E+00  0.23432031933E+02 -0.33227653788E+02  0.40659144092E+02  0.00000000000E+00 0. -1.
         11    1    3    3    0    0 -0.29803204404E+01  0.31073819582E+00  0.11302068129E+02  0.11692545164E+02  0.51100000000E-03 0. -1.
        -11    1    3    3    0    0 -0.52426027794E+01 -0.57554895792E+01 -0.17108510538E+01  0.79710448367E+01  0.51100000000E-03 0.  1.
        -12    1    3    3    0    0  0.83929278274E+01 -0.17987280550E+02  0.23636436712E+02  0.30865265908E+02  0.00000000000E+00 0.  1.
</event>
<event>
 7    1  0.2746803E-013  0.5052887E+02  0.7816164E-02  0.1300439E+00
        -11   -1    0    0    0    0  0.00000000000E+00  0.00000000000E+00  0.45593999997E+02  0.45594000000E+02  0.51100000000E-03 0.  1.
         11   -1    0    0    0    0 -0.00000000000E+00 -0.00000000000E+00 -0.45593999997E+02  0.45594000000E+02  0.51100000000E-03 0. -1.
    9900012    2    1    2    0    0  0.15967587569E+01  0.34455430870E+02  0.21527624371E+02  0.50528868602E+02  0.30000026604E+02 0.  0.
         12    1    1    2    0    0 -0.15967587569E+01 -0.34455430870E+02 -0.21527624371E+02  0.40659131398E+02  0.00000000000E+00 0. -1.
         11    1    3    3    0    0 -0.11014768088E+01 -0.61189967008E+00 -0.41279265063E+01  0.43159529503E+01  0.51100000000E-03 0. -1.
        -11    1    3    3    0    0 -0.54722241464E+01  0.13669169918E+02  0.55486495207E+01  0.15734641881E+02  0.51100000000E-03 0.  1.
         12    1    3    3    0    0  0.81704597121E+01  0.21398160621E+02  0.20106901357E+02  0.30478273771E+02  0.00000000000E+00 0. -1.
</event>
<event>
 7    1  0.2746803E-013  0.5052886E+02  0.7816164E-02  0.1300439E+00
        -11   -1    0    0    0    0  0.00000000000E+00  0.00000000000E+00  0.45593999997E+02  0.45594000000E+02  0.51100000000E-03 0.  1.
         11   -1    0    0    0    0 -0.00000000000E+00 -0.00000000000E+00 -0.45593999997E+02  0.45594000000E+02  0.51100000000E-03 0. -1.
    9900012    2    1    2    0    0  0.11487051461E+02  0.38214102400E+02  0.78035449430E+01  0.50528864653E+02  0.30000014599E+02 0.  0.
         12    1    1    2    0    0 -0.11487051461E+02 -0.38214102400E+02 -0.78035449430E+01  0.40659135347E+02  0.00000000000E+00 0. -1.
         11    1    3    3    0    0  0.81601511173E+01  0.59906892619E+01  0.10567732708E+02  0.14633980967E+02  0.51100000000E-03 0. -1.
        -11    1    3    3    0    0  0.88910350817E+01  0.13251912405E+02 -0.20661755913E+00  0.15959523122E+02  0.51100000000E-03 0.  1.
         12    1    3    3    0    0 -0.55641347384E+01  0.18971500733E+02 -0.25575702057E+01  0.19935360564E+02  0.00000000000E+00 0. -1.
</event>
<event>
 7    1  0.2746803E-013  0.5052883E+02  0.7816164E-02  0.1300439E+00
        -11   -1    0    0    0    0  0.00000000000E+00  0.00000000000E+00  0.45593999997E+02  0.45594000000E+02  0.51100000000E-03 0. -1.
         11   -1    0    0    0    0 -0.00000000000E+00 -0.00000000000E+00 -0.45593999997E+02  0.45594000000E+02  0.51100000000E-03 0.  1.
    9900012    2    1    2    0    0 -0.25898217988E+02 -0.29642535625E+02 -0.10186786798E+02  0.50528828359E+02  0.29999904280E+02 0.  0.
         12    1    1    2    0    0  0.25898217988E+02  0.29642535625E+02  0.10186786798E+02  0.40659171641E+02  0.00000000000E+00 0. -1.
         11    1    3    3    0    0 -0.29065518569E+01  0.10426235272E+01 -0.88909769773E+01  0.94119381313E+01  0.51100000000E-03 0. -1.
        -11    1    3    3    0    0 -0.17113879321E+02 -0.21952143736E+02 -0.75909089594E+01  0.28851401683E+02  0.51100000000E-03 0.  1.
         12    1    3    3    0    0 -0.58777868108E+01 -0.87330154167E+01  0.62950991388E+01  0.12265488544E+02  0.00000000000E+00 0. -1.
</event>
<event>
 7    1  0.2746803E-013  0.5052876E+02  0.7816164E-02  0.1300439E+00
        -11   -1    0    0    0    0  0.00000000000E+00  0.00000000000E+00  0.45593999997E+02  0.45594000000E+02  0.51100000000E-03 0. -1.
         11   -1    0    0    0    0 -0.00000000000E+00 -0.00000000000E+00 -0.45593999997E+02  0.45594000000E+02  0.51100000000E-03 0.  1.
    9900012    2    1    2    0    0  0.15540891398E+02  0.34160169518E+02 -0.15644078822E+02  0.50528761331E+02  0.29999700542E+02 0.  0.
         12    1    1    2    0    0 -0.15540891398E+02 -0.34160169518E+02  0.15644078822E+02  0.40659238669E+02  0.00000000000E+00 0. -1.
         11    1    3    3    0    0  0.12815306403E+02  0.10264415175E+02  0.33708674391E+01  0.16761653995E+02  0.51100000000E-03 0. -1.
        -11    1    3    3    0    0  0.16555264290E+01  0.14607582668E+02 -0.26766426451E+01  0.14942779369E+02  0.51100000000E-03 0.  1.
         12    1    3    3    0    0  0.10700585655E+01  0.92881716748E+01 -0.16338303616E+02  0.18824327968E+02  0.00000000000E+00 0. -1.
</event>
<event>
 7    1  0.2746803E-013  0.5052887E+02  0.7816164E-02  0.1300439E+00
        -11   -1    0    0    0    0  0.00000000000E+00  0.00000000000E+00  0.45593999997E+02  0.45594000000E+02  0.51100000000E-03 0.  1.
         11   -1    0    0    0    0 -0.00000000000E+00 -0.00000000000E+00 -0.45593999997E+02  0.45594000000E+02  0.51100000000E-03 0. -1.
    9900012    2    1    2    0    0 -0.14482550708E+02 -0.85613580655E+01  0.37015182726E+02  0.50528869670E+02  0.30000029850E+02 0.  0.
         12    1    1    2    0    0  0.14482550708E+02  0.85613580655E+01 -0.37015182726E+02  0.40659130330E+02  0.00000000000E+00 0. -1.
         11    1    3    3    0    0 -0.55059346788E+01 -0.41546708278E+01 -0.13309762380E+01  0.70248205943E+01  0.51100000000E-03 0. -1.
        -11    1    3    3    0    0  0.32730947824E+00 -0.97852758277E+01  0.18938681506E+02  0.21319765758E+02  0.51100000000E-03 0.  1.
        -12    1    3    3    0    0 -0.93039255076E+01  0.53785885900E+01  0.19407477458E+02  0.22184283318E+02  0.00000000000E+00 0.  1.
</event>
<event>
 7    1  0.2746803E-013  0.5052881E+02  0.7816164E-02  0.1300439E+00
        -11   -1    0    0    0    0  0.00000000000E+00  0.00000000000E+00  0.45593999997E+02  0.45594000000E+02  0.51100000000E-03 0.  1.
         11   -1    0    0    0    0 -0.00000000000E+00 -0.00000000000E+00 -0.45593999997E+02  0.45594000000E+02  0.51100000000E-03 0. -1.
    9900012    2    1    2    0    0  0.38717048721E+02  0.68697669300E+01  0.10342439928E+02  0.50528811334E+02  0.29999852530E+02 0.  0.
         12    1    1    2    0    0 -0.38717048721E+02 -0.68697669300E+01 -0.10342439928E+02  0.40659188666E+02  0.00000000000E+00 0. -1.
         11    1    3    3    0    0  0.79790662176E+01 -0.33596457830E+01  0.21736387675E+01  0.89262211066E+01  0.51100000000E-03 0. -1.
        -11    1    3    3    0    0  0.80587512380E+01  0.29282469084E+01  0.14593580278E+02  0.16926035775E+02  0.51100000000E-03 0.  1.
         12    1    3    3    0    0  0.22679231265E+02  0.73011658046E+01 -0.64247791176E+01  0.24676554452E+02  0.00000000000E+00 0. -1.
</event>
<event>
 7    1  0.2746803E-013  0.5052886E+02  0.7816164E-02  0.1300439E+00
        -11   -1    0    0    0    0  0.00000000000E+00  0.00000000000E+00  0.45593999997E+02  0.45594000000E+02  0.51100000000E-03 0. -1.
         11   -1    0    0    0    0 -0.00000000000E+00 -0.00000000000E+00 -0.45593999997E+02  0.45594000000E+02  0.51100000000E-03 0.  1.
    9900012    2    1    2    0    0  0.18695644608E+02  0.27119462803E+02 -0.23836383383E+02  0.50528861263E+02  0.30000004295E+02 0.  0.
         12    1    1    2    0    0 -0.18695644608E+02 -0.27119462803E+02  0.23836383383E+02  0.40659138737E+02  0.00000000000E+00 0. -1.
         11    1    3    3    0    0  0.46744497179E-01  0.47999682891E+01  0.46355857145E+01  0.66731203947E+01  0.51100000000E-03 0. -1.
        -11    1    3    3    0    0  0.12008519950E+02  0.23936239904E+01 -0.88028201776E+01  0.15080571293E+02  0.51100000000E-03 0.  1.
        -12    1    3    3    0    0  0.66403801609E+01  0.19925870524E+02 -0.19669148920E+02  0.28775169575E+02  0.00000000000E+00 0.  1.
</event>
<event>
 7    1  0.2746803E-013  0.5052886E+02  0.7816164E-02  0.1300439E+00
        -11   -1    0    0    0    0  0.00000000000E+00  0.00000000000E+00  0.45593999997E+02  0.45594000000E+02  0.51100000000E-03 0.  1.
         11   -1    0    0    0    0 -0.00000000000E+00 -0.00000000000E+00 -0.45593999997E+02  0.45594000000E+02  0.51100000000E-03 0. -1.
    9900012    2    1    2    0    0  0.63047707292E+01 -0.24503286975E+02  0.31827729844E+02  0.50528860885E+02  0.30000003147E+02 0.  0.
         12    1    1    2    0    0 -0.63047707292E+01  0.24503286975E+02 -0.31827729844E+02  0.40659139115E+02  0.00000000000E+00 0. -1.
         11    1    3    3    0    0 -0.31176804043E+01 -0.93618320619E+01  0.42799499253E+01  0.10755547512E+02  0.51100000000E-03 0.  1.
        -11    1    3    3    0    0  0.10400170872E+02 -0.16419552238E+02  0.94636371619E+01  0.21617716773E+02  0.51100000000E-03 0. -1.
        -12    1    3    3    0    0 -0.97771973818E+00  0.12780973256E+01  0.18084142757E+02  0.18155596601E+02  0.00000000000E+00 0.  1.
</event>
<event>
 7    1  0.2746803E-013  0.5052887E+02  0.7816164E-02  0.1300439E+00
        -11   -1    0    0    0    0  0.00000000000E+00  0.00000000000E+00  0.45593999997E+02  0.45594000000E+02  0.51100000000E-03 0.  1.
         11   -1    0    0    0    0 -0.00000000000E+00 -0.00000000000E+00 -0.45593999997E+02  0.45594000000E+02  0.51100000000E-03 0. -1.
    9900012    2    1    2    0    0  0.88388933997E+01 -0.21464721962E+02  0.33381201118E+02  0.50528869248E+02  0.30000028565E+02 0.  0.
         12    1    1    2    0    0 -0.88388933997E+01  0.21464721962E+02 -0.33381201118E+02  0.40659130752E+02  0.00000000000E+00 0. -1.
         11    1    3    3    0    0 -0.24932317111E+01 -0.51130943530E+01 -0.10785050148E+01  0.57899146415E+01  0.51100000000E-03 0. -1.
        -11    1    3    3    0    0  0.40465930624E+01  0.47265897415E+01  0.79738899951E+01  0.10114271497E+02  0.51100000000E-03 0.  1.
        -12    1    3    3    0    0  0.72855320484E+01 -0.21078217351E+02  0.26485816138E+02  0.34624683109E+02  0.00000000000E+00 0.  1.
</event>
<event>
 7    1  0.2746803E-013  0.5052887E+02  0.7816164E-02  0.1300439E+00
        -11   -1    0    0    0    0  0.00000000000E+00  0.00000000000E+00  0.45593999997E+02  0.45594000000E+02  0.51100000000E-03 0.  1.
         11   -1    0    0    0    0 -0.00000000000E+00 -0.00000000000E+00 -0.45593999997E+02  0.45594000000E+02  0.51100000000E-03 0. -1.
    9900012    2    1    2    0    0  0.73240484331E+00 -0.31463079551E+02  0.25743025248E+02  0.50528866455E+02  0.30000020078E+02 0.  0.
         12    1    1    2    0    0 -0.73240484331E+00  0.31463079551E+02 -0.25743025248E+02  0.40659133545E+02  0.00000000000E+00 0. -1.
         11    1    3    3    0    0  0.60768770486E+01 -0.13654852281E+02  0.34845062567E+01  0.15346830604E+02  0.51100000000E-03 0. -1.
        -11    1    3    3    0    0 -0.57800178762E+00 -0.19392184528E+02  0.23016578741E+02  0.30102388676E+02  0.51100000000E-03 0.  1.
         12    1    3    3    0    0 -0.47664704177E+01  0.15839572577E+01 -0.75805974960E+00  0.50796471748E+01  0.00000000000E+00 0. -1.
</event>
<event>
 7    1  0.2746803E-013  0.5052887E+02  0.7816164E-02  0.1300439E+00
        -11   -1    0    0    0    0  0.00000000000E+00  0.00000000000E+00  0.45593999997E+02  0.45594000000E+02  0.51100000000E-03 0.  1.
         11   -1    0    0    0    0 -0.00000000000E+00 -0.00000000000E+00 -0.45593999997E+02  0.45594000000E+02  0.51100000000E-03 0. -1.
    9900012    2    1    2    0    0 -0.38233454519E+02  0.72647717619E+01  0.11772476316E+02  0.50528866318E+02  0.30000019660E+02 0.  0.
         12    1    1    2    0    0  0.38233454519E+02 -0.72647717619E+01 -0.11772476316E+02  0.40659133682E+02  0.00000000000E+00 0. -1.
         11    1    3    3    0    0  0.10267161302E+01 -0.33680826389E+01  0.24518310341E+01  0.42906412522E+01  0.51100000000E-03 0. -1.
        -11    1    3    3    0    0 -0.17412839339E+02  0.10982422570E+01  0.13470548890E+02  0.22042431753E+02  0.51100000000E-03 0.  1.
         12    1    3    3    0    0 -0.21847331310E+02  0.95346121438E+01 -0.41499036086E+01  0.24195793313E+02  0.00000000000E+00 0. -1.
</event>
<event>
 7    1  0.2746803E-013  0.5052884E+02  0.7816164E-02  0.1300439E+00
        -11   -1    0    0    0    0  0.00000000000E+00  0.00000000000E+00  0.45593999997E+02  0.45594000000E+02  0.51100000000E-03 0.  1.
         11   -1    0    0    0    0 -0.00000000000E+00 -0.00000000000E+00 -0.45593999997E+02  0.45594000000E+02  0.51100000000E-03 0. -1.
    9900012    2    1    2    0    0 -0.11180662803E+02  0.34070889702E+02  0.19165976721E+02  0.50528838554E+02  0.29999935270E+02 0.  0.
         12    1    1    2    0    0  0.11180662803E+02 -0.34070889702E+02 -0.19165976721E+02  0.40659161446E+02  0.00000000000E+00 0. -1.
         11    1    3    3    0    0 -0.26032682891E+01 -0.37187409515E+01  0.22994879683E+00  0.45452081096E+01  0.51100000000E-03 0. -1.
        -11    1    3    3    0    0 -0.11442486218E+02  0.26807110190E+02  0.18701963476E+02  0.34631128854E+02  0.51100000000E-03 0.  1.
        -12    1    3    3    0    0  0.28650917044E+01  0.10982520463E+02  0.23406444815E+00  0.11352501590E+02  0.00000000000E+00 0.  1.
</event>
<event>
 7    1  0.2746803E-013  0.5052885E+02  0.7816164E-02  0.1300439E+00
        -11   -1    0    0    0    0  0.00000000000E+00  0.00000000000E+00  0.45593999997E+02  0.45594000000E+02  0.51100000000E-03 0. -1.
         11   -1    0    0    0    0 -0.00000000000E+00 -0.00000000000E+00 -0.45593999997E+02  0.45594000000E+02  0.51100000000E-03 0.  1.
    9900012    2    1    2    0    0 -0.38097579850E+02 -0.72324594842E+01  0.12224250243E+02  0.50528851526E+02  0.29999974700E+02 0.  0.
         12    1    1    2    0    0  0.38097579850E+02  0.72324594842E+01 -0.12224250243E+02  0.40659148474E+02  0.00000000000E+00 0. -1.
         11    1    3    3    0    0 -0.84902954213E+00 -0.39900240394E+01  0.36112533824E+01  0.54481459462E+01  0.51100000000E-03 0. -1.
        -11    1    3    3    0    0 -0.22805348907E+02  0.22429718220E+01  0.16007303280E+02  0.27952613830E+02  0.51100000000E-03 0.  1.
         12    1    3    3    0    0 -0.14443201401E+02 -0.54854072668E+01 -0.73943064196E+01  0.17128091750E+02  0.00000000000E+00 0. -1.
</event>
<event>
 7    1  0.2746803E-013  0.5052886E+02  0.7816164E-02  0.1300439E+00
        -11   -1    0    0    0    0  0.00000000000E+00  0.00000000000E+00  0.45593999997E+02  0.45594000000E+02  0.51100000000E-03 0.  1.
         11   -1    0    0    0    0 -0.00000000000E+00 -0.00000000000E+00 -0.45593999997E+02  0.45594000000E+02  0.51100000000E-03 0. -1.
    9900012    2    1    2    0    0  0.16877959273E+01  0.30837891352E+02  0.26445067333E+02  0.50528858538E+02  0.29999996012E+02 0.  0.
         12    1    1    2    0    0 -0.16877959273E+01 -0.30837891352E+02 -0.26445067333E+02  0.40659141462E+02  0.00000000000E+00 0. -1.
         11    1    3    3    0    0 -0.59696983896E+01  0.75552454006E+01 -0.52217482941E-01  0.96292138232E+01  0.51100000000E-03 0. -1.
        -11    1    3    3    0    0 -0.42181126471E+01 -0.23137053160E+00  0.68067299837E+01  0.80110910592E+01  0.51100000000E-03 0.  1.
         12    1    3    3    0    0  0.11875606964E+02  0.23514016483E+02  0.19690554833E+02  0.32888553656E+02  0.00000000000E+00 0. -1.
</event>
<event>
 7    1  0.2746803E-013  0.5052887E+02  0.7816164E-02  0.1300439E+00
        -11   -1    0    0    0    0  0.00000000000E+00  0.00000000000E+00  0.45593999997E+02  0.45594000000E+02  0.51100000000E-03 0.  1.
         11   -1    0    0    0    0 -0.00000000000E+00 -0.00000000000E+00 -0.45593999997E+02  0.45594000000E+02  0.51100000000E-03 0. -1.
    9900012    2    1    2    0    0  0.13783618269E+01 -0.13101622813E+02  0.38465730833E+02  0.50528870027E+02  0.30000030933E+02 0.  0.
         12    1    1    2    0    0 -0.13783618269E+01  0.13101622813E+02 -0.38465730833E+02  0.40659129973E+02  0.00000000000E+00 0. -1.
         11    1    3    3    0    0  0.96622494567E+01 -0.71800999392E+01  0.11282145995E+02  0.16498476239E+02  0.51100000000E-03 0.  1.
        -11    1    3    3    0    0 -0.31118905365E+01 -0.85531565997E+01  0.36740412878E+01  0.98152396902E+01  0.51100000000E-03 0. -1.
        -12    1    3    3    0    0 -0.51719970933E+01  0.26316337262E+01  0.23509543551E+02  0.24215154098E+02  0.00000000000E+00 0.  1.
</event>
<event>
 7    1  0.2746803E-013  0.5052887E+02  0.7816164E-02  0.1300439E+00
        -11   -1    0    0    0    0  0.00000000000E+00  0.00000000000E+00  0.45593999997E+02  0.45594000000E+02  0.51100000000E-03 0.  1.
         11   -1    0    0    0    0 -0.00000000000E+00 -0.00000000000E+00 -0.45593999997E+02  0.45594000000E+02  0.51100000000E-03 0. -1.
    9900012    2    1    2    0    0 -0.24432077136E+02 -0.26619868729E+02  0.18644606850E+02  0.50528866107E+02  0.30000019019E+02 0.  0.
         12    1    1    2    0    0  0.24432077136E+02  0.26619868729E+02 -0.18644606850E+02  0.40659133893E+02  0.00000000000E+00 0. -1.
         11    1    3    3    0    0  0.39769293261E+01 -0.72886122862E+01  0.46586116103E+01  0.95206353948E+01  0.51100000000E-03 0.  1.
        -11    1    3    3    0    0 -0.94124264654E+01 -0.16178262557E+02  0.10427440632E+02  0.21425719818E+02  0.51100000000E-03 0. -1.
         12    1    3    3    0    0 -0.18996579997E+02 -0.31529938858E+01  0.35585546085E+01  0.19582510894E+02  0.00000000000E+00 0. -1.
</event>
<event>
 7    1  0.2888799E-013  0.5052886E+02  0.7816164E-02  0.1300439E+00
        -11   -1    0    0    0    0  0.00000000000E+00  0.00000000000E+00  0.45593999997E+02  0.45594000000E+02  0.51100000000E-03 0. -1.
         11   -1    0    0    0    0 -0.00000000000E+00 -0.00000000000E+00 -0.45593999997E+02  0.45594000000E+02  0.51100000000E-03 0.  1.
    9900012    2    1    2    0    0  0.56475136164E+01 -0.12503088161E+02 -0.38274591438E+02  0.50528856215E+02  0.29999988950E+02 0.  0.
         12    1    1    2    0    0 -0.56475136164E+01  0.12503088161E+02  0.38274591438E+02  0.40659143785E+02  0.00000000000E+00 0. -1.
         11    1    3    3    0    0  0.70304981814E+00 -0.47290383378E+01  0.83984131896E+00  0.48542163476E+01  0.51100000000E-03 0. -1.
        -11    1    3    3    0    0  0.79913838383E+01  0.43224659449E+01 -0.78265729383E+01  0.11991712626E+02  0.51100000000E-03 0.  1.
        -12    1    3    3    0    0 -0.30469200400E+01 -0.12096515769E+02 -0.31287859819E+02  0.33682927241E+02  0.00000000000E+00 0.  1.
</event>
<event>
 7    1  0.2746803E-013  0.5052887E+02  0.7816164E-02  0.1300439E+00
        -11   -1    0    0    0    0  0.00000000000E+00  0.00000000000E+00  0.45593999997E+02  0.45594000000E+02  0.51100000000E-03 0.  1.
         11   -1    0    0    0    0 -0.00000000000E+00 -0.00000000000E+00 -0.45593999997E+02  0.45594000000E+02  0.51100000000E-03 0. -1.
    9900012    2    1    2    0    0  0.15017050434E+02 -0.13270415655E+01  0.37760981090E+02  0.50528873891E+02  0.30000042680E+02 0.  0.
         12    1    1    2    0    0 -0.15017050434E+02  0.13270415655E+01 -0.37760981090E+02  0.40659126109E+02  0.00000000000E+00 0. -1.
         11    1    3    3    0    0  0.15866255905E+00 -0.61768830351E+01  0.43927748177E+01  0.75812616824E+01  0.51100000000E-03 0. -1.
        -11    1    3    3    0    0  0.13290744150E+01 -0.68082766269E+01  0.26710862072E+01  0.74332880487E+01  0.51100000000E-03 0.  1.
        -12    1    3    3    0    0  0.13529313460E+02  0.11658118096E+02  0.30697120065E+02  0.35514324160E+02  0.00000000000E+00 0.  1.
</event>
<event>
 7    1  0.2746803E-013  0.5052886E+02  0.7816164E-02  0.1300439E+00
        -11   -1    0    0    0    0  0.00000000000E+00  0.00000000000E+00  0.45593999997E+02  0.45594000000E+02  0.51100000000E-03 0.  1.
         11   -1    0    0    0    0 -0.00000000000E+00 -0.00000000000E+00 -0.45593999997E+02  0.45594000000E+02  0.51100000000E-03 0. -1.
    9900012    2    1    2    0    0  0.10452594370E+02 -0.15010446155E+02  0.36312465680E+02  0.50528863430E+02  0.30000010882E+02 0.  0.
         12    1    1    2    0    0 -0.10452594370E+02  0.15010446155E+02 -0.36312465680E+02  0.40659136570E+02  0.00000000000E+00 0. -1.
         11    1    3    3    0    0  0.95024545389E+01 -0.14300167199E+01  0.13520668105E+01  0.97041060899E+01  0.51100000000E-03 0. -1.
        -11    1    3    3    0    0  0.69391305488E+01 -0.25429986453E+01  0.19827926949E+02  0.21160459878E+02  0.51100000000E-03 0.  1.
        -12    1    3    3    0    0 -0.59889907180E+01 -0.11037430790E+02  0.15132471921E+02  0.19664297463E+02  0.00000000000E+00 0.  1.
</event>
<event>
 7    1  0.2746803E-013  0.5052886E+02  0.7816164E-02  0.1300439E+00
        -11   -1    0    0    0    0  0.00000000000E+00  0.00000000000E+00  0.45593999997E+02  0.45594000000E+02  0.51100000000E-03 0.  1.
         11   -1    0    0    0    0 -0.00000000000E+00 -0.00000000000E+00 -0.45593999997E+02  0.45594000000E+02  0.51100000000E-03 0. -1.
    9900012    2    1    2    0    0 -0.18381515428E+02 -0.10556182904E+02  0.34696578888E+02  0.50528859657E+02  0.29999999413E+02 0.  0.
         12    1    1    2    0    0  0.18381515428E+02  0.10556182904E+02 -0.34696578888E+02  0.40659140343E+02  0.00000000000E+00 0. -1.
         11    1    3    3    0    0 -0.39893022835E+01 -0.87689571689E+01  0.10014762600E+02  0.13896208574E+02  0.51100000000E-03 0. -1.
        -11    1    3    3    0    0 -0.19761275905E+02 -0.17087450712E+01  0.12834426558E+02  0.23625205617E+02  0.51100000000E-03 0.  1.
         12    1    3    3    0    0  0.53690627599E+01 -0.78480663351E-01  0.11847389730E+02  0.13007445466E+02  0.00000000000E+00 0. -1.
</event>
<event>
 7    1  0.2746803E-013  0.5052886E+02  0.7816164E-02  0.1300439E+00
        -11   -1    0    0    0    0  0.00000000000E+00  0.00000000000E+00  0.45593999997E+02  0.45594000000E+02  0.51100000000E-03 0.  1.
         11   -1    0    0    0    0 -0.00000000000E+00 -0.00000000000E+00 -0.45593999997E+02  0.45594000000E+02  0.51100000000E-03 0. -1.
    9900012    2    1    2    0    0  0.13349160447E+02 -0.28973028773E+02  0.25209705589E+02  0.50528859123E+02  0.29999997792E+02 0.  0.
         12    1    1    2    0    0 -0.13349160447E+02  0.28973028773E+02 -0.25209705589E+02  0.40659140877E+02  0.00000000000E+00 0. -1.
         11    1    3    3    0    0  0.34123558470E+01 -0.96567865707E+01 -0.34688501080E+01  0.10813446288E+02  0.51100000000E-03 0. -1.
        -11    1    3    3    0    0  0.28210334559E+01 -0.46194968824E+01 -0.13104411860E+01  0.55691325688E+01  0.51100000000E-03 0.  1.
        -12    1    3    3    0    0  0.71157711441E+01 -0.14696745320E+02  0.29988996883E+02  0.34146280266E+02  0.00000000000E+00 0.  1.
</event>
<event>
 7    1  0.2746803E-013  0.5052886E+02  0.7816164E-02  0.1300439E+00
        -11   -1    0    0    0    0  0.00000000000E+00  0.00000000000E+00  0.45593999997E+02  0.45594000000E+02  0.51100000000E-03 0.  1.
         11   -1    0    0    0    0 -0.00000000000E+00 -0.00000000000E+00 -0.45593999997E+02  0.45594000000E+02  0.51100000000E-03 0. -1.
    9900012    2    1    2    0    0  0.13846076498E+02  0.58999253645E+01  0.37770921319E+02  0.50528862638E+02  0.30000008475E+02 0.  0.
         12    1    1    2    0    0 -0.13846076498E+02 -0.58999253645E+01 -0.37770921319E+02  0.40659137362E+02  0.00000000000E+00 0. -1.
         11    1    3    3    0    0  0.11999792990E+01  0.32403586959E+00 -0.38965093601E+01  0.40899553809E+01  0.51100000000E-03 0. -1.
        -11    1    3    3    0    0 -0.33267156027E+01  0.21879067078E+01  0.58647615518E+01  0.70886811738E+01  0.51100000000E-03 0.  1.
        -12    1    3    3    0    0  0.15972812802E+02  0.33879827871E+01  0.35802669128E+02  0.39350226084E+02  0.00000000000E+00 0.  1.
</event>
<event>
 7    1  0.2746803E-013  0.5052885E+02  0.7816164E-02  0.1300439E+00
        -11   -1    0    0    0    0  0.00000000000E+00  0.00000000000E+00  0.45593999997E+02  0.45594000000E+02  0.51100000000E-03 0.  1.
         11   -1    0    0    0    0 -0.00000000000E+00 -0.00000000000E+00 -0.45593999997E+02  0.45594000000E+02  0.51100000000E-03 0. -1.
    9900012    2    1    2    0    0  0.35782486161E+00 -0.32745437202E+02  0.24099271504E+02  0.50528848715E+02  0.29999966155E+02 0.  0.
         12    1    1    2    0    0 -0.35782486161E+00  0.32745437202E+02 -0.24099271504E+02  0.40659151285E+02  0.00000000000E+00 0. -1.
         11    1    3    3    0    0 -0.47468301436E+01 -0.13516787672E+02  0.51230969321E+01  0.15214534755E+02  0.51100000000E-03 0. -1.
        -11    1    3    3    0    0 -0.37048587220E+01 -0.95978256226E+01  0.19718474412E+02  0.22241008705E+02  0.51100000000E-03 0.  1.
         12    1    3    3    0    0  0.88095137272E+01 -0.96308239070E+01 -0.74229983960E+00  0.13073305255E+02  0.00000000000E+00 0. -1.
</event>
<event>
 7    1  0.2746803E-013  0.5052886E+02  0.7816164E-02  0.1300439E+00
        -11   -1    0    0    0    0  0.00000000000E+00  0.00000000000E+00  0.45593999997E+02  0.45594000000E+02  0.51100000000E-03 0. -1.
         11   -1    0    0    0    0 -0.00000000000E+00 -0.00000000000E+00 -0.45593999997E+02  0.45594000000E+02  0.51100000000E-03 0.  1.
    9900012    2    1    2    0    0  0.24653064618E+02 -0.18379549040E+02 -0.26600451425E+02  0.50528862848E+02  0.30000009111E+02 0.  0.
         12    1    1    2    0    0 -0.24653064618E+02  0.18379549040E+02  0.26600451425E+02  0.40659137152E+02  0.00000000000E+00 0. -1.
         11    1    3    3    0    0 -0.32179340671E+01 -0.32612924124E+01  0.30609172153E-02  0.45816086137E+01  0.51100000000E-03 0. -1.
        -11    1    3    3    0    0  0.62390986747E+01 -0.14540330238E+02 -0.11207037651E+02  0.19389307591E+02  0.51100000000E-03 0.  1.
        -12    1    3    3    0    0  0.21631900010E+02 -0.57792639040E+00 -0.15396474692E+02  0.26557946643E+02  0.00000000000E+00 0.  1.
</event>
<event>
 7    1  0.2746803E-013  0.5052886E+02  0.7816164E-02  0.1300439E+00
        -11   -1    0    0    0    0  0.00000000000E+00  0.00000000000E+00  0.45593999997E+02  0.45594000000E+02  0.51100000000E-03 0. -1.
         11   -1    0    0    0    0 -0.00000000000E+00 -0.00000000000E+00 -0.45593999997E+02  0.45594000000E+02  0.51100000000E-03 0.  1.
    9900012    2    1    2    0    0  0.10486584232E+02 -0.37172436856E+02 -0.12704605151E+02  0.50528862003E+02  0.30000006543E+02 0.  0.
         12    1    1    2    0    0 -0.10486584232E+02  0.37172436856E+02  0.12704605151E+02  0.40659137997E+02  0.00000000000E+00 0. -1.
         11    1    3    3    0    0  0.23244439821E+01 -0.25282313699E+02  0.13064408224E+01  0.25422533581E+02  0.51100000000E-03 0. -1.
        -11    1    3    3    0    0 -0.30997993205E+01 -0.85139753928E+01 -0.65761557491E+01  0.11195640112E+02  0.51100000000E-03 0.  1.
         12    1    3    3    0    0  0.11261939570E+02 -0.33761477639E+01 -0.74348902242E+01  0.13910688310E+02  0.00000000000E+00 0. -1.
</event>
<event>
 7    1  0.2746803E-013  0.5052886E+02  0.7816164E-02  0.1300439E+00
        -11   -1    0    0    0    0  0.00000000000E+00  0.00000000000E+00  0.45593999997E+02  0.45594000000E+02  0.51100000000E-03 0. -1.
         11   -1    0    0    0    0 -0.00000000000E+00 -0.00000000000E+00 -0.45593999997E+02  0.45594000000E+02  0.51100000000E-03 0.  1.
    9900012    2    1    2    0    0  0.15541067390E+02  0.19984179754E+02  0.31816240355E+02  0.50528863679E+02  0.30000011640E+02 0.  0.
         12    1    1    2    0    0 -0.15541067390E+02 -0.19984179754E+02 -0.31816240355E+02  0.40659136321E+02  0.00000000000E+00 0. -1.
         11    1    3    3    0    0  0.73958157101E+00  0.11618449502E+02  0.10403872977E+02  0.15613325171E+02  0.51100000000E-03 0. -1.
        -11    1    3    3    0    0  0.94321505468E+01  0.77575312038E+01 -0.62193937967E+00  0.12228309906E+02  0.51100000000E-03 0.  1.
         12    1    3    3    0    0  0.53693352720E+01  0.60819904810E+00  0.22034306757E+02  0.22687228602E+02  0.00000000000E+00 0. -1.
</event>
<event>
 7    1  0.2746803E-013  0.5052885E+02  0.7816164E-02  0.1300439E+00
        -11   -1    0    0    0    0  0.00000000000E+00  0.00000000000E+00  0.45593999997E+02  0.45594000000E+02  0.51100000000E-03 0. -1.
         11   -1    0    0    0    0 -0.00000000000E+00 -0.00000000000E+00 -0.45593999997E+02  0.45594000000E+02  0.51100000000E-03 0.  1.
    9900012    2    1    2    0    0  0.27154643705E+01  0.13297826827E+02 -0.38327022509E+02  0.50528848515E+02  0.29999965547E+02 0.  0.
         12    1    1    2    0    0 -0.27154643705E+01 -0.13297826827E+02  0.38327022509E+02  0.40659151485E+02  0.00000000000E+00 0. -1.
         11    1    3    3    0    0 -0.42910702283E+01 -0.58063160390E+01 -0.85461780578E+01  0.11187660582E+02  0.51100000000E-03 0. -1.
        -11    1    3    3    0    0  0.34496017014E+01  0.51083898420E+01 -0.22183449008E+02  0.23023918190E+02  0.51100000000E-03 0.  1.
         12    1    3    3    0    0  0.35569328974E+01  0.13995753024E+02 -0.75973954430E+01  0.16317269743E+02  0.00000000000E+00 0. -1.
</event>
<event>
 7    1  0.2746803E-013  0.5052885E+02  0.7816164E-02  0.1300439E+00
        -11   -1    0    0    0    0  0.00000000000E+00  0.00000000000E+00  0.45593999997E+02  0.45594000000E+02  0.51100000000E-03 0. -1.
         11   -1    0    0    0    0 -0.00000000000E+00 -0.00000000000E+00 -0.45593999997E+02  0.45594000000E+02  0.51100000000E-03 0.  1.
    9900012    2    1    2    0    0 -0.90571957331E+00  0.38686506307E+02  0.12477983695E+02  0.50528853732E+02  0.29999981402E+02 0.  0.
         12    1    1    2    0    0  0.90571957331E+00 -0.38686506307E+02 -0.12477983695E+02  0.40659146268E+02  0.00000000000E+00 0. -1.
         11    1    3    3    0    0 -0.26368582786E+01  0.66383218049E+01 -0.34312808908E+01  0.79242682173E+01  0.51100000000E-03 0. -1.
        -11    1    3    3    0    0  0.17014785986E+01  0.26646207599E+02  0.96941190660E+00  0.26718068204E+02  0.51100000000E-03 0.  1.
         12    1    3    3    0    0  0.29660106731E-01  0.54019769031E+01  0.14939852679E+02  0.15886517311E+02  0.00000000000E+00 0. -1.
</event>
<event>
 7    1  0.2746803E-013  0.5052886E+02  0.7816164E-02  0.1300439E+00
        -11   -1    0    0    0    0  0.00000000000E+00  0.00000000000E+00  0.45593999997E+02  0.45594000000E+02  0.51100000000E-03 0.  1.
         11   -1    0    0    0    0 -0.00000000000E+00 -0.00000000000E+00 -0.45593999997E+02  0.45594000000E+02  0.51100000000E-03 0. -1.
    9900012    2    1    2    0    0 -0.15227998417E+02 -0.13732917594E+02  0.35109552604E+02  0.50528860247E+02  0.30000001206E+02 0.  0.
         12    1    1    2    0    0  0.15227998417E+02  0.13732917594E+02 -0.35109552604E+02  0.40659139753E+02  0.00000000000E+00 0. -1.
         11    1    3    3    0    0 -0.76547023436E+01 -0.11488033074E+02  0.14547391477E+01  0.13881125248E+02  0.51100000000E-03 0. -1.
        -11    1    3    3    0    0 -0.59566188583E+01 -0.53556777194E+01  0.10385268832E+02  0.13115578563E+02  0.51100000000E-03 0.  1.
         12    1    3    3    0    0 -0.16166772147E+01  0.31107931997E+01  0.23269544624E+02  0.23532156437E+02  0.00000000000E+00 0. -1.
</event>
<event>
 7    1  0.2746803E-013  0.5052886E+02  0.7816164E-02  0.1300439E+00
        -11   -1    0    0    0    0  0.00000000000E+00  0.00000000000E+00  0.45593999997E+02  0.45594000000E+02  0.51100000000E-03 0. -1.
         11   -1    0    0    0    0 -0.00000000000E+00 -0.00000000000E+00 -0.45593999997E+02  0.45594000000E+02  0.51100000000E-03 0.  1.
    9900012    2    1    2    0    0 -0.24543967294E+01 -0.94531243415E+01 -0.39468721248E+02  0.50528861051E+02  0.30000003651E+02 0.  0.
         12    1    1    2    0    0  0.24543967294E+01  0.94531243415E+01  0.39468721248E+02  0.40659138949E+02  0.00000000000E+00 0. -1.
         11    1    3    3    0    0  0.14497457275E+01 -0.19164592823E+01 -0.35755683939E+01  0.43080469421E+01  0.51100000000E-03 0.  1.
        -11    1    3    3    0    0 -0.57091151235E+01 -0.11435810674E+02 -0.31064512484E+01  0.13153775157E+02  0.51100000000E-03 0. -1.
         12    1    3    3    0    0  0.18049726666E+01  0.38991456147E+01 -0.32786701606E+02  0.33067038952E+02  0.00000000000E+00 0. -1.
</event>
<event>
 7    1  0.2746803E-013  0.5052887E+02  0.7816164E-02  0.1300439E+00
        -11   -1    0    0    0    0  0.00000000000E+00  0.00000000000E+00  0.45593999997E+02  0.45594000000E+02  0.51100000000E-03 0.  1.
         11   -1    0    0    0    0 -0.00000000000E+00 -0.00000000000E+00 -0.45593999997E+02  0.45594000000E+02  0.51100000000E-03 0. -1.
    9900012    2    1    2    0    0 -0.21217760876E+02  0.12713267539E+02  0.32269870123E+02  0.50528867374E+02  0.30000022871E+02 0.  0.
         12    1    1    2    0    0  0.21217760876E+02 -0.12713267539E+02 -0.32269870123E+02  0.40659132626E+02  0.00000000000E+00 0. -1.
         11    1    3    3    0    0 -0.74674725416E+01 -0.27738563712E+01  0.30880415341E+01  0.85436190285E+01  0.51100000000E-03 0. -1.
        -11    1    3    3    0    0 -0.11689181955E+02 -0.71665296354E+00  0.48423104481E+01  0.12672747807E+02  0.51100000000E-03 0.  1.
        -12    1    3    3    0    0 -0.20611063790E+01  0.16203776874E+02  0.24339518141E+02  0.29312500538E+02  0.00000000000E+00 0.  1.
</event>
<event>
 7    1  0.2746803E-013  0.5052886E+02  0.7816164E-02  0.1300439E+00
        -11   -1    0    0    0    0  0.00000000000E+00  0.00000000000E+00  0.45593999997E+02  0.45594000000E+02  0.51100000000E-03 0.  1.
         11   -1    0    0    0    0 -0.00000000000E+00 -0.00000000000E+00 -0.45593999997E+02  0.45594000000E+02  0.51100000000E-03 0. -1.
    9900012    2    1    2    0    0  0.27544999551E+02 -0.10388480654E+02  0.28044924590E+02  0.50528864178E+02  0.30000013155E+02 0.  0.
         12    1    1    2    0    0 -0.27544999551E+02  0.10388480654E+02 -0.28044924590E+02  0.40659135822E+02  0.00000000000E+00 0. -1.
         11    1    3    3    0    0 -0.17666234070E+01 -0.25328832564E+01 -0.21224140348E+00  0.30954002208E+01  0.51100000000E-03 0. -1.
        -11    1    3    3    0    0  0.79068924652E+01  0.57046608165E+01  0.37417808683E+00  0.97571570137E+01  0.51100000000E-03 0.  1.
        -12    1    3    3    0    0  0.21404730493E+02 -0.13560258214E+02  0.27882987906E+02  0.37676306943E+02  0.00000000000E+00 0.  1.
</event>
<event>
 7    1  0.2746803E-013  0.5052887E+02  0.7816164E-02  0.1300439E+00
        -11   -1    0    0    0    0  0.00000000000E+00  0.00000000000E+00  0.45593999997E+02  0.45594000000E+02  0.51100000000E-03 0.  1.
         11   -1    0    0    0    0 -0.00000000000E+00 -0.00000000000E+00 -0.45593999997E+02  0.45594000000E+02  0.51100000000E-03 0. -1.
    9900012    2    1    2    0    0 -0.10799505836E+02 -0.23504311658E+02  0.31370098869E+02  0.50528867005E+02  0.30000021749E+02 0.  0.
         12    1    1    2    0    0  0.10799505836E+02  0.23504311658E+02 -0.31370098869E+02  0.40659132995E+02  0.00000000000E+00 0. -1.
         11    1    3    3    0    0  0.77040686209E+01 -0.56470551238E+01  0.80439797138E+01  0.12487894730E+02  0.51100000000E-03 0. -1.
        -11    1    3    3    0    0 -0.94672023844E+01 -0.18601028886E+02  0.14722341787E+02  0.25541604190E+02  0.51100000000E-03 0.  1.
         12    1    3    3    0    0 -0.90363720721E+01  0.74377235194E+00  0.86037773684E+01  0.12499368086E+02  0.00000000000E+00 0. -1.
</event>
<event>
 7    1  0.2746803E-013  0.5052883E+02  0.7816164E-02  0.1300439E+00
        -11   -1    0    0    0    0  0.00000000000E+00  0.00000000000E+00  0.45593999997E+02  0.45594000000E+02  0.51100000000E-03 0.  1.
         11   -1    0    0    0    0 -0.00000000000E+00 -0.00000000000E+00 -0.45593999997E+02  0.45594000000E+02  0.51100000000E-03 0. -1.
    9900012    2    1    2    0    0  0.47425629903E+01 -0.26090414171E+02  0.30821529510E+02  0.50528827645E+02  0.29999902108E+02 0.  0.
         12    1    1    2    0    0 -0.47425629903E+01  0.26090414171E+02 -0.30821529510E+02  0.40659172355E+02  0.00000000000E+00 0. -1.
         11    1    3    3    0    0  0.81735534468E+01 -0.14001148444E+02  0.14732474988E+02  0.21906276572E+02  0.51100000000E-03 0. -1.
        -11    1    3    3    0    0  0.40548156712E+01 -0.98165198478E+01 -0.12290571848E+00  0.10621708814E+02  0.51100000000E-03 0.  1.
         12    1    3    3    0    0 -0.74858061276E+01 -0.22727458790E+01  0.16211960240E+02  0.18000842259E+02  0.00000000000E+00 0. -1.
</event>
<event>
 7    1  0.2746803E-013  0.5052883E+02  0.7816164E-02  0.1300439E+00
        -11   -1    0    0    0    0  0.00000000000E+00  0.00000000000E+00  0.45593999997E+02  0.45594000000E+02  0.51100000000E-03 0. -1.
         11   -1    0    0    0    0 -0.00000000000E+00 -0.00000000000E+00 -0.45593999997E+02  0.45594000000E+02  0.51100000000E-03 0.  1.
    9900012    2    1    2    0    0 -0.12396597120E+01 -0.37088526154E+02 -0.16615431889E+02  0.50528829997E+02  0.29999909259E+02 0.  0.
         12    1    1    2    0    0  0.12396597120E+01  0.37088526154E+02  0.16615431889E+02  0.40659170003E+02  0.00000000000E+00 0. -1.
         11    1    3    3    0    0 -0.45600293906E+01 -0.89999070485E+01 -0.58860885915E+01  0.11680677810E+02  0.51100000000E-03 0. -1.
        -11    1    3    3    0    0  0.11616963250E+02 -0.24825069207E+02 -0.11853679230E+02  0.29862143390E+02  0.51100000000E-03 0.  1.
         12    1    3    3    0    0 -0.82965935711E+01 -0.32635498980E+01  0.11243359324E+01  0.89860087975E+01  0.00000000000E+00 0. -1.
</event>
<event>
 7    1  0.2746803E-013  0.5052886E+02  0.7816164E-02  0.1300439E+00
        -11   -1    0    0    0    0  0.00000000000E+00  0.00000000000E+00  0.45593999997E+02  0.45594000000E+02  0.51100000000E-03 0. -1.
         11   -1    0    0    0    0 -0.00000000000E+00 -0.00000000000E+00 -0.45593999997E+02  0.45594000000E+02  0.51100000000E-03 0.  1.
    9900012    2    1    2    0    0 -0.12181558566E+02 -0.29017848452E+02 -0.25743733750E+02  0.50528859266E+02  0.29999998224E+02 0.  0.
         12    1    1    2    0    0  0.12181558566E+02  0.29017848452E+02  0.25743733750E+02  0.40659140734E+02  0.00000000000E+00 0. -1.
         11    1    3    3    0    0  0.55939736542E+01  0.10622024873E+01 -0.59314733583E+01  0.82221160190E+01  0.51100000000E-03 0. -1.
        -11    1    3    3    0    0 -0.10589037860E+02 -0.64513995324E+01 -0.42139185911E+01  0.13096006601E+02  0.51100000000E-03 0.  1.
        -12    1    3    3    0    0 -0.71864943596E+01 -0.23628651407E+02 -0.15598341800E+02  0.29210736646E+02  0.00000000000E+00 0.  1.
</event>
<event>
 7    1  0.2746803E-013  0.5052886E+02  0.7816164E-02  0.1300439E+00
        -11   -1    0    0    0    0  0.00000000000E+00  0.00000000000E+00  0.45593999997E+02  0.45594000000E+02  0.51100000000E-03 0.  1.
         11   -1    0    0    0    0 -0.00000000000E+00 -0.00000000000E+00 -0.45593999997E+02  0.45594000000E+02  0.51100000000E-03 0. -1.
    9900012    2    1    2    0    0  0.54449210255E+01  0.36054402555E+02  0.17988854170E+02  0.50528856097E+02  0.29999988592E+02 0.  0.
         12    1    1    2    0    0 -0.54449210255E+01 -0.36054402555E+02 -0.17988854170E+02  0.40659143903E+02  0.00000000000E+00 0. -1.
         11    1    3    3    0    0 -0.22091171017E+01  0.33912764245E+01  0.59179387682E+00  0.40903758275E+01  0.51100000000E-03 0. -1.
        -11    1    3    3    0    0  0.11379240191E+02  0.30038577257E+02  0.22784761937E+02  0.39382084858E+02  0.51100000000E-03 0.  1.
         12    1    3    3    0    0 -0.37252020641E+01  0.26245488734E+01 -0.53877016434E+01  0.70563954117E+01  0.00000000000E+00 0. -1.
</event>
<event>
 7    1  0.2746803E-013  0.5052883E+02  0.7816164E-02  0.1300439E+00
        -11   -1    0    0    0    0  0.00000000000E+00  0.00000000000E+00  0.45593999997E+02  0.45594000000E+02  0.51100000000E-03 0.  1.
         11   -1    0    0    0    0 -0.00000000000E+00 -0.00000000000E+00 -0.45593999997E+02  0.45594000000E+02  0.51100000000E-03 0. -1.
    9900012    2    1    2    0    0  0.30587712557E+02  0.94692642690E+01  0.25057797057E+02  0.50528827374E+02  0.29999901287E+02 0.  0.
         12    1    1    2    0    0 -0.30587712557E+02 -0.94692642690E+01 -0.25057797057E+02  0.40659172626E+02  0.00000000000E+00 0. -1.
         11    1    3    3    0    0 -0.16831475874E+01  0.19730259142E+01 -0.17292650831E+01  0.31170779663E+01  0.51100000000E-03 0. -1.
        -11    1    3    3    0    0  0.88246569270E+01 -0.65959342896E+01  0.37180171760E+01  0.11627750041E+02  0.51100000000E-03 0.  1.
         12    1    3    3    0    0  0.23446203218E+02  0.14092172644E+02  0.23069044964E+02  0.35783999367E+02  0.00000000000E+00 0. -1.
</event>
<event>
 7    1  0.2746803E-013  0.5052889E+02  0.7816164E-02  0.1300439E+00
        -11   -1    0    0    0    0  0.00000000000E+00  0.00000000000E+00  0.45593999997E+02  0.45594000000E+02  0.51100000000E-03 0.  1.
         11   -1    0    0    0    0 -0.00000000000E+00 -0.00000000000E+00 -0.45593999997E+02  0.45594000000E+02  0.51100000000E-03 0. -1.
    9900012    2    1    2    0    0  0.28744611396E+02  0.28735357075E+02  0.10906009477E+01  0.50528894735E+02  0.30000106035E+02 0.  0.
         12    1    1    2    0    0 -0.28744611396E+02 -0.28735357075E+02 -0.10906009477E+01  0.40659105265E+02  0.00000000000E+00 0. -1.
         11    1    3    3    0    0  0.61569987624E+01  0.15569591970E+02 -0.71159566411E+01  0.18192241947E+02  0.51100000000E-03 0. -1.
        -11    1    3    3    0    0  0.11116302007E+02  0.15929735260E+02  0.60180248514E+01  0.20335812232E+02  0.51100000000E-03 0.  1.
        -12    1    3    3    0    0  0.11471310626E+02 -0.27639701543E+01  0.21885327375E+01  0.12000840556E+02  0.00000000000E+00 0.  1.
</event>
<event>
 7    1  0.2746803E-013  0.5052878E+02  0.7816164E-02  0.1300439E+00
        -11   -1    0    0    0    0  0.00000000000E+00  0.00000000000E+00  0.45593999997E+02  0.45594000000E+02  0.51100000000E-03 0. -1.
         11   -1    0    0    0    0 -0.00000000000E+00 -0.00000000000E+00 -0.45593999997E+02  0.45594000000E+02  0.51100000000E-03 0.  1.
    9900012    2    1    2    0    0 -0.38632606664E+02 -0.28668759712E+00 -0.12673280713E+02  0.50528775567E+02  0.29999743813E+02 0.  0.
         12    1    1    2    0    0  0.38632606664E+02  0.28668759712E+00  0.12673280713E+02  0.40659224433E+02  0.00000000000E+00 0. -1.
         11    1    3    3    0    0 -0.23456853514E+02 -0.17652004140E+01  0.10471703404E+01  0.23546474795E+02  0.51100000000E-03 0. -1.
        -11    1    3    3    0    0 -0.73753658578E+01 -0.76167787795E+01 -0.33034527306E+01  0.11105140284E+02  0.51100000000E-03 0.  1.
        -12    1    3    3    0    0 -0.78003872924E+01  0.90952915964E+01 -0.10416998322E+02  0.15877160489E+02  0.00000000000E+00 0.  1.
</event>
<event>
 7    1  0.2746803E-013  0.5052885E+02  0.7816164E-02  0.1300439E+00
        -11   -1    0    0    0    0  0.00000000000E+00  0.00000000000E+00  0.45593999997E+02  0.45594000000E+02  0.51100000000E-03 0.  1.
         11   -1    0    0    0    0 -0.00000000000E+00 -0.00000000000E+00 -0.45593999997E+02  0.45594000000E+02  0.51100000000E-03 0. -1.
    9900012    2    1    2    0    0  0.35250007886E+01  0.30031326191E+02  0.27181983532E+02  0.50528850820E+02  0.29999972551E+02 0.  0.
         12    1    1    2    0    0 -0.35250007886E+01 -0.30031326191E+02 -0.27181983532E+02  0.40659149180E+02  0.00000000000E+00 0. -1.
         11    1    3    3    0    0 -0.57899792162E+01  0.13197662970E+02  0.33028056000E+01  0.14785489247E+02  0.51100000000E-03 0. -1.
        -11    1    3    3    0    0  0.50758108848E+01  0.16377499317E+01 -0.17796586599E+01  0.56225675793E+01  0.51100000000E-03 0.  1.
        -12    1    3    3    0    0  0.42391691200E+01  0.15195913289E+02  0.25658836592E+02  0.30120793993E+02  0.00000000000E+00 0.  1.
</event>
<event>
 7    1  0.2746803E-013  0.5052885E+02  0.7816164E-02  0.1300439E+00
        -11   -1    0    0    0    0  0.00000000000E+00  0.00000000000E+00  0.45593999997E+02  0.45594000000E+02  0.51100000000E-03 0. -1.
         11   -1    0    0    0    0 -0.00000000000E+00 -0.00000000000E+00 -0.45593999997E+02  0.45594000000E+02  0.51100000000E-03 0.  1.
    9900012    2    1    2    0    0  0.22708003573E+02 -0.14318640764E+02 -0.30536692523E+02  0.50528849863E+02  0.29999969644E+02 0.  0.
         12    1    1    2    0    0 -0.22708003573E+02  0.14318640764E+02  0.30536692523E+02  0.40659150137E+02  0.00000000000E+00 0. -1.
         11    1    3    3    0    0  0.13395367442E+02 -0.19498952056E+01 -0.86532062301E+01  0.16065987008E+02  0.51100000000E-03 0. -1.
        -11    1    3    3    0    0  0.77724786941E+01 -0.30670074096E+01 -0.23459980671E+02  0.24903587148E+02  0.51100000000E-03 0.  1.
         12    1    3    3    0    0  0.15401574363E+01 -0.93017381488E+01  0.15764943779E+01  0.95592757069E+01  0.00000000000E+00 0. -1.
</event>
<event>
 7    1  0.2746803E-013  0.5052885E+02  0.7816164E-02  0.1300439E+00
        -11   -1    0    0    0    0  0.00000000000E+00  0.00000000000E+00  0.45593999997E+02  0.45594000000E+02  0.51100000000E-03 0. -1.
         11   -1    0    0    0    0 -0.00000000000E+00 -0.00000000000E+00 -0.45593999997E+02  0.45594000000E+02  0.51100000000E-03 0.  1.
    9900012    2    1    2    0    0  0.10538004235E+02 -0.31701825646E+02  0.23175658571E+02  0.50528850565E+02  0.29999971778E+02 0.  0.
         12    1    1    2    0    0 -0.10538004235E+02  0.31701825646E+02 -0.23175658571E+02  0.40659149435E+02  0.00000000000E+00 0. -1.
         11    1    3    3    0    0  0.47324876561E+00  0.73040877467E+00 -0.42608894190E+01  0.43488665505E+01  0.51100000000E-03 0. -1.
        -11    1    3    3    0    0  0.34079595137E+01 -0.12346696008E+02  0.17927752832E+01  0.12933256892E+02  0.51100000000E-03 0.  1.
        -12    1    3    3    0    0  0.66567959555E+01 -0.20085538413E+02  0.25643772707E+02  0.33246727123E+02  0.00000000000E+00 0.  1.
</event>
<event>
 7    1  0.2746803E-013  0.5052886E+02  0.7816164E-02  0.1300439E+00
        -11   -1    0    0    0    0  0.00000000000E+00  0.00000000000E+00  0.45593999997E+02  0.45594000000E+02  0.51100000000E-03 0.  1.
         11   -1    0    0    0    0 -0.00000000000E+00 -0.00000000000E+00 -0.45593999997E+02  0.45594000000E+02  0.51100000000E-03 0. -1.
    9900012    2    1    2    0    0 -0.28523291789E+02  0.14746748738E+02 -0.24942348557E+02  0.50528861736E+02  0.30000005733E+02 0.  0.
         12    1    1    2    0    0  0.28523291789E+02 -0.14746748738E+02  0.24942348557E+02  0.40659138264E+02  0.00000000000E+00 0. -1.
         11    1    3    3    0    0 -0.16354348507E+02 -0.12351823518E+01 -0.72304459801E+01  0.17923998992E+02  0.51100000000E-03 0. -1.
        -11    1    3    3    0    0 -0.17135623226E+02  0.12626907604E+02 -0.14914034356E+02  0.25990321276E+02  0.51100000000E-03 0.  1.
         12    1    3    3    0    0  0.49666799439E+01  0.33550234858E+01 -0.27978682214E+01  0.66145414686E+01  0.00000000000E+00 0. -1.
</event>
<event>
 7    1  0.2746803E-013  0.5052887E+02  0.7816164E-02  0.1300439E+00
        -11   -1    0    0    0    0  0.00000000000E+00  0.00000000000E+00  0.45593999997E+02  0.45594000000E+02  0.51100000000E-03 0.  1.
         11   -1    0    0    0    0 -0.00000000000E+00 -0.00000000000E+00 -0.45593999997E+02  0.45594000000E+02  0.51100000000E-03 0. -1.
    9900012    2    1    2    0    0  0.16996510730E+02  0.26202039788E+01  0.36843152942E+02  0.50528871080E+02  0.30000034134E+02 0.  0.
         12    1    1    2    0    0 -0.16996510730E+02 -0.26202039788E+01 -0.36843152942E+02  0.40659128920E+02  0.00000000000E+00 0. -1.
         11    1    3    3    0    0  0.37322199806E+01  0.85473109194E+01  0.12463625142E+02  0.15566886068E+02  0.51100000000E-03 0. -1.
        -11    1    3    3    0    0  0.13253332951E+02  0.37240512828E+01  0.79217754043E+01  0.15883133132E+02  0.51100000000E-03 0.  1.
        -12    1    3    3    0    0  0.10957798163E-01 -0.96511582234E+01  0.16457752396E+02  0.19078851880E+02  0.00000000000E+00 0.  1.
</event>
<event>
 7    1  0.2746803E-013  0.5052886E+02  0.7816164E-02  0.1300439E+00
        -11   -1    0    0    0    0  0.00000000000E+00  0.00000000000E+00  0.45593999997E+02  0.45594000000E+02  0.51100000000E-03 0. -1.
         11   -1    0    0    0    0 -0.00000000000E+00 -0.00000000000E+00 -0.45593999997E+02  0.45594000000E+02  0.51100000000E-03 0.  1.
    9900012    2    1    2    0    0 -0.15636433024E+02 -0.12447339169E+02 -0.35408068922E+02  0.50528860377E+02  0.30000001603E+02 0.  0.
         12    1    1    2    0    0  0.15636433024E+02  0.12447339169E+02  0.35408068922E+02  0.40659139623E+02  0.00000000000E+00 0. -1.
         11    1    3    3    0    0 -0.52023963808E+01 -0.10480529573E+02 -0.11235600606E+02  0.16221749273E+02  0.51100000000E-03 0.  1.
        -11    1    3    3    0    0  0.67969239370E+01 -0.23940581990E+00 -0.48092202271E+01  0.83297112559E+01  0.51100000000E-03 0. -1.
        -12    1    3    3    0    0 -0.17230960581E+02 -0.17274037756E+01 -0.19363248089E+02  0.25977399848E+02  0.00000000000E+00 0.  1.
</event>
<event>
 7    1  0.2746803E-013  0.5052888E+02  0.7816164E-02  0.1300439E+00
        -11   -1    0    0    0    0  0.00000000000E+00  0.00000000000E+00  0.45593999997E+02  0.45594000000E+02  0.51100000000E-03 0.  1.
         11   -1    0    0    0    0 -0.00000000000E+00 -0.00000000000E+00 -0.45593999997E+02  0.45594000000E+02  0.51100000000E-03 0. -1.
    9900012    2    1    2    0    0 -0.10067053135E+02 -0.15939859100E+02  0.36024147062E+02  0.50528882467E+02  0.30000068748E+02 0.  0.
         12    1    1    2    0    0  0.10067053135E+02  0.15939859100E+02 -0.36024147062E+02  0.40659117533E+02  0.00000000000E+00 0. -1.
         11    1    3    3    0    0  0.37961789778E+00 -0.62693136723E+01 -0.95258531895E+00  0.63526232944E+01  0.51100000000E-03 0. -1.
        -11    1    3    3    0    0 -0.13264253755E+02 -0.80048336300E+01  0.13732301823E+02  0.20702509576E+02  0.51100000000E-03 0.  1.
        -12    1    3    3    0    0  0.28175827216E+01 -0.16657117977E+01  0.23244430558E+02  0.23473749597E+02  0.00000000000E+00 0.  1.
</event>
<event>
 7    1  0.2746803E-013  0.5052886E+02  0.7816164E-02  0.1300439E+00
        -11   -1    0    0    0    0  0.00000000000E+00  0.00000000000E+00  0.45593999997E+02  0.45594000000E+02  0.51100000000E-03 0.  1.
         11   -1    0    0    0    0 -0.00000000000E+00 -0.00000000000E+00 -0.45593999997E+02  0.45594000000E+02  0.51100000000E-03 0. -1.
    9900012    2    1    2    0    0  0.27220389418E+01  0.22761894972E+02  0.33580539037E+02  0.50528856369E+02  0.29999989420E+02 0.  0.
         12    1    1    2    0    0 -0.27220389418E+01 -0.22761894972E+02 -0.33580539037E+02  0.40659143631E+02  0.00000000000E+00 0. -1.
         11    1    3    3    0    0  0.69921015558E+01 -0.30085379815E+01  0.52981137077E+01  0.92742004547E+01  0.51100000000E-03 0. -1.
        -11    1    3    3    0    0  0.51646054801E+01  0.96207196534E+01  0.72408225003E+01  0.13101942877E+02  0.51100000000E-03 0.  1.
        -12    1    3    3    0    0 -0.94346680941E+01  0.16149713301E+02  0.21041602829E+02  0.28152713037E+02  0.00000000000E+00 0.  1.
</event>
<event>
 7    1  0.2746803E-013  0.5052883E+02  0.7816164E-02  0.1300439E+00
        -11   -1    0    0    0    0  0.00000000000E+00  0.00000000000E+00  0.45593999997E+02  0.45594000000E+02  0.51100000000E-03 0. -1.
         11   -1    0    0    0    0 -0.00000000000E+00 -0.00000000000E+00 -0.45593999997E+02  0.45594000000E+02  0.51100000000E-03 0.  1.
    9900012    2    1    2    0    0  0.26364735309E+02 -0.16910733888E+02 -0.25924807971E+02  0.50528833053E+02  0.29999918547E+02 0.  0.
         12    1    1    2    0    0 -0.26364735309E+02  0.16910733888E+02  0.25924807971E+02  0.40659166947E+02  0.00000000000E+00 0. -1.
         11    1    3    3    0    0 -0.31755732036E+01 -0.61190636362E-01 -0.29445908903E+01  0.43311228611E+01  0.51100000000E-03 0. -1.
        -11    1    3    3    0    0  0.52367264036E+01 -0.13506337613E+02 -0.13790427718E+02  0.20000508895E+02  0.51100000000E-03 0.  1.
         12    1    3    3    0    0  0.24303582109E+02 -0.33432056387E+01 -0.91897893622E+01  0.26197201297E+02  0.00000000000E+00 0. -1.
</event>
<event>
 7    1  0.2746803E-013  0.5052887E+02  0.7816164E-02  0.1300439E+00
        -11   -1    0    0    0    0  0.00000000000E+00  0.00000000000E+00  0.45593999997E+02  0.45594000000E+02  0.51100000000E-03 0. -1.
         11   -1    0    0    0    0 -0.00000000000E+00 -0.00000000000E+00 -0.45593999997E+02  0.45594000000E+02  0.51100000000E-03 0.  1.
    9900012    2    1    2    0    0 -0.11772684628E+02  0.26034932197E+02 -0.28926655761E+02  0.50528865586E+02  0.30000017434E+02 0.  0.
         12    1    1    2    0    0  0.11772684628E+02 -0.26034932197E+02  0.28926655761E+02  0.40659134414E+02  0.00000000000E+00 0. -1.
         11    1    3    3    0    0 -0.28680856831E+01 -0.34974047679E+01 -0.68141459666E+01  0.81786515460E+01  0.51100000000E-03 0. -1.
        -11    1    3    3    0    0  0.55859579797E+01  0.12911596547E+02 -0.86957325580E+01  0.16538682442E+02  0.51100000000E-03 0.  1.
         12    1    3    3    0    0 -0.14490556924E+02  0.16620740418E+02 -0.13416777236E+02  0.25811531598E+02  0.00000000000E+00 0. -1.
</event>
<event>
 7    1  0.2746803E-013  0.5052886E+02  0.7816164E-02  0.1300439E+00
        -11   -1    0    0    0    0  0.00000000000E+00  0.00000000000E+00  0.45593999997E+02  0.45594000000E+02  0.51100000000E-03 0.  1.
         11   -1    0    0    0    0 -0.00000000000E+00 -0.00000000000E+00 -0.45593999997E+02  0.45594000000E+02  0.51100000000E-03 0. -1.
    9900012    2    1    2    0    0  0.15528931991E+02 -0.33321146339E+02  0.17370065209E+02  0.50528859730E+02  0.29999999637E+02 0.  0.
         12    1    1    2    0    0 -0.15528931991E+02  0.33321146339E+02 -0.17370065209E+02  0.40659140270E+02  0.00000000000E+00 0. -1.
         11    1    3    3    0    0 -0.27415853914E+01 -0.40376908581E+01 -0.28191122631E+01  0.56361895050E+01  0.51100000000E-03 0. -1.
        -11    1    3    3    0    0  0.83651165379E+01 -0.28694399287E+02  0.17402109166E+02  0.34585793743E+02  0.51100000000E-03 0.  1.
         12    1    3    3    0    0  0.99054008443E+01 -0.58905619347E+00  0.27870683064E+01  0.10306876483E+02  0.00000000000E+00 0. -1.
</event>
<event>
 7    1  0.2746803E-013  0.5052887E+02  0.7816164E-02  0.1300439E+00
        -11   -1    0    0    0    0  0.00000000000E+00  0.00000000000E+00  0.45593999997E+02  0.45594000000E+02  0.51100000000E-03 0.  1.
         11   -1    0    0    0    0 -0.00000000000E+00 -0.00000000000E+00 -0.45593999997E+02  0.45594000000E+02  0.51100000000E-03 0. -1.
    9900012    2    1    2    0    0 -0.26207177447E+00 -0.15282145145E+02  0.37676947789E+02  0.50528867735E+02  0.30000023966E+02 0.  0.
         12    1    1    2    0    0  0.26207177447E+00  0.15282145145E+02 -0.37676947789E+02  0.40659132265E+02  0.00000000000E+00 0. -1.
         11    1    3    3    0    0 -0.22129921059E+01  0.47272473317E+01  0.13769647823E+01  0.53981694739E+01  0.51100000000E-03 0. -1.
        -11    1    3    3    0    0  0.56102833685E+00 -0.62082269411E+00  0.19268184003E+02  0.19286344616E+02  0.51100000000E-03 0.  1.
        -12    1    3    3    0    0  0.13898919946E+01 -0.19388569783E+02  0.17031799004E+02  0.25844353644E+02  0.00000000000E+00 0.  1.
</event>
<event>
 7    1  0.2746803E-013  0.5052886E+02  0.7816164E-02  0.1300439E+00
        -11   -1    0    0    0    0  0.00000000000E+00  0.00000000000E+00  0.45593999997E+02  0.45594000000E+02  0.51100000000E-03 0. -1.
         11   -1    0    0    0    0 -0.00000000000E+00 -0.00000000000E+00 -0.45593999997E+02  0.45594000000E+02  0.51100000000E-03 0.  1.
    9900012    2    1    2    0    0  0.29577555815E+02 -0.27840793168E+02 -0.17955107701E+01  0.50528862883E+02  0.30000009218E+02 0.  0.
         12    1    1    2    0    0 -0.29577555815E+02  0.27840793168E+02  0.17955107701E+01  0.40659137117E+02  0.00000000000E+00 0. -1.
         11    1    3    3    0    0  0.66067476376E+01  0.69308748326E-01  0.38258151300E+01  0.76348398621E+01  0.51100000000E-03 0.  1.
        -11    1    3    3    0    0 -0.30896506630E+01 -0.10918018401E+02 -0.44417970448E+00  0.11355455204E+02  0.51100000000E-03 0. -1.
        -12    1    3    3    0    0  0.26060458841E+02 -0.16992083515E+02 -0.51771461956E+01  0.31538567816E+02  0.00000000000E+00 0.  1.
</event>
<event>
 7    1  0.2746803E-013  0.5052885E+02  0.7816164E-02  0.1300439E+00
        -11   -1    0    0    0    0  0.00000000000E+00  0.00000000000E+00  0.45593999997E+02  0.45594000000E+02  0.51100000000E-03 0.  1.
         11   -1    0    0    0    0 -0.00000000000E+00 -0.00000000000E+00 -0.45593999997E+02  0.45594000000E+02  0.51100000000E-03 0. -1.
    9900012    2    1    2    0    0  0.24886594196E+02 -0.25366303504E+02  0.19757893673E+02  0.50528852364E+02  0.29999977244E+02 0.  0.
         12    1    1    2    0    0 -0.24886594196E+02  0.25366303504E+02 -0.19757893673E+02  0.40659147636E+02  0.00000000000E+00 0. -1.
         11    1    3    3    0    0  0.12689659772E+02 -0.72105865116E+01  0.86919277648E+00  0.14621064234E+02  0.51100000000E-03 0. -1.
        -11    1    3    3    0    0  0.10677447158E+02 -0.81570226164E+01 -0.11251869589E+01  0.13483728777E+02  0.51100000000E-03 0.  1.
        -12    1    3    3    0    0  0.15194872654E+01 -0.99986943759E+01  0.20013887856E+02  0.22424059353E+02  0.00000000000E+00 0.  1.
</event>
<event>
 7    1  0.2746803E-013  0.5052887E+02  0.7816164E-02  0.1300439E+00
        -11   -1    0    0    0    0  0.00000000000E+00  0.00000000000E+00  0.45593999997E+02  0.45594000000E+02  0.51100000000E-03 0.  1.
         11   -1    0    0    0    0 -0.00000000000E+00 -0.00000000000E+00 -0.45593999997E+02  0.45594000000E+02  0.51100000000E-03 0. -1.
    9900012    2    1    2    0    0 -0.28165352865E+02 -0.78634930709E+01  0.28249657619E+02  0.50528870879E+02  0.30000033523E+02 0.  0.
         12    1    1    2    0    0  0.28165352865E+02  0.78634930709E+01 -0.28249657619E+02  0.40659129121E+02  0.00000000000E+00 0. -1.
         11    1    3    3    0    0 -0.11605534634E+02  0.46256261282E+01  0.53873583441E+01  0.13605457780E+02  0.51100000000E-03 0. -1.
        -11    1    3    3    0    0 -0.20345329602E+02 -0.55649737262E+01  0.17064958543E+02  0.27131424208E+02  0.51100000000E-03 0.  1.
         12    1    3    3    0    0  0.37855113712E+01 -0.69241454729E+01  0.57973407316E+01  0.97919888904E+01  0.00000000000E+00 0. -1.
</event>
<event>
 7    1  0.2746803E-013  0.5052882E+02  0.7816164E-02  0.1300439E+00
        -11   -1    0    0    0    0  0.00000000000E+00  0.00000000000E+00  0.45593999997E+02  0.45594000000E+02  0.51100000000E-03 0. -1.
         11   -1    0    0    0    0 -0.00000000000E+00 -0.00000000000E+00 -0.45593999997E+02  0.45594000000E+02  0.51100000000E-03 0.  1.
    9900012    2    1    2    0    0 -0.20402535526E+02 -0.30715066958E+02 -0.17131557120E+02  0.50528818460E+02  0.29999874192E+02 0.  0.
         12    1    1    2    0    0  0.20402535526E+02  0.30715066958E+02  0.17131557120E+02  0.40659181540E+02  0.00000000000E+00 0. -1.
         11    1    3    3    0    0 -0.71717402628E+01 -0.14386068554E+02 -0.79846094129E+01  0.17948448807E+02  0.51100000000E-03 0. -1.
        -11    1    3    3    0    0 -0.16743346975E+02 -0.78828612785E+01  0.14721407940E+01  0.18564653744E+02  0.51100000000E-03 0.  1.
         12    1    3    3    0    0  0.35125517116E+01 -0.84461371261E+01 -0.10619088501E+02  0.14015715910E+02  0.00000000000E+00 0. -1.
</event>
<event>
 7    1  0.2746803E-013  0.5052885E+02  0.7816164E-02  0.1300439E+00
        -11   -1    0    0    0    0  0.00000000000E+00  0.00000000000E+00  0.45593999997E+02  0.45594000000E+02  0.51100000000E-03 0.  1.
         11   -1    0    0    0    0 -0.00000000000E+00 -0.00000000000E+00 -0.45593999997E+02  0.45594000000E+02  0.51100000000E-03 0. -1.
    9900012    2    1    2    0    0  0.11086238253E+01 -0.95983238518E+01  0.39494420734E+02  0.50528854206E+02  0.29999982845E+02 0.  0.
         12    1    1    2    0    0 -0.11086238253E+01  0.95983238518E+01 -0.39494420734E+02  0.40659145794E+02  0.00000000000E+00 0. -1.
         11    1    3    3    0    0 -0.82645051201E+01 -0.13563528029E+01  0.85204659607E+01  0.11947387926E+02  0.51100000000E-03 0. -1.
        -11    1    3    3    0    0 -0.17802913731E+01 -0.12167635929E+01  0.23155422703E+02  0.23255613340E+02  0.51100000000E-03 0.  1.
        -12    1    3    3    0    0  0.11153420318E+02 -0.70252074560E+01  0.78185320705E+01  0.15325852940E+02  0.00000000000E+00 0.  1.
</event>
<event>
 7    1  0.2746803E-013  0.5052886E+02  0.7816164E-02  0.1300439E+00
        -11   -1    0    0    0    0  0.00000000000E+00  0.00000000000E+00  0.45593999997E+02  0.45594000000E+02  0.51100000000E-03 0.  1.
         11   -1    0    0    0    0 -0.00000000000E+00 -0.00000000000E+00 -0.45593999997E+02  0.45594000000E+02  0.51100000000E-03 0. -1.
    9900012    2    1    2    0    0 -0.17236099330E+02 -0.35930897271E+02  0.80655502162E+01  0.50528860817E+02  0.30000002939E+02 0.  0.
         12    1    1    2    0    0  0.17236099330E+02  0.35930897271E+02 -0.80655502162E+01  0.40659139183E+02  0.00000000000E+00 0. -1.
         11    1    3    3    0    0  0.77234739201E+00  0.27718206027E+01  0.66579681991E+00  0.29534379313E+01  0.51100000000E-03 0. -1.
        -11    1    3    3    0    0 -0.18192006491E+02 -0.18190275492E+02  0.83297772266E+01  0.27041087470E+02  0.51100000000E-03 0.  1.
         12    1    3    3    0    0  0.18355976917E+00 -0.20512442381E+02 -0.93002383032E+00  0.20534335416E+02  0.00000000000E+00 0. -1.
</event>
<event>
 7    1  0.2746803E-013  0.5052887E+02  0.7816164E-02  0.1300439E+00
        -11   -1    0    0    0    0  0.00000000000E+00  0.00000000000E+00  0.45593999997E+02  0.45594000000E+02  0.51100000000E-03 0.  1.
         11   -1    0    0    0    0 -0.00000000000E+00 -0.00000000000E+00 -0.45593999997E+02  0.45594000000E+02  0.51100000000E-03 0. -1.
    9900012    2    1    2    0    0  0.34400356722E+02  0.13283430857E+02  0.17126912277E+02  0.50528865700E+02  0.30000017781E+02 0.  0.
         12    1    1    2    0    0 -0.34400356722E+02 -0.13283430857E+02 -0.17126912277E+02  0.40659134300E+02  0.00000000000E+00 0. -1.
         11    1    3    3    0    0  0.65895092713E+00  0.25603868179E+00  0.45634106312E+01  0.46178446250E+01  0.51100000000E-03 0. -1.
        -11    1    3    3    0    0  0.37648723954E+02  0.11587298502E+02  0.13503922384E+02  0.41641899836E+02  0.51100000000E-03 0.  1.
         12    1    3    3    0    0 -0.39073181594E+01  0.14400936734E+01 -0.94042073861E+00  0.42691212389E+01  0.00000000000E+00 0. -1.
</event>
<event>
 7    1  0.2746803E-013  0.5052885E+02  0.7816164E-02  0.1300439E+00
        -11   -1    0    0    0    0  0.00000000000E+00  0.00000000000E+00  0.45593999997E+02  0.45594000000E+02  0.51100000000E-03 0.  1.
         11   -1    0    0    0    0 -0.00000000000E+00 -0.00000000000E+00 -0.45593999997E+02  0.45594000000E+02  0.51100000000E-03 0. -1.
    9900012    2    1    2    0    0 -0.36113024630E+02 -0.44368534916E+01 -0.18147451921E+02  0.50528853083E+02  0.29999979431E+02 0.  0.
         12    1    1    2    0    0  0.36113024630E+02  0.44368534916E+01  0.18147451921E+02  0.40659146917E+02  0.00000000000E+00 0. -1.
         11    1    3    3    0    0  0.14180476738E-01 -0.50621647611E+01  0.44689620687E+01  0.67525799060E+01  0.51100000000E-03 0. -1.
        -11    1    3    3    0    0 -0.15982424510E+02 -0.18747666268E+01 -0.15283164883E+02  0.22192966729E+02  0.51100000000E-03 0.  1.
        -12    1    3    3    0    0 -0.20144780597E+02  0.25000778963E+01 -0.73332491061E+01  0.21583306448E+02  0.00000000000E+00 0.  1.
</event>
<event>
 7    1  0.2746803E-013  0.5052883E+02  0.7816164E-02  0.1300439E+00
        -11   -1    0    0    0    0  0.00000000000E+00  0.00000000000E+00  0.45593999997E+02  0.45594000000E+02  0.51100000000E-03 0.  1.
         11   -1    0    0    0    0 -0.00000000000E+00 -0.00000000000E+00 -0.45593999997E+02  0.45594000000E+02  0.51100000000E-03 0. -1.
    9900012    2    1    2    0    0 -0.12426069754E+02  0.18729349063E+02  0.33881742312E+02  0.50528828981E+02  0.29999906172E+02 0.  0.
         12    1    1    2    0    0  0.12426069754E+02 -0.18729349063E+02 -0.33881742312E+02  0.40659171019E+02  0.00000000000E+00 0. -1.
         11    1    3    3    0    0  0.23205934968E+01  0.43128531085E+01 -0.22011921232E+01  0.53694602277E+01  0.51100000000E-03 0. -1.
        -11    1    3    3    0    0  0.33952217197E+01  0.54422712718E+01  0.12738164271E+02  0.14262071251E+02  0.51100000000E-03 0.  1.
        -12    1    3    3    0    0 -0.18141884971E+02  0.89742246823E+01  0.23344770164E+02  0.30897297503E+02  0.00000000000E+00 0.  1.
</event>
<event>
 7    1  0.2746803E-013  0.5052886E+02  0.7816164E-02  0.1300439E+00
        -11   -1    0    0    0    0  0.00000000000E+00  0.00000000000E+00  0.45593999997E+02  0.45594000000E+02  0.51100000000E-03 0.  1.
         11   -1    0    0    0    0 -0.00000000000E+00 -0.00000000000E+00 -0.45593999997E+02  0.45594000000E+02  0.51100000000E-03 0. -1.
    9900012    2    1    2    0    0  0.30085220976E+02  0.23728515772E+02 -0.13601577359E+02  0.50528857258E+02  0.29999992121E+02 0.  0.
         12    1    1    2    0    0 -0.30085220976E+02 -0.23728515772E+02  0.13601577359E+02  0.40659142742E+02  0.00000000000E+00 0. -1.
         11    1    3    3    0    0  0.92339582660E+01 -0.23520932346E+01 -0.72723902502E+01  0.11986909028E+02  0.51100000000E-03 0. -1.
        -11    1    3    3    0    0  0.17275381037E+02  0.94689961602E+01  0.16507449911E+01  0.19769310498E+02  0.51100000000E-03 0.  1.
         12    1    3    3    0    0  0.35758816722E+01  0.16611612846E+02 -0.79799320999E+01  0.18772637732E+02  0.00000000000E+00 0. -1.
</event>
<event>
 7    1  0.2746803E-013  0.5052884E+02  0.7816164E-02  0.1300439E+00
        -11   -1    0    0    0    0  0.00000000000E+00  0.00000000000E+00  0.45593999997E+02  0.45594000000E+02  0.51100000000E-03 0.  1.
         11   -1    0    0    0    0 -0.00000000000E+00 -0.00000000000E+00 -0.45593999997E+02  0.45594000000E+02  0.51100000000E-03 0. -1.
    9900012    2    1    2    0    0 -0.29888817261E+02  0.15073565756E+02  0.23078413077E+02  0.50528844425E+02  0.29999953115E+02 0.  0.
         12    1    1    2    0    0  0.29888817261E+02 -0.15073565756E+02 -0.23078413077E+02  0.40659155575E+02  0.00000000000E+00 0. -1.
         11    1    3    3    0    0 -0.11037812422E+02 -0.50630255197E+01  0.57083987774E+01  0.13418395855E+02  0.51100000000E-03 0. -1.
        -11    1    3    3    0    0 -0.14821308852E+02  0.56410076572E+01  0.15095089804E+02  0.21894152186E+02  0.51100000000E-03 0.  1.
         12    1    3    3    0    0 -0.40296959874E+01  0.14495583619E+02  0.22749244958E+01  0.15216296384E+02  0.00000000000E+00 0. -1.
</event>
<event>
 7    1  0.2746803E-013  0.5052886E+02  0.7816164E-02  0.1300439E+00
        -11   -1    0    0    0    0  0.00000000000E+00  0.00000000000E+00  0.45593999997E+02  0.45594000000E+02  0.51100000000E-03 0.  1.
         11   -1    0    0    0    0 -0.00000000000E+00 -0.00000000000E+00 -0.45593999997E+02  0.45594000000E+02  0.51100000000E-03 0. -1.
    9900012    2    1    2    0    0 -0.33682966250E+02  0.86475516081E+01  0.21067588046E+02  0.50528860433E+02  0.30000001773E+02 0.  0.
         12    1    1    2    0    0  0.33682966250E+02 -0.86475516081E+01 -0.21067588046E+02  0.40659139567E+02  0.00000000000E+00 0. -1.
         11    1    3    3    0    0 -0.98898488922E+01  0.96596907401E-01 -0.35247739341E+01  0.10499641595E+02  0.51100000000E-03 0. -1.
        -11    1    3    3    0    0 -0.18272738083E+02  0.11660265520E+02  0.95108189155E+01  0.23670877164E+02  0.51100000000E-03 0.  1.
        -12    1    3    3    0    0 -0.55203792755E+01 -0.31093108190E+01  0.15081543065E+02  0.16358341674E+02  0.00000000000E+00 0.  1.
</event>
<event>
 7    1  0.2746803E-013  0.5052886E+02  0.7816164E-02  0.1300439E+00
        -11   -1    0    0    0    0  0.00000000000E+00  0.00000000000E+00  0.45593999997E+02  0.45594000000E+02  0.51100000000E-03 0.  1.
         11   -1    0    0    0    0 -0.00000000000E+00 -0.00000000000E+00 -0.45593999997E+02  0.45594000000E+02  0.51100000000E-03 0. -1.
    9900012    2    1    2    0    0 -0.44083634322E+01 -0.14648795079E+02  0.37671534685E+02  0.50528863377E+02  0.30000010720E+02 0.  0.
         12    1    1    2    0    0  0.44083634322E+01  0.14648795079E+02 -0.37671534685E+02  0.40659136623E+02  0.00000000000E+00 0. -1.
         11    1    3    3    0    0  0.49389324840E+01  0.52989324846E+01  0.83154750155E+01  0.11028094330E+02  0.51100000000E-03 0. -1.
        -11    1    3    3    0    0 -0.44494198845E+01  0.38753942984E+00  0.10211106746E+02  0.11145143577E+02  0.51100000000E-03 0.  1.
        -12    1    3    3    0    0 -0.48978760317E+01 -0.20335266993E+02  0.19144952924E+02  0.28355625469E+02  0.00000000000E+00 0.  1.
</event>
<event>
 7    1  0.2746803E-013  0.5052886E+02  0.7816164E-02  0.1300439E+00
        -11   -1    0    0    0    0  0.00000000000E+00  0.00000000000E+00  0.45593999997E+02  0.45594000000E+02  0.51100000000E-03 0.  1.
         11   -1    0    0    0    0 -0.00000000000E+00 -0.00000000000E+00 -0.45593999997E+02  0.45594000000E+02  0.51100000000E-03 0. -1.
    9900012    2    1    2    0    0 -0.36933947868E+02 -0.93217410707E+01  0.14218091716E+02  0.50528862112E+02  0.30000006877E+02 0.  0.
         12    1    1    2    0    0  0.36933947868E+02  0.93217410707E+01 -0.14218091716E+02  0.40659137888E+02  0.00000000000E+00 0. -1.
         11    1    3    3    0    0 -0.68808696535E+01  0.49812494727E+01 -0.14101667854E+01  0.86109107603E+01  0.51100000000E-03 0. -1.
        -11    1    3    3    0    0 -0.64621062648E+01  0.27512547797E+01  0.10077737103E+02  0.12283688600E+02  0.51100000000E-03 0.  1.
        -12    1    3    3    0    0 -0.23590971950E+02 -0.17054245323E+02  0.55505213981E+01  0.29634262752E+02  0.00000000000E+00 0.  1.
</event>
<event>
 7    1  0.2746803E-013  0.5052885E+02  0.7816164E-02  0.1300439E+00
        -11   -1    0    0    0    0  0.00000000000E+00  0.00000000000E+00  0.45593999997E+02  0.45594000000E+02  0.51100000000E-03 0.  1.
         11   -1    0    0    0    0 -0.00000000000E+00 -0.00000000000E+00 -0.45593999997E+02  0.45594000000E+02  0.51100000000E-03 0. -1.
    9900012    2    1    2    0    0  0.29942045263E+02  0.26396561514E+02 -0.77370247970E+01  0.50528854818E+02  0.29999984704E+02 0.  0.
         12    1    1    2    0    0 -0.29942045263E+02 -0.26396561514E+02  0.77370247970E+01  0.40659145182E+02  0.00000000000E+00 0. -1.
         11    1    3    3    0    0 -0.34855440580E+01  0.12643977903E+01 -0.49915866368E+00  0.37412402737E+01  0.51100000000E-03 0. -1.
        -11    1    3    3    0    0  0.12850673043E+02  0.21316142449E+02 -0.70107166513E+01  0.25858613164E+02  0.51100000000E-03 0.  1.
        -12    1    3    3    0    0  0.20576916278E+02  0.38160212746E+01 -0.22714948203E+00  0.20929001380E+02  0.00000000000E+00 0.  1.
</event>
<event>
 7    1  0.2746803E-013  0.5052886E+02  0.7816164E-02  0.1300439E+00
        -11   -1    0    0    0    0  0.00000000000E+00  0.00000000000E+00  0.45593999997E+02  0.45594000000E+02  0.51100000000E-03 0.  1.
         11   -1    0    0    0    0 -0.00000000000E+00 -0.00000000000E+00 -0.45593999997E+02  0.45594000000E+02  0.51100000000E-03 0. -1.
    9900012    2    1    2    0    0  0.16820915490E+02  0.36934708600E+02  0.24596857258E+01  0.50528856487E+02  0.29999989779E+02 0.  0.
         12    1    1    2    0    0 -0.16820915490E+02 -0.36934708600E+02 -0.24596857258E+01  0.40659143513E+02  0.00000000000E+00 0. -1.
         11    1    3    3    0    0  0.76544898703E+01  0.26557431789E+02  0.38263792865E+01  0.27902142877E+02  0.51100000000E-03 0.  1.
        -11    1    3    3    0    0 -0.19889708513E+01 -0.22356075957E+01  0.39623305391E+01  0.49652804484E+01  0.51100000000E-03 0. -1.
         12    1    3    3    0    0  0.11155396471E+02  0.12612884406E+02 -0.53290240997E+01  0.17661433162E+02  0.00000000000E+00 0. -1.
</event>
<event>
 7    1  0.2746803E-013  0.5052885E+02  0.7816164E-02  0.1300439E+00
        -11   -1    0    0    0    0  0.00000000000E+00  0.00000000000E+00  0.45593999997E+02  0.45594000000E+02  0.51100000000E-03 0. -1.
         11   -1    0    0    0    0 -0.00000000000E+00 -0.00000000000E+00 -0.45593999997E+02  0.45594000000E+02  0.51100000000E-03 0.  1.
    9900012    2    1    2    0    0  0.36931844171E+02 -0.90732390413E+01 -0.14383385106E+02  0.50528849153E+02  0.29999967484E+02 0.  0.
         12    1    1    2    0    0 -0.36931844171E+02  0.90732390413E+01  0.14383385106E+02  0.40659150847E+02  0.00000000000E+00 0. -1.
         11    1    3    3    0    0  0.82671817220E+01  0.17999691783E+00  0.73404840952E+01  0.11057187686E+02  0.51100000000E-03 0. -1.
        -11    1    3    3    0    0  0.45284856013E+01 -0.70884771889E+01 -0.33228358772E+01  0.90440549106E+01  0.51100000000E-03 0.  1.
        -12    1    3    3    0    0  0.24136176847E+02 -0.21647587703E+01 -0.18401033324E+02  0.30427606556E+02  0.00000000000E+00 0.  1.
</event>
<event>
 7    1  0.2746803E-013  0.5052886E+02  0.7816164E-02  0.1300439E+00
        -11   -1    0    0    0    0  0.00000000000E+00  0.00000000000E+00  0.45593999997E+02  0.45594000000E+02  0.51100000000E-03 0. -1.
         11   -1    0    0    0    0 -0.00000000000E+00 -0.00000000000E+00 -0.45593999997E+02  0.45594000000E+02  0.51100000000E-03 0.  1.
    9900012    2    1    2    0    0  0.12840796927E+02  0.20567931774E+02 -0.32638014057E+02  0.50528857796E+02  0.29999993757E+02 0.  0.
         12    1    1    2    0    0 -0.12840796927E+02 -0.20567931774E+02  0.32638014057E+02  0.40659142204E+02  0.00000000000E+00 0. -1.
         11    1    3    3    0    0  0.26254947130E+01  0.12928894304E+02 -0.14804515717E+02  0.19829856688E+02  0.51100000000E-03 0.  1.
        -11    1    3    3    0    0 -0.31354192722E+01 -0.98659388264E+00 -0.13956362978E+02  0.14338210814E+02  0.51100000000E-03 0. -1.
        -12    1    3    3    0    0  0.13350721486E+02  0.86256313530E+01 -0.38771353618E+01  0.16360790294E+02  0.00000000000E+00 0.  1.
</event>
<event>
 7    1  0.2746803E-013  0.5052886E+02  0.7816164E-02  0.1300439E+00
        -11   -1    0    0    0    0  0.00000000000E+00  0.00000000000E+00  0.45593999997E+02  0.45594000000E+02  0.51100000000E-03 0.  1.
         11   -1    0    0    0    0 -0.00000000000E+00 -0.00000000000E+00 -0.45593999997E+02  0.45594000000E+02  0.51100000000E-03 0. -1.
    9900012    2    1    2    0    0 -0.25732991812E+02 -0.26903113347E+02  0.16346287687E+02  0.50528862079E+02  0.30000006774E+02 0.  0.
         12    1    1    2    0    0  0.25732991812E+02  0.26903113347E+02 -0.16346287687E+02  0.40659137921E+02  0.00000000000E+00 0. -1.
         11    1    3    3    0    0  0.29242369618E+01  0.27771910613E+01 -0.19738322641E+01  0.44899850854E+01  0.51100000000E-03 0. -1.
        -11    1    3    3    0    0 -0.13820548351E+02 -0.19790989455E+02  0.79624433849E+01  0.25418326563E+02  0.51100000000E-03 0.  1.
        -12    1    3    3    0    0 -0.14836680422E+02 -0.98893149536E+01  0.10357676566E+02  0.20620550431E+02  0.00000000000E+00 0.  1.
</event>
<event>
 7    1  0.2746803E-013  0.5052886E+02  0.7816164E-02  0.1300439E+00
        -11   -1    0    0    0    0  0.00000000000E+00  0.00000000000E+00  0.45593999997E+02  0.45594000000E+02  0.51100000000E-03 0.  1.
         11   -1    0    0    0    0 -0.00000000000E+00 -0.00000000000E+00 -0.45593999997E+02  0.45594000000E+02  0.51100000000E-03 0. -1.
    9900012    2    1    2    0    0  0.26206555665E+02  0.26005478449E+02  0.17032237264E+02  0.50528861108E+02  0.30000003824E+02 0.  0.
         12    1    1    2    0    0 -0.26206555665E+02 -0.26005478449E+02 -0.17032237264E+02  0.40659138892E+02  0.00000000000E+00 0. -1.
         11    1    3    3    0    0  0.15370884484E+02 -0.45298773902E+00  0.55815160193E+01  0.16359175073E+02  0.51100000000E-03 0. -1.
        -11    1    3    3    0    0  0.67972543487E+01  0.11632577204E+02 -0.21569320094E+01  0.13644481486E+02  0.51100000000E-03 0.  1.
         12    1    3    3    0    0  0.40384168324E+01  0.14825888985E+02  0.13607653254E+02  0.20525204549E+02  0.00000000000E+00 0. -1.
</event>
<event>
 7    1  0.2746803E-013  0.5052886E+02  0.7816164E-02  0.1300439E+00
        -11   -1    0    0    0    0  0.00000000000E+00  0.00000000000E+00  0.45593999997E+02  0.45594000000E+02  0.51100000000E-03 0. -1.
         11   -1    0    0    0    0 -0.00000000000E+00 -0.00000000000E+00 -0.45593999997E+02  0.45594000000E+02  0.51100000000E-03 0.  1.
    9900012    2    1    2    0    0 -0.19293657138E+02 -0.71555987418E+01 -0.35067337565E+02  0.50528856342E+02  0.29999989338E+02 0.  0.
         12    1    1    2    0    0  0.19293657138E+02  0.71555987418E+01  0.35067337565E+02  0.40659143658E+02  0.00000000000E+00 0. -1.
         11    1    3    3    0    0  0.19797355285E+01 -0.48462565334E+01  0.45042901721E+00  0.52543735794E+01  0.51100000000E-03 0. -1.
        -11    1    3    3    0    0 -0.54549534167E+01 -0.86751447747E+01 -0.18706117951E+02  0.21329170230E+02  0.51100000000E-03 0.  1.
         12    1    3    3    0    0 -0.15818439250E+02  0.63658025664E+01 -0.16811648631E+02  0.23945312533E+02  0.00000000000E+00 0. -1.
</event>
<event>
 7    1  0.2746803E-013  0.5052885E+02  0.7816164E-02  0.1300439E+00
        -11   -1    0    0    0    0  0.00000000000E+00  0.00000000000E+00  0.45593999997E+02  0.45594000000E+02  0.51100000000E-03 0.  1.
         11   -1    0    0    0    0 -0.00000000000E+00 -0.00000000000E+00 -0.45593999997E+02  0.45594000000E+02  0.51100000000E-03 0. -1.
    9900012    2    1    2    0    0 -0.77775308793E+01 -0.12233775014E+02  0.37986985957E+02  0.50528851709E+02  0.29999975255E+02 0.  0.
         12    1    1    2    0    0  0.77775308793E+01  0.12233775014E+02 -0.37986985957E+02  0.40659148291E+02  0.00000000000E+00 0. -1.
         11    1    3    3    0    0 -0.27138502271E+01  0.36782565755E+01  0.24639872978E+02  0.25060285216E+02  0.51100000000E-03 0. -1.
        -11    1    3    3    0    0 -0.57060299790E+01 -0.15178751171E+02  0.15915575409E+02  0.22721329320E+02  0.51100000000E-03 0.  1.
        -12    1    3    3    0    0  0.64234932684E+00 -0.73328041847E+00 -0.25684624299E+01  0.27472371728E+01  0.00000000000E+00 0.  1.
</event>
<event>
 7    1  0.2746803E-013  0.5052886E+02  0.7816164E-02  0.1300439E+00
        -11   -1    0    0    0    0  0.00000000000E+00  0.00000000000E+00  0.45593999997E+02  0.45594000000E+02  0.51100000000E-03 0. -1.
         11   -1    0    0    0    0 -0.00000000000E+00 -0.00000000000E+00 -0.45593999997E+02  0.45594000000E+02  0.51100000000E-03 0.  1.
    9900012    2    1    2    0    0 -0.50757463503E+01  0.40063619313E+02 -0.47231970770E+01  0.50528863461E+02  0.30000010976E+02 0.  0.
         12    1    1    2    0    0  0.50757463503E+01 -0.40063619313E+02  0.47231970770E+01  0.40659136539E+02  0.00000000000E+00 0. -1.
         11    1    3    3    0    0 -0.63844767632E+00  0.34566822257E+01  0.90960313721E+01  0.97516180416E+01  0.51100000000E-03 0. -1.
        -11    1    3    3    0    0 -0.47497303588E+01  0.59542353456E+01 -0.16341634195E+01  0.77899516927E+01  0.51100000000E-03 0.  1.
        -12    1    3    3    0    0  0.31243168487E+00  0.30652701742E+02 -0.12185065030E+02  0.32987293727E+02  0.00000000000E+00 0.  1.
</event>
<event>
 7    1  0.2746803E-013  0.5052887E+02  0.7816164E-02  0.1300439E+00
        -11   -1    0    0    0    0  0.00000000000E+00  0.00000000000E+00  0.45593999997E+02  0.45594000000E+02  0.51100000000E-03 0.  1.
         11   -1    0    0    0    0 -0.00000000000E+00 -0.00000000000E+00 -0.45593999997E+02  0.45594000000E+02  0.51100000000E-03 0. -1.
    9900012    2    1    2    0    0 -0.18199631033E+02  0.53889785471E+01 -0.35956875682E+02  0.50528873492E+02  0.30000041468E+02 0.  0.
         12    1    1    2    0    0  0.18199631033E+02 -0.53889785471E+01  0.35956875682E+02  0.40659126508E+02  0.00000000000E+00 0. -1.
         11    1    3    3    0    0  0.16746279021E+01  0.71033829487E+01 -0.12101044094E+02  0.14131443534E+02  0.51100000000E-03 0. -1.
        -11    1    3    3    0    0 -0.17945467971E+02  0.35396276784E+01 -0.24702037648E+02  0.30736939487E+02  0.51100000000E-03 0.  1.
        -12    1    3    3    0    0 -0.19287909644E+01 -0.52540320799E+01  0.84620605992E+00  0.56604904714E+01  0.00000000000E+00 0.  1.
</event>
<event>
 7    1  0.2746803E-013  0.5052887E+02  0.7816164E-02  0.1300439E+00
        -11   -1    0    0    0    0  0.00000000000E+00  0.00000000000E+00  0.45593999997E+02  0.45594000000E+02  0.51100000000E-03 0.  1.
         11   -1    0    0    0    0 -0.00000000000E+00 -0.00000000000E+00 -0.45593999997E+02  0.45594000000E+02  0.51100000000E-03 0. -1.
    9900012    2    1    2    0    0  0.31970920873E+02 -0.46074278137E+00  0.25115986949E+02  0.50528869835E+02  0.30000030350E+02 0.  0.
         12    1    1    2    0    0 -0.31970920873E+02  0.46074278137E+00 -0.25115986949E+02  0.40659130165E+02  0.00000000000E+00 0. -1.
         11    1    3    3    0    0  0.40570616819E+01 -0.63073931514E+01  0.28471499950E+01  0.80217966324E+01  0.51100000000E-03 0. -1.
        -11    1    3    3    0    0  0.48667512191E+01  0.60723417453E+01 -0.29685554066E+01  0.83289208883E+01  0.51100000000E-03 0.  1.
        -12    1    3    3    0    0  0.23047107972E+02 -0.22569137535E+00  0.25237392360E+02  0.34178152314E+02  0.00000000000E+00 0.  1.
</event>
<event>
 7    1  0.2746803E-013  0.5052887E+02  0.7816164E-02  0.1300439E+00
        -11   -1    0    0    0    0  0.00000000000E+00  0.00000000000E+00  0.45593999997E+02  0.45594000000E+02  0.51100000000E-03 0.  1.
         11   -1    0    0    0    0 -0.00000000000E+00 -0.00000000000E+00 -0.45593999997E+02  0.45594000000E+02  0.51100000000E-03 0. -1.
    9900012    2    1    2    0    0  0.43962663219E+01  0.31814373472E+01  0.40295365303E+02  0.50528866142E+02  0.30000019126E+02 0.  0.
         12    1    1    2    0    0 -0.43962663219E+01 -0.31814373472E+01 -0.40295365303E+02  0.40659133858E+02  0.00000000000E+00 0. -1.
         11    1    3    3    0    0  0.42809002613E+00  0.44146300973E+01  0.17047636673E+01  0.47516775342E+01  0.51100000000E-03 0. -1.
        -11    1    3    3    0    0 -0.75794075108E+00  0.10895175257E+02  0.12356186135E+02  0.16491047696E+02  0.51100000000E-03 0.  1.
        -12    1    3    3    0    0  0.47261170468E+01 -0.12128368007E+02  0.26234415500E+02  0.29286140912E+02  0.00000000000E+00 0.  1.
</event>
<event>
 7    1  0.2746803E-013  0.5052885E+02  0.7816164E-02  0.1300439E+00
        -11   -1    0    0    0    0  0.00000000000E+00  0.00000000000E+00  0.45593999997E+02  0.45594000000E+02  0.51100000000E-03 0.  1.
         11   -1    0    0    0    0 -0.00000000000E+00 -0.00000000000E+00 -0.45593999997E+02  0.45594000000E+02  0.51100000000E-03 0. -1.
    9900012    2    1    2    0    0  0.40090657428E+02  0.58720764946E+01 -0.33800305911E+01  0.50528847252E+02  0.29999961708E+02 0.  0.
         12    1    1    2    0    0 -0.40090657428E+02 -0.58720764946E+01  0.33800305911E+01  0.40659152748E+02  0.00000000000E+00 0. -1.
         11    1    3    3    0    0  0.98385948226E+00  0.29559860192E+01  0.17200966810E+01  0.35587309086E+01  0.51100000000E-03 0. -1.
        -11    1    3    3    0    0  0.87122772256E+01 -0.10266978541E+02 -0.10785506750E+00  0.13465743789E+02  0.51100000000E-03 0.  1.
        -12    1    3    3    0    0  0.30394520720E+02  0.13183069017E+02 -0.49922722046E+01  0.33504372554E+02  0.00000000000E+00 0.  1.
</event>
<event>
 7    1  0.2746803E-013  0.5052880E+02  0.7816164E-02  0.1300439E+00
        -11   -1    0    0    0    0  0.00000000000E+00  0.00000000000E+00  0.45593999997E+02  0.45594000000E+02  0.51100000000E-03 0.  1.
         11   -1    0    0    0    0 -0.00000000000E+00 -0.00000000000E+00 -0.45593999997E+02  0.45594000000E+02  0.51100000000E-03 0. -1.
    9900012    2    1    2    0    0 -0.27274482933E+02  0.29783311888E+02  0.47146032447E+01  0.50528799688E+02  0.29999817130E+02 0.  0.
         12    1    1    2    0    0  0.27274482933E+02 -0.29783311888E+02 -0.47146032447E+01  0.40659200312E+02  0.00000000000E+00 0. -1.
         11    1    3    3    0    0 -0.12740369609E+02  0.25481986893E+02 -0.17810500060E+01  0.28545066354E+02  0.51100000000E-03 0. -1.
        -11    1    3    3    0    0 -0.10573911449E+02  0.64738600795E+01 -0.18095278645E+01  0.12529679127E+02  0.51100000000E-03 0.  1.
        -12    1    3    3    0    0 -0.39602018750E+01 -0.21725350849E+01  0.83051811152E+01  0.94540542066E+01  0.00000000000E+00 0.  1.
</event>
<event>
 7    1  0.2746803E-013  0.5052886E+02  0.7816164E-02  0.1300439E+00
        -11   -1    0    0    0    0  0.00000000000E+00  0.00000000000E+00  0.45593999997E+02  0.45594000000E+02  0.51100000000E-03 0.  1.
         11   -1    0    0    0    0 -0.00000000000E+00 -0.00000000000E+00 -0.45593999997E+02  0.45594000000E+02  0.51100000000E-03 0. -1.
    9900012    2    1    2    0    0 -0.20842856773E+02 -0.24792144454E+02  0.24578261232E+02  0.50528855514E+02  0.29999986821E+02 0.  0.
         12    1    1    2    0    0  0.20842856773E+02  0.24792144454E+02 -0.24578261232E+02  0.40659144486E+02  0.00000000000E+00 0. -1.
         11    1    3    3    0    0 -0.96339245678E+01 -0.53534428343E+01 -0.16730517519E+01  0.11147688334E+02  0.51100000000E-03 0. -1.
        -11    1    3    3    0    0 -0.67260748814E+01  0.14002977601E+01  0.11714159284E+02  0.13580222573E+02  0.51100000000E-03 0.  1.
         12    1    3    3    0    0 -0.44828573243E+01 -0.20838999380E+02  0.14537153700E+02  0.25800944608E+02  0.00000000000E+00 0. -1.
</event>
<event>
 7    1  0.2746803E-013  0.5052887E+02  0.7816164E-02  0.1300439E+00
        -11   -1    0    0    0    0  0.00000000000E+00  0.00000000000E+00  0.45593999997E+02  0.45594000000E+02  0.51100000000E-03 0.  1.
         11   -1    0    0    0    0 -0.00000000000E+00 -0.00000000000E+00 -0.45593999997E+02  0.45594000000E+02  0.51100000000E-03 0. -1.
    9900012    2    1    2    0    0 -0.31020205084E+01  0.30769499420E+02  0.26396597135E+02  0.50528868601E+02  0.30000026600E+02 0.  0.
         12    1    1    2    0    0  0.31020205084E+01 -0.30769499420E+02 -0.26396597135E+02  0.40659131399E+02  0.00000000000E+00 0. -1.
         11    1    3    3    0    0 -0.12809348975E+02  0.16983795599E+02  0.11474405911E+02  0.24170037762E+02  0.51100000000E-03 0. -1.
        -11    1    3    3    0    0  0.32039911293E-01  0.11704179117E+02  0.94980141092E+01  0.15073191687E+02  0.51100000000E-03 0.  1.
        -12    1    3    3    0    0  0.96752885549E+01  0.20815247042E+01  0.54241771144E+01  0.11285639153E+02  0.00000000000E+00 0.  1.
</event>
<event>
 7    1  0.2746803E-013  0.5052886E+02  0.7816164E-02  0.1300439E+00
        -11   -1    0    0    0    0  0.00000000000E+00  0.00000000000E+00  0.45593999997E+02  0.45594000000E+02  0.51100000000E-03 0.  1.
         11   -1    0    0    0    0 -0.00000000000E+00 -0.00000000000E+00 -0.45593999997E+02  0.45594000000E+02  0.51100000000E-03 0. -1.
    9900012    2    1    2    0    0 -0.23010361719E+02 -0.22751415344E+01  0.33444172236E+02  0.50528859921E+02  0.30000000216E+02 0.  0.
         12    1    1    2    0    0  0.23010361719E+02  0.22751415344E+01 -0.33444172236E+02  0.40659140079E+02  0.00000000000E+00 0. -1.
         11    1    3    3    0    0 -0.30030261255E+00  0.17117584293E+01  0.40243981694E+00  0.17838880701E+01  0.51100000000E-03 0. -1.
        -11    1    3    3    0    0 -0.22275482137E+02 -0.12179822213E+02  0.16495047687E+02  0.30275927270E+02  0.51100000000E-03 0.  1.
        -12    1    3    3    0    0 -0.43457696919E+00  0.81929222496E+01  0.16546684732E+02  0.18469044581E+02  0.00000000000E+00 0.  1.
</event>
<event>
 7    1  0.2746803E-013  0.5052885E+02  0.7816164E-02  0.1300439E+00
        -11   -1    0    0    0    0  0.00000000000E+00  0.00000000000E+00  0.45593999997E+02  0.45594000000E+02  0.51100000000E-03 0.  1.
         11   -1    0    0    0    0 -0.00000000000E+00 -0.00000000000E+00 -0.45593999997E+02  0.45594000000E+02  0.51100000000E-03 0. -1.
    9900012    2    1    2    0    0  0.14197451066E+02 -0.15901199460E+02  0.34622979763E+02  0.50528849878E+02  0.29999969688E+02 0.  0.
         12    1    1    2    0    0 -0.14197451066E+02  0.15901199460E+02 -0.34622979763E+02  0.40659150122E+02  0.00000000000E+00 0. -1.
         11    1    3    3    0    0 -0.13973260914E+01 -0.11398724891E+01  0.18634286484E+02  0.18721337092E+02  0.51100000000E-03 0. -1.
        -11    1    3    3    0    0  0.11608095565E+02 -0.37708014034E+01  0.15990536968E+02  0.20116264530E+02  0.51100000000E-03 0.  1.
        -12    1    3    3    0    0  0.39866815919E+01 -0.10990525568E+02 -0.18436889250E-02  0.11691248255E+02  0.00000000000E+00 0.  1.
</event>
<event>
 7    1  0.2746803E-013  0.5052886E+02  0.7816164E-02  0.1300439E+00
        -11   -1    0    0    0    0  0.00000000000E+00  0.00000000000E+00  0.45593999997E+02  0.45594000000E+02  0.51100000000E-03 0. -1.
         11   -1    0    0    0    0 -0.00000000000E+00 -0.00000000000E+00 -0.45593999997E+02  0.45594000000E+02  0.51100000000E-03 0.  1.
    9900012    2    1    2    0    0  0.19773364796E+02  0.82761402307E+01 -0.34549752001E+02  0.50528858152E+02  0.29999994838E+02 0.  0.
         12    1    1    2    0    0 -0.19773364796E+02 -0.82761402307E+01  0.34549752001E+02  0.40659141848E+02  0.00000000000E+00 0. -1.
         11    1    3    3    0    0  0.14340906709E+01  0.17661646100E+01 -0.14242193421E+02  0.14422760734E+02  0.51100000000E-03 0. -1.
        -11    1    3    3    0    0  0.21265877346E+02 -0.93103988767E+00 -0.17736100461E+02  0.27706923943E+02  0.51100000000E-03 0.  1.
        -12    1    3    3    0    0 -0.29266032204E+01  0.74410155083E+01 -0.25714581191E+01  0.83991734750E+01  0.00000000000E+00 0.  1.
</event>
<event>
 7    1  0.2746803E-013  0.5052892E+02  0.7816164E-02  0.1300439E+00
        -11   -1    0    0    0    0  0.00000000000E+00  0.00000000000E+00  0.45593999997E+02  0.45594000000E+02  0.51100000000E-03 0.  1.
         11   -1    0    0    0    0 -0.00000000000E+00 -0.00000000000E+00 -0.45593999997E+02  0.45594000000E+02  0.51100000000E-03 0. -1.
    9900012    2    1    2    0    0  0.31095425439E+02  0.23380716046E+02  0.11814304123E+02  0.50528915555E+02  0.30000169320E+02 0.  0.
         12    1    1    2    0    0 -0.31095425439E+02 -0.23380716046E+02 -0.11814304123E+02  0.40659084445E+02  0.00000000000E+00 0. -1.
         11    1    3    3    0    0  0.17614069809E+02  0.53900839207E+00 -0.20917964795E+01  0.17746030487E+02  0.51100000000E-03 0. -1.
        -11    1    3    3    0    0  0.62965362777E+01  0.82041080441E+01  0.12777077393E+02  0.16437988468E+02  0.51100000000E-03 0.  1.
        -12    1    3    3    0    0  0.71848193519E+01  0.14637599610E+02  0.11290232095E+01  0.16344896600E+02  0.00000000000E+00 0.  1.
</event>
<event>
 7    1  0.2746803E-013  0.5052886E+02  0.7816164E-02  0.1300439E+00
        -11   -1    0    0    0    0  0.00000000000E+00  0.00000000000E+00  0.45593999997E+02  0.45594000000E+02  0.51100000000E-03 0.  1.
         11   -1    0    0    0    0 -0.00000000000E+00 -0.00000000000E+00 -0.45593999997E+02  0.45594000000E+02  0.51100000000E-03 0. -1.
    9900012    2    1    2    0    0  0.88459484100E+01 -0.77063984498E+00  0.39677712816E+02  0.50528861011E+02  0.30000003529E+02 0.  0.
         12    1    1    2    0    0 -0.88459484100E+01  0.77063984498E+00 -0.39677712816E+02  0.40659138989E+02  0.00000000000E+00 0. -1.
         11    1    3    3    0    0  0.10769730657E+02  0.40669940462E+01  0.68008691441E+01  0.13370839927E+02  0.51100000000E-03 0. -1.
        -11    1    3    3    0    0  0.40184610861E+01  0.32214142282E+01  0.21006147750E+02  0.21628309751E+02  0.51100000000E-03 0.  1.
         12    1    3    3    0    0 -0.59422433327E+01 -0.80590481193E+01  0.11870695921E+02  0.15529711333E+02  0.00000000000E+00 0. -1.
</event>
<event>
 7    1  0.2746803E-013  0.5052886E+02  0.7816164E-02  0.1300439E+00
        -11   -1    0    0    0    0  0.00000000000E+00  0.00000000000E+00  0.45593999997E+02  0.45594000000E+02  0.51100000000E-03 0.  1.
         11   -1    0    0    0    0 -0.00000000000E+00 -0.00000000000E+00 -0.45593999997E+02  0.45594000000E+02  0.51100000000E-03 0. -1.
    9900012    2    1    2    0    0 -0.17359801697E+02 -0.20716040714E+02  0.30375134001E+02  0.50528858059E+02  0.29999994556E+02 0.  0.
         12    1    1    2    0    0  0.17359801697E+02  0.20716040714E+02 -0.30375134001E+02  0.40659141941E+02  0.00000000000E+00 0. -1.
         11    1    3    3    0    0  0.29368669232E+01 -0.13128984830E+01 -0.14775681822E+00  0.32203605528E+01  0.51100000000E-03 0. -1.
        -11    1    3    3    0    0  0.32229661651E+01 -0.10545881256E+01  0.11355502285E+02  0.11851037905E+02  0.51100000000E-03 0.  1.
         12    1    3    3    0    0 -0.23519634785E+02 -0.18348554105E+02  0.19167388534E+02  0.35457459601E+02  0.00000000000E+00 0. -1.
</event>
<event>
 7    1  0.2746803E-013  0.5052887E+02  0.7816164E-02  0.1300439E+00
        -11   -1    0    0    0    0  0.00000000000E+00  0.00000000000E+00  0.45593999997E+02  0.45594000000E+02  0.51100000000E-03 0.  1.
         11   -1    0    0    0    0 -0.00000000000E+00 -0.00000000000E+00 -0.45593999997E+02  0.45594000000E+02  0.51100000000E-03 0. -1.
    9900012    2    1    2    0    0  0.14698787640E+02 -0.33905122126E+02  0.16957386400E+02  0.50528872882E+02  0.30000039612E+02 0.  0.
         12    1    1    2    0    0 -0.14698787640E+02  0.33905122126E+02 -0.16957386400E+02  0.40659127118E+02  0.00000000000E+00 0. -1.
         11    1    3    3    0    0  0.65935289359E+01 -0.24002008417E+02  0.24478369873E+02  0.34910766589E+02  0.51100000000E-03 0.  1.
        -11    1    3    3    0    0  0.27960700678E+01 -0.96691776900E+00 -0.32593313877E+00  0.29764358667E+01  0.51100000000E-03 0. -1.
        -12    1    3    3    0    0  0.53091886359E+01 -0.89361959405E+01 -0.71950503345E+01  0.12641670427E+02  0.00000000000E+00 0.  1.
</event>
<event>
 7    1  0.2746803E-013  0.5052885E+02  0.7816164E-02  0.1300439E+00
        -11   -1    0    0    0    0  0.00000000000E+00  0.00000000000E+00  0.45593999997E+02  0.45594000000E+02  0.51100000000E-03 0.  1.
         11   -1    0    0    0    0 -0.00000000000E+00 -0.00000000000E+00 -0.45593999997E+02  0.45594000000E+02  0.51100000000E-03 0. -1.
    9900012    2    1    2    0    0  0.32299342680E+01  0.90521566804E+01  0.39506861910E+02  0.50528853994E+02  0.29999982201E+02 0.  0.
         12    1    1    2    0    0 -0.32299342680E+01 -0.90521566804E+01 -0.39506861910E+02  0.40659146006E+02  0.00000000000E+00 0. -1.
         11    1    3    3    0    0 -0.51354073136E+01  0.30029062145E+01  0.28979285763E+02  0.29583591019E+02  0.51100000000E-03 0. -1.
        -11    1    3    3    0    0 -0.13053236963E+01 -0.37771558333E+01  0.41276858699E+01  0.57453082635E+01  0.51100000000E-03 0.  1.
         12    1    3    3    0    0  0.96706652779E+01  0.98264062992E+01  0.63998902771E+01  0.15199954712E+02  0.00000000000E+00 0. -1.
</event>
<event>
 7    1  0.2746803E-013  0.5052885E+02  0.7816164E-02  0.1300439E+00
        -11   -1    0    0    0    0  0.00000000000E+00  0.00000000000E+00  0.45593999997E+02  0.45594000000E+02  0.51100000000E-03 0. -1.
         11   -1    0    0    0    0 -0.00000000000E+00 -0.00000000000E+00 -0.45593999997E+02  0.45594000000E+02  0.51100000000E-03 0.  1.
    9900012    2    1    2    0    0  0.23301020238E+02  0.59277171923E+01 -0.32788585049E+02  0.50528847466E+02  0.29999962359E+02 0.  0.
         12    1    1    2    0    0 -0.23301020238E+02 -0.59277171923E+01  0.32788585049E+02  0.40659152534E+02  0.00000000000E+00 0. -1.
         11    1    3    3    0    0 -0.36652825514E+01  0.36593382530E+01 -0.42724781407E+01  0.67140987746E+01  0.51100000000E-03 0. -1.
        -11    1    3    3    0    0  0.15343987652E+02  0.75736125060E+01 -0.63909802093E+01  0.18265875061E+02  0.51100000000E-03 0.  1.
        -12    1    3    3    0    0  0.11622315138E+02 -0.53052335667E+01 -0.22125126699E+02  0.25548873630E+02  0.00000000000E+00 0.  1.
</event>
<event>
 7    1  0.2746803E-013  0.5052886E+02  0.7816164E-02  0.1300439E+00
        -11   -1    0    0    0    0  0.00000000000E+00  0.00000000000E+00  0.45593999997E+02  0.45594000000E+02  0.51100000000E-03 0.  1.
         11   -1    0    0    0    0 -0.00000000000E+00 -0.00000000000E+00 -0.45593999997E+02  0.45594000000E+02  0.51100000000E-03 0. -1.
    9900012    2    1    2    0    0 -0.16641773253E+02  0.31468816615E+02 -0.19645119580E+02  0.50528858845E+02  0.29999996944E+02 0.  0.
         12    1    1    2    0    0  0.16641773253E+02 -0.31468816615E+02  0.19645119580E+02  0.40659141155E+02  0.00000000000E+00 0. -1.
         11    1    3    3    0    0 -0.93069910376E+01  0.59441020942E+01 -0.43491532763E+01  0.11868764315E+02  0.51100000000E-03 0. -1.
        -11    1    3    3    0    0 -0.82250163268E+01  0.11773489749E+01 -0.11214193747E+02  0.13956904594E+02  0.51100000000E-03 0.  1.
        -12    1    3    3    0    0  0.89023411143E+00  0.24347365546E+02 -0.40817725570E+01  0.24703189936E+02  0.00000000000E+00 0.  1.
</event>
<event>
 7    1  0.2746803E-013  0.5052889E+02  0.7816164E-02  0.1300439E+00
        -11   -1    0    0    0    0  0.00000000000E+00  0.00000000000E+00  0.45593999997E+02  0.45594000000E+02  0.51100000000E-03 0. -1.
         11   -1    0    0    0    0 -0.00000000000E+00 -0.00000000000E+00 -0.45593999997E+02  0.45594000000E+02  0.51100000000E-03 0.  1.
    9900012    2    1    2    0    0  0.11892189935E+02 -0.25136233856E+02 -0.29663255280E+02  0.50528890962E+02  0.30000094569E+02 0.  0.
         12    1    1    2    0    0 -0.11892189935E+02  0.25136233856E+02  0.29663255280E+02  0.40659109038E+02  0.00000000000E+00 0. -1.
         11    1    3    3    0    0  0.66335354402E+01 -0.20696805838E+02 -0.25069228100E+02  0.33178724540E+02  0.51100000000E-03 0. -1.
        -11    1    3    3    0    0  0.89148409019E+01 -0.53395053948E+01 -0.73120263574E+01  0.12706314803E+02  0.51100000000E-03 0.  1.
         12    1    3    3    0    0 -0.36561864076E+01  0.90007737670E+00  0.27179991770E+01  0.46438516188E+01  0.00000000000E+00 0. -1.
</event>
<event>
 7    1  0.2746803E-013  0.5052886E+02  0.7816164E-02  0.1300439E+00
        -11   -1    0    0    0    0  0.00000000000E+00  0.00000000000E+00  0.45593999997E+02  0.45594000000E+02  0.51100000000E-03 0.  1.
         11   -1    0    0    0    0 -0.00000000000E+00 -0.00000000000E+00 -0.45593999997E+02  0.45594000000E+02  0.51100000000E-03 0. -1.
    9900012    2    1    2    0    0 -0.31534912159E+02 -0.11214630641E+02  0.23085644359E+02  0.50528860797E+02  0.30000002877E+02 0.  0.
         12    1    1    2    0    0  0.31534912159E+02  0.11214630641E+02 -0.23085644359E+02  0.40659139203E+02  0.00000000000E+00 0. -1.
         11    1    3    3    0    0 -0.91167039656E+00 -0.18366234250E+01 -0.35349853923E+01  0.40866184679E+01  0.51100000000E-03 0. -1.
        -11    1    3    3    0    0 -0.14516850230E+02 -0.15115711785E+02  0.14648235230E+02  0.25569405135E+02  0.51100000000E-03 0.  1.
         12    1    3    3    0    0 -0.16106391533E+02  0.57377045692E+01  0.11972394521E+02  0.20872837194E+02  0.00000000000E+00 0. -1.
</event>
<event>
 7    1  0.2746803E-013  0.5052885E+02  0.7816164E-02  0.1300439E+00
        -11   -1    0    0    0    0  0.00000000000E+00  0.00000000000E+00  0.45593999997E+02  0.45594000000E+02  0.51100000000E-03 0. -1.
         11   -1    0    0    0    0 -0.00000000000E+00 -0.00000000000E+00 -0.45593999997E+02  0.45594000000E+02  0.51100000000E-03 0.  1.
    9900012    2    1    2    0    0 -0.32913607849E+01 -0.64058785336E+01 -0.40016219002E+02  0.50528854426E+02  0.29999983513E+02 0.  0.
         12    1    1    2    0    0  0.32913607849E+01  0.64058785336E+01  0.40016219002E+02  0.40659145574E+02  0.00000000000E+00 0. -1.
         11    1    3    3    0    0 -0.26834393384E+01  0.17285561464E+01  0.19902533886E+01  0.37616302112E+01  0.51100000000E-03 0. -1.
        -11    1    3    3    0    0  0.73134194521E+01 -0.17678631453E+01 -0.68633018281E+01  0.10184122762E+02  0.51100000000E-03 0.  1.
        -12    1    3    3    0    0 -0.79213408986E+01 -0.63665715348E+01 -0.35143170562E+02  0.36583101453E+02  0.00000000000E+00 0.  1.
</event>
<event>
 7    1  0.2746803E-013  0.5052886E+02  0.7816164E-02  0.1300439E+00
        -11   -1    0    0    0    0  0.00000000000E+00  0.00000000000E+00  0.45593999997E+02  0.45594000000E+02  0.51100000000E-03 0.  1.
         11   -1    0    0    0    0 -0.00000000000E+00 -0.00000000000E+00 -0.45593999997E+02  0.45594000000E+02  0.51100000000E-03 0. -1.
    9900012    2    1    2    0    0  0.98423658871E+01  0.35423320744E+02  0.17363226304E+02  0.50528862694E+02  0.30000008644E+02 0.  0.
         12    1    1    2    0    0 -0.98423658871E+01 -0.35423320744E+02 -0.17363226304E+02  0.40659137306E+02  0.00000000000E+00 0. -1.
         11    1    3    3    0    0  0.54773735751E+01  0.20726675236E+02  0.12001295056E+02  0.24568837394E+02  0.51100000000E-03 0. -1.
        -11    1    3    3    0    0  0.11490696983E+02  0.91562023001E+01 -0.12876570945E+01  0.14748905680E+02  0.51100000000E-03 0.  1.
         12    1    3    3    0    0 -0.71257046709E+01  0.55404432081E+01  0.66495883428E+01  0.11211119620E+02  0.00000000000E+00 0. -1.
</event>
<event>
 7    1  0.2746803E-013  0.5052886E+02  0.7816164E-02  0.1300439E+00
        -11   -1    0    0    0    0  0.00000000000E+00  0.00000000000E+00  0.45593999997E+02  0.45594000000E+02  0.51100000000E-03 0.  1.
         11   -1    0    0    0    0 -0.00000000000E+00 -0.00000000000E+00 -0.45593999997E+02  0.45594000000E+02  0.51100000000E-03 0. -1.
    9900012    2    1    2    0    0 -0.22575346589E+02 -0.29384585081E+02  0.16735162501E+02  0.50528858618E+02  0.29999996256E+02 0.  0.
         12    1    1    2    0    0  0.22575346589E+02  0.29384585081E+02 -0.16735162501E+02  0.40659141382E+02  0.00000000000E+00 0. -1.
         11    1    3    3    0    0 -0.42488114877E+01 -0.32740766939E+00  0.14204058641E+01  0.44918980309E+01  0.51100000000E-03 0. -1.
        -11    1    3    3    0    0 -0.19909091146E+02 -0.14573289059E+02 -0.30744424184E+00  0.24674829006E+02  0.51100000000E-03 0.  1.
         12    1    3    3    0    0  0.15825560441E+01 -0.14483888352E+02  0.15622200878E+02  0.21362131582E+02  0.00000000000E+00 0. -1.
</event>
<event>
 7    1  0.2746803E-013  0.5052886E+02  0.7816164E-02  0.1300439E+00
        -11   -1    0    0    0    0  0.00000000000E+00  0.00000000000E+00  0.45593999997E+02  0.45594000000E+02  0.51100000000E-03 0. -1.
         11   -1    0    0    0    0 -0.00000000000E+00 -0.00000000000E+00 -0.45593999997E+02  0.45594000000E+02  0.51100000000E-03 0.  1.
    9900012    2    1    2    0    0  0.11962565709E+02  0.36924698059E+02 -0.12109065554E+02  0.50528858670E+02  0.29999996414E+02 0.  0.
         12    1    1    2    0    0 -0.11962565709E+02 -0.36924698059E+02  0.12109065554E+02  0.40659141330E+02  0.00000000000E+00 0. -1.
         11    1    3    3    0    0  0.46113603472E+01 -0.44371189063E+01 -0.20558508773E+01  0.67215468108E+01  0.51100000000E-03 0. -1.
        -11    1    3    3    0    0  0.16327471600E+01  0.13308238852E+02  0.16212450893E+00  0.13409003291E+02  0.51100000000E-03 0.  1.
        -12    1    3    3    0    0  0.57184582015E+01  0.28053578113E+02 -0.10215339185E+02  0.30398308569E+02  0.00000000000E+00 0.  1.
</event>
<event>
 7    1  0.2746803E-013  0.5052885E+02  0.7816164E-02  0.1300439E+00
        -11   -1    0    0    0    0  0.00000000000E+00  0.00000000000E+00  0.45593999997E+02  0.45594000000E+02  0.51100000000E-03 0.  1.
         11   -1    0    0    0    0 -0.00000000000E+00 -0.00000000000E+00 -0.45593999997E+02  0.45594000000E+02  0.51100000000E-03 0. -1.
    9900012    2    1    2    0    0  0.45243109181E+00 -0.34839998338E+02  0.20955570645E+02  0.50528854422E+02  0.29999983502E+02 0.  0.
         12    1    1    2    0    0 -0.45243109181E+00  0.34839998338E+02 -0.20955570645E+02  0.40659145578E+02  0.00000000000E+00 0. -1.
         11    1    3    3    0    0  0.24861369860E+01 -0.11810441439E+02 -0.12139797408E+00  0.12069885742E+02  0.51100000000E-03 0. -1.
        -11    1    3    3    0    0 -0.92342234438E+01 -0.15745061921E+02  0.42207679591E+01  0.18734800238E+02  0.51100000000E-03 0.  1.
        -12    1    3    3    0    0  0.72005175496E+01 -0.72844949772E+01  0.16856200660E+02  0.19724168442E+02  0.00000000000E+00 0.  1.
</event>
<event>
 7    1  0.2746803E-013  0.5052885E+02  0.7816164E-02  0.1300439E+00
        -11   -1    0    0    0    0  0.00000000000E+00  0.00000000000E+00  0.45593999997E+02  0.45594000000E+02  0.51100000000E-03 0. -1.
         11   -1    0    0    0    0 -0.00000000000E+00 -0.00000000000E+00 -0.45593999997E+02  0.45594000000E+02  0.51100000000E-03 0.  1.
    9900012    2    1    2    0    0  0.28684140544E+02  0.22200378028E+02  0.18371972404E+02  0.50528854984E+02  0.29999985210E+02 0.  0.
         12    1    1    2    0    0 -0.28684140544E+02 -0.22200378028E+02 -0.18371972404E+02  0.40659145016E+02  0.00000000000E+00 0. -1.
         11    1    3    3    0    0  0.10234073634E+02  0.16682295255E+02  0.15327767839E+02  0.24859117147E+02  0.51100000000E-03 0. -1.
        -11    1    3    3    0    0  0.18520932717E+02  0.46212753439E+01  0.79529574980E+01  0.20679232765E+02  0.51100000000E-03 0.  1.
        -12    1    3    3    0    0 -0.70865806610E-01  0.89680742950E+00 -0.49087529328E+01  0.49905050730E+01  0.00000000000E+00 0.  1.
</event>
<event>
 7    1  0.2746803E-013  0.5052885E+02  0.7816164E-02  0.1300439E+00
        -11   -1    0    0    0    0  0.00000000000E+00  0.00000000000E+00  0.45593999997E+02  0.45594000000E+02  0.51100000000E-03 0.  1.
         11   -1    0    0    0    0 -0.00000000000E+00 -0.00000000000E+00 -0.45593999997E+02  0.45594000000E+02  0.51100000000E-03 0. -1.
    9900012    2    1    2    0    0  0.20828671344E+02  0.18714648596E+02  0.29480408435E+02  0.50528854614E+02  0.29999984084E+02 0.  0.
         12    1    1    2    0    0 -0.20828671344E+02 -0.18714648596E+02 -0.29480408435E+02  0.40659145386E+02  0.00000000000E+00 0. -1.
         11    1    3    3    0    0  0.10494533074E+02  0.81290654879E+01 -0.23503889709E+01  0.13481144563E+02  0.51100000000E-03 0. -1.
        -11    1    3    3    0    0  0.55487460092E+01  0.81970240817E+01  0.83032084424E+01  0.12919870617E+02  0.51100000000E-03 0.  1.
        -12    1    3    3    0    0  0.47853922611E+01  0.23885590265E+01  0.23527588963E+02  0.24127839434E+02  0.00000000000E+00 0.  1.
</event>
<event>
 7    1  0.2746803E-013  0.5052886E+02  0.7816164E-02  0.1300439E+00
        -11   -1    0    0    0    0  0.00000000000E+00  0.00000000000E+00  0.45593999997E+02  0.45594000000E+02  0.51100000000E-03 0.  1.
         11   -1    0    0    0    0 -0.00000000000E+00 -0.00000000000E+00 -0.45593999997E+02  0.45594000000E+02  0.51100000000E-03 0. -1.
    9900012    2    1    2    0    0 -0.11590377873E+02 -0.38134461017E+02 -0.80368942411E+01  0.50528860249E+02  0.30000001212E+02 0.  0.
         12    1    1    2    0    0  0.11590377873E+02  0.38134461017E+02  0.80368942411E+01  0.40659139751E+02  0.00000000000E+00 0. -1.
         11    1    3    3    0    0 -0.62634184479E+01 -0.37994499509E+02  0.44720333089E+00  0.38509899956E+02  0.51100000000E-03 0.  1.
        -11    1    3    3    0    0 -0.28666241990E+01  0.59448363632E+00  0.22789912084E+00  0.29364746487E+01  0.51100000000E-03 0. -1.
        -12    1    3    3    0    0 -0.24603352260E+01 -0.73444514439E+00 -0.87119966929E+01  0.90824856439E+01  0.00000000000E+00 0.  1.
</event>
<event>
 7    1  0.2746803E-013  0.5052886E+02  0.7816164E-02  0.1300439E+00
        -11   -1    0    0    0    0  0.00000000000E+00  0.00000000000E+00  0.45593999997E+02  0.45594000000E+02  0.51100000000E-03 0.  1.
         11   -1    0    0    0    0 -0.00000000000E+00 -0.00000000000E+00 -0.45593999997E+02  0.45594000000E+02  0.51100000000E-03 0. -1.
    9900012    2    1    2    0    0 -0.18548199715E+02  0.36178315358E+02 -0.50922854864E+00  0.50528861685E+02  0.30000005579E+02 0.  0.
         12    1    1    2    0    0  0.18548199715E+02 -0.36178315358E+02  0.50922854864E+00  0.40659138315E+02  0.00000000000E+00 0. -1.
         11    1    3    3    0    0 -0.68391605416E+01  0.32577389546E+01 -0.85613927907E+01  0.11431728950E+02  0.51100000000E-03 0. -1.
        -11    1    3    3    0    0 -0.92058986787E+01  0.17874539618E+02 -0.29076253690E+01  0.20315068855E+02  0.51100000000E-03 0.  1.
        -12    1    3    3    0    0 -0.25031404944E+01  0.15046036785E+02  0.10959789611E+02  0.18782063880E+02  0.00000000000E+00 0.  1.
</event>
<event>
 7    1  0.2746803E-013  0.5052886E+02  0.7816164E-02  0.1300439E+00
        -11   -1    0    0    0    0  0.00000000000E+00  0.00000000000E+00  0.45593999997E+02  0.45594000000E+02  0.51100000000E-03 0. -1.
         11   -1    0    0    0    0 -0.00000000000E+00 -0.00000000000E+00 -0.45593999997E+02  0.45594000000E+02  0.51100000000E-03 0.  1.
    9900012    2    1    2    0    0  0.10366121578E+02 -0.37426166639E+02 -0.12041223053E+02  0.50528862301E+02  0.30000007449E+02 0.  0.
         12    1    1    2    0    0 -0.10366121578E+02  0.37426166639E+02  0.12041223053E+02  0.40659137699E+02  0.00000000000E+00 0. -1.
         11    1    3    3    0    0  0.41657218659E+01 -0.11698524589E+02  0.27063521252E+01  0.12709565622E+02  0.51100000000E-03 0. -1.
        -11    1    3    3    0    0 -0.56214096704E+01  0.86546827737E+00 -0.17903700655E+01  0.59627768073E+01  0.51100000000E-03 0.  1.
        -12    1    3    3    0    0  0.11821809382E+02 -0.26593110327E+02 -0.12957205113E+02  0.31856519871E+02  0.00000000000E+00 0.  1.
</event>
<event>
 7    1  0.2746803E-013  0.5052887E+02  0.7816164E-02  0.1300439E+00
        -11   -1    0    0    0    0  0.00000000000E+00  0.00000000000E+00  0.45593999997E+02  0.45594000000E+02  0.51100000000E-03 0. -1.
         11   -1    0    0    0    0 -0.00000000000E+00 -0.00000000000E+00 -0.45593999997E+02  0.45594000000E+02  0.51100000000E-03 0.  1.
    9900012    2    1    2    0    0 -0.19901831754E+02 -0.29649927372E+02 -0.19441285047E+02  0.50528872309E+02  0.30000037870E+02 0.  0.
         12    1    1    2    0    0  0.19901831754E+02  0.29649927372E+02  0.19441285047E+02  0.40659127691E+02  0.00000000000E+00 0. -1.
         11    1    3    3    0    0 -0.17666669372E+02 -0.77802791752E+01 -0.14922493284E+02  0.24399277793E+02  0.51100000000E-03 0. -1.
        -11    1    3    3    0    0 -0.30169151772E+01 -0.18915970640E+01 -0.49905346031E+01  0.61306894004E+01  0.51100000000E-03 0.  1.
         12    1    3    3    0    0  0.78175279570E+00 -0.19978051133E+02  0.47174283999E+00  0.19998905115E+02  0.00000000000E+00 0. -1.
</event>
<event>
 7    1  0.2746803E-013  0.5052884E+02  0.7816164E-02  0.1300439E+00
        -11   -1    0    0    0    0  0.00000000000E+00  0.00000000000E+00  0.45593999997E+02  0.45594000000E+02  0.51100000000E-03 0.  1.
         11   -1    0    0    0    0 -0.00000000000E+00 -0.00000000000E+00 -0.45593999997E+02  0.45594000000E+02  0.51100000000E-03 0. -1.
    9900012    2    1    2    0    0  0.38746973608E+02 -0.12097212692E+02  0.23445271165E+01  0.50528839579E+02  0.29999938385E+02 0.  0.
         12    1    1    2    0    0 -0.38746973608E+02  0.12097212692E+02 -0.23445271165E+01  0.40659160421E+02  0.00000000000E+00 0. -1.
         11    1    3    3    0    0  0.64122761482E+01  0.58167200169E+01 -0.39042735276E+01  0.94970979354E+01  0.51100000000E-03 0. -1.
        -11    1    3    3    0    0  0.89055200536E+01 -0.13093734464E+02 -0.14549256605E+01  0.15901917449E+02  0.51100000000E-03 0.  1.
        -12    1    3    3    0    0  0.23429177407E+02 -0.48201982453E+01  0.77037263047E+01  0.25129824195E+02  0.00000000000E+00 0.  1.
</event>
<event>
 7    1  0.2746803E-013  0.5052884E+02  0.7816164E-02  0.1300439E+00
        -11   -1    0    0    0    0  0.00000000000E+00  0.00000000000E+00  0.45593999997E+02  0.45594000000E+02  0.51100000000E-03 0.  1.
         11   -1    0    0    0    0 -0.00000000000E+00 -0.00000000000E+00 -0.45593999997E+02  0.45594000000E+02  0.51100000000E-03 0. -1.
    9900012    2    1    2    0    0  0.28544844604E+01 -0.76079364007E+01  0.39838902761E+02  0.50528844192E+02  0.29999952407E+02 0.  0.
         12    1    1    2    0    0 -0.28544844604E+01  0.76079364007E+01 -0.39838902761E+02  0.40659155808E+02  0.00000000000E+00 0. -1.
         11    1    3    3    0    0 -0.10643666248E+02 -0.37958321554E+01  0.14360486919E+02  0.18273465949E+02  0.51100000000E-03 0. -1.
        -11    1    3    3    0    0  0.25915805357E+01  0.18314267988E+01  0.17093626067E+02  0.17385697173E+02  0.51100000000E-03 0.  1.
        -12    1    3    3    0    0  0.10906570173E+02 -0.56435310441E+01  0.83847897741E+01  0.14869681071E+02  0.00000000000E+00 0.  1.
</event>
<event>
 7    1  0.2746803E-013  0.5052886E+02  0.7816164E-02  0.1300439E+00
        -11   -1    0    0    0    0  0.00000000000E+00  0.00000000000E+00  0.45593999997E+02  0.45594000000E+02  0.51100000000E-03 0. -1.
         11   -1    0    0    0    0 -0.00000000000E+00 -0.00000000000E+00 -0.45593999997E+02  0.45594000000E+02  0.51100000000E-03 0.  1.
    9900012    2    1    2    0    0 -0.22237181328E+02  0.14417298169E+02 -0.30835293823E+02  0.50528855087E+02  0.29999985524E+02 0.  0.
         12    1    1    2    0    0  0.22237181328E+02 -0.14417298169E+02  0.30835293823E+02  0.40659144913E+02  0.00000000000E+00 0. -1.
         11    1    3    3    0    0  0.25199124958E+01  0.76805777289E+00 -0.30502539407E+01  0.40303748080E+01  0.51100000000E-03 0.  1.
        -11    1    3    3    0    0 -0.80758192549E+01  0.22512403069E+01  0.36395259221E+01  0.91396437981E+01  0.51100000000E-03 0. -1.
        -12    1    3    3    0    0 -0.16681274568E+02  0.11398000089E+02 -0.31424565804E+02  0.37358836481E+02  0.00000000000E+00 0.  1.
</event>
<event>
 7    1  0.2746803E-013  0.5052886E+02  0.7816164E-02  0.1300439E+00
        -11   -1    0    0    0    0  0.00000000000E+00  0.00000000000E+00  0.45593999997E+02  0.45594000000E+02  0.51100000000E-03 0.  1.
         11   -1    0    0    0    0 -0.00000000000E+00 -0.00000000000E+00 -0.45593999997E+02  0.45594000000E+02  0.51100000000E-03 0. -1.
    9900012    2    1    2    0    0  0.26898370114E+00  0.17886107324E+02  0.36512741728E+02  0.50528862086E+02  0.30000006796E+02 0.  0.
         12    1    1    2    0    0 -0.26898370114E+00 -0.17886107324E+02 -0.36512741728E+02  0.40659137914E+02  0.00000000000E+00 0. -1.
         11    1    3    3    0    0  0.59908201136E+01  0.27272957204E+01  0.11352162493E+02  0.13122486849E+02  0.51100000000E-03 0.  1.
        -11    1    3    3    0    0 -0.11964700151E+02  0.11302840183E+02  0.71250000166E+01  0.17935268925E+02  0.51100000000E-03 0. -1.
         12    1    3    3    0    0  0.62428637389E+01  0.38559714205E+01  0.18035579218E+02  0.19471106312E+02  0.00000000000E+00 0. -1.
</event>
<event>
 7    1  0.2746803E-013  0.5052887E+02  0.7816164E-02  0.1300439E+00
        -11   -1    0    0    0    0  0.00000000000E+00  0.00000000000E+00  0.45593999997E+02  0.45594000000E+02  0.51100000000E-03 0. -1.
         11   -1    0    0    0    0 -0.00000000000E+00 -0.00000000000E+00 -0.45593999997E+02  0.45594000000E+02  0.51100000000E-03 0.  1.
    9900012    2    1    2    0    0 -0.25800472223E+02 -0.77583280340E+01 -0.30451747258E+02  0.50528869022E+02  0.30000027880E+02 0.  0.
         12    1    1    2    0    0  0.25800472223E+02  0.77583280340E+01  0.30451747258E+02  0.40659130978E+02  0.00000000000E+00 0. -1.
         11    1    3    3    0    0 -0.13453373863E+01  0.54566900438E+01  0.23536089702E+01  0.60930184936E+01  0.51100000000E-03 0. -1.
        -11    1    3    3    0    0 -0.80515854751E+01 -0.74643923005E+01 -0.60670044864E+01  0.12544071300E+02  0.51100000000E-03 0.  1.
        -12    1    3    3    0    0 -0.16403549361E+02 -0.57506257773E+01 -0.26738351742E+02  0.31891779229E+02  0.00000000000E+00 0.  1.
</event>
<event>
 7    1  0.2746803E-013  0.5052886E+02  0.7816164E-02  0.1300439E+00
        -11   -1    0    0    0    0  0.00000000000E+00  0.00000000000E+00  0.45593999997E+02  0.45594000000E+02  0.51100000000E-03 0.  1.
         11   -1    0    0    0    0 -0.00000000000E+00 -0.00000000000E+00 -0.45593999997E+02  0.45594000000E+02  0.51100000000E-03 0. -1.
    9900012    2    1    2    0    0  0.75992439391E+01  0.34008447436E+02  0.20948568789E+02  0.50528861547E+02  0.30000005158E+02 0.  0.
         12    1    1    2    0    0 -0.75992439391E+01 -0.34008447436E+02 -0.20948568789E+02  0.40659138453E+02  0.00000000000E+00 0. -1.
         11    1    3    3    0    0  0.17552496537E+01  0.50075523612E+01  0.10969586565E+02  0.12185578019E+02  0.51100000000E-03 0. -1.
        -11    1    3    3    0    0 -0.79235073572E+01  0.51747050655E+01  0.33421794579E+01  0.10036418940E+02  0.51100000000E-03 0.  1.
        -12    1    3    3    0    0  0.13767501643E+02  0.23826190009E+02  0.66368027667E+01  0.28306864588E+02  0.00000000000E+00 0.  1.
</event>
<event>
 7    1  0.2746803E-013  0.5052886E+02  0.7816164E-02  0.1300439E+00
        -11   -1    0    0    0    0  0.00000000000E+00  0.00000000000E+00  0.45593999997E+02  0.45594000000E+02  0.51100000000E-03 0.  1.
         11   -1    0    0    0    0 -0.00000000000E+00 -0.00000000000E+00 -0.45593999997E+02  0.45594000000E+02  0.51100000000E-03 0. -1.
    9900012    2    1    2    0    0 -0.98606030869E+01 -0.11217562854E+02  0.37816671964E+02  0.50528857264E+02  0.29999992140E+02 0.  0.
         12    1    1    2    0    0  0.98606030869E+01  0.11217562854E+02 -0.37816671964E+02  0.40659142736E+02  0.00000000000E+00 0. -1.
         11    1    3    3    0    0  0.35574444945E+01  0.93800084201E+00  0.68685034318E+00  0.37425954318E+01  0.51100000000E-03 0. -1.
        -11    1    3    3    0    0 -0.72439138270E+01  0.45962359897E+01  0.47387116766E+01  0.98007684097E+01  0.51100000000E-03 0.  1.
        -12    1    3    3    0    0 -0.61741337543E+01 -0.16751799686E+02  0.32391109944E+02  0.36985493423E+02  0.00000000000E+00 0.  1.
</event>
<event>
 7    1  0.2746803E-013  0.5052887E+02  0.7816164E-02  0.1300439E+00
        -11   -1    0    0    0    0  0.00000000000E+00  0.00000000000E+00  0.45593999997E+02  0.45594000000E+02  0.51100000000E-03 0.  1.
         11   -1    0    0    0    0 -0.00000000000E+00 -0.00000000000E+00 -0.45593999997E+02  0.45594000000E+02  0.51100000000E-03 0. -1.
    9900012    2    1    2    0    0  0.20572326351E+02  0.10397646385E+02  0.33493773781E+02  0.50528873792E+02  0.30000042379E+02 0.  0.
         12    1    1    2    0    0 -0.20572326351E+02 -0.10397646385E+02 -0.33493773781E+02  0.40659126208E+02  0.00000000000E+00 0. -1.
         11    1    3    3    0    0 -0.19012552007E+01 -0.23346096245E+01  0.27349699887E+01  0.40675833781E+01  0.51100000000E-03 0. -1.
        -11    1    3    3    0    0  0.14530542853E+02  0.47705721141E+01  0.31678894902E+02  0.35177370800E+02  0.51100000000E-03 0.  1.
         12    1    3    3    0    0  0.79430386989E+01  0.79616838955E+01 -0.92009110931E+00  0.11283919615E+02  0.00000000000E+00 0. -1.
</event>
<event>
 7    1  0.2746803E-013  0.5052885E+02  0.7816164E-02  0.1300439E+00
        -11   -1    0    0    0    0  0.00000000000E+00  0.00000000000E+00  0.45593999997E+02  0.45594000000E+02  0.51100000000E-03 0.  1.
         11   -1    0    0    0    0 -0.00000000000E+00 -0.00000000000E+00 -0.45593999997E+02  0.45594000000E+02  0.51100000000E-03 0. -1.
    9900012    2    1    2    0    0 -0.19940724965E+02 -0.97279193513E+01  0.34072000964E+02  0.50528853714E+02  0.29999981348E+02 0.  0.
         12    1    1    2    0    0  0.19940724965E+02  0.97279193513E+01 -0.34072000964E+02  0.40659146286E+02  0.00000000000E+00 0. -1.
         11    1    3    3    0    0 -0.66961786603E+01  0.14088363833E+01  0.43614445485E+01  0.81145441903E+01  0.51100000000E-03 0. -1.
        -11    1    3    3    0    0  0.48510682331E+01  0.13094152294E+01 -0.51608388616E+00  0.50511161226E+01  0.51100000000E-03 0.  1.
        -12    1    3    3    0    0 -0.18095614538E+02 -0.12446170964E+02  0.30226640302E+02  0.37363193401E+02  0.00000000000E+00 0.  1.
</event>
<event>
 7    1  0.2746803E-013  0.5052886E+02  0.7816164E-02  0.1300439E+00
        -11   -1    0    0    0    0  0.00000000000E+00  0.00000000000E+00  0.45593999997E+02  0.45594000000E+02  0.51100000000E-03 0. -1.
         11   -1    0    0    0    0 -0.00000000000E+00 -0.00000000000E+00 -0.45593999997E+02  0.45594000000E+02  0.51100000000E-03 0.  1.
    9900012    2    1    2    0    0  0.53088346842E+01 -0.37117927952E+02  0.15723919034E+02  0.50528856736E+02  0.29999990534E+02 0.  0.
         12    1    1    2    0    0 -0.53088346842E+01  0.37117927952E+02 -0.15723919034E+02  0.40659143264E+02  0.00000000000E+00 0. -1.
         11    1    3    3    0    0 -0.13066533917E+01 -0.21802536203E+01 -0.36681638050E+01  0.44627653866E+01  0.51100000000E-03 0.  1.
        -11    1    3    3    0    0 -0.21313872140E+01 -0.28920494663E+01  0.11327051270E+02  0.11883133101E+02  0.51100000000E-03 0. -1.
        -12    1    3    3    0    0  0.87468752899E+01 -0.32045624866E+02  0.80650315693E+01  0.34182958248E+02  0.00000000000E+00 0.  1.
</event>
<event>
 7    1  0.2746803E-013  0.5052884E+02  0.7816164E-02  0.1300439E+00
        -11   -1    0    0    0    0  0.00000000000E+00  0.00000000000E+00  0.45593999997E+02  0.45594000000E+02  0.51100000000E-03 0.  1.
         11   -1    0    0    0    0 -0.00000000000E+00 -0.00000000000E+00 -0.45593999997E+02  0.45594000000E+02  0.51100000000E-03 0. -1.
    9900012    2    1    2    0    0 -0.40180249916E+02  0.25441734633E+01  0.56782328275E+01  0.50528835843E+02  0.29999927027E+02 0.  0.
         12    1    1    2    0    0  0.40180249916E+02 -0.25441734633E+01 -0.56782328275E+01  0.40659164157E+02  0.00000000000E+00 0. -1.
         11    1    3    3    0    0 -0.10359310792E+02 -0.64767624180E+01  0.43460319271E+01  0.12967334548E+02  0.51100000000E-03 0. -1.
        -11    1    3    3    0    0 -0.17549621286E+02 -0.68438570511E+00  0.94409432126E+01  0.19939633900E+02  0.51100000000E-03 0.  1.
         12    1    3    3    0    0 -0.12271317838E+02  0.97053215863E+01 -0.81087423121E+01  0.17621867394E+02  0.00000000000E+00 0. -1.
</event>
<event>
 7    1  0.2746803E-013  0.5052886E+02  0.7816164E-02  0.1300439E+00
        -11   -1    0    0    0    0  0.00000000000E+00  0.00000000000E+00  0.45593999997E+02  0.45594000000E+02  0.51100000000E-03 0. -1.
         11   -1    0    0    0    0 -0.00000000000E+00 -0.00000000000E+00 -0.45593999997E+02  0.45594000000E+02  0.51100000000E-03 0.  1.
    9900012    2    1    2    0    0  0.27812138019E+02 -0.25507523546E+02  0.15133305795E+02  0.50528859294E+02  0.29999998311E+02 0.  0.
         12    1    1    2    0    0 -0.27812138019E+02  0.25507523546E+02 -0.15133305795E+02  0.40659140706E+02  0.00000000000E+00 0. -1.
         11    1    3    3    0    0  0.12877644036E+02 -0.30794351949E+01  0.10548248230E+02  0.16928738229E+02  0.51100000000E-03 0. -1.
        -11    1    3    3    0    0  0.15496546117E+02 -0.90380153368E+01 -0.30181876148E+01  0.18191704690E+02  0.51100000000E-03 0.  1.
        -12    1    3    3    0    0 -0.56205213483E+00 -0.13390073014E+02  0.76032451797E+01  0.15408416375E+02  0.00000000000E+00 0.  1.
</event>
<event>
 7    1  0.2746803E-013  0.5052886E+02  0.7816164E-02  0.1300439E+00
        -11   -1    0    0    0    0  0.00000000000E+00  0.00000000000E+00  0.45593999997E+02  0.45594000000E+02  0.51100000000E-03 0.  1.
         11   -1    0    0    0    0 -0.00000000000E+00 -0.00000000000E+00 -0.45593999997E+02  0.45594000000E+02  0.51100000000E-03 0. -1.
    9900012    2    1    2    0    0 -0.25441063090E+02 -0.29161294063E+02  0.12471450290E+02  0.50528857917E+02  0.29999994125E+02 0.  0.
         12    1    1    2    0    0  0.25441063090E+02  0.29161294063E+02 -0.12471450290E+02  0.40659142083E+02  0.00000000000E+00 0. -1.
         11    1    3    3    0    0 -0.12042165885E+02 -0.80097306492E+00  0.82867114770E+01  0.14639839630E+02  0.51100000000E-03 0. -1.
        -11    1    3    3    0    0 -0.77042381596E+01 -0.44862711660E+01 -0.43287331408E+01  0.99105925888E+01  0.51100000000E-03 0.  1.
        -12    1    3    3    0    0 -0.56946590462E+01 -0.23874049832E+02  0.85134719540E+01  0.25978425698E+02  0.00000000000E+00 0.  1.
</event>
<event>
 7    1  0.2746803E-013  0.5052887E+02  0.7816164E-02  0.1300439E+00
        -11   -1    0    0    0    0  0.00000000000E+00  0.00000000000E+00  0.45593999997E+02  0.45594000000E+02  0.51100000000E-03 0.  1.
         11   -1    0    0    0    0 -0.00000000000E+00 -0.00000000000E+00 -0.45593999997E+02  0.45594000000E+02  0.51100000000E-03 0. -1.
    9900012    2    1    2    0    0  0.38943739280E+01 -0.26199157111E+02  0.30848058780E+02  0.50528871725E+02  0.30000036094E+02 0.  0.
         12    1    1    2    0    0 -0.38943739280E+01  0.26199157111E+02 -0.30848058780E+02  0.40659128275E+02  0.00000000000E+00 0. -1.
         11    1    3    3    0    0  0.50717634433E+00  0.29577702193E+01  0.87260285604E+01  0.92276328066E+01  0.51100000000E-03 0. -1.
        -11    1    3    3    0    0 -0.37408492174E+01 -0.90009465301E+01  0.16551110917E+02  0.19208078097E+02  0.51100000000E-03 0.  1.
         12    1    3    3    0    0  0.71280468011E+01 -0.20155980800E+02  0.55709193021E+01  0.22093160822E+02  0.00000000000E+00 0. -1.
</event>
<event>
 7    1  0.2746803E-013  0.5052887E+02  0.7816164E-02  0.1300439E+00
        -11   -1    0    0    0    0  0.00000000000E+00  0.00000000000E+00  0.45593999997E+02  0.45594000000E+02  0.51100000000E-03 0.  1.
         11   -1    0    0    0    0 -0.00000000000E+00 -0.00000000000E+00 -0.45593999997E+02  0.45594000000E+02  0.51100000000E-03 0. -1.
    9900012    2    1    2    0    0 -0.14087779268E+02 -0.17132735877E+02  0.34075921534E+02  0.50528873205E+02  0.30000040594E+02 0.  0.
         12    1    1    2    0    0  0.14087779268E+02  0.17132735877E+02 -0.34075921534E+02  0.40659126795E+02  0.00000000000E+00 0. -1.
         11    1    3    3    0    0 -0.88481892019E+01 -0.90299143471E+01 -0.25350097575E+00  0.12644922628E+02  0.51100000000E-03 0. -1.
        -11    1    3    3    0    0  0.30152456866E+01  0.14881372977E+01  0.68392358152E+01  0.76211157952E+01  0.51100000000E-03 0.  1.
         12    1    3    3    0    0 -0.82548357531E+01 -0.95909588278E+01  0.27490186694E+02  0.30262834782E+02  0.00000000000E+00 0. -1.
</event>
<event>
 7    1  0.2746803E-013  0.5052886E+02  0.7816164E-02  0.1300439E+00
        -11   -1    0    0    0    0  0.00000000000E+00  0.00000000000E+00  0.45593999997E+02  0.45594000000E+02  0.51100000000E-03 0.  1.
         11   -1    0    0    0    0 -0.00000000000E+00 -0.00000000000E+00 -0.45593999997E+02  0.45594000000E+02  0.51100000000E-03 0. -1.
    9900012    2    1    2    0    0 -0.54911600724E+01 -0.25798906686E+02  0.30942358162E+02  0.50528856456E+02  0.29999989682E+02 0.  0.
         12    1    1    2    0    0  0.54911600724E+01  0.25798906686E+02 -0.30942358162E+02  0.40659143544E+02  0.00000000000E+00 0. -1.
         11    1    3    3    0    0 -0.38693252879E+01 -0.59587092510E+01 -0.15181082174E+01  0.72651598016E+01  0.51100000000E-03 0. -1.
        -11    1    3    3    0    0 -0.37660794179E+01 -0.18954541436E+02  0.12163068440E+02  0.22834146128E+02  0.51100000000E-03 0.  1.
        -12    1    3    3    0    0  0.21442446334E+01 -0.88565599870E+00  0.20297397939E+02  0.20429550526E+02  0.00000000000E+00 0.  1.
</event>
<event>
 7    1  0.2746803E-013  0.5052887E+02  0.7816164E-02  0.1300439E+00
        -11   -1    0    0    0    0  0.00000000000E+00  0.00000000000E+00  0.45593999997E+02  0.45594000000E+02  0.51100000000E-03 0.  1.
         11   -1    0    0    0    0 -0.00000000000E+00 -0.00000000000E+00 -0.45593999997E+02  0.45594000000E+02  0.51100000000E-03 0. -1.
    9900012    2    1    2    0    0 -0.39381147803E+02  0.24179491162E+01 -0.98205750053E+01  0.50528868508E+02  0.30000026318E+02 0.  0.
         12    1    1    2    0    0  0.39381147803E+02 -0.24179491162E+01  0.98205750053E+01  0.40659131492E+02  0.00000000000E+00 0. -1.
         11    1    3    3    0    0 -0.11622052964E+01  0.42027378706E+01  0.23164884173E+01  0.49375951239E+01  0.51100000000E-03 0. -1.
        -11    1    3    3    0    0 -0.24157437333E+02 -0.84049849240E+01  0.46514295846E+00  0.25582062237E+02  0.51100000000E-03 0.  1.
         12    1    3    3    0    0 -0.14061505173E+02  0.66201961696E+01 -0.12602206381E+02  0.20009211147E+02  0.00000000000E+00 0. -1.
</event>
<event>
 7    1  0.2746803E-013  0.5052884E+02  0.7816164E-02  0.1300439E+00
        -11   -1    0    0    0    0  0.00000000000E+00  0.00000000000E+00  0.45593999997E+02  0.45594000000E+02  0.51100000000E-03 0.  1.
         11   -1    0    0    0    0 -0.00000000000E+00 -0.00000000000E+00 -0.45593999997E+02  0.45594000000E+02  0.51100000000E-03 0. -1.
    9900012    2    1    2    0    0  0.13389324524E+01 -0.65486327894E+01  0.40105979375E+02  0.50528844658E+02  0.29999953823E+02 0.  0.
         12    1    1    2    0    0 -0.13389324524E+01  0.65486327894E+01 -0.40105979375E+02  0.40659155342E+02  0.00000000000E+00 0. -1.
         11    1    3    3    0    0  0.10188899420E+02 -0.49230352980E+00  0.69459372555E+01  0.12341072837E+02  0.51100000000E-03 0. -1.
        -11    1    3    3    0    0  0.92751553917E+00  0.15061829584E+01 -0.87801698190E+00  0.19747876496E+01  0.51100000000E-03 0.  1.
        -12    1    3    3    0    0 -0.97774825068E+01 -0.75625122180E+01  0.34038059101E+02  0.36212984171E+02  0.00000000000E+00 0.  1.
</event>
<event>
 7    1  0.2746803E-013  0.5052886E+02  0.7816164E-02  0.1300439E+00
        -11   -1    0    0    0    0  0.00000000000E+00  0.00000000000E+00  0.45593999997E+02  0.45594000000E+02  0.51100000000E-03 0.  1.
         11   -1    0    0    0    0 -0.00000000000E+00 -0.00000000000E+00 -0.45593999997E+02  0.45594000000E+02  0.51100000000E-03 0. -1.
    9900012    2    1    2    0    0  0.28699336497E+02 -0.72080788107E+01  0.27884714140E+02  0.50528860829E+02  0.30000002975E+02 0.  0.
         12    1    1    2    0    0 -0.28699336497E+02  0.72080788107E+01 -0.27884714140E+02  0.40659139171E+02  0.00000000000E+00 0. -1.
         11    1    3    3    0    0 -0.13419050447E+01  0.46050646414E+01  0.11156172348E+01  0.49246250188E+01  0.51100000000E-03 0. -1.
        -11    1    3    3    0    0  0.12115689480E+02 -0.88709288412E+00  0.20264209952E+02  0.23626575516E+02  0.51100000000E-03 0.  1.
        -12    1    3    3    0    0  0.17925552062E+02 -0.10926050568E+02  0.65048869526E+01  0.21977660294E+02  0.00000000000E+00 0.  1.
</event>
<event>
 7    1  0.2746803E-013  0.5052885E+02  0.7816164E-02  0.1300439E+00
        -11   -1    0    0    0    0  0.00000000000E+00  0.00000000000E+00  0.45593999997E+02  0.45594000000E+02  0.51100000000E-03 0. -1.
         11   -1    0    0    0    0 -0.00000000000E+00 -0.00000000000E+00 -0.45593999997E+02  0.45594000000E+02  0.51100000000E-03 0.  1.
    9900012    2    1    2    0    0 -0.28080122237E+02 -0.26076962449E+02 -0.13589170253E+02  0.50528846251E+02  0.29999958666E+02 0.  0.
         12    1    1    2    0    0  0.28080122237E+02  0.26076962449E+02  0.13589170253E+02  0.40659153749E+02  0.00000000000E+00 0. -1.
         11    1    3    3    0    0  0.27815108286E+01  0.45978542451E+00  0.16264040064E+01  0.32547496646E+01  0.51100000000E-03 0. -1.
        -11    1    3    3    0    0 -0.43797741023E+01 -0.86020175238E+01 -0.11593806044E+02  0.15086201162E+02  0.51100000000E-03 0.  1.
        -12    1    3    3    0    0 -0.26481858963E+02 -0.17934730350E+02 -0.36217682154E+01  0.32187895425E+02  0.00000000000E+00 0.  1.
</event>
<event>
 7    1  0.2746803E-013  0.5052886E+02  0.7816164E-02  0.1300439E+00
        -11   -1    0    0    0    0  0.00000000000E+00  0.00000000000E+00  0.45593999997E+02  0.45594000000E+02  0.51100000000E-03 0.  1.
         11   -1    0    0    0    0 -0.00000000000E+00 -0.00000000000E+00 -0.45593999997E+02  0.45594000000E+02  0.51100000000E-03 0. -1.
    9900012    2    1    2    0    0 -0.15731303045E+02  0.71277957601E+01  0.36808776906E+02  0.50528862955E+02  0.30000009439E+02 0.  0.
         12    1    1    2    0    0  0.15731303045E+02 -0.71277957601E+01 -0.36808776906E+02  0.40659137045E+02  0.00000000000E+00 0. -1.
         11    1    3    3    0    0 -0.13181024884E+02  0.16566727363E+01  0.48177585630E+01  0.14131340325E+02  0.51100000000E-03 0. -1.
        -11    1    3    3    0    0 -0.83991859103E+01 -0.90275822164E+00  0.18956046705E+02  0.20753144419E+02  0.51100000000E-03 0.  1.
         12    1    3    3    0    0  0.58489077494E+01  0.63738812454E+01  0.13034971639E+02  0.15644378211E+02  0.00000000000E+00 0. -1.
</event>
<event>
 7    1  0.2746803E-013  0.5052885E+02  0.7816164E-02  0.1300439E+00
        -11   -1    0    0    0    0  0.00000000000E+00  0.00000000000E+00  0.45593999997E+02  0.45594000000E+02  0.51100000000E-03 0. -1.
         11   -1    0    0    0    0 -0.00000000000E+00 -0.00000000000E+00 -0.45593999997E+02  0.45594000000E+02  0.51100000000E-03 0.  1.
    9900012    2    1    2    0    0 -0.26987605257E+02  0.23410960923E+02 -0.19410374334E+02  0.50528848993E+02  0.29999966998E+02 0.  0.
         12    1    1    2    0    0  0.26987605257E+02 -0.23410960923E+02  0.19410374334E+02  0.40659151007E+02  0.00000000000E+00 0. -1.
         11    1    3    3    0    0 -0.12388809137E+02  0.72027198280E+00  0.45872759001E+00  0.12418204976E+02  0.51100000000E-03 0.  1.
        -11    1    3    3    0    0 -0.62478867216E+01 -0.17221963258E+01 -0.22217208341E+01  0.68511380366E+01  0.51100000000E-03 0. -1.
        -12    1    3    3    0    0 -0.83509093981E+01  0.24412885266E+02 -0.17647381090E+02  0.31259505980E+02  0.00000000000E+00 0.  1.
</event>
<event>
 7    1  0.2746803E-013  0.5052886E+02  0.7816164E-02  0.1300439E+00
        -11   -1    0    0    0    0  0.00000000000E+00  0.00000000000E+00  0.45593999997E+02  0.45594000000E+02  0.51100000000E-03 0. -1.
         11   -1    0    0    0    0 -0.00000000000E+00 -0.00000000000E+00 -0.45593999997E+02  0.45594000000E+02  0.51100000000E-03 0.  1.
    9900012    2    1    2    0    0 -0.92327754417E+01  0.20789636075E+02 -0.33700334788E+02  0.50528859880E+02  0.30000000090E+02 0.  0.
         12    1    1    2    0    0  0.92327754417E+01 -0.20789636075E+02  0.33700334788E+02  0.40659140120E+02  0.00000000000E+00 0. -1.
         11    1    3    3    0    0  0.62964229820E+01  0.17365351932E+02 -0.20246281832E+02  0.27406428414E+02  0.51100000000E-03 0. -1.
        -11    1    3    3    0    0 -0.51047622265E+01  0.60501131415E+01 -0.71086003689E+01  0.10639298186E+02  0.51100000000E-03 0.  1.
        -12    1    3    3    0    0 -0.10424436197E+02 -0.26258289991E+01 -0.63454525873E+01  0.12483133280E+02  0.00000000000E+00 0.  1.
</event>
<event>
 7    1  0.2746803E-013  0.5052886E+02  0.7816164E-02  0.1300439E+00
        -11   -1    0    0    0    0  0.00000000000E+00  0.00000000000E+00  0.45593999997E+02  0.45594000000E+02  0.51100000000E-03 0.  1.
         11   -1    0    0    0    0 -0.00000000000E+00 -0.00000000000E+00 -0.45593999997E+02  0.45594000000E+02  0.51100000000E-03 0. -1.
    9900012    2    1    2    0    0 -0.30551542860E+02 -0.15379619108E+02  0.21982631645E+02  0.50528861432E+02  0.30000004809E+02 0.  0.
         12    1    1    2    0    0  0.30551542860E+02  0.15379619108E+02 -0.21982631645E+02  0.40659138568E+02  0.00000000000E+00 0. -1.
         11    1    3    3    0    0 -0.13561170090E+01  0.39510215807E+00  0.16476004488E+02  0.16536441069E+02  0.51100000000E-03 0.  1.
        -11    1    3    3    0    0 -0.13905093972E+02 -0.57633961607E+01  0.44027514677E+01  0.15682875834E+02  0.51100000000E-03 0. -1.
        -12    1    3    3    0    0 -0.15290331879E+02 -0.10011325105E+02  0.11038756894E+01  0.18309544529E+02  0.00000000000E+00 0.  1.
</event>
<event>
 7    1  0.2746803E-013  0.5052885E+02  0.7816164E-02  0.1300439E+00
        -11   -1    0    0    0    0  0.00000000000E+00  0.00000000000E+00  0.45593999997E+02  0.45594000000E+02  0.51100000000E-03 0. -1.
         11   -1    0    0    0    0 -0.00000000000E+00 -0.00000000000E+00 -0.45593999997E+02  0.45594000000E+02  0.51100000000E-03 0.  1.
    9900012    2    1    2    0    0 -0.11490531465E+02  0.34412911340E+02  0.18354441827E+02  0.50528852013E+02  0.29999976179E+02 0.  0.
         12    1    1    2    0    0  0.11490531465E+02 -0.34412911340E+02 -0.18354441827E+02  0.40659147987E+02  0.00000000000E+00 0. -1.
         11    1    3    3    0    0 -0.13352180049E+02  0.55132203735E+01  0.63805740415E+00  0.14459717440E+02  0.51100000000E-03 0. -1.
        -11    1    3    3    0    0 -0.37159413446E+01  0.12949834439E+02  0.33312889954E+01  0.13878181391E+02  0.51100000000E-03 0.  1.
         12    1    3    3    0    0  0.55775899289E+01  0.15949856528E+02  0.14385095427E+02  0.22190953182E+02  0.00000000000E+00 0. -1.
</event>
<event>
 7    1  0.2746803E-013  0.5052887E+02  0.7816164E-02  0.1300439E+00
        -11   -1    0    0    0    0  0.00000000000E+00  0.00000000000E+00  0.45593999997E+02  0.45594000000E+02  0.51100000000E-03 0.  1.
         11   -1    0    0    0    0 -0.00000000000E+00 -0.00000000000E+00 -0.45593999997E+02  0.45594000000E+02  0.51100000000E-03 0. -1.
    9900012    2    1    2    0    0 -0.20374678774E+01 -0.17929001412E+02  0.36435759144E+02  0.50528869274E+02  0.30000028645E+02 0.  0.
         12    1    1    2    0    0  0.20374678774E+01  0.17929001412E+02 -0.36435759144E+02  0.40659130726E+02  0.00000000000E+00 0. -1.
         11    1    3    3    0    0  0.18093167672E+01 -0.86726767455E+01  0.19467372492E+01  0.90707626622E+01  0.51100000000E-03 0. -1.
        -11    1    3    3    0    0 -0.84186215786E+01 -0.13367051323E+02  0.18495374839E+02  0.24323448379E+02  0.51100000000E-03 0.  1.
         12    1    3    3    0    0  0.45718369340E+01  0.41107266563E+01  0.15993647056E+02  0.17134658233E+02  0.00000000000E+00 0. -1.
</event>
<event>
 7    1  0.2746803E-013  0.5052886E+02  0.7816164E-02  0.1300439E+00
        -11   -1    0    0    0    0  0.00000000000E+00  0.00000000000E+00  0.45593999997E+02  0.45594000000E+02  0.51100000000E-03 0.  1.
         11   -1    0    0    0    0 -0.00000000000E+00 -0.00000000000E+00 -0.45593999997E+02  0.45594000000E+02  0.51100000000E-03 0. -1.
    9900012    2    1    2    0    0  0.27902252530E+02  0.26564236523E+02  0.12998911190E+02  0.50528855268E+02  0.29999986071E+02 0.  0.
         12    1    1    2    0    0 -0.27902252530E+02 -0.26564236523E+02 -0.12998911190E+02  0.40659144732E+02  0.00000000000E+00 0. -1.
         11    1    3    3    0    0  0.44156090813E+01 -0.29822245341E+01  0.52770772654E+01  0.74992540601E+01  0.51100000000E-03 0. -1.
        -11    1    3    3    0    0  0.19621635698E+02  0.10883176056E+02  0.83992259897E+01  0.23958278445E+02  0.51100000000E-03 0.  1.
        -12    1    3    3    0    0  0.38650077501E+01  0.18663285000E+02 -0.67739206526E+00  0.19071322763E+02  0.00000000000E+00 0.  1.
</event>
<event>
 7    1  0.2746803E-013  0.5052880E+02  0.7816164E-02  0.1300439E+00
        -11   -1    0    0    0    0  0.00000000000E+00  0.00000000000E+00  0.45593999997E+02  0.45594000000E+02  0.51100000000E-03 0. -1.
         11   -1    0    0    0    0 -0.00000000000E+00 -0.00000000000E+00 -0.45593999997E+02  0.45594000000E+02  0.51100000000E-03 0.  1.
    9900012    2    1    2    0    0 -0.40165525310E+02  0.10095454659E+01  0.62355178792E+01  0.50528803148E+02  0.29999827648E+02 0.  0.
         12    1    1    2    0    0  0.40165525310E+02 -0.10095454659E+01 -0.62355178792E+01  0.40659196852E+02  0.00000000000E+00 0. -1.
         11    1    3    3    0    0 -0.12940461258E+02 -0.61646419892E+01  0.82304814379E+01  0.16528737804E+02  0.51100000000E-03 0. -1.
        -11    1    3    3    0    0 -0.29451508580E+02  0.47398828654E+01  0.54683428212E+00  0.29835496899E+02  0.51100000000E-03 0.  1.
         12    1    3    3    0    0  0.22264445282E+01  0.24343045897E+01 -0.25417978408E+01  0.41645684454E+01  0.00000000000E+00 0. -1.
</event>
<event>
 7    1  0.2746803E-013  0.5052886E+02  0.7816164E-02  0.1300439E+00
        -11   -1    0    0    0    0  0.00000000000E+00  0.00000000000E+00  0.45593999997E+02  0.45594000000E+02  0.51100000000E-03 0.  1.
         11   -1    0    0    0    0 -0.00000000000E+00 -0.00000000000E+00 -0.45593999997E+02  0.45594000000E+02  0.51100000000E-03 0. -1.
    9900012    2    1    2    0    0  0.12977908776E+02  0.21081128878E+02  0.32254076347E+02  0.50528861396E+02  0.30000004701E+02 0.  0.
         12    1    1    2    0    0 -0.12977908776E+02 -0.21081128878E+02 -0.32254076347E+02  0.40659138604E+02  0.00000000000E+00 0. -1.
         11    1    3    3    0    0  0.59590867519E+01  0.43773303969E-01  0.14548220023E+02  0.15721429232E+02  0.51100000000E-03 0. -1.
        -11    1    3    3    0    0 -0.25723366602E+01 -0.65750259272E+00 -0.25006077316E+01  0.36472270070E+01  0.51100000000E-03 0.  1.
        -12    1    3    3    0    0  0.95911586847E+01  0.21694858167E+02  0.20206464056E+02  0.31160205157E+02  0.00000000000E+00 0.  1.
</event>
<event>
 7    1  0.2746803E-013  0.5052888E+02  0.7816164E-02  0.1300439E+00
        -11   -1    0    0    0    0  0.00000000000E+00  0.00000000000E+00  0.45593999997E+02  0.45594000000E+02  0.51100000000E-03 0. -1.
         11   -1    0    0    0    0 -0.00000000000E+00 -0.00000000000E+00 -0.45593999997E+02  0.45594000000E+02  0.51100000000E-03 0.  1.
    9900012    2    1    2    0    0 -0.16530603795E+02  0.36446352673E+02 -0.71810085881E+01  0.50528875940E+02  0.30000048907E+02 0.  0.
         12    1    1    2    0    0  0.16530603795E+02 -0.36446352673E+02  0.71810085881E+01  0.40659124060E+02  0.00000000000E+00 0. -1.
         11    1    3    3    0    0 -0.34330003714E+01  0.59322818269E+01 -0.75373422825E+01  0.10187688068E+02  0.51100000000E-03 0. -1.
        -11    1    3    3    0    0 -0.10300937223E+01 -0.29004925470E+01 -0.34353689546E+01  0.46125600491E+01  0.51100000000E-03 0.  1.
         12    1    3    3    0    0 -0.12067509701E+02  0.33414563393E+02  0.37917026489E+01  0.35728627823E+02  0.00000000000E+00 0. -1.
</event>
<event>
 7    1  0.2746803E-013  0.5052886E+02  0.7816164E-02  0.1300439E+00
        -11   -1    0    0    0    0  0.00000000000E+00  0.00000000000E+00  0.45593999997E+02  0.45594000000E+02  0.51100000000E-03 0.  1.
         11   -1    0    0    0    0 -0.00000000000E+00 -0.00000000000E+00 -0.45593999997E+02  0.45594000000E+02  0.51100000000E-03 0. -1.
    9900012    2    1    2    0    0 -0.16949134117E+02  0.80468970947E+01  0.36071323287E+02  0.50528855102E+02  0.29999985568E+02 0.  0.
         12    1    1    2    0    0  0.16949134117E+02 -0.80468970947E+01 -0.36071323287E+02  0.40659144898E+02  0.00000000000E+00 0. -1.
         11    1    3    3    0    0  0.51168710530E+00  0.21717238752E+01  0.58961851578E+01  0.63042214397E+01  0.51100000000E-03 0.  1.
        -11    1    3    3    0    0 -0.39418847503E+00 -0.93782717602E+01  0.76302278736E+01  0.12096600490E+02  0.51100000000E-03 0. -1.
         12    1    3    3    0    0 -0.17066632748E+02  0.15253444980E+02  0.22544910255E+02  0.32128033172E+02  0.00000000000E+00 0. -1.
</event>
<event>
 7    1  0.2746803E-013  0.5052887E+02  0.7816164E-02  0.1300439E+00
        -11   -1    0    0    0    0  0.00000000000E+00  0.00000000000E+00  0.45593999997E+02  0.45594000000E+02  0.51100000000E-03 0.  1.
         11   -1    0    0    0    0 -0.00000000000E+00 -0.00000000000E+00 -0.45593999997E+02  0.45594000000E+02  0.51100000000E-03 0. -1.
    9900012    2    1    2    0    0  0.22707113195E+02 -0.21444178594E+02  0.26032656281E+02  0.50528868451E+02  0.30000026145E+02 0.  0.
         12    1    1    2    0    0 -0.22707113195E+02  0.21444178594E+02 -0.26032656281E+02  0.40659131549E+02  0.00000000000E+00 0. -1.
         11    1    3    3    0    0  0.52949574150E+01  0.27290500094E+01  0.66463286068E+01  0.89251314944E+01  0.51100000000E-03 0. -1.
        -11    1    3    3    0    0 -0.48873141775E+01 -0.71603881096E+01  0.58618775685E+01  0.10465113790E+02  0.51100000000E-03 0.  1.
         12    1    3    3    0    0  0.22299469957E+02 -0.17012840494E+02  0.13524450106E+02  0.31138623167E+02  0.00000000000E+00 0. -1.
</event>
<event>
 7    1  0.2746803E-013  0.5052883E+02  0.7816164E-02  0.1300439E+00
        -11   -1    0    0    0    0  0.00000000000E+00  0.00000000000E+00  0.45593999997E+02  0.45594000000E+02  0.51100000000E-03 0. -1.
         11   -1    0    0    0    0 -0.00000000000E+00 -0.00000000000E+00 -0.45593999997E+02  0.45594000000E+02  0.51100000000E-03 0.  1.
    9900012    2    1    2    0    0 -0.40234285957E+02  0.92548596722E+00 -0.57890771939E+01  0.50528834914E+02  0.29999924203E+02 0.  0.
         12    1    1    2    0    0  0.40234285957E+02 -0.92548596722E+00  0.57890771939E+01  0.40659165086E+02  0.00000000000E+00 0. -1.
         11    1    3    3    0    0 -0.15592696461E+02 -0.29802924693E+01 -0.38795791983E+01  0.16342137594E+02  0.51100000000E-03 0. -1.
        -11    1    3    3    0    0 -0.14849769498E+02  0.13149258306E+02  0.25587266671E+01  0.19999143246E+02  0.51100000000E-03 0.  1.
         12    1    3    3    0    0 -0.97918199980E+01 -0.92434798691E+01 -0.44682246627E+01  0.14187554074E+02  0.00000000000E+00 0. -1.
</event>
<event>
 7    1  0.2746803E-013  0.5052884E+02  0.7816164E-02  0.1300439E+00
        -11   -1    0    0    0    0  0.00000000000E+00  0.00000000000E+00  0.45593999997E+02  0.45594000000E+02  0.51100000000E-03 0.  1.
         11   -1    0    0    0    0 -0.00000000000E+00 -0.00000000000E+00 -0.45593999997E+02  0.45594000000E+02  0.51100000000E-03 0. -1.
    9900012    2    1    2    0    0 -0.12161797537E+02 -0.18663151497E+02  0.34013887835E+02  0.50528842252E+02  0.29999946508E+02 0.  0.
         12    1    1    2    0    0  0.12161797537E+02  0.18663151497E+02 -0.34013887835E+02  0.40659157748E+02  0.00000000000E+00 0. -1.
         11    1    3    3    0    0 -0.47960371256E+01 -0.56607770104E+01  0.90463979304E+01  0.11699730093E+02  0.51100000000E-03 0. -1.
        -11    1    3    3    0    0  0.46829794765E+01 -0.11126144377E+02  0.12188952605E+01  0.12132892953E+02  0.51100000000E-03 0.  1.
        -12    1    3    3    0    0 -0.12048739888E+02 -0.18762301096E+01  0.23748594644E+02  0.26696219206E+02  0.00000000000E+00 0.  1.
</event>
<event>
 7    1  0.2746803E-013  0.5052886E+02  0.7816164E-02  0.1300439E+00
        -11   -1    0    0    0    0  0.00000000000E+00  0.00000000000E+00  0.45593999997E+02  0.45594000000E+02  0.51100000000E-03 0.  1.
         11   -1    0    0    0    0 -0.00000000000E+00 -0.00000000000E+00 -0.45593999997E+02  0.45594000000E+02  0.51100000000E-03 0. -1.
    9900012    2    1    2    0    0  0.33252762557E+01  0.40121935331E+02  0.56867198846E+01  0.50528856626E+02  0.29999990199E+02 0.  0.
         12    1    1    2    0    0 -0.33252762557E+01 -0.40121935331E+02 -0.56867198846E+01  0.40659143374E+02  0.00000000000E+00 0. -1.
         11    1    3    3    0    0 -0.44212054997E+01  0.91974918639E+01 -0.33349844438E+01  0.10736062414E+02  0.51100000000E-03 0. -1.
        -11    1    3    3    0    0 -0.37814879803E+01  0.19542419673E+02  0.12112265782E+02  0.23300489279E+02  0.51100000000E-03 0.  1.
        -12    1    3    3    0    0  0.11527969736E+02  0.11382023794E+02 -0.30905614532E+01  0.16492304932E+02  0.00000000000E+00 0.  1.
</event>
<event>
 7    1  0.2746803E-013  0.5052886E+02  0.7816164E-02  0.1300439E+00
        -11   -1    0    0    0    0  0.00000000000E+00  0.00000000000E+00  0.45593999997E+02  0.45594000000E+02  0.51100000000E-03 0.  1.
         11   -1    0    0    0    0 -0.00000000000E+00 -0.00000000000E+00 -0.45593999997E+02  0.45594000000E+02  0.51100000000E-03 0. -1.
    9900012    2    1    2    0    0  0.14256807000E+02  0.33659727925E+02  0.17802581470E+02  0.50528859124E+02  0.29999997792E+02 0.  0.
         12    1    1    2    0    0 -0.14256807000E+02 -0.33659727925E+02 -0.17802581470E+02  0.40659140876E+02  0.00000000000E+00 0. -1.
         11    1    3    3    0    0 -0.26362714398E+00  0.12493539639E+02 -0.12365978778E+01  0.12557356671E+02  0.51100000000E-03 0. -1.
        -11    1    3    3    0    0  0.71837549489E+01  0.55398687048E+01 -0.33757690790E+01  0.96794781661E+01  0.51100000000E-03 0.  1.
        -12    1    3    3    0    0  0.73366791955E+01  0.15626319581E+02  0.22414948427E+02  0.28292024286E+02  0.00000000000E+00 0.  1.
</event>
<event>
 7    1  0.2746803E-013  0.5052885E+02  0.7816164E-02  0.1300439E+00
        -11   -1    0    0    0    0  0.00000000000E+00  0.00000000000E+00  0.45593999997E+02  0.45594000000E+02  0.51100000000E-03 0. -1.
         11   -1    0    0    0    0 -0.00000000000E+00 -0.00000000000E+00 -0.45593999997E+02  0.45594000000E+02  0.51100000000E-03 0.  1.
    9900012    2    1    2    0    0 -0.12938248562E+02 -0.33526934015E+02 -0.19018755555E+02  0.50528847978E+02  0.29999963913E+02 0.  0.
         12    1    1    2    0    0  0.12938248562E+02  0.33526934015E+02  0.19018755555E+02  0.40659152022E+02  0.00000000000E+00 0. -1.
         11    1    3    3    0    0 -0.15084419939E+02 -0.17173709641E+02 -0.12774857517E+02  0.26185358745E+02  0.51100000000E-03 0. -1.
        -11    1    3    3    0    0  0.23394131810E+01  0.20378656325E+01 -0.50318983915E+01  0.59114932167E+01  0.51100000000E-03 0.  1.
        -12    1    3    3    0    0 -0.19324180350E+00 -0.18391090006E+02 -0.12119996469E+01  0.18431996016E+02  0.00000000000E+00 0.  1.
</event>
<event>
 7    1  0.2746803E-013  0.5052879E+02  0.7816164E-02  0.1300439E+00
        -11   -1    0    0    0    0  0.00000000000E+00  0.00000000000E+00  0.45593999997E+02  0.45594000000E+02  0.51100000000E-03 0. -1.
         11   -1    0    0    0    0 -0.00000000000E+00 -0.00000000000E+00 -0.45593999997E+02  0.45594000000E+02  0.51100000000E-03 0.  1.
    9900012    2    1    2    0    0 -0.18918736838E+01  0.35096339231E+02 -0.20441107390E+02  0.50528793358E+02  0.29999797890E+02 0.  0.
         12    1    1    2    0    0  0.18918736838E+01 -0.35096339231E+02  0.20441107390E+02  0.40659206642E+02  0.00000000000E+00 0. -1.
         11    1    3    3    0    0  0.31455345973E+01  0.86783580451E+01 -0.84071529034E+01  0.12485531886E+02  0.51100000000E-03 0. -1.
        -11    1    3    3    0    0  0.62391207528E+01  0.64372837099E+01  0.42376687097E+01  0.99157998005E+01  0.51100000000E-03 0.  1.
        -12    1    3    3    0    0 -0.11276529034E+02  0.19980697476E+02 -0.16271623196E+02  0.28127461672E+02  0.00000000000E+00 0.  1.
</event>
<event>
 7    1  0.2746803E-013  0.5052885E+02  0.7816164E-02  0.1300439E+00
        -11   -1    0    0    0    0  0.00000000000E+00  0.00000000000E+00  0.45593999997E+02  0.45594000000E+02  0.51100000000E-03 0.  1.
         11   -1    0    0    0    0 -0.00000000000E+00 -0.00000000000E+00 -0.45593999997E+02  0.45594000000E+02  0.51100000000E-03 0. -1.
    9900012    2    1    2    0    0  0.34582033329E+02 -0.21011588403E+02  0.39702464935E+01  0.50528846865E+02  0.29999960532E+02 0.  0.
         12    1    1    2    0    0 -0.34582033329E+02  0.21011588403E+02 -0.39702464935E+01  0.40659153135E+02  0.00000000000E+00 0. -1.
         11    1    3    3    0    0  0.50044355281E+01  0.35064728703E+01  0.51437388862E-01  0.61108406141E+01  0.51100000000E-03 0. -1.
        -11    1    3    3    0    0 -0.35512570092E+01 -0.36042941657E+01  0.70087576928E+00  0.51081885129E+01  0.51100000000E-03 0.  1.
        -12    1    3    3    0    0  0.33128854810E+02 -0.20913767108E+02  0.32179333354E+01  0.39309817738E+02  0.00000000000E+00 0.  1.
</event>
<event>
 7    1  0.2746803E-013  0.5052885E+02  0.7816164E-02  0.1300439E+00
        -11   -1    0    0    0    0  0.00000000000E+00  0.00000000000E+00  0.45593999997E+02  0.45594000000E+02  0.51100000000E-03 0.  1.
         11   -1    0    0    0    0 -0.00000000000E+00 -0.00000000000E+00 -0.45593999997E+02  0.45594000000E+02  0.51100000000E-03 0. -1.
    9900012    2    1    2    0    0  0.11972799689E+02  0.31045981531E+02  0.23365909294E+02  0.50528848278E+02  0.29999964826E+02 0.  0.
         12    1    1    2    0    0 -0.11972799689E+02 -0.31045981531E+02 -0.23365909294E+02  0.40659151722E+02  0.00000000000E+00 0. -1.
         11    1    3    3    0    0 -0.13256305253E+01  0.15399366127E+02  0.40901758183E+01  0.15988349255E+02  0.51100000000E-03 0. -1.
        -11    1    3    3    0    0 -0.10669616225E+01  0.95093614427E+01  0.15901654215E+02  0.18558797622E+02  0.51100000000E-03 0.  1.
         12    1    3    3    0    0  0.14365391837E+02  0.61372539608E+01  0.33740792609E+01  0.15981701401E+02  0.00000000000E+00 0. -1.
</event>
<event>
 7    1  0.2746803E-013  0.5052887E+02  0.7816164E-02  0.1300439E+00
        -11   -1    0    0    0    0  0.00000000000E+00  0.00000000000E+00  0.45593999997E+02  0.45594000000E+02  0.51100000000E-03 0.  1.
         11   -1    0    0    0    0 -0.00000000000E+00 -0.00000000000E+00 -0.45593999997E+02  0.45594000000E+02  0.51100000000E-03 0. -1.
    9900012    2    1    2    0    0  0.93466658705E+01  0.10642399506E+02  0.38112258212E+02  0.50528867494E+02  0.30000023233E+02 0.  0.
         12    1    1    2    0    0 -0.93466658705E+01 -0.10642399506E+02 -0.38112258212E+02  0.40659132506E+02  0.00000000000E+00 0. -1.
         11    1    3    3    0    0 -0.44676464944E+01 -0.45475488830E+01  0.37992364136E+01  0.74212036510E+01  0.51100000000E-03 0. -1.
        -11    1    3    3    0    0  0.84784787750E+01  0.66449071470E+01  0.45639067962E+01  0.11699087094E+02  0.51100000000E-03 0.  1.
         12    1    3    3    0    0  0.53358335898E+01  0.85450412423E+01  0.29749115002E+02  0.31408576748E+02  0.00000000000E+00 0. -1.
</event>
<event>
 7    1  0.2746803E-013  0.5052886E+02  0.7816164E-02  0.1300439E+00
        -11   -1    0    0    0    0  0.00000000000E+00  0.00000000000E+00  0.45593999997E+02  0.45594000000E+02  0.51100000000E-03 0.  1.
         11   -1    0    0    0    0 -0.00000000000E+00 -0.00000000000E+00 -0.45593999997E+02  0.45594000000E+02  0.51100000000E-03 0. -1.
    9900012    2    1    2    0    0 -0.17237629620E+02  0.26807437010E+02  0.25246601472E+02  0.50528862775E+02  0.30000008892E+02 0.  0.
         12    1    1    2    0    0  0.17237629620E+02 -0.26807437010E+02 -0.25246601472E+02  0.40659137225E+02  0.00000000000E+00 0. -1.
         11    1    3    3    0    0 -0.36741901305E+01  0.98334060851E+01 -0.35156438112E+01  0.11070469729E+02  0.51100000000E-03 0. -1.
        -11    1    3    3    0    0 -0.13659984735E+02  0.13159685258E+02  0.12409615527E+02  0.22666518410E+02  0.51100000000E-03 0.  1.
        -12    1    3    3    0    0  0.96545245608E-01  0.38143456668E+01  0.16352629757E+02  0.16791874637E+02  0.00000000000E+00 0.  1.
</event>
<event>
 7    1  0.2746803E-013  0.5052887E+02  0.7816164E-02  0.1300439E+00
        -11   -1    0    0    0    0  0.00000000000E+00  0.00000000000E+00  0.45593999997E+02  0.45594000000E+02  0.51100000000E-03 0.  1.
         11   -1    0    0    0    0 -0.00000000000E+00 -0.00000000000E+00 -0.45593999997E+02  0.45594000000E+02  0.51100000000E-03 0. -1.
    9900012    2    1    2    0    0  0.20140544050E+01 -0.33535384000E+02  0.22901677873E+02  0.50528865176E+02  0.30000016190E+02 0.  0.
         12    1    1    2    0    0 -0.20140544050E+01  0.33535384000E+02 -0.22901677873E+02  0.40659134824E+02  0.00000000000E+00 0. -1.
         11    1    3    3    0    0 -0.78071236523E+01 -0.25181564767E+02  0.19644218205E+02  0.32877921056E+02  0.51100000000E-03 0. -1.
        -11    1    3    3    0    0 -0.17489021161E+01 -0.49143556027E+01  0.16667389057E+01  0.54760906167E+01  0.51100000000E-03 0.  1.
         12    1    3    3    0    0  0.11570080173E+02 -0.34394636305E+01  0.15907207630E+01  0.12174853503E+02  0.00000000000E+00 0. -1.
</event>
<event>
 7    1  0.2746803E-013  0.5052888E+02  0.7816164E-02  0.1300439E+00
        -11   -1    0    0    0    0  0.00000000000E+00  0.00000000000E+00  0.45593999997E+02  0.45594000000E+02  0.51100000000E-03 0. -1.
         11   -1    0    0    0    0 -0.00000000000E+00 -0.00000000000E+00 -0.45593999997E+02  0.45594000000E+02  0.51100000000E-03 0.  1.
    9900012    2    1    2    0    0 -0.26820247963E+02  0.30329392115E+02 -0.37371611704E+01  0.50528879246E+02  0.30000058957E+02 0.  0.
         12    1    1    2    0    0  0.26820247963E+02 -0.30329392115E+02  0.37371611704E+01  0.40659120754E+02  0.00000000000E+00 0. -1.
         11    1    3    3    0    0 -0.59911140022E+01  0.71997760007E+01  0.25699977075E+01  0.97126263145E+01  0.51100000000E-03 0.  1.
        -11    1    3    3    0    0 -0.25313804356E+02  0.15210000429E+02  0.36026728563E+00  0.29534092111E+02  0.51100000000E-03 0. -1.
         12    1    3    3    0    0  0.44846703951E+01  0.79196156851E+01 -0.66674261635E+01  0.11282160821E+02  0.00000000000E+00 0. -1.
</event>
<event>
 7    1  0.2746803E-013  0.5052886E+02  0.7816164E-02  0.1300439E+00
        -11   -1    0    0    0    0  0.00000000000E+00  0.00000000000E+00  0.45593999997E+02  0.45594000000E+02  0.51100000000E-03 0.  1.
         11   -1    0    0    0    0 -0.00000000000E+00 -0.00000000000E+00 -0.45593999997E+02  0.45594000000E+02  0.51100000000E-03 0. -1.
    9900012    2    1    2    0    0  0.14886386133E+02  0.30956839727E+02  0.21753975415E+02  0.50528857556E+02  0.29999993026E+02 0.  0.
         12    1    1    2    0    0 -0.14886386133E+02 -0.30956839727E+02 -0.21753975415E+02  0.40659142444E+02  0.00000000000E+00 0. -1.
         11    1    3    3    0    0  0.28683651112E+01  0.14218969583E+02  0.33812174028E+01  0.14894268891E+02  0.51100000000E-03 0. -1.
        -11    1    3    3    0    0  0.16696154647E+02  0.16969853877E+02  0.95592764951E+01  0.25653796756E+02  0.51100000000E-03 0.  1.
         12    1    3    3    0    0 -0.46781336254E+01 -0.23198373382E+00  0.88134815174E+01  0.99807919088E+01  0.00000000000E+00 0. -1.
</event>
<event>
 7    1  0.2746803E-013  0.5052885E+02  0.7816164E-02  0.1300439E+00
        -11   -1    0    0    0    0  0.00000000000E+00  0.00000000000E+00  0.45593999997E+02  0.45594000000E+02  0.51100000000E-03 0.  1.
         11   -1    0    0    0    0 -0.00000000000E+00 -0.00000000000E+00 -0.45593999997E+02  0.45594000000E+02  0.51100000000E-03 0. -1.
    9900012    2    1    2    0    0 -0.32525105892E+01 -0.17558249499E+02  0.36528015134E+02  0.50528845554E+02  0.29999956547E+02 0.  0.
         12    1    1    2    0    0  0.32525105892E+01  0.17558249499E+02 -0.36528015134E+02  0.40659154446E+02  0.00000000000E+00 0. -1.
         11    1    3    3    0    0 -0.10204431847E+02 -0.10312057298E+02  0.24246039391E+02  0.28254900132E+02  0.51100000000E-03 0. -1.
        -11    1    3    3    0    0  0.30613612804E+01 -0.11200117960E+02  0.12032729556E+02  0.16721278541E+02  0.51100000000E-03 0.  1.
         12    1    3    3    0    0  0.38905599774E+01  0.39539257586E+01  0.24924618661E+00  0.55526668821E+01  0.00000000000E+00 0. -1.
</event>
<event>
 7    1  0.2746803E-013  0.5052887E+02  0.7816164E-02  0.1300439E+00
        -11   -1    0    0    0    0  0.00000000000E+00  0.00000000000E+00  0.45593999997E+02  0.45594000000E+02  0.51100000000E-03 0. -1.
         11   -1    0    0    0    0 -0.00000000000E+00 -0.00000000000E+00 -0.45593999997E+02  0.45594000000E+02  0.51100000000E-03 0.  1.
    9900012    2    1    2    0    0  0.29406908737E+02  0.13571365196E+02 -0.24580812855E+02  0.50528873160E+02  0.30000040457E+02 0.  0.
         12    1    1    2    0    0 -0.29406908737E+02 -0.13571365196E+02  0.24580812855E+02  0.40659126840E+02  0.00000000000E+00 0. -1.
         11    1    3    3    0    0 -0.26618825833E+01  0.86102570861E+01 -0.55563460335E+01  0.10587498641E+02  0.51100000000E-03 0. -1.
        -11    1    3    3    0    0  0.66226933800E+01  0.47184257619E+01 -0.10117677166E+02  0.12980408344E+02  0.51100000000E-03 0.  1.
        -12    1    3    3    0    0  0.25446097940E+02  0.24268234805E+00 -0.89067896561E+01  0.26960966175E+02  0.00000000000E+00 0.  1.
</event>
<event>
 7    1  0.2746803E-013  0.5052886E+02  0.7816164E-02  0.1300439E+00
        -11   -1    0    0    0    0  0.00000000000E+00  0.00000000000E+00  0.45593999997E+02  0.45594000000E+02  0.51100000000E-03 0.  1.
         11   -1    0    0    0    0 -0.00000000000E+00 -0.00000000000E+00 -0.45593999997E+02  0.45594000000E+02  0.51100000000E-03 0. -1.
    9900012    2    1    2    0    0 -0.16943408285E+02 -0.52002398851E+01  0.36592947491E+02  0.50528863447E+02  0.30000010934E+02 0.  0.
         12    1    1    2    0    0  0.16943408285E+02  0.52002398851E+01 -0.36592947491E+02  0.40659136553E+02  0.00000000000E+00 0. -1.
         11    1    3    3    0    0 -0.45981542481E+01  0.34980723672E+01  0.14974036337E+02  0.16049962531E+02  0.51100000000E-03 0. -1.
        -11    1    3    3    0    0  0.58452870502E+01  0.73638057618E+00  0.77499881228E+01  0.97350887627E+01  0.51100000000E-03 0.  1.
        -12    1    3    3    0    0 -0.18190541088E+02 -0.94346928285E+01  0.13868923031E+02  0.24743812153E+02  0.00000000000E+00 0.  1.
</event>
<event>
 7    1  0.2746803E-013  0.5052885E+02  0.7816164E-02  0.1300439E+00
        -11   -1    0    0    0    0  0.00000000000E+00  0.00000000000E+00  0.45593999997E+02  0.45594000000E+02  0.51100000000E-03 0. -1.
         11   -1    0    0    0    0 -0.00000000000E+00 -0.00000000000E+00 -0.45593999997E+02  0.45594000000E+02  0.51100000000E-03 0.  1.
    9900012    2    1    2    0    0 -0.34916715925E+02 -0.18547680144E+01 -0.20749673028E+02  0.50528854090E+02  0.29999982493E+02 0.  0.
         12    1    1    2    0    0  0.34916715925E+02  0.18547680144E+01  0.20749673028E+02  0.40659145910E+02  0.00000000000E+00 0. -1.
         11    1    3    3    0    0  0.19878837706E+01  0.24118414828E+01  0.32636446178E-01  0.31256561906E+01  0.51100000000E-03 0. -1.
        -11    1    3    3    0    0 -0.61728475554E+01 -0.96000618883E+01 -0.56276514011E+01  0.12725395701E+02  0.51100000000E-03 0.  1.
        -12    1    3    3    0    0 -0.30731752140E+02  0.53334523911E+01 -0.15154658073E+02  0.34677802198E+02  0.00000000000E+00 0.  1.
</event>
<event>
 7    1  0.2746803E-013  0.5052887E+02  0.7816164E-02  0.1300439E+00
        -11   -1    0    0    0    0  0.00000000000E+00  0.00000000000E+00  0.45593999997E+02  0.45594000000E+02  0.51100000000E-03 0.  1.
         11   -1    0    0    0    0 -0.00000000000E+00 -0.00000000000E+00 -0.45593999997E+02  0.45594000000E+02  0.51100000000E-03 0. -1.
    9900012    2    1    2    0    0  0.21204807781E+02  0.34674116239E+02 -0.11076777058E+01  0.50528866218E+02  0.30000019356E+02 0.  0.
         12    1    1    2    0    0 -0.21204807781E+02 -0.34674116239E+02  0.11076777058E+01  0.40659133782E+02  0.00000000000E+00 0. -1.
         11    1    3    3    0    0  0.11428420750E+02  0.12683723974E+01  0.36078044891E+01  0.12051299634E+02  0.51100000000E-03 0. -1.
        -11    1    3    3    0    0  0.55524845594E+01  0.64467431939E+01 -0.71056948409E+01  0.11085192016E+02  0.51100000000E-03 0.  1.
         12    1    3    3    0    0  0.42239024723E+01  0.26959000648E+02  0.23902126460E+01  0.27392374569E+02  0.00000000000E+00 0. -1.
</event>
<event>
 7    1  0.2746803E-013  0.5052885E+02  0.7816164E-02  0.1300439E+00
        -11   -1    0    0    0    0  0.00000000000E+00  0.00000000000E+00  0.45593999997E+02  0.45594000000E+02  0.51100000000E-03 0. -1.
         11   -1    0    0    0    0 -0.00000000000E+00 -0.00000000000E+00 -0.45593999997E+02  0.45594000000E+02  0.51100000000E-03 0.  1.
    9900012    2    1    2    0    0 -0.83353924230E-02  0.18827816204E+02 -0.36037194177E+02  0.50528854699E+02  0.29999984343E+02 0.  0.
         12    1    1    2    0    0  0.83353924230E-02 -0.18827816204E+02  0.36037194177E+02  0.40659145301E+02  0.00000000000E+00 0. -1.
         11    1    3    3    0    0 -0.77070251374E+01  0.11106052867E+02 -0.60973240218E+01  0.14829700174E+02  0.51100000000E-03 0. -1.
        -11    1    3    3    0    0 -0.92460226235E+00 -0.33179771509E+01 -0.14273261025E+02  0.14682977977E+02  0.51100000000E-03 0.  1.
         12    1    3    3    0    0  0.86232920073E+01  0.11039740488E+02 -0.15666609130E+02  0.21016176548E+02  0.00000000000E+00 0. -1.
</event>
<event>
 7    1  0.2746803E-013  0.5052880E+02  0.7816164E-02  0.1300439E+00
        -11   -1    0    0    0    0  0.00000000000E+00  0.00000000000E+00  0.45593999997E+02  0.45594000000E+02  0.51100000000E-03 0.  1.
         11   -1    0    0    0    0 -0.00000000000E+00 -0.00000000000E+00 -0.45593999997E+02  0.45594000000E+02  0.51100000000E-03 0. -1.
    9900012    2    1    2    0    0 -0.32204999714E+02  0.23592055197E+02  0.77086871609E+01  0.50528795228E+02  0.29999803574E+02 0.  0.
         12    1    1    2    0    0  0.32204999714E+02 -0.23592055197E+02 -0.77086871609E+01  0.40659204772E+02  0.00000000000E+00 0. -1.
         11    1    3    3    0    0 -0.27371651317E+02  0.96275589314E+01 -0.26779578450E+01  0.29138782495E+02  0.51100000000E-03 0. -1.
        -11    1    3    3    0    0  0.14901165367E+01  0.63978560805E+01 -0.63644624402E+00  0.65998540743E+01  0.51100000000E-03 0.  1.
        -12    1    3    3    0    0 -0.63234649336E+01  0.75666401847E+01  0.11023091250E+02  0.14790158659E+02  0.00000000000E+00 0.  1.
</event>
<event>
 7    1  0.2746803E-013  0.5052884E+02  0.7816164E-02  0.1300439E+00
        -11   -1    0    0    0    0  0.00000000000E+00  0.00000000000E+00  0.45593999997E+02  0.45594000000E+02  0.51100000000E-03 0. -1.
         11   -1    0    0    0    0 -0.00000000000E+00 -0.00000000000E+00 -0.45593999997E+02  0.45594000000E+02  0.51100000000E-03 0.  1.
    9900012    2    1    2    0    0  0.22690584552E+01 -0.31113065482E+02  0.26076725263E+02  0.50528842724E+02  0.29999947944E+02 0.  0.
         12    1    1    2    0    0 -0.22690584552E+01  0.31113065482E+02 -0.26076725263E+02  0.40659157276E+02  0.00000000000E+00 0. -1.
         11    1    3    3    0    0 -0.61820508844E+01 -0.15490278569E+02  0.85823362252E+01  0.18756944810E+02  0.51100000000E-03 0. -1.
        -11    1    3    3    0    0 -0.72972111111E+00 -0.95006809053E+01  0.18378383077E+02  0.20701700301E+02  0.51100000000E-03 0.  1.
        -12    1    3    3    0    0  0.91808304507E+01 -0.61221060076E+01 -0.88399403849E+00  0.11070197613E+02  0.00000000000E+00 0.  1.
</event>
<event>
 7    1  0.2746803E-013  0.5052886E+02  0.7816164E-02  0.1300439E+00
        -11   -1    0    0    0    0  0.00000000000E+00  0.00000000000E+00  0.45593999997E+02  0.45594000000E+02  0.51100000000E-03 0. -1.
         11   -1    0    0    0    0 -0.00000000000E+00 -0.00000000000E+00 -0.45593999997E+02  0.45594000000E+02  0.51100000000E-03 0.  1.
    9900012    2    1    2    0    0  0.13868958320E+02  0.13473973770E+02 -0.35766877874E+02  0.50528861706E+02  0.30000005640E+02 0.  0.
         12    1    1    2    0    0 -0.13868958320E+02 -0.13473973770E+02  0.35766877874E+02  0.40659138294E+02  0.00000000000E+00 0. -1.
         11    1    3    3    0    0  0.99341468818E+01 -0.88893244926E+00 -0.13791510453E+02  0.17020083313E+02  0.51100000000E-03 0. -1.
        -11    1    3    3    0    0 -0.52932323097E+01  0.53679006153E+01 -0.18773022259E+02  0.20230151514E+02  0.51100000000E-03 0.  1.
        -12    1    3    3    0    0  0.92280437480E+01  0.89950056035E+01 -0.32023451620E+01  0.13278626878E+02  0.00000000000E+00 0.  1.
</event>
<event>
 7    1  0.2746803E-013  0.5052886E+02  0.7816164E-02  0.1300439E+00
        -11   -1    0    0    0    0  0.00000000000E+00  0.00000000000E+00  0.45593999997E+02  0.45594000000E+02  0.51100000000E-03 0. -1.
         11   -1    0    0    0    0 -0.00000000000E+00 -0.00000000000E+00 -0.45593999997E+02  0.45594000000E+02  0.51100000000E-03 0.  1.
    9900012    2    1    2    0    0 -0.87758330527E+01  0.39659258729E+02  0.18147624344E+01  0.50528863125E+02  0.30000009955E+02 0.  0.
         12    1    1    2    0    0  0.87758330527E+01 -0.39659258729E+02 -0.18147624344E+01  0.40659136875E+02  0.00000000000E+00 0. -1.
         11    1    3    3    0    0 -0.28943157380E+01  0.11123345761E+02 -0.89896804419E+01  0.14591786704E+02  0.51100000000E-03 0. -1.
        -11    1    3    3    0    0  0.20081208932E+01  0.21333198336E+02  0.10220133143E+01  0.21451862675E+02  0.51100000000E-03 0.  1.
         12    1    3    3    0    0 -0.78896382080E+01  0.72027146326E+01  0.97824295620E+01  0.14485213746E+02  0.00000000000E+00 0. -1.
</event>
<event>
 7    1  0.2746803E-013  0.5052886E+02  0.7816164E-02  0.1300439E+00
        -11   -1    0    0    0    0  0.00000000000E+00  0.00000000000E+00  0.45593999997E+02  0.45594000000E+02  0.51100000000E-03 0. -1.
         11   -1    0    0    0    0 -0.00000000000E+00 -0.00000000000E+00 -0.45593999997E+02  0.45594000000E+02  0.51100000000E-03 0.  1.
    9900012    2    1    2    0    0 -0.63318968837E+01 -0.39948307030E+02  0.41479561902E+01  0.50528859659E+02  0.29999999421E+02 0.  0.
         12    1    1    2    0    0  0.63318968837E+01  0.39948307030E+02 -0.41479561902E+01  0.40659140341E+02  0.00000000000E+00 0. -1.
         11    1    3    3    0    0  0.33492406410E+01 -0.33520192739E+01  0.62059074040E+01  0.78081196874E+01  0.51100000000E-03 0. -1.
        -11    1    3    3    0    0  0.47441279232E+01 -0.96898897133E+01 -0.52986789883E+01  0.12019846575E+02  0.51100000000E-03 0.  1.
        -12    1    3    3    0    0 -0.14425265448E+02 -0.26906398042E+02  0.32407277745E+01  0.30700893397E+02  0.00000000000E+00 0.  1.
</event>
<event>
 7    1  0.2746803E-013  0.5052887E+02  0.7816164E-02  0.1300439E+00
        -11   -1    0    0    0    0  0.00000000000E+00  0.00000000000E+00  0.45593999997E+02  0.45594000000E+02  0.51100000000E-03 0.  1.
         11   -1    0    0    0    0 -0.00000000000E+00 -0.00000000000E+00 -0.45593999997E+02  0.45594000000E+02  0.51100000000E-03 0. -1.
    9900012    2    1    2    0    0 -0.30867889108E+02  0.63514296382E+01  0.25690423282E+02  0.50528867141E+02  0.30000022162E+02 0.  0.
         12    1    1    2    0    0  0.30867889108E+02 -0.63514296382E+01 -0.25690423282E+02  0.40659132859E+02  0.00000000000E+00 0. -1.
         11    1    3    3    0    0 -0.15675436424E+02 -0.56827344426E+01  0.12818434092E+02  0.21031524687E+02  0.51100000000E-03 0. -1.
        -11    1    3    3    0    0 -0.40058982803E+01  0.46770967581E+01  0.14743756754E+02  0.15978135642E+02  0.51100000000E-03 0.  1.
         12    1    3    3    0    0 -0.11186554403E+02  0.73570673227E+01 -0.18717675636E+01  0.13519206812E+02  0.00000000000E+00 0. -1.
</event>
<event>
 7    1  0.2746803E-013  0.5052886E+02  0.7816164E-02  0.1300439E+00
        -11   -1    0    0    0    0  0.00000000000E+00  0.00000000000E+00  0.45593999997E+02  0.45594000000E+02  0.51100000000E-03 0.  1.
         11   -1    0    0    0    0 -0.00000000000E+00 -0.00000000000E+00 -0.45593999997E+02  0.45594000000E+02  0.51100000000E-03 0. -1.
    9900012    2    1    2    0    0 -0.10998629029E+02 -0.38888671521E+02 -0.44572441955E+01  0.50528860326E+02  0.30000001448E+02 0.  0.
         12    1    1    2    0    0  0.10998629029E+02  0.38888671521E+02  0.44572441955E+01  0.40659139674E+02  0.00000000000E+00 0. -1.
         11    1    3    3    0    0  0.63722560112E+01 -0.72079954096E+01 -0.11079337754E+01  0.96844391685E+01  0.51100000000E-03 0. -1.
        -11    1    3    3    0    0 -0.26557083091E+01 -0.10611837958E+02 -0.94224683989E+01  0.14437686881E+02  0.51100000000E-03 0.  1.
        -12    1    3    3    0    0 -0.14715176731E+02 -0.21068838153E+02  0.60731579788E+01  0.26406734277E+02  0.00000000000E+00 0.  1.
</event>
<event>
 7    1  0.2746803E-013  0.5052886E+02  0.7816164E-02  0.1300439E+00
        -11   -1    0    0    0    0  0.00000000000E+00  0.00000000000E+00  0.45593999997E+02  0.45594000000E+02  0.51100000000E-03 0.  1.
         11   -1    0    0    0    0 -0.00000000000E+00 -0.00000000000E+00 -0.45593999997E+02  0.45594000000E+02  0.51100000000E-03 0. -1.
    9900012    2    1    2    0    0 -0.70249633537E+01 -0.34566839391E+02  0.20222486109E+02  0.50528862773E+02  0.30000008885E+02 0.  0.
         12    1    1    2    0    0  0.70249633537E+01  0.34566839391E+02 -0.20222486109E+02  0.40659137227E+02  0.00000000000E+00 0. -1.
         11    1    3    3    0    0  0.60432404798E+01 -0.22823056752E+02  0.53543832567E+01  0.24209132478E+02  0.51100000000E-03 0. -1.
        -11    1    3    3    0    0 -0.59043662191E+01 -0.12967167572E+02  0.11497943156E+02  0.18308786753E+02  0.51100000000E-03 0.  1.
         12    1    3    3    0    0 -0.71638376144E+01  0.12233849329E+01  0.33701596966E+01  0.80109435425E+01  0.00000000000E+00 0. -1.
</event>
<event>
 7    1  0.2746803E-013  0.5052886E+02  0.7816164E-02  0.1300439E+00
        -11   -1    0    0    0    0  0.00000000000E+00  0.00000000000E+00  0.45593999997E+02  0.45594000000E+02  0.51100000000E-03 0.  1.
         11   -1    0    0    0    0 -0.00000000000E+00 -0.00000000000E+00 -0.45593999997E+02  0.45594000000E+02  0.51100000000E-03 0. -1.
    9900012    2    1    2    0    0  0.27775917977E+02 -0.17386012271E+02  0.24070535147E+02  0.50528859522E+02  0.29999999002E+02 0.  0.
         12    1    1    2    0    0 -0.27775917977E+02  0.17386012271E+02 -0.24070535147E+02  0.40659140478E+02  0.00000000000E+00 0. -1.
         11    1    3    3    0    0 -0.49810211791E-01  0.51559534703E+01  0.71259910883E+00  0.52052026854E+01  0.51100000000E-03 0. -1.
        -11    1    3    3    0    0  0.10928521583E+02 -0.59916158857E+01  0.16536834523E+02  0.20707461003E+02  0.51100000000E-03 0.  1.
        -12    1    3    3    0    0  0.16897206606E+02 -0.16550349855E+02  0.68211015159E+01  0.24616195833E+02  0.00000000000E+00 0.  1.
</event>
<event>
 7    1  0.2746803E-013  0.5052886E+02  0.7816164E-02  0.1300439E+00
        -11   -1    0    0    0    0  0.00000000000E+00  0.00000000000E+00  0.45593999997E+02  0.45594000000E+02  0.51100000000E-03 0. -1.
         11   -1    0    0    0    0 -0.00000000000E+00 -0.00000000000E+00 -0.45593999997E+02  0.45594000000E+02  0.51100000000E-03 0.  1.
    9900012    2    1    2    0    0  0.20504091464E+02  0.42212213011E+01 -0.34855836944E+02  0.50528857792E+02  0.29999993743E+02 0.  0.
         12    1    1    2    0    0 -0.20504091464E+02 -0.42212213011E+01  0.34855836944E+02  0.40659142208E+02  0.00000000000E+00 0. -1.
         11    1    3    3    0    0 -0.89537587327E+00  0.26202444197E+01 -0.82279385580E+01  0.86813796109E+01  0.51100000000E-03 0. -1.
        -11    1    3    3    0    0  0.16865824014E+02  0.44333941543E+01 -0.30577644521E+02  0.35200899819E+02  0.51100000000E-03 0.  1.
         12    1    3    3    0    0  0.45336433229E+01 -0.28324172730E+01  0.39497461342E+01  0.66465783612E+01  0.00000000000E+00 0. -1.
</event>
<event>
 7    1  0.2746803E-013  0.5052887E+02  0.7816164E-02  0.1300439E+00
        -11   -1    0    0    0    0  0.00000000000E+00  0.00000000000E+00  0.45593999997E+02  0.45594000000E+02  0.51100000000E-03 0. -1.
         11   -1    0    0    0    0 -0.00000000000E+00 -0.00000000000E+00 -0.45593999997E+02  0.45594000000E+02  0.51100000000E-03 0.  1.
    9900012    2    1    2    0    0  0.25774474375E+02  0.26289259631E+02 -0.17254464177E+02  0.50528865291E+02  0.30000016538E+02 0.  0.
         12    1    1    2    0    0 -0.25774474375E+02 -0.26289259631E+02  0.17254464177E+02  0.40659134709E+02  0.00000000000E+00 0. -1.
         11    1    3    3    0    0  0.14870556659E+02  0.99702275019E+00  0.16859341731E+00  0.14904896300E+02  0.51100000000E-03 0. -1.
        -11    1    3    3    0    0  0.71684355895E+01  0.31395127923E+01 -0.82114000159E+01  0.11343284350E+02  0.51100000000E-03 0.  1.
         12    1    3    3    0    0  0.37354821266E+01  0.22152724088E+02 -0.92116575786E+01  0.24280684640E+02  0.00000000000E+00 0. -1.
</event>
<event>
 7    1  0.2746803E-013  0.5052886E+02  0.7816164E-02  0.1300439E+00
        -11   -1    0    0    0    0  0.00000000000E+00  0.00000000000E+00  0.45593999997E+02  0.45594000000E+02  0.51100000000E-03 0.  1.
         11   -1    0    0    0    0 -0.00000000000E+00 -0.00000000000E+00 -0.45593999997E+02  0.45594000000E+02  0.51100000000E-03 0. -1.
    9900012    2    1    2    0    0  0.12684729230E+02 -0.36538272154E+02  0.12538653137E+02  0.50528861911E+02  0.30000006266E+02 0.  0.
         12    1    1    2    0    0 -0.12684729230E+02  0.36538272154E+02 -0.12538653137E+02  0.40659138089E+02  0.00000000000E+00 0. -1.
         11    1    3    3    0    0  0.36305661479E+01 -0.57972988826E+00 -0.59675819255E+01  0.70092176166E+01  0.51100000000E-03 0. -1.
        -11    1    3    3    0    0 -0.23719248069E+01 -0.15402128241E+02  0.99690187905E+01  0.18499538306E+02  0.51100000000E-03 0.  1.
        -12    1    3    3    0    0  0.11426087889E+02 -0.20556414024E+02  0.85372162724E+01  0.25020105989E+02  0.00000000000E+00 0.  1.
</event>
<event>
 7    1  0.2746803E-013  0.5052877E+02  0.7816164E-02  0.1300439E+00
        -11   -1    0    0    0    0  0.00000000000E+00  0.00000000000E+00  0.45593999997E+02  0.45594000000E+02  0.51100000000E-03 0. -1.
         11   -1    0    0    0    0 -0.00000000000E+00 -0.00000000000E+00 -0.45593999997E+02  0.45594000000E+02  0.51100000000E-03 0.  1.
    9900012    2    1    2    0    0 -0.39091170950E+02 -0.10697052156E+02  0.32598495528E+01  0.50528767467E+02  0.29999719192E+02 0.  0.
         12    1    1    2    0    0  0.39091170950E+02  0.10697052156E+02 -0.32598495528E+01  0.40659232533E+02  0.00000000000E+00 0. -1.
         11    1    3    3    0    0 -0.12000901690E+02  0.17313505641E+01 -0.40832847230E+01  0.12794234270E+02  0.51100000000E-03 0. -1.
        -11    1    3    3    0    0 -0.87333800547E+01 -0.12194973150E+02 -0.47702435495E+01  0.15739902194E+02  0.51100000000E-03 0.  1.
         12    1    3    3    0    0 -0.18356889205E+02 -0.23342957022E+00  0.12113377825E+02  0.21994631003E+02  0.00000000000E+00 0. -1.
</event>
<event>
 7    1  0.2746803E-013  0.5052887E+02  0.7816164E-02  0.1300439E+00
        -11   -1    0    0    0    0  0.00000000000E+00  0.00000000000E+00  0.45593999997E+02  0.45594000000E+02  0.51100000000E-03 0.  1.
         11   -1    0    0    0    0 -0.00000000000E+00 -0.00000000000E+00 -0.45593999997E+02  0.45594000000E+02  0.51100000000E-03 0. -1.
    9900012    2    1    2    0    0  0.32703948791E+02  0.35123441504E+01 -0.23901463991E+02  0.50528870535E+02  0.30000032478E+02 0.  0.
         12    1    1    2    0    0 -0.32703948791E+02 -0.35123441504E+01  0.23901463991E+02  0.40659129465E+02  0.00000000000E+00 0. -1.
         11    1    3    3    0    0  0.12233229546E+02  0.34623931835E+01 -0.99620064628E+01  0.16151831002E+02  0.51100000000E-03 0. -1.
        -11    1    3    3    0    0  0.53192279257E+01  0.11336546992E+02 -0.59458382412E+01  0.13862340210E+02  0.51100000000E-03 0.  1.
         12    1    3    3    0    0  0.15151491319E+02 -0.11286596025E+02 -0.79936192868E+01  0.20514699324E+02  0.00000000000E+00 0. -1.
</event>
<event>
 7    1  0.2746803E-013  0.5052886E+02  0.7816164E-02  0.1300439E+00
        -11   -1    0    0    0    0  0.00000000000E+00  0.00000000000E+00  0.45593999997E+02  0.45594000000E+02  0.51100000000E-03 0.  1.
         11   -1    0    0    0    0 -0.00000000000E+00 -0.00000000000E+00 -0.45593999997E+02  0.45594000000E+02  0.51100000000E-03 0. -1.
    9900012    2    1    2    0    0  0.11559615973E+02 -0.13286605870E+02  0.36647060347E+02  0.50528860203E+02  0.30000001073E+02 0.  0.
         12    1    1    2    0    0 -0.11559615973E+02  0.13286605870E+02 -0.36647060347E+02  0.40659139797E+02  0.00000000000E+00 0. -1.
         11    1    3    3    0    0  0.28371702658E+01 -0.57861899505E+01  0.13179061762E+02  0.14670282834E+02  0.51100000000E-03 0. -1.
        -11    1    3    3    0    0  0.29553033823E+01 -0.15055235550E+02  0.70430392191E+01  0.16881893770E+02  0.51100000000E-03 0.  1.
         12    1    3    3    0    0  0.57671423246E+01  0.75548196308E+01  0.16424959366E+02  0.18976683599E+02  0.00000000000E+00 0. -1.
</event>
<event>
 7    1  0.2746803E-013  0.5052887E+02  0.7816164E-02  0.1300439E+00
        -11   -1    0    0    0    0  0.00000000000E+00  0.00000000000E+00  0.45593999997E+02  0.45594000000E+02  0.51100000000E-03 0.  1.
         11   -1    0    0    0    0 -0.00000000000E+00 -0.00000000000E+00 -0.45593999997E+02  0.45594000000E+02  0.51100000000E-03 0. -1.
    9900012    2    1    2    0    0  0.23772479284E+02  0.23665861638E+01  0.32900354671E+02  0.50528870166E+02  0.30000031357E+02 0.  0.
         12    1    1    2    0    0 -0.23772479284E+02 -0.23665861638E+01 -0.32900354671E+02  0.40659129834E+02  0.00000000000E+00 0. -1.
         11    1    3    3    0    0  0.85759913950E+00 -0.65143054690E+01  0.47456773601E+01  0.81051283700E+01  0.51100000000E-03 0. -1.
        -11    1    3    3    0    0  0.18468412192E+02 -0.30932591490E+01  0.14162435485E+02  0.23478183068E+02  0.51100000000E-03 0.  1.
        -12    1    3    3    0    0  0.44464679526E+01  0.11974150782E+02  0.13992241826E+02  0.18945558728E+02  0.00000000000E+00 0.  1.
</event>
<event>
 7    1  0.2746803E-013  0.5052886E+02  0.7816164E-02  0.1300439E+00
        -11   -1    0    0    0    0  0.00000000000E+00  0.00000000000E+00  0.45593999997E+02  0.45594000000E+02  0.51100000000E-03 0. -1.
         11   -1    0    0    0    0 -0.00000000000E+00 -0.00000000000E+00 -0.45593999997E+02  0.45594000000E+02  0.51100000000E-03 0.  1.
    9900012    2    1    2    0    0  0.16202437931E+02  0.33224077650E+02  0.16935389365E+02  0.50528859041E+02  0.29999997541E+02 0.  0.
         12    1    1    2    0    0 -0.16202437931E+02 -0.33224077650E+02 -0.16935389365E+02  0.40659140959E+02  0.00000000000E+00 0. -1.
         11    1    3    3    0    0  0.13076362665E+02  0.22578670968E+02  0.13837649724E+02  0.29534186858E+02  0.51100000000E-03 0. -1.
        -11    1    3    3    0    0 -0.19936736855E+01  0.14035009625E+02  0.13365778576E+00  0.14176533237E+02  0.51100000000E-03 0.  1.
         12    1    3    3    0    0  0.51197489521E+01 -0.33896029437E+01  0.29640818546E+01  0.68181389462E+01  0.00000000000E+00 0. -1.
</event>
<event>
 7    1  0.2746803E-013  0.5052889E+02  0.7816164E-02  0.1300439E+00
        -11   -1    0    0    0    0  0.00000000000E+00  0.00000000000E+00  0.45593999997E+02  0.45594000000E+02  0.51100000000E-03 0.  1.
         11   -1    0    0    0    0 -0.00000000000E+00 -0.00000000000E+00 -0.45593999997E+02  0.45594000000E+02  0.51100000000E-03 0. -1.
    9900012    2    1    2    0    0 -0.33599824650E+02  0.18533242310E+02  0.13443730835E+02  0.50528890495E+02  0.30000093148E+02 0.  0.
         12    1    1    2    0    0  0.33599824650E+02 -0.18533242310E+02 -0.13443730835E+02  0.40659109505E+02  0.00000000000E+00 0. -1.
         11    1    3    3    0    0  0.11406991883E+01  0.53557809303E+00  0.46359505227E+01  0.48041727739E+01  0.51100000000E-03 0. -1.
        -11    1    3    3    0    0 -0.24306672556E+02  0.21330850260E+02  0.11709119734E+02  0.34393647506E+02  0.51100000000E-03 0.  1.
        -12    1    3    3    0    0 -0.10433851282E+02 -0.33331860430E+01 -0.29013394220E+01  0.11331070215E+02  0.00000000000E+00 0.  1.
</event>
<event>
 7    1  0.2746803E-013  0.5052886E+02  0.7816164E-02  0.1300439E+00
        -11   -1    0    0    0    0  0.00000000000E+00  0.00000000000E+00  0.45593999997E+02  0.45594000000E+02  0.51100000000E-03 0.  1.
         11   -1    0    0    0    0 -0.00000000000E+00 -0.00000000000E+00 -0.45593999997E+02  0.45594000000E+02  0.51100000000E-03 0. -1.
    9900012    2    1    2    0    0 -0.25024206840E+02 -0.27389248658E+01  0.31928870697E+02  0.50528863003E+02  0.30000009584E+02 0.  0.
         12    1    1    2    0    0  0.25024206840E+02  0.27389248658E+01 -0.31928870697E+02  0.40659136997E+02  0.00000000000E+00 0. -1.
         11    1    3    3    0    0 -0.98990427397E+01 -0.94657000392E+01  0.36657804417E+01  0.14178450935E+02  0.51100000000E-03 0. -1.
        -11    1    3    3    0    0 -0.78794175082E+01 -0.29636206466E+01  0.19996752924E+02  0.21696506524E+02  0.51100000000E-03 0.  1.
         12    1    3    3    0    0 -0.72457465918E+01  0.96903958200E+01  0.82663373310E+01  0.14653905544E+02  0.00000000000E+00 0. -1.
</event>
<event>
 7    1  0.2746803E-013  0.5052886E+02  0.7816164E-02  0.1300439E+00
        -11   -1    0    0    0    0  0.00000000000E+00  0.00000000000E+00  0.45593999997E+02  0.45594000000E+02  0.51100000000E-03 0. -1.
         11   -1    0    0    0    0 -0.00000000000E+00 -0.00000000000E+00 -0.45593999997E+02  0.45594000000E+02  0.51100000000E-03 0.  1.
    9900012    2    1    2    0    0 -0.21532033276E+02 -0.34281230614E+02  0.37861087263E+01  0.50528857748E+02  0.29999993609E+02 0.  0.
         12    1    1    2    0    0  0.21532033276E+02  0.34281230614E+02 -0.37861087263E+01  0.40659142252E+02  0.00000000000E+00 0. -1.
         11    1    3    3    0    0 -0.11552505428E+02 -0.12088016273E+02  0.22573804995E+01  0.16872352713E+02  0.51100000000E-03 0. -1.
        -11    1    3    3    0    0 -0.17156269185E+01 -0.18254459327E+02 -0.83860774471E+01  0.20161720072E+02  0.51100000000E-03 0.  1.
         12    1    3    3    0    0 -0.82639009295E+01 -0.39387550131E+01  0.99148056738E+01  0.13494784962E+02  0.00000000000E+00 0. -1.
</event>
<event>
 7    1  0.2746803E-013  0.5052886E+02  0.7816164E-02  0.1300439E+00
        -11   -1    0    0    0    0  0.00000000000E+00  0.00000000000E+00  0.45593999997E+02  0.45594000000E+02  0.51100000000E-03 0.  1.
         11   -1    0    0    0    0 -0.00000000000E+00 -0.00000000000E+00 -0.45593999997E+02  0.45594000000E+02  0.51100000000E-03 0. -1.
    9900012    2    1    2    0    0  0.15107609706E+02  0.18248639794E+02  0.33044102623E+02  0.50528862730E+02  0.30000008754E+02 0.  0.
         12    1    1    2    0    0 -0.15107609706E+02 -0.18248639794E+02 -0.33044102623E+02  0.40659137270E+02  0.00000000000E+00 0. -1.
         11    1    3    3    0    0  0.19698788671E+01  0.15097074759E+02  0.14895627480E+02  0.21299807683E+02  0.51100000000E-03 0. -1.
        -11    1    3    3    0    0  0.11108605424E+02  0.94362411362E+01  0.17219307765E+02  0.22559883009E+02  0.51100000000E-03 0.  1.
         12    1    3    3    0    0  0.20291254150E+01 -0.62846761018E+01  0.92916737894E+00  0.66691720380E+01  0.00000000000E+00 0. -1.
</event>
<event>
 7    1  0.2746803E-013  0.5052890E+02  0.7816164E-02  0.1300439E+00
        -11   -1    0    0    0    0  0.00000000000E+00  0.00000000000E+00  0.45593999997E+02  0.45594000000E+02  0.51100000000E-03 0.  1.
         11   -1    0    0    0    0 -0.00000000000E+00 -0.00000000000E+00 -0.45593999997E+02  0.45594000000E+02  0.51100000000E-03 0. -1.
    9900012    2    1    2    0    0 -0.30602123508E+02 -0.25447329119E+02  0.83130166602E+01  0.50528895626E+02  0.30000108746E+02 0.  0.
         12    1    1    2    0    0  0.30602123508E+02  0.25447329119E+02 -0.83130166602E+01  0.40659104374E+02  0.00000000000E+00 0. -1.
         11    1    3    3    0    0  0.15009514694E+01 -0.15957763408E+01  0.59983564732E+01  0.63858936794E+01  0.51100000000E-03 0. -1.
        -11    1    3    3    0    0 -0.31502879528E+01 -0.12508471582E+02  0.19480946184E+01  0.13045353518E+02  0.51100000000E-03 0.  1.
        -12    1    3    3    0    0 -0.28952787024E+02 -0.11343081196E+02  0.36656556855E+00  0.31097648429E+02  0.00000000000E+00 0.  1.
</event>
<event>
 7    1  0.2746803E-013  0.5052886E+02  0.7816164E-02  0.1300439E+00
        -11   -1    0    0    0    0  0.00000000000E+00  0.00000000000E+00  0.45593999997E+02  0.45594000000E+02  0.51100000000E-03 0.  1.
         11   -1    0    0    0    0 -0.00000000000E+00 -0.00000000000E+00 -0.45593999997E+02  0.45594000000E+02  0.51100000000E-03 0. -1.
    9900012    2    1    2    0    0 -0.22166907010E+02  0.17729216463E+02  0.29111312066E+02  0.50528863598E+02  0.30000011391E+02 0.  0.
         12    1    1    2    0    0  0.22166907010E+02 -0.17729216463E+02 -0.29111312066E+02  0.40659136402E+02  0.00000000000E+00 0. -1.
         11    1    3    3    0    0 -0.47756640647E+00  0.10373264166E+02  0.14414903371E+01  0.10483824387E+02  0.51100000000E-03 0. -1.
        -11    1    3    3    0    0 -0.44228571235E+01 -0.57611792949E+01  0.67991474178E+01  0.99489324992E+01  0.51100000000E-03 0.  1.
        -12    1    3    3    0    0 -0.17266483480E+02  0.13117131592E+02  0.20870674311E+02  0.30096106711E+02  0.00000000000E+00 0.  1.
</event>
<event>
 7    1  0.2746803E-013  0.5052886E+02  0.7816164E-02  0.1300439E+00
        -11   -1    0    0    0    0  0.00000000000E+00  0.00000000000E+00  0.45593999997E+02  0.45594000000E+02  0.51100000000E-03 0. -1.
         11   -1    0    0    0    0 -0.00000000000E+00 -0.00000000000E+00 -0.45593999997E+02  0.45594000000E+02  0.51100000000E-03 0.  1.
    9900012    2    1    2    0    0  0.25997397458E+01 -0.39527226032E+02 -0.91654531294E+01  0.50528858647E+02  0.29999996343E+02 0.  0.
         12    1    1    2    0    0 -0.25997397458E+01  0.39527226032E+02  0.91654531294E+01  0.40659141353E+02  0.00000000000E+00 0. -1.
         11    1    3    3    0    0  0.24096888478E+01 -0.15216596343E+02 -0.12299408388E+02  0.19713620966E+02  0.51100000000E-03 0. -1.
        -11    1    3    3    0    0 -0.58118633345E+01 -0.23837002063E+02  0.15212132522E+01  0.24582402503E+02  0.51100000000E-03 0.  1.
         12    1    3    3    0    0  0.60019142324E+01 -0.47362762500E+00  0.16127420066E+01  0.62328351784E+01  0.00000000000E+00 0. -1.
</event>
<event>
 7    1  0.2746803E-013  0.5052884E+02  0.7816164E-02  0.1300439E+00
        -11   -1    0    0    0    0  0.00000000000E+00  0.00000000000E+00  0.45593999997E+02  0.45594000000E+02  0.51100000000E-03 0.  1.
         11   -1    0    0    0    0 -0.00000000000E+00 -0.00000000000E+00 -0.45593999997E+02  0.45594000000E+02  0.51100000000E-03 0. -1.
    9900012    2    1    2    0    0 -0.29383888854E+02  0.27464945378E+02 -0.59524057576E+01  0.50528840109E+02  0.29999939994E+02 0.  0.
         12    1    1    2    0    0  0.29383888854E+02 -0.27464945378E+02  0.59524057576E+01  0.40659159891E+02  0.00000000000E+00 0. -1.
         11    1    3    3    0    0 -0.34742394356E+00  0.10152028205E+01  0.49906641415E+01  0.51047104714E+01  0.51100000000E-03 0. -1.
        -11    1    3    3    0    0 -0.22718279863E+02  0.12478133618E+02  0.10749929920E+01  0.25941851683E+02  0.51100000000E-03 0.  1.
         12    1    3    3    0    0 -0.63181850470E+01  0.13971608939E+02 -0.12018062891E+02  0.19482277954E+02  0.00000000000E+00 0. -1.
</event>
<event>
 7    1  0.2746803E-013  0.5052886E+02  0.7816164E-02  0.1300439E+00
        -11   -1    0    0    0    0  0.00000000000E+00  0.00000000000E+00  0.45593999997E+02  0.45594000000E+02  0.51100000000E-03 0.  1.
         11   -1    0    0    0    0 -0.00000000000E+00 -0.00000000000E+00 -0.45593999997E+02  0.45594000000E+02  0.51100000000E-03 0. -1.
    9900012    2    1    2    0    0  0.32980520549E+02  0.23437421659E+02  0.40172150360E+01  0.50528862203E+02  0.30000007153E+02 0.  0.
         12    1    1    2    0    0 -0.32980520549E+02 -0.23437421659E+02 -0.40172150360E+01  0.40659137797E+02  0.00000000000E+00 0. -1.
         11    1    3    3    0    0  0.22631417265E+02  0.89956435798E+01 -0.97782693174E+01  0.26243422070E+02  0.51100000000E-03 0. -1.
        -11    1    3    3    0    0  0.23208954077E+01 -0.89770965977E+00  0.29338546974E+01  0.38470692447E+01  0.51100000000E-03 0.  1.
        -12    1    3    3    0    0  0.80282078766E+01  0.15339487739E+02  0.10861629656E+02  0.20438370889E+02  0.00000000000E+00 0.  1.
</event>
<event>
 7    1  0.2746803E-013  0.5052886E+02  0.7816164E-02  0.1300439E+00
        -11   -1    0    0    0    0  0.00000000000E+00  0.00000000000E+00  0.45593999997E+02  0.45594000000E+02  0.51100000000E-03 0.  1.
         11   -1    0    0    0    0 -0.00000000000E+00 -0.00000000000E+00 -0.45593999997E+02  0.45594000000E+02  0.51100000000E-03 0. -1.
    9900012    2    1    2    0    0 -0.27106635227E+02 -0.13333059166E+02  0.27214433185E+02  0.50528861868E+02  0.30000006135E+02 0.  0.
         12    1    1    2    0    0  0.27106635227E+02  0.13333059166E+02 -0.27214433185E+02  0.40659138132E+02  0.00000000000E+00 0. -1.
         11    1    3    3    0    0 -0.15783132388E+02 -0.15874800898E+02  0.13675088649E+02  0.26232129561E+02  0.51100000000E-03 0. -1.
        -11    1    3    3    0    0 -0.14953405108E+02  0.16998715962E+00  0.71519089540E+01  0.16576580525E+02  0.51100000000E-03 0.  1.
         12    1    3    3    0    0  0.36299022684E+01  0.23717545717E+01  0.63874355819E+01  0.77201517822E+01  0.00000000000E+00 0. -1.
</event>
<event>
 7    1  0.2746803E-013  0.5052886E+02  0.7816164E-02  0.1300439E+00
        -11   -1    0    0    0    0  0.00000000000E+00  0.00000000000E+00  0.45593999997E+02  0.45594000000E+02  0.51100000000E-03 0. -1.
         11   -1    0    0    0    0 -0.00000000000E+00 -0.00000000000E+00 -0.45593999997E+02  0.45594000000E+02  0.51100000000E-03 0.  1.
    9900012    2    1    2    0    0  0.49117354547E+01 -0.38688653217E+02 -0.11499057878E+02  0.50528863696E+02  0.30000011690E+02 0.  0.
         12    1    1    2    0    0 -0.49117354547E+01  0.38688653217E+02  0.11499057878E+02  0.40659136304E+02  0.00000000000E+00 0. -1.
         11    1    3    3    0    0 -0.55685943301E+00 -0.10620051965E+01  0.28080574406E+01  0.30533808011E+01  0.51100000000E-03 0. -1.
        -11    1    3    3    0    0 -0.22377862272E+01 -0.16956973776E+02  0.53575492914E+01  0.17923447813E+02  0.51100000000E-03 0.  1.
         12    1    3    3    0    0  0.77063811149E+01 -0.20669674244E+02 -0.19664664610E+02  0.29552035082E+02  0.00000000000E+00 0. -1.
</event>
<event>
 7    1  0.2746803E-013  0.5052885E+02  0.7816164E-02  0.1300439E+00
        -11   -1    0    0    0    0  0.00000000000E+00  0.00000000000E+00  0.45593999997E+02  0.45594000000E+02  0.51100000000E-03 0.  1.
         11   -1    0    0    0    0 -0.00000000000E+00 -0.00000000000E+00 -0.45593999997E+02  0.45594000000E+02  0.51100000000E-03 0. -1.
    9900012    2    1    2    0    0 -0.21339654964E+01 -0.22770067848E+02  0.33617503634E+02  0.50528851594E+02  0.29999974904E+02 0.  0.
         12    1    1    2    0    0  0.21339654964E+01  0.22770067848E+02 -0.33617503634E+02  0.40659148406E+02  0.00000000000E+00 0. -1.
         11    1    3    3    0    0 -0.23294045587E+01  0.66309475359E+01  0.26167105298E+01  0.74995176565E+01  0.51100000000E-03 0. -1.
        -11    1    3    3    0    0  0.94891951789E+00 -0.31260523523E+01  0.55570849217E+01  0.64462271639E+01  0.51100000000E-03 0.  1.
        -12    1    3    3    0    0 -0.75348045551E+00 -0.26274963032E+02  0.25443708182E+02  0.36583106773E+02  0.00000000000E+00 0.  1.
</event>
<event>
 7    1  0.2746803E-013  0.5052886E+02  0.7816164E-02  0.1300439E+00
        -11   -1    0    0    0    0  0.00000000000E+00  0.00000000000E+00  0.45593999997E+02  0.45594000000E+02  0.51100000000E-03 0. -1.
         11   -1    0    0    0    0 -0.00000000000E+00 -0.00000000000E+00 -0.45593999997E+02  0.45594000000E+02  0.51100000000E-03 0.  1.
    9900012    2    1    2    0    0  0.52563877970E+00  0.35111385304E+02 -0.20495854091E+02  0.50528859465E+02  0.29999998831E+02 0.  0.
         12    1    1    2    0    0 -0.52563877970E+00 -0.35111385304E+02  0.20495854091E+02  0.40659140535E+02  0.00000000000E+00 0. -1.
         11    1    3    3    0    0  0.14324076201E+01  0.19922981102E+02 -0.30415881561E+01  0.20204658531E+02  0.51100000000E-03 0. -1.
        -11    1    3    3    0    0 -0.78253942675E+01  0.10000356358E+02 -0.23416397960E+01  0.12912288717E+02  0.51100000000E-03 0.  1.
         12    1    3    3    0    0  0.69186254272E+01  0.51880478441E+01 -0.15112626139E+02  0.17411912217E+02  0.00000000000E+00 0. -1.
</event>
<event>
 7    1  0.2746803E-013  0.5052886E+02  0.7816164E-02  0.1300439E+00
        -11   -1    0    0    0    0  0.00000000000E+00  0.00000000000E+00  0.45593999997E+02  0.45594000000E+02  0.51100000000E-03 0.  1.
         11   -1    0    0    0    0 -0.00000000000E+00 -0.00000000000E+00 -0.45593999997E+02  0.45594000000E+02  0.51100000000E-03 0. -1.
    9900012    2    1    2    0    0  0.37059335193E+02  0.10653468756E+02  0.12894761912E+02  0.50528860729E+02  0.30000002671E+02 0.  0.
         12    1    1    2    0    0 -0.37059335193E+02 -0.10653468756E+02 -0.12894761912E+02  0.40659139271E+02  0.00000000000E+00 0. -1.
         11    1    3    3    0    0  0.13127009624E+02  0.67728914352E+01  0.82793482619E+00  0.14794455597E+02  0.51100000000E-03 0. -1.
        -11    1    3    3    0    0  0.22031877869E+02  0.53933407107E+01  0.18236158659E+02  0.29104110524E+02  0.51100000000E-03 0.  1.
         12    1    3    3    0    0  0.19004477000E+01 -0.15127633895E+01 -0.61693315734E+01  0.66302946085E+01  0.00000000000E+00 0. -1.
</event>
<event>
 7    1  0.2746803E-013  0.5052887E+02  0.7816164E-02  0.1300439E+00
        -11   -1    0    0    0    0  0.00000000000E+00  0.00000000000E+00  0.45593999997E+02  0.45594000000E+02  0.51100000000E-03 0. -1.
         11   -1    0    0    0    0 -0.00000000000E+00 -0.00000000000E+00 -0.45593999997E+02  0.45594000000E+02  0.51100000000E-03 0.  1.
    9900012    2    1    2    0    0  0.17896189447E+01 -0.37754412387E+01 -0.40443892209E+02  0.50528866838E+02  0.30000021240E+02 0.  0.
         12    1    1    2    0    0 -0.17896189447E+01  0.37754412387E+01  0.40443892209E+02  0.40659133162E+02  0.00000000000E+00 0. -1.
         11    1    3    3    0    0  0.53649862504E+01 -0.16893953815E+01 -0.98035889690E+01  0.11302543570E+02  0.51100000000E-03 0. -1.
        -11    1    3    3    0    0 -0.14333617862E+01  0.61877231859E+01 -0.29989836218E+02  0.30655060282E+02  0.51100000000E-03 0.  1.
        -12    1    3    3    0    0 -0.21420055194E+01 -0.82737690431E+01 -0.65046702166E+00  0.85712629857E+01  0.00000000000E+00 0.  1.
</event>
<event>
 7    1  0.2746803E-013  0.5052886E+02  0.7816164E-02  0.1300439E+00
        -11   -1    0    0    0    0  0.00000000000E+00  0.00000000000E+00  0.45593999997E+02  0.45594000000E+02  0.51100000000E-03 0. -1.
         11   -1    0    0    0    0 -0.00000000000E+00 -0.00000000000E+00 -0.45593999997E+02  0.45594000000E+02  0.51100000000E-03 0.  1.
    9900012    2    1    2    0    0 -0.20683241679E+02 -0.11845954709E+02 -0.32939989015E+02  0.50528855818E+02  0.29999987743E+02 0.  0.
         12    1    1    2    0    0  0.20683241679E+02  0.11845954709E+02  0.32939989015E+02  0.40659144182E+02  0.00000000000E+00 0. -1.
         11    1    3    3    0    0 -0.14535115069E+01 -0.72742932542E+01 -0.67230818213E+01  0.10011386891E+02  0.51100000000E-03 0. -1.
        -11    1    3    3    0    0 -0.13497409162E+02 -0.32820879830E+01 -0.30320369497E+02  0.33350816516E+02  0.51100000000E-03 0.  1.
         12    1    3    3    0    0 -0.57323210101E+01 -0.12895734717E+01  0.41034623025E+01  0.71666524103E+01  0.00000000000E+00 0. -1.
</event>
<event>
 7    1  0.2746803E-013  0.5052889E+02  0.7816164E-02  0.1300439E+00
        -11   -1    0    0    0    0  0.00000000000E+00  0.00000000000E+00  0.45593999997E+02  0.45594000000E+02  0.51100000000E-03 0.  1.
         11   -1    0    0    0    0 -0.00000000000E+00 -0.00000000000E+00 -0.45593999997E+02  0.45594000000E+02  0.51100000000E-03 0. -1.
    9900012    2    1    2    0    0 -0.18463732888E+01 -0.17140235242E+02  0.36823453975E+02  0.50528886371E+02  0.30000080614E+02 0.  0.
         12    1    1    2    0    0  0.18463732888E+01  0.17140235242E+02 -0.36823453975E+02  0.40659113629E+02  0.00000000000E+00 0. -1.
         11    1    3    3    0    0  0.18248339437E+01  0.25159914744E+01  0.44662956447E+01  0.54413260395E+01  0.51100000000E-03 0. -1.
        -11    1    3    3    0    0 -0.10024313583E+02 -0.55329178067E+01  0.29059597495E+01  0.11812901616E+02  0.51100000000E-03 0.  1.
        -12    1    3    3    0    0  0.63531063503E+01 -0.14123308909E+02  0.29451198580E+02  0.33274658716E+02  0.00000000000E+00 0.  1.
</event>
<event>
 7    1  0.2746803E-013  0.5052886E+02  0.7816164E-02  0.1300439E+00
        -11   -1    0    0    0    0  0.00000000000E+00  0.00000000000E+00  0.45593999997E+02  0.45594000000E+02  0.51100000000E-03 0.  1.
         11   -1    0    0    0    0 -0.00000000000E+00 -0.00000000000E+00 -0.45593999997E+02  0.45594000000E+02  0.51100000000E-03 0. -1.
    9900012    2    1    2    0    0  0.32933314917E+01  0.22981200369E+02  0.33379394097E+02  0.50528861384E+02  0.30000004662E+02 0.  0.
         12    1    1    2    0    0 -0.32933314917E+01 -0.22981200369E+02 -0.33379394097E+02  0.40659138616E+02  0.00000000000E+00 0. -1.
         11    1    3    3    0    0  0.15448624450E+01  0.95478969304E+01 -0.85930822825E+00  0.97101671798E+01  0.51100000000E-03 0. -1.
        -11    1    3    3    0    0  0.75128337336E+01  0.66364851006E+00  0.75257360430E+01  0.10654567251E+02  0.51100000000E-03 0.  1.
        -12    1    3    3    0    0 -0.57643646869E+01  0.12769654928E+02  0.26712966283E+02  0.30164126953E+02  0.00000000000E+00 0.  1.
</event>
<event>
 7    1  0.2746803E-013  0.5052888E+02  0.7816164E-02  0.1300439E+00
        -11   -1    0    0    0    0  0.00000000000E+00  0.00000000000E+00  0.45593999997E+02  0.45594000000E+02  0.51100000000E-03 0.  1.
         11   -1    0    0    0    0 -0.00000000000E+00 -0.00000000000E+00 -0.45593999997E+02  0.45594000000E+02  0.51100000000E-03 0. -1.
    9900012    2    1    2    0    0  0.35739896306E+02  0.76088578915E+01  0.17830564400E+02  0.50528881303E+02  0.30000065208E+02 0.  0.
         12    1    1    2    0    0 -0.35739896306E+02 -0.76088578915E+01 -0.17830564400E+02  0.40659118697E+02  0.00000000000E+00 0. -1.
         11    1    3    3    0    0  0.13206078874E+02  0.10068343430E+01  0.12879525801E+02  0.18474209584E+02  0.51100000000E-03 0. -1.
        -11    1    3    3    0    0  0.48023966004E+01  0.94333368725E+00  0.11360212100E+02  0.12369612394E+02  0.51100000000E-03 0.  1.
         12    1    3    3    0    0  0.17731420832E+02  0.56586898613E+01 -0.64091735010E+01  0.19685059325E+02  0.00000000000E+00 0. -1.
</event>
<event>
 7    1  0.2746803E-013  0.5052886E+02  0.7816164E-02  0.1300439E+00
        -11   -1    0    0    0    0  0.00000000000E+00  0.00000000000E+00  0.45593999997E+02  0.45594000000E+02  0.51100000000E-03 0.  1.
         11   -1    0    0    0    0 -0.00000000000E+00 -0.00000000000E+00 -0.45593999997E+02  0.45594000000E+02  0.51100000000E-03 0. -1.
    9900012    2    1    2    0    0  0.12796726607E+02  0.88112704887E+01  0.37573537854E+02  0.50528862696E+02  0.30000008649E+02 0.  0.
         12    1    1    2    0    0 -0.12796726607E+02 -0.88112704887E+01 -0.37573537854E+02  0.40659137304E+02  0.00000000000E+00 0. -1.
         11    1    3    3    0    0  0.36719416427E+01 -0.61038329558E+01  0.38999640971E+01  0.81209391329E+01  0.51100000000E-03 0. -1.
        -11    1    3    3    0    0  0.14245368225E+02  0.81356353028E+01  0.16605738398E+02  0.23342442581E+02  0.51100000000E-03 0.  1.
        -12    1    3    3    0    0 -0.51205832612E+01  0.67794681418E+01  0.17067835358E+02  0.19065480981E+02  0.00000000000E+00 0.  1.
</event>
<event>
 7    1  0.2746803E-013  0.5052886E+02  0.7816164E-02  0.1300439E+00
        -11   -1    0    0    0    0  0.00000000000E+00  0.00000000000E+00  0.45593999997E+02  0.45594000000E+02  0.51100000000E-03 0.  1.
         11   -1    0    0    0    0 -0.00000000000E+00 -0.00000000000E+00 -0.45593999997E+02  0.45594000000E+02  0.51100000000E-03 0. -1.
    9900012    2    1    2    0    0  0.29710830604E+02  0.27085918043E+02  0.60651096759E+01  0.50528856296E+02  0.29999989196E+02 0.  0.
         12    1    1    2    0    0 -0.29710830604E+02 -0.27085918043E+02 -0.60651096759E+01  0.40659143704E+02  0.00000000000E+00 0. -1.
         11    1    3    3    0    0  0.13391064951E+02  0.41422674660E+01  0.35222200392E+01  0.14452855585E+02  0.51100000000E-03 0. -1.
        -11    1    3    3    0    0  0.19618779309E+02  0.24832713583E+02  0.27360182143E+00  0.31648618038E+02  0.51100000000E-03 0.  1.
        -12    1    3    3    0    0 -0.32990136567E+01 -0.18890630059E+01  0.22692878153E+01  0.44273826733E+01  0.00000000000E+00 0.  1.
</event>
<event>
 7    1  0.2746803E-013  0.5052886E+02  0.7816164E-02  0.1300439E+00
        -11   -1    0    0    0    0  0.00000000000E+00  0.00000000000E+00  0.45593999997E+02  0.45594000000E+02  0.51100000000E-03 0.  1.
         11   -1    0    0    0    0 -0.00000000000E+00 -0.00000000000E+00 -0.45593999997E+02  0.45594000000E+02  0.51100000000E-03 0. -1.
    9900012    2    1    2    0    0  0.19523006803E+02  0.32900536942E+02  0.13768544542E+02  0.50528856569E+02  0.29999990027E+02 0.  0.
         12    1    1    2    0    0 -0.19523006803E+02 -0.32900536942E+02 -0.13768544542E+02  0.40659143431E+02  0.00000000000E+00 0. -1.
         11    1    3    3    0    0  0.57292465170E+01 -0.72828902380E-01  0.71493287988E+01  0.91620124556E+01  0.51100000000E-03 0. -1.
        -11    1    3    3    0    0 -0.50238826313E+01  0.49218453544E+01  0.16583936590E+01  0.72259413348E+01  0.51100000000E-03 0.  1.
         12    1    3    3    0    0  0.18817642918E+02  0.28051520490E+02  0.49608220843E+01  0.34140902779E+02  0.00000000000E+00 0. -1.
</event>
<event>
 7    1  0.2746803E-013  0.5052888E+02  0.7816164E-02  0.1300439E+00
        -11   -1    0    0    0    0  0.00000000000E+00  0.00000000000E+00  0.45593999997E+02  0.45594000000E+02  0.51100000000E-03 0.  1.
         11   -1    0    0    0    0 -0.00000000000E+00 -0.00000000000E+00 -0.45593999997E+02  0.45594000000E+02  0.51100000000E-03 0. -1.
    9900012    2    1    2    0    0  0.94227848232E+01 -0.74884441260E+01  0.38836815293E+02  0.50528881818E+02  0.30000066774E+02 0.  0.
         12    1    1    2    0    0 -0.94227848232E+01  0.74884441260E+01 -0.38836815293E+02  0.40659118182E+02  0.00000000000E+00 0. -1.
         11    1    3    3    0    0  0.16836276997E+02 -0.83188831535E+01  0.36850182829E+02  0.41359400561E+02  0.51100000000E-03 0.  1.
        -11    1    3    3    0    0  0.31163809976E-01  0.13688958864E+00 -0.10793061675E+01  0.10883988271E+01  0.51100000000E-03 0. -1.
        -12    1    3    3    0    0 -0.74446559836E+01  0.69354943886E+00  0.30659386316E+01  0.80810824294E+01  0.00000000000E+00 0.  1.
</event>
<event>
 7    1  0.2746803E-013  0.5052887E+02  0.7816164E-02  0.1300439E+00
        -11   -1    0    0    0    0  0.00000000000E+00  0.00000000000E+00  0.45593999997E+02  0.45594000000E+02  0.51100000000E-03 0.  1.
         11   -1    0    0    0    0 -0.00000000000E+00 -0.00000000000E+00 -0.45593999997E+02  0.45594000000E+02  0.51100000000E-03 0. -1.
    9900012    2    1    2    0    0 -0.32903218133E+02  0.21821278784E+02  0.97146772714E+01  0.50528869097E+02  0.30000028108E+02 0.  0.
         12    1    1    2    0    0  0.32903218133E+02 -0.21821278784E+02 -0.97146772714E+01  0.40659130903E+02  0.00000000000E+00 0. -1.
         11    1    3    3    0    0 -0.24886815840E+02  0.79687669613E+01 -0.65351648762E+01  0.26936280919E+02  0.51100000000E-03 0. -1.
        -11    1    3    3    0    0 -0.90358024889E+00  0.43823986407E+01  0.79747663231E+01  0.91443301166E+01  0.51100000000E-03 0.  1.
        -12    1    3    3    0    0 -0.71128220442E+01  0.94701131819E+01  0.82750758245E+01  0.14448258061E+02  0.00000000000E+00 0.  1.
</event>
<event>
 7    1  0.2746803E-013  0.5052886E+02  0.7816164E-02  0.1300439E+00
        -11   -1    0    0    0    0  0.00000000000E+00  0.00000000000E+00  0.45593999997E+02  0.45594000000E+02  0.51100000000E-03 0.  1.
         11   -1    0    0    0    0 -0.00000000000E+00 -0.00000000000E+00 -0.45593999997E+02  0.45594000000E+02  0.51100000000E-03 0. -1.
    9900012    2    1    2    0    0 -0.25415674521E+02 -0.31561369167E+02 -0.33299791397E+01  0.50528864543E+02  0.30000014264E+02 0.  0.
         12    1    1    2    0    0  0.25415674521E+02  0.31561369167E+02  0.33299791397E+01  0.40659135457E+02  0.00000000000E+00 0. -1.
         11    1    3    3    0    0 -0.65391457141E+01 -0.13222650919E+02 -0.80887131918E+01  0.16823382697E+02  0.51100000000E-03 0. -1.
        -11    1    3    3    0    0 -0.21374237698E+01 -0.14083846061E+02 -0.33371156627E+01  0.14630777199E+02  0.51100000000E-03 0.  1.
        -12    1    3    3    0    0 -0.16739105037E+02 -0.42548721874E+01  0.80958497148E+01  0.19074704647E+02  0.00000000000E+00 0.  1.
</event>
<event>
 7    1  0.2746803E-013  0.5052886E+02  0.7816164E-02  0.1300439E+00
        -11   -1    0    0    0    0  0.00000000000E+00  0.00000000000E+00  0.45593999997E+02  0.45594000000E+02  0.51100000000E-03 0. -1.
         11   -1    0    0    0    0 -0.00000000000E+00 -0.00000000000E+00 -0.45593999997E+02  0.45594000000E+02  0.51100000000E-03 0.  1.
    9900012    2    1    2    0    0 -0.13810827140E+02 -0.63484920566E+01 -0.37711051952E+02  0.50528859122E+02  0.29999997786E+02 0.  0.
         12    1    1    2    0    0  0.13810827140E+02  0.63484920566E+01  0.37711051952E+02  0.40659140878E+02  0.00000000000E+00 0. -1.
         11    1    3    3    0    0  0.92990192003E+00 -0.65521944364E+01 -0.22648844094E+01  0.69946887823E+01  0.51100000000E-03 0. -1.
        -11    1    3    3    0    0 -0.15946442318E+01  0.75335332073E+01 -0.40134168490E+01  0.86835780573E+01  0.51100000000E-03 0.  1.
        -12    1    3    3    0    0 -0.13146084828E+02 -0.73298308276E+01 -0.31432750693E+02  0.34850592282E+02  0.00000000000E+00 0.  1.
</event>
<event>
 7    1  0.2746803E-013  0.5052886E+02  0.7816164E-02  0.1300439E+00
        -11   -1    0    0    0    0  0.00000000000E+00  0.00000000000E+00  0.45593999997E+02  0.45594000000E+02  0.51100000000E-03 0.  1.
         11   -1    0    0    0    0 -0.00000000000E+00 -0.00000000000E+00 -0.45593999997E+02  0.45594000000E+02  0.51100000000E-03 0. -1.
    9900012    2    1    2    0    0 -0.16974904229E+02 -0.11808565131E+02  0.35008230368E+02  0.50528858622E+02  0.29999996268E+02 0.  0.
         12    1    1    2    0    0  0.16974904229E+02  0.11808565131E+02 -0.35008230368E+02  0.40659141378E+02  0.00000000000E+00 0. -1.
         11    1    3    3    0    0 -0.94865885311E+01 -0.74501599934E+01  0.14834234690E+02  0.19119486525E+02  0.51100000000E-03 0. -1.
        -11    1    3    3    0    0 -0.56276280761E+01 -0.11939577553E+02  0.45813304136E+01  0.13971839483E+02  0.51100000000E-03 0.  1.
         12    1    3    3    0    0 -0.18606876223E+01  0.75811724155E+01  0.15592665265E+02  0.17437532615E+02  0.00000000000E+00 0. -1.
</event>
<event>
 7    1  0.2746803E-013  0.5052883E+02  0.7816164E-02  0.1300439E+00
        -11   -1    0    0    0    0  0.00000000000E+00  0.00000000000E+00  0.45593999997E+02  0.45594000000E+02  0.51100000000E-03 0. -1.
         11   -1    0    0    0    0 -0.00000000000E+00 -0.00000000000E+00 -0.45593999997E+02  0.45594000000E+02  0.51100000000E-03 0.  1.
    9900012    2    1    2    0    0 -0.38668956721E+02  0.12141723155E+02 -0.32339373903E+01  0.50528831218E+02  0.29999912969E+02 0.  0.
         12    1    1    2    0    0  0.38668956721E+02 -0.12141723155E+02  0.32339373903E+01  0.40659168782E+02  0.00000000000E+00 0. -1.
         11    1    3    3    0    0  0.21308609998E+01 -0.20906708381E+00 -0.30210292460E+01  0.37028226547E+01  0.51100000000E-03 0. -1.
        -11    1    3    3    0    0 -0.11728305885E+02  0.20818970386E-01  0.80004162301E+01  0.14197191711E+02  0.51100000000E-03 0.  1.
        -12    1    3    3    0    0 -0.29071511835E+02  0.12329971268E+02 -0.82133243745E+01  0.32628816852E+02  0.00000000000E+00 0.  1.
</event>
<event>
 7    1  0.2746803E-013  0.5052885E+02  0.7816164E-02  0.1300439E+00
        -11   -1    0    0    0    0  0.00000000000E+00  0.00000000000E+00  0.45593999997E+02  0.45594000000E+02  0.51100000000E-03 0. -1.
         11   -1    0    0    0    0 -0.00000000000E+00 -0.00000000000E+00 -0.45593999997E+02  0.45594000000E+02  0.51100000000E-03 0.  1.
    9900012    2    1    2    0    0 -0.24444195516E+02  0.32357603383E+02 -0.29381935192E+01  0.50528853768E+02  0.29999981513E+02 0.  0.
         12    1    1    2    0    0  0.24444195516E+02 -0.32357603383E+02  0.29381935192E+01  0.40659146232E+02  0.00000000000E+00 0. -1.
         11    1    3    3    0    0 -0.62656833444E+01  0.11489457289E+02  0.74574238037E+01  0.15062522584E+02  0.51100000000E-03 0. -1.
        -11    1    3    3    0    0 -0.52434997826E+01  0.19926954979E+02 -0.87761640444E+01  0.22396403290E+02  0.51100000000E-03 0.  1.
        -12    1    3    3    0    0 -0.12935012389E+02  0.94119111575E+00 -0.16194532785E+01  0.13069927894E+02  0.00000000000E+00 0.  1.
</event>
<event>
 7    1  0.2746803E-013  0.5052886E+02  0.7816164E-02  0.1300439E+00
        -11   -1    0    0    0    0  0.00000000000E+00  0.00000000000E+00  0.45593999997E+02  0.45594000000E+02  0.51100000000E-03 0. -1.
         11   -1    0    0    0    0 -0.00000000000E+00 -0.00000000000E+00 -0.45593999997E+02  0.45594000000E+02  0.51100000000E-03 0.  1.
    9900012    2    1    2    0    0 -0.12092931684E+02 -0.31912631523E+02 -0.22102276599E+02  0.50528859843E+02  0.29999999979E+02 0.  0.
         12    1    1    2    0    0  0.12092931684E+02  0.31912631523E+02  0.22102276599E+02  0.40659140157E+02  0.00000000000E+00 0. -1.
         11    1    3    3    0    0 -0.63193451891E+01 -0.92040541175E+01  0.32325605283E+01  0.11623174422E+02  0.51100000000E-03 0.  1.
        -11    1    3    3    0    0  0.19570122804E+01 -0.18455763348E+02 -0.96710316913E+01  0.20927827218E+02  0.51100000000E-03 0. -1.
        -12    1    3    3    0    0 -0.77305987756E+01 -0.42528140576E+01 -0.15663805436E+02  0.17977858203E+02  0.00000000000E+00 0.  1.
</event>
<event>
 7    1  0.2746803E-013  0.5052887E+02  0.7816164E-02  0.1300439E+00
        -11   -1    0    0    0    0  0.00000000000E+00  0.00000000000E+00  0.45593999997E+02  0.45594000000E+02  0.51100000000E-03 0.  1.
         11   -1    0    0    0    0 -0.00000000000E+00 -0.00000000000E+00 -0.45593999997E+02  0.45594000000E+02  0.51100000000E-03 0. -1.
    9900012    2    1    2    0    0  0.13733411233E+02  0.31407149960E+02  0.21866624488E+02  0.50528869178E+02  0.30000028353E+02 0.  0.
         12    1    1    2    0    0 -0.13733411233E+02 -0.31407149960E+02 -0.21866624488E+02  0.40659130822E+02  0.00000000000E+00 0. -1.
         11    1    3    3    0    0  0.78307390576E+01  0.33147773233E+01  0.86976629643E+01  0.12163780835E+02  0.51100000000E-03 0. -1.
        -11    1    3    3    0    0  0.12796751367E+02  0.14997095548E+02  0.19832362223E+01  0.19814210724E+02  0.51100000000E-03 0.  1.
         12    1    3    3    0    0 -0.68940791914E+01  0.13095277088E+02  0.11185725302E+02  0.18550877619E+02  0.00000000000E+00 0. -1.
</event>
<event>
 7    1  0.2746803E-013  0.5052881E+02  0.7816164E-02  0.1300439E+00
        -11   -1    0    0    0    0  0.00000000000E+00  0.00000000000E+00  0.45593999997E+02  0.45594000000E+02  0.51100000000E-03 0.  1.
         11   -1    0    0    0    0 -0.00000000000E+00 -0.00000000000E+00 -0.45593999997E+02  0.45594000000E+02  0.51100000000E-03 0. -1.
    9900012    2    1    2    0    0 -0.14505423248E+02 -0.10335812088E+02  0.36550421682E+02  0.50528811122E+02  0.29999851886E+02 0.  0.
         12    1    1    2    0    0  0.14505423248E+02  0.10335812088E+02 -0.36550421682E+02  0.40659188878E+02  0.00000000000E+00 0. -1.
         11    1    3    3    0    0 -0.14437840206E+01  0.82208189654E+00  0.46224153995E+01  0.49119298987E+01  0.51100000000E-03 0. -1.
        -11    1    3    3    0    0 -0.15542518946E+01 -0.18694684832E+02  0.16980260300E+02  0.25302888769E+02  0.51100000000E-03 0.  1.
        -12    1    3    3    0    0 -0.11507387333E+02  0.75367908475E+01  0.14947745982E+02  0.20313992454E+02  0.00000000000E+00 0.  1.
</event>
<event>
 7    1  0.2746803E-013  0.5052882E+02  0.7816164E-02  0.1300439E+00
        -11   -1    0    0    0    0  0.00000000000E+00  0.00000000000E+00  0.45593999997E+02  0.45594000000E+02  0.51100000000E-03 0.  1.
         11   -1    0    0    0    0 -0.00000000000E+00 -0.00000000000E+00 -0.45593999997E+02  0.45594000000E+02  0.51100000000E-03 0. -1.
    9900012    2    1    2    0    0  0.20909631394E+02 -0.84573478851E+01  0.33829423393E+02  0.50528815239E+02  0.29999864402E+02 0.  0.
         12    1    1    2    0    0 -0.20909631394E+02  0.84573478851E+01 -0.33829423393E+02  0.40659184761E+02  0.00000000000E+00 0. -1.
         11    1    3    3    0    0 -0.22415492382E+01  0.49372729521E+01  0.46274446141E+01  0.71284255701E+01  0.51100000000E-03 0. -1.
        -11    1    3    3    0    0  0.40042033162E+01  0.43080906140E+01  0.70795006901E+01  0.92039458504E+01  0.51100000000E-03 0.  1.
         12    1    3    3    0    0  0.19146977316E+02 -0.17702711451E+02  0.22122478089E+02  0.34196443819E+02  0.00000000000E+00 0. -1.
</event>
<event>
 7    1  0.2746803E-013  0.5052886E+02  0.7816164E-02  0.1300439E+00
        -11   -1    0    0    0    0  0.00000000000E+00  0.00000000000E+00  0.45593999997E+02  0.45594000000E+02  0.51100000000E-03 0.  1.
         11   -1    0    0    0    0 -0.00000000000E+00 -0.00000000000E+00 -0.45593999997E+02  0.45594000000E+02  0.51100000000E-03 0. -1.
    9900012    2    1    2    0    0 -0.53736325759E+01  0.20347980891E+02  0.34788640735E+02  0.50528858622E+02  0.29999996268E+02 0.  0.
         12    1    1    2    0    0  0.53736325759E+01 -0.20347980891E+02 -0.34788640735E+02  0.40659141378E+02  0.00000000000E+00 0. -1.
         11    1    3    3    0    0 -0.10020679666E+02 -0.17739616307E+01  0.12181413569E+02  0.15872863561E+02  0.51100000000E-03 0. -1.
        -11    1    3    3    0    0  0.26345722142E+01  0.58638176956E+01 -0.36720540979E+00  0.64389571200E+01  0.51100000000E-03 0.  1.
         12    1    3    3    0    0  0.20124748758E+01  0.16258124826E+02  0.22974432576E+02  0.28217037941E+02  0.00000000000E+00 0. -1.
</event>
<event>
 7    1  0.2746803E-013  0.5052886E+02  0.7816164E-02  0.1300439E+00
        -11   -1    0    0    0    0  0.00000000000E+00  0.00000000000E+00  0.45593999997E+02  0.45594000000E+02  0.51100000000E-03 0. -1.
         11   -1    0    0    0    0 -0.00000000000E+00 -0.00000000000E+00 -0.45593999997E+02  0.45594000000E+02  0.51100000000E-03 0.  1.
    9900012    2    1    2    0    0 -0.34730699389E+02 -0.13069279674E+02  0.16617398346E+02  0.50528862293E+02  0.30000007425E+02 0.  0.
         12    1    1    2    0    0  0.34730699389E+02  0.13069279674E+02 -0.16617398346E+02  0.40659137707E+02  0.00000000000E+00 0. -1.
         11    1    3    3    0    0  0.30023690825E+01  0.18402411626E+01  0.17004502586E+01  0.39105292464E+01  0.51100000000E-03 0. -1.
        -11    1    3    3    0    0 -0.29483724822E+02 -0.30247206964E+01  0.88605594155E+01  0.30934583852E+02  0.51100000000E-03 0.  1.
        -12    1    3    3    0    0 -0.82493436495E+01 -0.11884800141E+02  0.60563886723E+01  0.15683749194E+02  0.00000000000E+00 0.  1.
</event>
<event>
 7    1  0.2746803E-013  0.5052885E+02  0.7816164E-02  0.1300439E+00
        -11   -1    0    0    0    0  0.00000000000E+00  0.00000000000E+00  0.45593999997E+02  0.45594000000E+02  0.51100000000E-03 0.  1.
         11   -1    0    0    0    0 -0.00000000000E+00 -0.00000000000E+00 -0.45593999997E+02  0.45594000000E+02  0.51100000000E-03 0. -1.
    9900012    2    1    2    0    0  0.34904544836E+02  0.15983613191E+02  0.13392645287E+02  0.50528854797E+02  0.29999984640E+02 0.  0.
         12    1    1    2    0    0 -0.34904544836E+02 -0.15983613191E+02 -0.13392645287E+02  0.40659145203E+02  0.00000000000E+00 0. -1.
         11    1    3    3    0    0  0.27851745287E+02  0.22087554683E+02  0.11447551824E+02  0.37344694809E+02  0.51100000000E-03 0.  1.
        -11    1    3    3    0    0  0.72780964063E+01 -0.15919131990E+01 -0.13772447876E+01  0.75763895358E+01  0.51100000000E-03 0. -1.
        -12    1    3    3    0    0 -0.22529685648E+00 -0.45120282923E+01  0.33223382510E+01  0.56077704516E+01  0.00000000000E+00 0.  1.
</event>
<event>
 7    1  0.2746803E-013  0.5052885E+02  0.7816164E-02  0.1300439E+00
        -11   -1    0    0    0    0  0.00000000000E+00  0.00000000000E+00  0.45593999997E+02  0.45594000000E+02  0.51100000000E-03 0.  1.
         11   -1    0    0    0    0 -0.00000000000E+00 -0.00000000000E+00 -0.45593999997E+02  0.45594000000E+02  0.51100000000E-03 0. -1.
    9900012    2    1    2    0    0  0.87245195256E+01 -0.37628824178E+02  0.12693337058E+02  0.50528850284E+02  0.29999970924E+02 0.  0.
         12    1    1    2    0    0 -0.87245195256E+01  0.37628824178E+02 -0.12693337058E+02  0.40659149716E+02  0.00000000000E+00 0. -1.
         11    1    3    3    0    0  0.19963783174E+01 -0.40495051481E+01 -0.52038933952E+01  0.68894502727E+01  0.51100000000E-03 0. -1.
        -11    1    3    3    0    0 -0.48234456128E+01 -0.65445651552E+01  0.10580542087E+02  0.13343344100E+02  0.51100000000E-03 0.  1.
        -12    1    3    3    0    0  0.11551586821E+02 -0.27034753875E+02  0.73166883656E+01  0.30296055911E+02  0.00000000000E+00 0.  1.
</event>
<event>
 7    1  0.2746803E-013  0.5052886E+02  0.7816164E-02  0.1300439E+00
        -11   -1    0    0    0    0  0.00000000000E+00  0.00000000000E+00  0.45593999997E+02  0.45594000000E+02  0.51100000000E-03 0.  1.
         11   -1    0    0    0    0 -0.00000000000E+00 -0.00000000000E+00 -0.45593999997E+02  0.45594000000E+02  0.51100000000E-03 0. -1.
    9900012    2    1    2    0    0 -0.28235263007E+02 -0.25896027570E+02  0.13613637774E+02  0.50528862596E+02  0.30000008348E+02 0.  0.
         12    1    1    2    0    0  0.28235263007E+02  0.25896027570E+02 -0.13613637774E+02  0.40659137404E+02  0.00000000000E+00 0. -1.
         11    1    3    3    0    0  0.42917427580E+01  0.87429935346E+00 -0.21582489957E+01  0.48827752609E+01  0.51100000000E-03 0. -1.
        -11    1    3    3    0    0 -0.81594940873E+01 -0.59524749523E+01  0.74018102306E+01  0.12521824818E+02  0.51100000000E-03 0.  1.
        -12    1    3    3    0    0 -0.24367511678E+02 -0.20817851971E+02  0.83700765390E+01  0.33124262517E+02  0.00000000000E+00 0.  1.
</event>
<event>
 7    1  0.2746803E-013  0.5052886E+02  0.7816164E-02  0.1300439E+00
        -11   -1    0    0    0    0  0.00000000000E+00  0.00000000000E+00  0.45593999997E+02  0.45594000000E+02  0.51100000000E-03 0.  1.
         11   -1    0    0    0    0 -0.00000000000E+00 -0.00000000000E+00 -0.45593999997E+02  0.45594000000E+02  0.51100000000E-03 0. -1.
    9900012    2    1    2    0    0 -0.32925793981E+02  0.15002369179E+02 -0.18546886972E+02  0.50528855806E+02  0.29999987707E+02 0.  0.
         12    1    1    2    0    0  0.32925793981E+02 -0.15002369179E+02  0.18546886972E+02  0.40659144194E+02  0.00000000000E+00 0. -1.
         11    1    3    3    0    0 -0.80045410335E+01 -0.28646450550E+01  0.12883724308E+01  0.85987657387E+01  0.51100000000E-03 0. -1.
        -11    1    3    3    0    0 -0.98970698717E+01  0.47824017082E+01  0.32250612660E+01  0.11455320972E+02  0.51100000000E-03 0.  1.
         12    1    3    3    0    0 -0.15024183076E+02  0.13084612525E+02 -0.23060320669E+02  0.30474769095E+02  0.00000000000E+00 0. -1.
</event>
<event>
 7    1  0.2746803E-013  0.5052887E+02  0.7816164E-02  0.1300439E+00
        -11   -1    0    0    0    0  0.00000000000E+00  0.00000000000E+00  0.45593999997E+02  0.45594000000E+02  0.51100000000E-03 0.  1.
         11   -1    0    0    0    0 -0.00000000000E+00 -0.00000000000E+00 -0.45593999997E+02  0.45594000000E+02  0.51100000000E-03 0. -1.
    9900012    2    1    2    0    0  0.16488760865E+01  0.16966840211E+02  0.36913033675E+02  0.50528874158E+02  0.30000043492E+02 0.  0.
         12    1    1    2    0    0 -0.16488760865E+01 -0.16966840211E+02 -0.36913033675E+02  0.40659125842E+02  0.00000000000E+00 0. -1.
         11    1    3    3    0    0 -0.16439545582E+01  0.11327767408E+02  0.27045571267E+01  0.11761612583E+02  0.51100000000E-03 0. -1.
        -11    1    3    3    0    0 -0.72010947598E+00  0.60649465880E+01  0.21790679328E+01  0.64846335354E+01  0.51100000000E-03 0.  1.
        -12    1    3    3    0    0  0.40129401207E+01 -0.42587378509E+00  0.32029408616E+02  0.32282628040E+02  0.00000000000E+00 0.  1.
</event>
<event>
 7    1  0.2746803E-013  0.5052898E+02  0.7816164E-02  0.1300438E+00
        -11   -1    0    0    0    0  0.00000000000E+00  0.00000000000E+00  0.45593999997E+02  0.45594000000E+02  0.51100000000E-03 0.  1.
         11   -1    0    0    0    0 -0.00000000000E+00 -0.00000000000E+00 -0.45593999997E+02  0.45594000000E+02  0.51100000000E-03 0. -1.
    9900012    2    1    2    0    0 -0.15442303471E+02  0.22284891882E+02  0.30299750540E+02  0.50528978548E+02  0.30000360791E+02 0.  0.
         12    1    1    2    0    0  0.15442303471E+02 -0.22284891882E+02 -0.30299750540E+02  0.40659021452E+02  0.00000000000E+00 0. -1.
         11    1    3    3    0    0 -0.23298095658E+01  0.10941943816E+02 -0.10748750726E+01  0.11238750098E+02  0.51100000000E-03 0.  1.
        -11    1    3    3    0    0  0.24489896546E+01 -0.19819885427E+01  0.46417552181E+01  0.56099661922E+01  0.51100000000E-03 0. -1.
        -12    1    3    3    0    0 -0.15561483560E+02  0.13324936609E+02  0.26732870394E+02  0.33680262258E+02  0.00000000000E+00 0.  1.
</event>
<event>
 7    1  0.2746803E-013  0.5052887E+02  0.7816164E-02  0.1300439E+00
        -11   -1    0    0    0    0  0.00000000000E+00  0.00000000000E+00  0.45593999997E+02  0.45594000000E+02  0.51100000000E-03 0.  1.
         11   -1    0    0    0    0 -0.00000000000E+00 -0.00000000000E+00 -0.45593999997E+02  0.45594000000E+02  0.51100000000E-03 0. -1.
    9900012    2    1    2    0    0 -0.89754475488E+01 -0.22388657649E+02  0.32731551016E+02  0.50528867177E+02  0.30000022272E+02 0.  0.
         12    1    1    2    0    0  0.89754475488E+01  0.22388657649E+02 -0.32731551016E+02  0.40659132823E+02  0.00000000000E+00 0. -1.
         11    1    3    3    0    0  0.26626391390E+01 -0.75292398007E+01  0.40234648302E+01  0.89424475766E+01  0.51100000000E-03 0. -1.
        -11    1    3    3    0    0 -0.42154223209E+01 -0.36630805299E+01  0.27542116106E+02  0.28102599598E+02  0.51100000000E-03 0.  1.
         12    1    3    3    0    0 -0.74226643669E+01 -0.11196337318E+02  0.11659700801E+01  0.13483820003E+02  0.00000000000E+00 0. -1.
</event>
<event>
 7    1  0.2746803E-013  0.5052873E+02  0.7816164E-02  0.1300439E+00
        -11   -1    0    0    0    0  0.00000000000E+00  0.00000000000E+00  0.45593999997E+02  0.45594000000E+02  0.51100000000E-03 0.  1.
         11   -1    0    0    0    0 -0.00000000000E+00 -0.00000000000E+00 -0.45593999997E+02  0.45594000000E+02  0.51100000000E-03 0. -1.
    9900012    2    1    2    0    0 -0.85668765861E+01  0.16732662249E+02  0.36052779013E+02  0.50528730024E+02  0.29999605380E+02 0.  0.
         12    1    1    2    0    0  0.85668765861E+01 -0.16732662249E+02 -0.36052779013E+02  0.40659269976E+02  0.00000000000E+00 0. -1.
         11    1    3    3    0    0 -0.33321435534E+01 -0.58788778707E+01  0.32704929956E+01  0.75073637433E+01  0.51100000000E-03 0. -1.
        -11    1    3    3    0    0  0.16672154023E+01  0.19616115453E+00  0.10623502403E+02  0.10755319148E+02  0.51100000000E-03 0.  1.
         12    1    3    3    0    0 -0.69019484349E+01  0.22415378965E+02  0.22158783614E+02  0.32266047133E+02  0.00000000000E+00 0. -1.
</event>
<event>
 7    1  0.2746803E-013  0.5052886E+02  0.7816164E-02  0.1300439E+00
        -11   -1    0    0    0    0  0.00000000000E+00  0.00000000000E+00  0.45593999997E+02  0.45594000000E+02  0.51100000000E-03 0.  1.
         11   -1    0    0    0    0 -0.00000000000E+00 -0.00000000000E+00 -0.45593999997E+02  0.45594000000E+02  0.51100000000E-03 0. -1.
    9900012    2    1    2    0    0  0.38092144354E+02  0.14118111470E+02  0.16832918168E+01  0.50528855834E+02  0.29999987794E+02 0.  0.
         12    1    1    2    0    0 -0.38092144354E+02 -0.14118111470E+02 -0.16832918168E+01  0.40659144166E+02  0.00000000000E+00 0. -1.
         11    1    3    3    0    0  0.11030684170E+02  0.62845511810E+01 -0.13305064147E+01  0.12764866799E+02  0.51100000000E-03 0. -1.
        -11    1    3    3    0    0  0.27967306184E+02  0.11712374581E+02 -0.30875167558E+01  0.30477576897E+02  0.51100000000E-03 0.  1.
         12    1    3    3    0    0 -0.90584600051E+00 -0.38788142918E+01  0.61013149874E+01  0.72864121392E+01  0.00000000000E+00 0. -1.
</event>
<event>
 7    1  0.2746803E-013  0.5052885E+02  0.7816164E-02  0.1300439E+00
        -11   -1    0    0    0    0  0.00000000000E+00  0.00000000000E+00  0.45593999997E+02  0.45594000000E+02  0.51100000000E-03 0.  1.
         11   -1    0    0    0    0 -0.00000000000E+00 -0.00000000000E+00 -0.45593999997E+02  0.45594000000E+02  0.51100000000E-03 0. -1.
    9900012    2    1    2    0    0  0.37409014710E+02 -0.15462334196E+02 -0.38272705764E+01  0.50528853914E+02  0.29999981957E+02 0.  0.
         12    1    1    2    0    0 -0.37409014710E+02  0.15462334196E+02  0.38272705764E+01  0.40659146086E+02  0.00000000000E+00 0. -1.
         11    1    3    3    0    0  0.46121621640E+01  0.83468449244E+00  0.44257508913E+01  0.64463950578E+01  0.51100000000E-03 0. -1.
        -11    1    3    3    0    0  0.26545467440E+02 -0.12234751248E+02  0.42388016852E+01  0.29535037154E+02  0.51100000000E-03 0.  1.
        -12    1    3    3    0    0  0.62513851063E+01 -0.40622674412E+01 -0.12491823153E+02  0.14547421703E+02  0.00000000000E+00 0.  1.
</event>
<event>
 7    1  0.2746803E-013  0.5052887E+02  0.7816164E-02  0.1300439E+00
        -11   -1    0    0    0    0  0.00000000000E+00  0.00000000000E+00  0.45593999997E+02  0.45594000000E+02  0.51100000000E-03 0.  1.
         11   -1    0    0    0    0 -0.00000000000E+00 -0.00000000000E+00 -0.45593999997E+02  0.45594000000E+02  0.51100000000E-03 0. -1.
    9900012    2    1    2    0    0 -0.21906236033E+02 -0.34041741511E+02 -0.38002464861E+01  0.50528865533E+02  0.30000017275E+02 0.  0.
         12    1    1    2    0    0  0.21906236033E+02  0.34041741511E+02  0.38002464861E+01  0.40659134467E+02  0.00000000000E+00 0. -1.
         11    1    3    3    0    0  0.32035415699E+01  0.17096389039E+01 -0.26713160338E+01  0.45079344921E+01  0.51100000000E-03 0. -1.
        -11    1    3    3    0    0 -0.15977937760E+02 -0.32594362521E+02 -0.61675121006E-01  0.36300010569E+02  0.51100000000E-03 0.  1.
        -12    1    3    3    0    0 -0.91318398423E+01 -0.31570178943E+01 -0.10672553314E+01  0.97209204725E+01  0.00000000000E+00 0.  1.
</event>
<event>
 7    1  0.2746803E-013  0.5052886E+02  0.7816164E-02  0.1300439E+00
        -11   -1    0    0    0    0  0.00000000000E+00  0.00000000000E+00  0.45593999997E+02  0.45594000000E+02  0.51100000000E-03 0. -1.
         11   -1    0    0    0    0 -0.00000000000E+00 -0.00000000000E+00 -0.45593999997E+02  0.45594000000E+02  0.51100000000E-03 0.  1.
    9900012    2    1    2    0    0  0.40538730098E+01  0.34495553233E+02 -0.21137369977E+02  0.50528862174E+02  0.30000007063E+02 0.  0.
         12    1    1    2    0    0 -0.40538730098E+01 -0.34495553233E+02  0.21137369977E+02  0.40659137826E+02  0.00000000000E+00 0. -1.
         11    1    3    3    0    0 -0.49004199775E+01  0.49312551202E+01 -0.18126358862E+01  0.71845001311E+01  0.51100000000E-03 0. -1.
        -11    1    3    3    0    0  0.80459956703E+01  0.26962742564E+02 -0.47798444034E+01  0.28540750615E+02  0.51100000000E-03 0.  1.
         12    1    3    3    0    0  0.90829731705E+00  0.26015555491E+01 -0.14544889687E+02  0.14803611428E+02  0.00000000000E+00 0. -1.
</event>
<event>
 7    1  0.2746803E-013  0.5052886E+02  0.7816164E-02  0.1300439E+00
        -11   -1    0    0    0    0  0.00000000000E+00  0.00000000000E+00  0.45593999997E+02  0.45594000000E+02  0.51100000000E-03 0. -1.
         11   -1    0    0    0    0 -0.00000000000E+00 -0.00000000000E+00 -0.45593999997E+02  0.45594000000E+02  0.51100000000E-03 0.  1.
    9900012    2    1    2    0    0 -0.14557885155E+02  0.32710978118E+02 -0.19267224443E+02  0.50528855304E+02  0.29999986183E+02 0.  0.
         12    1    1    2    0    0  0.14557885155E+02 -0.32710978118E+02  0.19267224443E+02  0.40659144696E+02  0.00000000000E+00 0. -1.
         11    1    3    3    0    0 -0.95307564325E+01  0.17617957188E+02 -0.24243386115E+02  0.31447885529E+02  0.51100000000E-03 0.  1.
        -11    1    3    3    0    0 -0.57297065931E+01  0.15062136648E+02  0.22570943695E+01  0.16272429852E+02  0.51100000000E-03 0. -1.
        -12    1    3    3    0    0  0.70257787033E+00  0.30884281725E-01  0.27190673025E+01  0.28085399228E+01  0.00000000000E+00 0.  1.
</event>
<event>
 7    1  0.2746803E-013  0.5052886E+02  0.7816164E-02  0.1300439E+00
        -11   -1    0    0    0    0  0.00000000000E+00  0.00000000000E+00  0.45593999997E+02  0.45594000000E+02  0.51100000000E-03 0.  1.
         11   -1    0    0    0    0 -0.00000000000E+00 -0.00000000000E+00 -0.45593999997E+02  0.45594000000E+02  0.51100000000E-03 0. -1.
    9900012    2    1    2    0    0 -0.27987751587E+02 -0.17823655651E+02  0.23498268625E+02  0.50528861199E+02  0.30000004100E+02 0.  0.
         12    1    1    2    0    0  0.27987751587E+02  0.17823655651E+02 -0.23498268625E+02  0.40659138801E+02  0.00000000000E+00 0. -1.
         11    1    3    3    0    0 -0.44330854808E+01  0.57624960942E+01  0.11062003908E+01  0.73540660646E+01  0.51100000000E-03 0. -1.
        -11    1    3    3    0    0 -0.15488125479E+02 -0.46672592566E+01  0.78078662692E+01  0.17961851679E+02  0.51100000000E-03 0.  1.
         12    1    3    3    0    0 -0.80665406270E+01 -0.18918892489E+02  0.14584201965E+02  0.25212943455E+02  0.00000000000E+00 0. -1.
</event>
<event>
 7    1  0.2746803E-013  0.5052886E+02  0.7816164E-02  0.1300439E+00
        -11   -1    0    0    0    0  0.00000000000E+00  0.00000000000E+00  0.45593999997E+02  0.45594000000E+02  0.51100000000E-03 0.  1.
         11   -1    0    0    0    0 -0.00000000000E+00 -0.00000000000E+00 -0.45593999997E+02  0.45594000000E+02  0.51100000000E-03 0. -1.
    9900012    2    1    2    0    0  0.28456586971E+02 -0.18610157401E+02 -0.22294624199E+02  0.50528861190E+02  0.30000004074E+02 0.  0.
         12    1    1    2    0    0 -0.28456586971E+02  0.18610157401E+02  0.22294624199E+02  0.40659138810E+02  0.00000000000E+00 0. -1.
         11    1    3    3    0    0  0.63045722414E+01 -0.94705285521E+00  0.14117252385E+01  0.65297403216E+01  0.51100000000E-03 0. -1.
        -11    1    3    3    0    0  0.19166340360E+02 -0.18506331507E+02 -0.77543187273E+01  0.27748195758E+02  0.51100000000E-03 0.  1.
         12    1    3    3    0    0  0.29856743699E+01  0.84322696145E+00 -0.15952030711E+02  0.16250925110E+02  0.00000000000E+00 0. -1.
</event>
<event>
 7    1  0.2746803E-013  0.5052890E+02  0.7816164E-02  0.1300439E+00
        -11   -1    0    0    0    0  0.00000000000E+00  0.00000000000E+00  0.45593999997E+02  0.45594000000E+02  0.51100000000E-03 0.  1.
         11   -1    0    0    0    0 -0.00000000000E+00 -0.00000000000E+00 -0.45593999997E+02  0.45594000000E+02  0.51100000000E-03 0. -1.
    9900012    2    1    2    0    0  0.29153665540E+02 -0.28082444342E+02  0.38212998478E+01  0.50528902284E+02  0.30000128981E+02 0.  0.
         12    1    1    2    0    0 -0.29153665540E+02  0.28082444342E+02 -0.38212998478E+01  0.40659097716E+02  0.00000000000E+00 0. -1.
         11    1    3    3    0    0 -0.17415382096E+01  0.39627189629E+00 -0.32164778514E+01  0.36790918419E+01  0.51100000000E-03 0. -1.
        -11    1    3    3    0    0  0.73309643062E+01 -0.16827325458E+02 -0.32138678240E+01  0.18634131759E+02  0.51100000000E-03 0.  1.
        -12    1    3    3    0    0  0.23564239443E+02 -0.11651390779E+02  0.10251645523E+02  0.28215678683E+02  0.00000000000E+00 0.  1.
</event>
<event>
 7    1  0.2746803E-013  0.5052886E+02  0.7816164E-02  0.1300439E+00
        -11   -1    0    0    0    0  0.00000000000E+00  0.00000000000E+00  0.45593999997E+02  0.45594000000E+02  0.51100000000E-03 0. -1.
         11   -1    0    0    0    0 -0.00000000000E+00 -0.00000000000E+00 -0.45593999997E+02  0.45594000000E+02  0.51100000000E-03 0.  1.
    9900012    2    1    2    0    0  0.17339179803E+02  0.15774335005E+02 -0.33221809222E+02  0.50528863154E+02  0.30000010042E+02 0.  0.
         12    1    1    2    0    0 -0.17339179803E+02 -0.15774335005E+02  0.33221809222E+02  0.40659136846E+02  0.00000000000E+00 0. -1.
         11    1    3    3    0    0  0.73086422212E+01 -0.34072298043E+01 -0.12355615704E+02  0.14754209763E+02  0.51100000000E-03 0. -1.
        -11    1    3    3    0    0  0.14593202951E+02  0.73610253330E+01 -0.12724845241E+02  0.20713955513E+02  0.51100000000E-03 0.  1.
         12    1    3    3    0    0 -0.45626653692E+01  0.11820539477E+02 -0.81413482772E+01  0.15060697878E+02  0.00000000000E+00 0. -1.
</event>
<event>
 7    1  0.2746803E-013  0.5052886E+02  0.7816164E-02  0.1300439E+00
        -11   -1    0    0    0    0  0.00000000000E+00  0.00000000000E+00  0.45593999997E+02  0.45594000000E+02  0.51100000000E-03 0.  1.
         11   -1    0    0    0    0 -0.00000000000E+00 -0.00000000000E+00 -0.45593999997E+02  0.45594000000E+02  0.51100000000E-03 0. -1.
    9900012    2    1    2    0    0  0.24416710839E+02 -0.20096269179E+02  0.25556412508E+02  0.50528855599E+02  0.29999987079E+02 0.  0.
         12    1    1    2    0    0 -0.24416710839E+02  0.20096269179E+02 -0.25556412508E+02  0.40659144401E+02  0.00000000000E+00 0. -1.
         11    1    3    3    0    0  0.62621748506E+01 -0.25176405118E+01 -0.27839664731E+01  0.73009463216E+01  0.51100000000E-03 0. -1.
        -11    1    3    3    0    0  0.20343218387E+02 -0.16216827543E+02  0.15827538311E+02  0.30452306960E+02  0.51100000000E-03 0.  1.
         12    1    3    3    0    0 -0.21886823988E+01 -0.13618011239E+01  0.12512840670E+02  0.12775602318E+02  0.00000000000E+00 0. -1.
</event>
<event>
 7    1  0.2746803E-013  0.5052885E+02  0.7816164E-02  0.1300439E+00
        -11   -1    0    0    0    0  0.00000000000E+00  0.00000000000E+00  0.45593999997E+02  0.45594000000E+02  0.51100000000E-03 0. -1.
         11   -1    0    0    0    0 -0.00000000000E+00 -0.00000000000E+00 -0.45593999997E+02  0.45594000000E+02  0.51100000000E-03 0.  1.
    9900012    2    1    2    0    0 -0.12728379147E-01  0.22305218464E+01 -0.40597919462E+02  0.50528850299E+02  0.29999970970E+02 0.  0.
         12    1    1    2    0    0  0.12728379147E-01 -0.22305218464E+01  0.40597919462E+02  0.40659149701E+02  0.00000000000E+00 0. -1.
         11    1    3    3    0    0 -0.12592294649E+01  0.12036648366E+02 -0.12748327797E+02  0.17578009689E+02  0.51100000000E-03 0.  1.
        -11    1    3    3    0    0  0.33797226804E+01 -0.25400946148E+01 -0.14541379905E+00  0.42303370413E+01  0.51100000000E-03 0. -1.
        -12    1    3    3    0    0 -0.21332215946E+01 -0.72660319053E+01 -0.27704177866E+02  0.28720503569E+02  0.00000000000E+00 0.  1.
</event>
<event>
 7    1  0.2746803E-013  0.5052886E+02  0.7816164E-02  0.1300439E+00
        -11   -1    0    0    0    0  0.00000000000E+00  0.00000000000E+00  0.45593999997E+02  0.45594000000E+02  0.51100000000E-03 0.  1.
         11   -1    0    0    0    0 -0.00000000000E+00 -0.00000000000E+00 -0.45593999997E+02  0.45594000000E+02  0.51100000000E-03 0. -1.
    9900012    2    1    2    0    0  0.38923038550E+02  0.11095415268E+02  0.38800250226E+01  0.50528858788E+02  0.29999996771E+02 0.  0.
         12    1    1    2    0    0 -0.38923038550E+02 -0.11095415268E+02 -0.38800250226E+01  0.40659141212E+02  0.00000000000E+00 0. -1.
         11    1    3    3    0    0  0.23094534927E+02  0.31507680205E+01 -0.10813867651E+01  0.23333544099E+02  0.51100000000E-03 0. -1.
        -11    1    3    3    0    0  0.74838703147E+01 -0.65938256599E+01  0.19923917115E+01  0.10171355697E+02  0.51100000000E-03 0.  1.
         12    1    3    3    0    0  0.83446333078E+01  0.14538472908E+02  0.29690200763E+01  0.17023958992E+02  0.00000000000E+00 0. -1.
</event>
<event>
 7    1  0.2746803E-013  0.5052886E+02  0.7816164E-02  0.1300439E+00
        -11   -1    0    0    0    0  0.00000000000E+00  0.00000000000E+00  0.45593999997E+02  0.45594000000E+02  0.51100000000E-03 0. -1.
         11   -1    0    0    0    0 -0.00000000000E+00 -0.00000000000E+00 -0.45593999997E+02  0.45594000000E+02  0.51100000000E-03 0.  1.
    9900012    2    1    2    0    0 -0.44561194462E+01  0.13742724906E+02 -0.38005870863E+02  0.50528859472E+02  0.29999998852E+02 0.  0.
         12    1    1    2    0    0  0.44561194462E+01 -0.13742724906E+02  0.38005870863E+02  0.40659140528E+02  0.00000000000E+00 0. -1.
         11    1    3    3    0    0 -0.62727420481E+01  0.17094896020E+02 -0.24043589808E+02  0.30160851676E+02  0.51100000000E-03 0. -1.
        -11    1    3    3    0    0  0.82962081940E-01  0.11571763924E+01 -0.15308834490E+02  0.15352731145E+02  0.51100000000E-03 0.  1.
         12    1    3    3    0    0  0.17336605200E+01 -0.45093475062E+01  0.13465534346E+01  0.50152766506E+01  0.00000000000E+00 0. -1.
</event>
<event>
 7    1  0.2746803E-013  0.5052886E+02  0.7816164E-02  0.1300439E+00
        -11   -1    0    0    0    0  0.00000000000E+00  0.00000000000E+00  0.45593999997E+02  0.45594000000E+02  0.51100000000E-03 0.  1.
         11   -1    0    0    0    0 -0.00000000000E+00 -0.00000000000E+00 -0.45593999997E+02  0.45594000000E+02  0.51100000000E-03 0. -1.
    9900012    2    1    2    0    0 -0.44482233209E+01 -0.31319460622E+02  0.25543495120E+02  0.50528862683E+02  0.30000008612E+02 0.  0.
         12    1    1    2    0    0  0.44482233209E+01  0.31319460622E+02 -0.25543495120E+02  0.40659137317E+02  0.00000000000E+00 0. -1.
         11    1    3    3    0    0 -0.14313122870E+02 -0.16851594894E+02  0.55609949402E+01  0.22798385946E+02  0.51100000000E-03 0. -1.
        -11    1    3    3    0    0  0.44878603794E+00 -0.59899725910E+01  0.97159057168E+01  0.11422784455E+02  0.51100000000E-03 0.  1.
        -12    1    3    3    0    0  0.94161135111E+01 -0.84778931369E+01  0.10266594463E+02  0.16307692282E+02  0.00000000000E+00 0.  1.
</event>
<event>
 7    1  0.2746803E-013  0.5052886E+02  0.7816164E-02  0.1300439E+00
        -11   -1    0    0    0    0  0.00000000000E+00  0.00000000000E+00  0.45593999997E+02  0.45594000000E+02  0.51100000000E-03 0. -1.
         11   -1    0    0    0    0 -0.00000000000E+00 -0.00000000000E+00 -0.45593999997E+02  0.45594000000E+02  0.51100000000E-03 0.  1.
    9900012    2    1    2    0    0  0.21319890406E+02  0.26807223433E+02 -0.21908915518E+02  0.50528861614E+02  0.30000005362E+02 0.  0.
         12    1    1    2    0    0 -0.21319890406E+02 -0.26807223433E+02  0.21908915518E+02  0.40659138386E+02  0.00000000000E+00 0. -1.
         11    1    3    3    0    0  0.15276575360E+02  0.14710008685E+01 -0.63242255530E+01  0.16599199601E+02  0.51100000000E-03 0. -1.
        -11    1    3    3    0    0  0.82300499444E+01  0.14699205503E+02 -0.15759715541E+02  0.23068788410E+02  0.51100000000E-03 0.  1.
        -12    1    3    3    0    0 -0.21867348980E+01  0.10637017062E+02  0.17502557624E+00  0.10860873604E+02  0.00000000000E+00 0.  1.
</event>
<event>
 7    1  0.2746803E-013  0.5052886E+02  0.7816164E-02  0.1300439E+00
        -11   -1    0    0    0    0  0.00000000000E+00  0.00000000000E+00  0.45593999997E+02  0.45594000000E+02  0.51100000000E-03 0. -1.
         11   -1    0    0    0    0 -0.00000000000E+00 -0.00000000000E+00 -0.45593999997E+02  0.45594000000E+02  0.51100000000E-03 0.  1.
    9900012    2    1    2    0    0  0.39685008521E+02  0.29783765638E+01 -0.83303611516E+01  0.50528861480E+02  0.30000004956E+02 0.  0.
         12    1    1    2    0    0 -0.39685008521E+02 -0.29783765638E+01  0.83303611516E+01  0.40659138520E+02  0.00000000000E+00 0. -1.
         11    1    3    3    0    0  0.14837624618E+02 -0.54603090776E+01 -0.68936688325E+01  0.17247978135E+02  0.51100000000E-03 0. -1.
        -11    1    3    3    0    0  0.28316568666E+02  0.59000237451E+01 -0.16947019878E+01  0.28974305105E+02  0.51100000000E-03 0.  1.
         12    1    3    3    0    0 -0.34691847636E+01  0.25386618962E+01  0.25800966869E+00  0.43065782399E+01  0.00000000000E+00 0. -1.
</event>
<event>
 7    1  0.2746803E-013  0.5052887E+02  0.7816164E-02  0.1300439E+00
        -11   -1    0    0    0    0  0.00000000000E+00  0.00000000000E+00  0.45593999997E+02  0.45594000000E+02  0.51100000000E-03 0. -1.
         11   -1    0    0    0    0 -0.00000000000E+00 -0.00000000000E+00 -0.45593999997E+02  0.45594000000E+02  0.51100000000E-03 0.  1.
    9900012    2    1    2    0    0  0.17019781149E+02 -0.36118060302E+02 -0.76796988791E+01  0.50528868121E+02  0.30000025140E+02 0.  0.
         12    1    1    2    0    0 -0.17019781149E+02  0.36118060302E+02  0.76796988791E+01  0.40659131879E+02  0.00000000000E+00 0. -1.
         11    1    3    3    0    0 -0.22938109671E+01 -0.79580329948E+01 -0.35802488770E+01  0.90227512534E+01  0.51100000000E-03 0. -1.
        -11    1    3    3    0    0  0.14661794365E+02 -0.12898103362E+02 -0.12784468750E+02  0.23340349736E+02  0.51100000000E-03 0.  1.
         12    1    3    3    0    0  0.46517977513E+01 -0.15261923945E+02  0.86850187477E+01  0.18165767131E+02  0.00000000000E+00 0. -1.
</event>
<event>
 7    1  0.2746803E-013  0.5052886E+02  0.7816164E-02  0.1300439E+00
        -11   -1    0    0    0    0  0.00000000000E+00  0.00000000000E+00  0.45593999997E+02  0.45594000000E+02  0.51100000000E-03 0. -1.
         11   -1    0    0    0    0 -0.00000000000E+00 -0.00000000000E+00 -0.45593999997E+02  0.45594000000E+02  0.51100000000E-03 0.  1.
    9900012    2    1    2    0    0 -0.13441499048E+02 -0.13277717067E+01 -0.38350085565E+02  0.50528856659E+02  0.29999990301E+02 0.  0.
         12    1    1    2    0    0  0.13441499048E+02  0.13277717067E+01  0.38350085565E+02  0.40659143341E+02  0.00000000000E+00 0. -1.
         11    1    3    3    0    0 -0.10276344280E+02 -0.61562801727E+01 -0.30750654921E+01  0.12367662081E+02  0.51100000000E-03 0. -1.
        -11    1    3    3    0    0 -0.97292866138E+00  0.56778819787E+01 -0.45353076237E+01  0.73317084945E+01  0.51100000000E-03 0.  1.
        -12    1    3    3    0    0 -0.21922261070E+01 -0.84937351274E+00 -0.30739712449E+02  0.30829486083E+02  0.00000000000E+00 0.  1.
</event>
<event>
 7    1  0.2746803E-013  0.5052886E+02  0.7816164E-02  0.1300439E+00
        -11   -1    0    0    0    0  0.00000000000E+00  0.00000000000E+00  0.45593999997E+02  0.45594000000E+02  0.51100000000E-03 0. -1.
         11   -1    0    0    0    0 -0.00000000000E+00 -0.00000000000E+00 -0.45593999997E+02  0.45594000000E+02  0.51100000000E-03 0.  1.
    9900012    2    1    2    0    0 -0.24639355684E+01  0.40388330676E+02 -0.39846692762E+01  0.50528858069E+02  0.29999994587E+02 0.  0.
         12    1    1    2    0    0  0.24639355684E+01 -0.40388330676E+02  0.39846692762E+01  0.40659141931E+02  0.00000000000E+00 0. -1.
         11    1    3    3    0    0  0.39143277688E+01  0.15517632351E+02  0.18309329747E+01  0.16108109494E+02  0.51100000000E-03 0.  1.
        -11    1    3    3    0    0  0.41303882009E+01  0.16545329542E+02  0.43459060177E+01  0.17598151486E+02  0.51100000000E-03 0. -1.
        -12    1    3    3    0    0 -0.10508651538E+02  0.83253687839E+01 -0.10161508269E+02  0.16822597089E+02  0.00000000000E+00 0.  1.
</event>
<event>
 7    1  0.2746803E-013  0.5052885E+02  0.7816164E-02  0.1300439E+00
        -11   -1    0    0    0    0  0.00000000000E+00  0.00000000000E+00  0.45593999997E+02  0.45594000000E+02  0.51100000000E-03 0. -1.
         11   -1    0    0    0    0 -0.00000000000E+00 -0.00000000000E+00 -0.45593999997E+02  0.45594000000E+02  0.51100000000E-03 0.  1.
    9900012    2    1    2    0    0 -0.78046472715E+01 -0.30517149010E+02 -0.25709093132E+02  0.50528851308E+02  0.29999974036E+02 0.  0.
         12    1    1    2    0    0  0.78046472715E+01  0.30517149010E+02  0.25709093132E+02  0.40659148692E+02  0.00000000000E+00 0. -1.
         11    1    3    3    0    0 -0.88020900956E+01 -0.20035378337E+02 -0.20474067620E+02  0.29967993264E+02  0.51100000000E-03 0. -1.
        -11    1    3    3    0    0  0.46090812071E+01 -0.13229274151E+02 -0.70382071649E+01  0.15677808664E+02  0.51100000000E-03 0.  1.
         12    1    3    3    0    0 -0.36116383830E+01  0.27475034783E+01  0.18031816527E+01  0.48830493799E+01  0.00000000000E+00 0. -1.
</event>
<event>
 7    1  0.2746803E-013  0.5052887E+02  0.7816164E-02  0.1300439E+00
        -11   -1    0    0    0    0  0.00000000000E+00  0.00000000000E+00  0.45593999997E+02  0.45594000000E+02  0.51100000000E-03 0.  1.
         11   -1    0    0    0    0 -0.00000000000E+00 -0.00000000000E+00 -0.45593999997E+02  0.45594000000E+02  0.51100000000E-03 0. -1.
    9900012    2    1    2    0    0 -0.23818944955E+01  0.38689832184E+02 -0.12271432319E+02  0.50528873263E+02  0.30000040771E+02 0.  0.
         12    1    1    2    0    0  0.23818944955E+01 -0.38689832184E+02  0.12271432319E+02  0.40659126737E+02  0.00000000000E+00 0. -1.
         11    1    3    3    0    0  0.43472398907E+01  0.15309899359E+02 -0.13110676650E+02  0.20619926177E+02  0.51100000000E-03 0. -1.
        -11    1    3    3    0    0 -0.85180373036E+01  0.48117164689E+01 -0.41068484558E+01  0.10610173391E+02  0.51100000000E-03 0.  1.
        -12    1    3    3    0    0  0.17889029174E+01  0.18568216356E+02  0.49460927868E+01  0.19298773696E+02  0.00000000000E+00 0.  1.
</event>
<event>
 7    1  0.2746803E-013  0.5052886E+02  0.7816164E-02  0.1300439E+00
        -11   -1    0    0    0    0  0.00000000000E+00  0.00000000000E+00  0.45593999997E+02  0.45594000000E+02  0.51100000000E-03 0.  1.
         11   -1    0    0    0    0 -0.00000000000E+00 -0.00000000000E+00 -0.45593999997E+02  0.45594000000E+02  0.51100000000E-03 0. -1.
    9900012    2    1    2    0    0 -0.15028635278E+02  0.32055591202E+02  0.19993628712E+02  0.50528855952E+02  0.29999988152E+02 0.  0.
         12    1    1    2    0    0  0.15028635278E+02 -0.32055591202E+02 -0.19993628712E+02  0.40659144048E+02  0.00000000000E+00 0. -1.
         11    1    3    3    0    0 -0.74223296200E+01  0.19673569580E+00  0.11908974116E+01  0.75198350266E+01  0.51100000000E-03 0. -1.
        -11    1    3    3    0    0 -0.11436127385E+02  0.24623789454E+02  0.59874250948E+01  0.27802253078E+02  0.51100000000E-03 0.  1.
        -12    1    3    3    0    0  0.38298217271E+01  0.72350660521E+01  0.12815306205E+02  0.15206767848E+02  0.00000000000E+00 0.  1.
</event>
<event>
 7    1  0.2746803E-013  0.5052886E+02  0.7816164E-02  0.1300439E+00
        -11   -1    0    0    0    0  0.00000000000E+00  0.00000000000E+00  0.45593999997E+02  0.45594000000E+02  0.51100000000E-03 0.  1.
         11   -1    0    0    0    0 -0.00000000000E+00 -0.00000000000E+00 -0.45593999997E+02  0.45594000000E+02  0.51100000000E-03 0. -1.
    9900012    2    1    2    0    0  0.17620245038E+02 -0.52177571039E+01  0.36269375058E+02  0.50528860911E+02  0.30000003225E+02 0.  0.
         12    1    1    2    0    0 -0.17620245038E+02  0.52177571039E+01 -0.36269375058E+02  0.40659139089E+02  0.00000000000E+00 0. -1.
         11    1    3    3    0    0  0.16597070825E+02  0.27789322969E+01  0.24595527721E+02  0.29801429643E+02  0.51100000000E-03 0. -1.
        -11    1    3    3    0    0  0.31725934504E+01 -0.36750762844E+01  0.14391445958E+02  0.15188326173E+02  0.51100000000E-03 0.  1.
         12    1    3    3    0    0 -0.21494192373E+01 -0.43216131165E+01 -0.27175986214E+01  0.55391050949E+01  0.00000000000E+00 0. -1.
</event>
<event>
 7    1  0.2746803E-013  0.5052886E+02  0.7816164E-02  0.1300439E+00
        -11   -1    0    0    0    0  0.00000000000E+00  0.00000000000E+00  0.45593999997E+02  0.45594000000E+02  0.51100000000E-03 0. -1.
         11   -1    0    0    0    0 -0.00000000000E+00 -0.00000000000E+00 -0.45593999997E+02  0.45594000000E+02  0.51100000000E-03 0.  1.
    9900012    2    1    2    0    0  0.17890421617E+01  0.39126473741E+02 -0.10912546897E+02  0.50528864507E+02  0.30000014155E+02 0.  0.
         12    1    1    2    0    0 -0.17890421617E+01 -0.39126473741E+02  0.10912546897E+02  0.40659135493E+02  0.00000000000E+00 0. -1.
         11    1    3    3    0    0 -0.83907257143E+01  0.46437338142E+01 -0.46122145955E+01  0.10641478539E+02  0.51100000000E-03 0. -1.
        -11    1    3    3    0    0  0.50942389404E+01  0.11668163780E+02 -0.10041878360E+02  0.16215321077E+02  0.51100000000E-03 0.  1.
         12    1    3    3    0    0  0.50855289357E+01  0.22814576147E+02  0.37415460584E+01  0.23672064891E+02  0.00000000000E+00 0. -1.
</event>
<event>
 7    1  0.2746803E-013  0.5052886E+02  0.7816164E-02  0.1300439E+00
        -11   -1    0    0    0    0  0.00000000000E+00  0.00000000000E+00  0.45593999997E+02  0.45594000000E+02  0.51100000000E-03 0.  1.
         11   -1    0    0    0    0 -0.00000000000E+00 -0.00000000000E+00 -0.45593999997E+02  0.45594000000E+02  0.51100000000E-03 0. -1.
    9900012    2    1    2    0    0  0.94041766371E+01  0.17543804073E+02  0.35453378322E+02  0.50528860388E+02  0.30000001635E+02 0.  0.
         12    1    1    2    0    0 -0.94041766371E+01 -0.17543804073E+02 -0.35453378322E+02  0.40659139612E+02  0.00000000000E+00 0. -1.
         11    1    3    3    0    0  0.54707378508E+01  0.13099859136E+02  0.15056419092E+02  0.20693743938E+02  0.51100000000E-03 0. -1.
        -11    1    3    3    0    0  0.78265877403E+01 -0.79785200095E+00  0.21783093427E+02  0.23160207318E+02  0.51100000000E-03 0.  1.
         12    1    3    3    0    0 -0.38931489540E+01  0.52417969375E+01 -0.13861341980E+01  0.66749091325E+01  0.00000000000E+00 0. -1.
</event>
<event>
 7    1  0.2746803E-013  0.5052887E+02  0.7816164E-02  0.1300439E+00
        -11   -1    0    0    0    0  0.00000000000E+00  0.00000000000E+00  0.45593999997E+02  0.45594000000E+02  0.51100000000E-03 0.  1.
         11   -1    0    0    0    0 -0.00000000000E+00 -0.00000000000E+00 -0.45593999997E+02  0.45594000000E+02  0.51100000000E-03 0. -1.
    9900012    2    1    2    0    0 -0.15400481158E+02 -0.94002713885E+01  0.36436586572E+02  0.50528871098E+02  0.30000034190E+02 0.  0.
         12    1    1    2    0    0  0.15400481158E+02  0.94002713885E+01 -0.36436586572E+02  0.40659128902E+02  0.00000000000E+00 0. -1.
         11    1    3    3    0    0 -0.13069455310E+01  0.64316668689E+01  0.12942204597E+02  0.14511206201E+02  0.51100000000E-03 0. -1.
        -11    1    3    3    0    0 -0.92654026569E+01 -0.77433749168E+01  0.23696308409E+02  0.26595536731E+02  0.51100000000E-03 0.  1.
        -12    1    3    3    0    0 -0.48281329703E+01 -0.80885633406E+01 -0.20192643453E+00  0.94221281661E+01  0.00000000000E+00 0.  1.
</event>
<event>
 7    1  0.2746803E-013  0.5052886E+02  0.7816164E-02  0.1300439E+00
        -11   -1    0    0    0    0  0.00000000000E+00  0.00000000000E+00  0.45593999997E+02  0.45594000000E+02  0.51100000000E-03 0.  1.
         11   -1    0    0    0    0 -0.00000000000E+00 -0.00000000000E+00 -0.45593999997E+02  0.45594000000E+02  0.51100000000E-03 0. -1.
    9900012    2    1    2    0    0  0.18988309756E+02 -0.34773987552E+02  0.91312413518E+01  0.50528859745E+02  0.29999999680E+02 0.  0.
         12    1    1    2    0    0 -0.18988309756E+02  0.34773987552E+02 -0.91312413518E+01  0.40659140255E+02  0.00000000000E+00 0. -1.
         11    1    3    3    0    0 -0.26856452832E+01 -0.62177904673E+00  0.30248356573E+01  0.40925457585E+01  0.51100000000E-03 0. -1.
        -11    1    3    3    0    0  0.13996673322E+02 -0.14328169213E+02  0.13242532561E+02  0.24011829709E+02  0.51100000000E-03 0.  1.
        -12    1    3    3    0    0  0.76772817168E+01 -0.19824039293E+02 -0.71361268669E+01  0.22424484277E+02  0.00000000000E+00 0.  1.
</event>
<event>
 7    1  0.2746803E-013  0.5052889E+02  0.7816164E-02  0.1300439E+00
        -11   -1    0    0    0    0  0.00000000000E+00  0.00000000000E+00  0.45593999997E+02  0.45594000000E+02  0.51100000000E-03 0. -1.
         11   -1    0    0    0    0 -0.00000000000E+00 -0.00000000000E+00 -0.45593999997E+02  0.45594000000E+02  0.51100000000E-03 0.  1.
    9900012    2    1    2    0    0  0.88915623640E+01 -0.18371780429E+02 -0.35165054112E+02  0.50528889974E+02  0.30000091566E+02 0.  0.
         12    1    1    2    0    0 -0.88915623640E+01  0.18371780429E+02  0.35165054112E+02  0.40659110026E+02  0.00000000000E+00 0. -1.
         11    1    3    3    0    0 -0.10225855506E+01 -0.81492126750E+01  0.24021837388E+01  0.85572095573E+01  0.51100000000E-03 0. -1.
        -11    1    3    3    0    0  0.61331001406E+00  0.27140153308E+01 -0.57764202283E+01  0.64116346826E+01  0.51100000000E-03 0.  1.
        -12    1    3    3    0    0  0.93008379005E+01 -0.12936583085E+02 -0.31790817622E+02  0.35560045735E+02  0.00000000000E+00 0.  1.
</event>
<event>
 7    1  0.2746803E-013  0.5052887E+02  0.7816164E-02  0.1300439E+00
        -11   -1    0    0    0    0  0.00000000000E+00  0.00000000000E+00  0.45593999997E+02  0.45594000000E+02  0.51100000000E-03 0.  1.
         11   -1    0    0    0    0 -0.00000000000E+00 -0.00000000000E+00 -0.45593999997E+02  0.45594000000E+02  0.51100000000E-03 0. -1.
    9900012    2    1    2    0    0  0.90354141486E+01 -0.22586790041E+02  0.32578570816E+02  0.50528867329E+02  0.30000022732E+02 0.  0.
         12    1    1    2    0    0 -0.90354141486E+01  0.22586790041E+02 -0.32578570816E+02  0.40659132671E+02  0.00000000000E+00 0. -1.
         11    1    3    3    0    0  0.12464631708E+02 -0.10373060741E+02  0.27673912487E+02  0.32075112866E+02  0.51100000000E-03 0. -1.
        -11    1    3    3    0    0 -0.33683985629E+01  0.10752219439E+01  0.36878762284E+01  0.51090745193E+01  0.51100000000E-03 0.  1.
         12    1    3    3    0    0 -0.60818996082E-01 -0.13288951244E+02  0.12167820999E+01  0.13344679944E+02  0.00000000000E+00 0. -1.
</event>
<event>
 7    1  0.2746803E-013  0.5052885E+02  0.7816164E-02  0.1300439E+00
        -11   -1    0    0    0    0  0.00000000000E+00  0.00000000000E+00  0.45593999997E+02  0.45594000000E+02  0.51100000000E-03 0.  1.
         11   -1    0    0    0    0 -0.00000000000E+00 -0.00000000000E+00 -0.45593999997E+02  0.45594000000E+02  0.51100000000E-03 0. -1.
    9900012    2    1    2    0    0  0.12073391879E+00 -0.10903032925E+02  0.39169833296E+02  0.50528849196E+02  0.29999967617E+02 0.  0.
         12    1    1    2    0    0 -0.12073391879E+00  0.10903032925E+02 -0.39169833296E+02  0.40659150804E+02  0.00000000000E+00 0. -1.
         11    1    3    3    0    0 -0.18056125750E+01  0.49888405314E+01  0.62956898808E+01  0.82331329368E+01  0.51100000000E-03 0. -1.
        -11    1    3    3    0    0 -0.45527306228E+01 -0.37825172291E+01  0.26503423530E+02  0.27156329866E+02  0.51100000000E-03 0.  1.
        -12    1    3    3    0    0  0.64790771166E+01 -0.12109356227E+02  0.63707198856E+01  0.15139386393E+02  0.00000000000E+00 0.  1.
</event>
<event>
 7    1  0.2746803E-013  0.5052889E+02  0.7816164E-02  0.1300439E+00
        -11   -1    0    0    0    0  0.00000000000E+00  0.00000000000E+00  0.45593999997E+02  0.45594000000E+02  0.51100000000E-03 0. -1.
         11   -1    0    0    0    0 -0.00000000000E+00 -0.00000000000E+00 -0.45593999997E+02  0.45594000000E+02  0.51100000000E-03 0.  1.
    9900012    2    1    2    0    0  0.24085761533E+02 -0.30403441657E+02  0.12193027098E+02  0.50528891758E+02  0.30000096988E+02 0.  0.
         12    1    1    2    0    0 -0.24085761533E+02  0.30403441657E+02 -0.12193027098E+02  0.40659108242E+02  0.00000000000E+00 0. -1.
         11    1    3    3    0    0 -0.26031121776E+01  0.22389798174E+01 -0.54752289140E+00  0.34769246770E+01  0.51100000000E-03 0. -1.
        -11    1    3    3    0    0  0.65861786146E+01 -0.65041167453E+01 -0.39852820281E+01  0.10077884524E+02  0.51100000000E-03 0.  1.
         12    1    3    3    0    0  0.20102695096E+02 -0.26138304729E+02  0.16725832017E+02  0.36974082557E+02  0.00000000000E+00 0. -1.
</event>
<event>
 7    1  0.2746803E-013  0.5052886E+02  0.7816164E-02  0.1300439E+00
        -11   -1    0    0    0    0  0.00000000000E+00  0.00000000000E+00  0.45593999997E+02  0.45594000000E+02  0.51100000000E-03 0.  1.
         11   -1    0    0    0    0 -0.00000000000E+00 -0.00000000000E+00 -0.45593999997E+02  0.45594000000E+02  0.51100000000E-03 0. -1.
    9900012    2    1    2    0    0 -0.34665667769E+02 -0.21033026063E+02 -0.30115357238E+01  0.50528855215E+02  0.29999985911E+02 0.  0.
         12    1    1    2    0    0  0.34665667769E+02  0.21033026063E+02  0.30115357238E+01  0.40659144785E+02  0.00000000000E+00 0. -1.
         11    1    3    3    0    0 -0.55437772669E+01 -0.12624446354E+01  0.91905380921E+01  0.10807091354E+02  0.51100000000E-03 0. -1.
        -11    1    3    3    0    0 -0.14293702806E+02 -0.74884561128E+01  0.13249353956E+01  0.16190811250E+02  0.51100000000E-03 0.  1.
        -12    1    3    3    0    0 -0.14828187696E+02 -0.12282125315E+02 -0.13527009211E+02  0.23530952611E+02  0.00000000000E+00 0.  1.
</event>
<event>
 7    1  0.2746803E-013  0.5052886E+02  0.7816164E-02  0.1300439E+00
        -11   -1    0    0    0    0  0.00000000000E+00  0.00000000000E+00  0.45593999997E+02  0.45594000000E+02  0.51100000000E-03 0.  1.
         11   -1    0    0    0    0 -0.00000000000E+00 -0.00000000000E+00 -0.45593999997E+02  0.45594000000E+02  0.51100000000E-03 0. -1.
    9900012    2    1    2    0    0 -0.14806947545E+02 -0.33263957480E+02 -0.18094993292E+02  0.50528863941E+02  0.30000012435E+02 0.  0.
         12    1    1    2    0    0  0.14806947545E+02  0.33263957480E+02  0.18094993292E+02  0.40659136059E+02  0.00000000000E+00 0. -1.
         11    1    3    3    0    0 -0.69629975665E+01 -0.70004011772E+01  0.45587509436E+01  0.10875254580E+02  0.51100000000E-03 0. -1.
        -11    1    3    3    0    0 -0.38463211167E+01  0.11029355209E+01 -0.64765086189E+01  0.76128718003E+01  0.51100000000E-03 0.  1.
        -12    1    3    3    0    0 -0.39976288618E+01 -0.27366491824E+02 -0.16177235616E+02  0.32040737561E+02  0.00000000000E+00 0.  1.
</event>
<event>
 7    1  0.2746803E-013  0.5052886E+02  0.7816164E-02  0.1300439E+00
        -11   -1    0    0    0    0  0.00000000000E+00  0.00000000000E+00  0.45593999997E+02  0.45594000000E+02  0.51100000000E-03 0.  1.
         11   -1    0    0    0    0 -0.00000000000E+00 -0.00000000000E+00 -0.45593999997E+02  0.45594000000E+02  0.51100000000E-03 0. -1.
    9900012    2    1    2    0    0 -0.25032686109E+02 -0.24219879094E+02  0.20974462506E+02  0.50528855953E+02  0.29999988156E+02 0.  0.
         12    1    1    2    0    0  0.25032686109E+02  0.24219879094E+02 -0.20974462506E+02  0.40659144047E+02  0.00000000000E+00 0. -1.
         11    1    3    3    0    0 -0.78267103382E+00 -0.84655141717E+01  0.54460556435E+01  0.10096386803E+02  0.51100000000E-03 0. -1.
        -11    1    3    3    0    0 -0.22639909985E+02 -0.21585018295E+02  0.12851979050E+02  0.33817922833E+02  0.51100000000E-03 0.  1.
         12    1    3    3    0    0 -0.16101050903E+01  0.58306533731E+01  0.26764278127E+01  0.66145463182E+01  0.00000000000E+00 0. -1.
</event>
<event>
 7    1  0.2746803E-013  0.5052887E+02  0.7816164E-02  0.1300439E+00
        -11   -1    0    0    0    0  0.00000000000E+00  0.00000000000E+00  0.45593999997E+02  0.45594000000E+02  0.51100000000E-03 0.  1.
         11   -1    0    0    0    0 -0.00000000000E+00 -0.00000000000E+00 -0.45593999997E+02  0.45594000000E+02  0.51100000000E-03 0. -1.
    9900012    2    1    2    0    0  0.38673985049E+02 -0.63299529357E+01  0.10836032405E+02  0.50528867914E+02  0.30000024511E+02 0.  0.
         12    1    1    2    0    0 -0.38673985049E+02  0.63299529357E+01 -0.10836032405E+02  0.40659132086E+02  0.00000000000E+00 0. -1.
         11    1    3    3    0    0  0.30176712982E+02 -0.53214225997E+01  0.69516368379E+01  0.31420961155E+02  0.51100000000E-03 0. -1.
        -11    1    3    3    0    0  0.84360702354E+01 -0.47498148044E+01  0.86954702022E+01  0.13013040536E+02  0.51100000000E-03 0.  1.
         12    1    3    3    0    0  0.61201831141E-01  0.37412844684E+01 -0.48110746348E+01  0.60948662233E+01  0.00000000000E+00 0. -1.
</event>
<event>
 7    1  0.2746803E-013  0.5052886E+02  0.7816164E-02  0.1300439E+00
        -11   -1    0    0    0    0  0.00000000000E+00  0.00000000000E+00  0.45593999997E+02  0.45594000000E+02  0.51100000000E-03 0.  1.
         11   -1    0    0    0    0 -0.00000000000E+00 -0.00000000000E+00 -0.45593999997E+02  0.45594000000E+02  0.51100000000E-03 0. -1.
    9900012    2    1    2    0    0 -0.26488351410E+01  0.12991008843E+02  0.38436745125E+02  0.50528855713E+02  0.29999987424E+02 0.  0.
         12    1    1    2    0    0  0.26488351410E+01 -0.12991008843E+02 -0.38436745125E+02  0.40659144287E+02  0.00000000000E+00 0. -1.
         11    1    3    3    0    0 -0.43554545987E+01  0.93083235649E+00  0.12030353520E+02  0.12828321781E+02  0.51100000000E-03 0. -1.
        -11    1    3    3    0    0 -0.30005816325E+00  0.18116782809E+02  0.25461552398E+02  0.31250576075E+02  0.51100000000E-03 0.  1.
        -12    1    3    3    0    0  0.20066776210E+01 -0.60566063231E+01  0.94483920772E+00  0.64499578569E+01  0.00000000000E+00 0.  1.
</event>
<event>
 7    1  0.2746803E-013  0.5052886E+02  0.7816164E-02  0.1300439E+00
        -11   -1    0    0    0    0  0.00000000000E+00  0.00000000000E+00  0.45593999997E+02  0.45594000000E+02  0.51100000000E-03 0.  1.
         11   -1    0    0    0    0 -0.00000000000E+00 -0.00000000000E+00 -0.45593999997E+02  0.45594000000E+02  0.51100000000E-03 0. -1.
    9900012    2    1    2    0    0  0.34755514132E+02 -0.17615975213E+02  0.11614535447E+02  0.50528858606E+02  0.29999996218E+02 0.  0.
         12    1    1    2    0    0 -0.34755514132E+02  0.17615975213E+02 -0.11614535447E+02  0.40659141394E+02  0.00000000000E+00 0. -1.
         11    1    3    3    0    0  0.21999572220E+01  0.18547438274E+01  0.87051144555E+01  0.91683643246E+01  0.51100000000E-03 0. -1.
        -11    1    3    3    0    0 -0.18019476239E+00 -0.52768637747E+01  0.20669277605E+01  0.56700927751E+01  0.51100000000E-03 0.  1.
        -12    1    3    3    0    0  0.32735751672E+02 -0.14193855266E+02  0.84249323099E+00  0.35690401506E+02  0.00000000000E+00 0.  1.
</event>
<event>
 7    1  0.2746803E-013  0.5052885E+02  0.7816164E-02  0.1300439E+00
        -11   -1    0    0    0    0  0.00000000000E+00  0.00000000000E+00  0.45593999997E+02  0.45594000000E+02  0.51100000000E-03 0.  1.
         11   -1    0    0    0    0 -0.00000000000E+00 -0.00000000000E+00 -0.45593999997E+02  0.45594000000E+02  0.51100000000E-03 0. -1.
    9900012    2    1    2    0    0 -0.84101559369E+01  0.25924315399E+02  0.30172259464E+02  0.50528854744E+02  0.29999984480E+02 0.  0.
         12    1    1    2    0    0  0.84101559369E+01 -0.25924315399E+02 -0.30172259464E+02  0.40659145256E+02  0.00000000000E+00 0. -1.
         11    1    3    3    0    0  0.33573895524E+01  0.20983516069E+00  0.47812555369E+01  0.58460670687E+01  0.51100000000E-03 0.  1.
        -11    1    3    3    0    0 -0.12011085505E+02  0.23716331875E+02  0.29740429890E+02  0.39890145937E+02  0.51100000000E-03 0. -1.
         12    1    3    3    0    0  0.24354001541E+00  0.19981483635E+01 -0.43494259631E+01  0.47926417381E+01  0.00000000000E+00 0. -1.
</event>
<event>
 7    1  0.2746803E-013  0.5052886E+02  0.7816164E-02  0.1300439E+00
        -11   -1    0    0    0    0  0.00000000000E+00  0.00000000000E+00  0.45593999997E+02  0.45594000000E+02  0.51100000000E-03 0.  1.
         11   -1    0    0    0    0 -0.00000000000E+00 -0.00000000000E+00 -0.45593999997E+02  0.45594000000E+02  0.51100000000E-03 0. -1.
    9900012    2    1    2    0    0  0.60995451323E+01  0.39640745617E+02  0.66762789502E+01  0.50528857553E+02  0.29999993018E+02 0.  0.
         12    1    1    2    0    0 -0.60995451323E+01 -0.39640745617E+02 -0.66762789502E+01  0.40659142447E+02  0.00000000000E+00 0. -1.
         11    1    3    3    0    0  0.21613220070E+00  0.25883090846E+02  0.17548000488E+01  0.25943408187E+02  0.51100000000E-03 0. -1.
        -11    1    3    3    0    0  0.10459592068E+02  0.15886684256E+02  0.42935519576E+01  0.19499343362E+02  0.51100000000E-03 0.  1.
        -12    1    3    3    0    0 -0.45761791364E+01 -0.21290294848E+01  0.62792694377E+00  0.50861060039E+01  0.00000000000E+00 0.  1.
</event>
<event>
 7    1  0.2746803E-013  0.5052890E+02  0.7816164E-02  0.1300439E+00
        -11   -1    0    0    0    0  0.00000000000E+00  0.00000000000E+00  0.45593999997E+02  0.45594000000E+02  0.51100000000E-03 0.  1.
         11   -1    0    0    0    0 -0.00000000000E+00 -0.00000000000E+00 -0.45593999997E+02  0.45594000000E+02  0.51100000000E-03 0. -1.
    9900012    2    1    2    0    0  0.90497741884E+00 -0.17477928407E+02  0.36699662169E+02  0.50528903000E+02  0.30000131160E+02 0.  0.
         12    1    1    2    0    0 -0.90497741884E+00  0.17477928407E+02 -0.36699662169E+02  0.40659097000E+02  0.00000000000E+00 0. -1.
         11    1    3    3    0    0  0.47483121147E+01  0.59802498188E+01  0.63461822133E+01  0.99289417754E+01  0.51100000000E-03 0. -1.
        -11    1    3    3    0    0 -0.51798003700E+01 -0.38043547037E+01  0.35686235279E+01  0.73510897647E+01  0.51100000000E-03 0.  1.
        -12    1    3    3    0    0  0.13364656741E+01 -0.19653823522E+02  0.26784856428E+02  0.33248871460E+02  0.00000000000E+00 0.  1.
</event>
<event>
 7    1  0.2746803E-013  0.5052885E+02  0.7816164E-02  0.1300439E+00
        -11   -1    0    0    0    0  0.00000000000E+00  0.00000000000E+00  0.45593999997E+02  0.45594000000E+02  0.51100000000E-03 0.  1.
         11   -1    0    0    0    0 -0.00000000000E+00 -0.00000000000E+00 -0.45593999997E+02  0.45594000000E+02  0.51100000000E-03 0. -1.
    9900012    2    1    2    0    0 -0.33939410659E+02  0.19586007769E+02  0.10847620231E+02  0.50528853909E+02  0.29999981942E+02 0.  0.
         12    1    1    2    0    0  0.33939410659E+02 -0.19586007769E+02 -0.10847620231E+02  0.40659146091E+02  0.00000000000E+00 0. -1.
         11    1    3    3    0    0 -0.27269511892E+02  0.20560696752E+02  0.67647548716E+01  0.34815663695E+02  0.51100000000E-03 0. -1.
        -11    1    3    3    0    0 -0.16376255588E+01  0.53605915291E+01 -0.15965337957E+01  0.58280939795E+01  0.51100000000E-03 0.  1.
         12    1    3    3    0    0 -0.50322732079E+01 -0.63352805127E+01  0.56793991547E+01  0.98850962348E+01  0.00000000000E+00 0. -1.
</event>
<event>
 7    1  0.2746803E-013  0.5052887E+02  0.7816164E-02  0.1300439E+00
        -11   -1    0    0    0    0  0.00000000000E+00  0.00000000000E+00  0.45593999997E+02  0.45594000000E+02  0.51100000000E-03 0.  1.
         11   -1    0    0    0    0 -0.00000000000E+00 -0.00000000000E+00 -0.45593999997E+02  0.45594000000E+02  0.51100000000E-03 0. -1.
    9900012    2    1    2    0    0 -0.39937842164E+01 -0.23595642617E+02  0.32870356037E+02  0.50528868567E+02  0.30000026495E+02 0.  0.
         12    1    1    2    0    0  0.39937842164E+01  0.23595642617E+02 -0.32870356037E+02  0.40659131433E+02  0.00000000000E+00 0. -1.
         11    1    3    3    0    0 -0.12802367724E+02 -0.53781155168E+01  0.11535854930E+02  0.18052719881E+02  0.51100000000E-03 0. -1.
        -11    1    3    3    0    0  0.26374100746E+00 -0.12658808166E+02  0.17466892611E+02  0.21573301120E+02  0.51100000000E-03 0.  1.
         12    1    3    3    0    0  0.85448425006E+01 -0.55587189346E+01  0.38676084966E+01  0.10902847565E+02  0.00000000000E+00 0. -1.
</event>
<event>
 7    1  0.2746803E-013  0.5052886E+02  0.7816164E-02  0.1300439E+00
        -11   -1    0    0    0    0  0.00000000000E+00  0.00000000000E+00  0.45593999997E+02  0.45594000000E+02  0.51100000000E-03 0.  1.
         11   -1    0    0    0    0 -0.00000000000E+00 -0.00000000000E+00 -0.45593999997E+02  0.45594000000E+02  0.51100000000E-03 0. -1.
    9900012    2    1    2    0    0 -0.15974656431E+02  0.25726223073E+01  0.37300907902E+02  0.50528858790E+02  0.29999996778E+02 0.  0.
         12    1    1    2    0    0  0.15974656431E+02 -0.25726223073E+01 -0.37300907902E+02  0.40659141210E+02  0.00000000000E+00 0. -1.
         11    1    3    3    0    0 -0.11557666009E+00 -0.36688609337E+01  0.27228589154E+02  0.27474897017E+02  0.51100000000E-03 0. -1.
        -11    1    3    3    0    0 -0.38646025238E+01  0.59814847547E+01  0.82838751288E+01  0.10924097214E+02  0.51100000000E-03 0.  1.
         12    1    3    3    0    0 -0.11994477247E+02  0.25999848622E+00  0.17884436198E+01  0.12129864559E+02  0.00000000000E+00 0. -1.
</event>
<event>
 7    1  0.2746803E-013  0.5052882E+02  0.7816164E-02  0.1300439E+00
        -11   -1    0    0    0    0  0.00000000000E+00  0.00000000000E+00  0.45593999997E+02  0.45594000000E+02  0.51100000000E-03 0.  1.
         11   -1    0    0    0    0 -0.00000000000E+00 -0.00000000000E+00 -0.45593999997E+02  0.45594000000E+02  0.51100000000E-03 0. -1.
    9900012    2    1    2    0    0  0.18107719112E+02  0.35258229641E+02  0.90629098088E+01  0.50528824122E+02  0.29999891401E+02 0.  0.
         12    1    1    2    0    0 -0.18107719112E+02 -0.35258229641E+02 -0.90629098088E+01  0.40659175878E+02  0.00000000000E+00 0. -1.
         11    1    3    3    0    0  0.90956751844E+01  0.73678742020E+01  0.76875571535E+01  0.14004121271E+02  0.51100000000E-03 0.  1.
        -11    1    3    3    0    0  0.14181187823E+02  0.27541036885E+02 -0.59067981822E+00  0.30983281035E+02  0.51100000000E-03 0. -1.
        -12    1    3    3    0    0 -0.51691438951E+01  0.34931855430E+00  0.19660324735E+01  0.55414218164E+01  0.00000000000E+00 0.  1.
</event>
<event>
 7    1  0.2746803E-013  0.5052886E+02  0.7816164E-02  0.1300439E+00
        -11   -1    0    0    0    0  0.00000000000E+00  0.00000000000E+00  0.45593999997E+02  0.45594000000E+02  0.51100000000E-03 0.  1.
         11   -1    0    0    0    0 -0.00000000000E+00 -0.00000000000E+00 -0.45593999997E+02  0.45594000000E+02  0.51100000000E-03 0. -1.
    9900012    2    1    2    0    0  0.12319876560E+02  0.35077425440E+02  0.16460876373E+02  0.50528860991E+02  0.30000003469E+02 0.  0.
         12    1    1    2    0    0 -0.12319876560E+02 -0.35077425440E+02 -0.16460876373E+02  0.40659139009E+02  0.00000000000E+00 0. -1.
         11    1    3    3    0    0  0.14676527522E+02  0.38225262544E+01  0.52879242537E+01  0.16061578697E+02  0.51100000000E-03 0. -1.
        -11    1    3    3    0    0  0.18602480861E+01  0.15521320176E+02  0.19635588519E+01  0.15755236164E+02  0.51100000000E-03 0.  1.
        -12    1    3    3    0    0 -0.42168990477E+01  0.15733579010E+02  0.92093932674E+01  0.18712046130E+02  0.00000000000E+00 0.  1.
</event>
<event>
 7    1  0.2746803E-013  0.5052886E+02  0.7816164E-02  0.1300439E+00
        -11   -1    0    0    0    0  0.00000000000E+00  0.00000000000E+00  0.45593999997E+02  0.45594000000E+02  0.51100000000E-03 0. -1.
         11   -1    0    0    0    0 -0.00000000000E+00 -0.00000000000E+00 -0.45593999997E+02  0.45594000000E+02  0.51100000000E-03 0.  1.
    9900012    2    1    2    0    0  0.52556556831E+01  0.40234405653E+02 -0.25953843661E+01  0.50528864066E+02  0.30000012815E+02 0.  0.
         12    1    1    2    0    0 -0.52556556831E+01 -0.40234405653E+02  0.25953843661E+01  0.40659135934E+02  0.00000000000E+00 0. -1.
         11    1    3    3    0    0  0.43105162171E+01  0.22978503568E+02 -0.89471134574E+01  0.25032838747E+02  0.51100000000E-03 0. -1.
        -11    1    3    3    0    0  0.87505475470E+01  0.50673712302E+01  0.14521572779E+01  0.10215629916E+02  0.51100000000E-03 0.  1.
         12    1    3    3    0    0 -0.78054080810E+01  0.12188530855E+02  0.48995718134E+01  0.15280395403E+02  0.00000000000E+00 0. -1.
</event>
<event>
 7    1  0.2746803E-013  0.5052887E+02  0.7816164E-02  0.1300439E+00
        -11   -1    0    0    0    0  0.00000000000E+00  0.00000000000E+00  0.45593999997E+02  0.45594000000E+02  0.51100000000E-03 0. -1.
         11   -1    0    0    0    0 -0.00000000000E+00 -0.00000000000E+00 -0.45593999997E+02  0.45594000000E+02  0.51100000000E-03 0.  1.
    9900012    2    1    2    0    0  0.26753905194E+01  0.37573744514E+02 -0.15304262795E+02  0.50528874937E+02  0.30000045858E+02 0.  0.
         12    1    1    2    0    0 -0.26753905194E+01 -0.37573744514E+02  0.15304262795E+02  0.40659125063E+02  0.00000000000E+00 0. -1.
         11    1    3    3    0    0 -0.87904689652E+01  0.19231899376E+02 -0.17584193089E+02  0.27501675315E+02  0.51100000000E-03 0.  1.
        -11    1    3    3    0    0  0.73050453382E+01  0.14738228441E+02 -0.12361037641E+01  0.16495666636E+02  0.51100000000E-03 0. -1.
        -12    1    3    3    0    0  0.41608141464E+01  0.36036166957E+01  0.35160340582E+01  0.65315329861E+01  0.00000000000E+00 0.  1.
</event>
<event>
 7    1  0.2746803E-013  0.5052886E+02  0.7816164E-02  0.1300439E+00
        -11   -1    0    0    0    0  0.00000000000E+00  0.00000000000E+00  0.45593999997E+02  0.45594000000E+02  0.51100000000E-03 0.  1.
         11   -1    0    0    0    0 -0.00000000000E+00 -0.00000000000E+00 -0.45593999997E+02  0.45594000000E+02  0.51100000000E-03 0. -1.
    9900012    2    1    2    0    0 -0.13768717658E+02 -0.58219297805E+01  0.37811284326E+02  0.50528859887E+02  0.30000000114E+02 0.  0.
         12    1    1    2    0    0  0.13768717658E+02  0.58219297805E+01 -0.37811284326E+02  0.40659140113E+02  0.00000000000E+00 0. -1.
         11    1    3    3    0    0  0.18549544097E+00 -0.11783170158E+02  0.20340355177E+02  0.23507606354E+02  0.51100000000E-03 0. -1.
        -11    1    3    3    0    0 -0.16448128150E+01  0.29350463845E+01  0.13235510441E+02  0.13656450614E+02  0.51100000000E-03 0.  1.
        -12    1    3    3    0    0 -0.12309400284E+02  0.30261939930E+01  0.42354187081E+01  0.13364802919E+02  0.00000000000E+00 0.  1.
</event>
<event>
 7    1  0.2746803E-013  0.5052885E+02  0.7816164E-02  0.1300439E+00
        -11   -1    0    0    0    0  0.00000000000E+00  0.00000000000E+00  0.45593999997E+02  0.45594000000E+02  0.51100000000E-03 0.  1.
         11   -1    0    0    0    0 -0.00000000000E+00 -0.00000000000E+00 -0.45593999997E+02  0.45594000000E+02  0.51100000000E-03 0. -1.
    9900012    2    1    2    0    0  0.16568377634E+02 -0.32627244682E+02  0.17723374374E+02  0.50528853032E+02  0.29999979275E+02 0.  0.
         12    1    1    2    0    0 -0.16568377634E+02  0.32627244682E+02 -0.17723374374E+02  0.40659146968E+02  0.00000000000E+00 0. -1.
         11    1    3    3    0    0 -0.45825595900E+01 -0.92500817401E+01  0.45852687203E+01  0.11295510351E+02  0.51100000000E-03 0. -1.
        -11    1    3    3    0    0  0.82355183925E+01 -0.22570922775E+02  0.83908119528E+01  0.25449480222E+02  0.51100000000E-03 0.  1.
        -12    1    3    3    0    0  0.12915418831E+02 -0.80624016773E+00  0.47472937013E+01  0.13783862458E+02  0.00000000000E+00 0.  1.
</event>
<event>
 7    1  0.2746803E-013  0.5052886E+02  0.7816164E-02  0.1300439E+00
        -11   -1    0    0    0    0  0.00000000000E+00  0.00000000000E+00  0.45593999997E+02  0.45594000000E+02  0.51100000000E-03 0.  1.
         11   -1    0    0    0    0 -0.00000000000E+00 -0.00000000000E+00 -0.45593999997E+02  0.45594000000E+02  0.51100000000E-03 0. -1.
    9900012    2    1    2    0    0 -0.39313293612E+01  0.23006081006E+02  0.33293104156E+02  0.50528857139E+02  0.29999991760E+02 0.  0.
         12    1    1    2    0    0  0.39313293612E+01 -0.23006081006E+02 -0.33293104156E+02  0.40659142861E+02  0.00000000000E+00 0. -1.
         11    1    3    3    0    0  0.49966129002E+01  0.16720369602E+02  0.80762980756E+01  0.19229235319E+02  0.51100000000E-03 0. -1.
        -11    1    3    3    0    0 -0.52146834201E+01  0.49845861742E+01  0.16414698210E+01  0.73982055888E+01  0.51100000000E-03 0.  1.
        -12    1    3    3    0    0 -0.37132588413E+01  0.13011252305E+01  0.23575336260E+02  0.23901416231E+02  0.00000000000E+00 0.  1.
</event>
<event>
 7    1  0.2746803E-013  0.5052886E+02  0.7816164E-02  0.1300439E+00
        -11   -1    0    0    0    0  0.00000000000E+00  0.00000000000E+00  0.45593999997E+02  0.45594000000E+02  0.51100000000E-03 0.  1.
         11   -1    0    0    0    0 -0.00000000000E+00 -0.00000000000E+00 -0.45593999997E+02  0.45594000000E+02  0.51100000000E-03 0. -1.
    9900012    2    1    2    0    0 -0.31965571695E+02  0.24176142215E+02 -0.68470579933E+01  0.50528857986E+02  0.29999994333E+02 0.  0.
         12    1    1    2    0    0  0.31965571695E+02 -0.24176142215E+02  0.68470579933E+01  0.40659142014E+02  0.00000000000E+00 0. -1.
         11    1    3    3    0    0 -0.26816496945E+02  0.89382047364E+01 -0.41395212904E+00  0.28269902174E+02  0.51100000000E-03 0. -1.
        -11    1    3    3    0    0 -0.87482135584E+01  0.11575143956E+02 -0.64815205317E+00  0.14523611790E+02  0.51100000000E-03 0.  1.
         12    1    3    3    0    0  0.35991388082E+01  0.36627935224E+01 -0.57849538111E+01  0.77353440224E+01  0.00000000000E+00 0. -1.
</event>
<event>
 7    1  0.2746803E-013  0.5052887E+02  0.7816164E-02  0.1300439E+00
        -11   -1    0    0    0    0  0.00000000000E+00  0.00000000000E+00  0.45593999997E+02  0.45594000000E+02  0.51100000000E-03 0.  1.
         11   -1    0    0    0    0 -0.00000000000E+00 -0.00000000000E+00 -0.45593999997E+02  0.45594000000E+02  0.51100000000E-03 0. -1.
    9900012    2    1    2    0    0 -0.10272845411E+02  0.15884384062E+02  0.35990555865E+02  0.50528866692E+02  0.30000020798E+02 0.  0.
         12    1    1    2    0    0  0.10272845411E+02 -0.15884384062E+02 -0.35990555865E+02  0.40659133308E+02  0.00000000000E+00 0. -1.
         11    1    3    3    0    0 -0.23624888119E+01  0.15232724630E+02  0.66630985687E+01  0.16793276507E+02  0.51100000000E-03 0. -1.
        -11    1    3    3    0    0 -0.32931161809E+01 -0.22096869469E+00 -0.67377818651E+00  0.33685929779E+01  0.51100000000E-03 0.  1.
        -12    1    3    3    0    0 -0.46172404186E+01  0.87262812673E+00  0.30001235483E+02  0.30366997208E+02  0.00000000000E+00 0.  1.
</event>
<event>
 7    1  0.2746803E-013  0.5052887E+02  0.7816164E-02  0.1300439E+00
        -11   -1    0    0    0    0  0.00000000000E+00  0.00000000000E+00  0.45593999997E+02  0.45594000000E+02  0.51100000000E-03 0. -1.
         11   -1    0    0    0    0 -0.00000000000E+00 -0.00000000000E+00 -0.45593999997E+02  0.45594000000E+02  0.51100000000E-03 0.  1.
    9900012    2    1    2    0    0 -0.40614225410E+02  0.16210815586E+01 -0.10107276600E+01  0.50528870872E+02  0.30000033503E+02 0.  0.
         12    1    1    2    0    0  0.40614225410E+02 -0.16210815586E+01  0.10107276600E+01  0.40659129128E+02  0.00000000000E+00 0. -1.
         11    1    3    3    0    0 -0.10079377053E+02  0.29811144335E+01  0.99363304912E+01  0.14464147017E+02  0.51100000000E-03 0. -1.
        -11    1    3    3    0    0 -0.15045644368E+02 -0.45929556564E+01  0.16805989553E+01  0.15820590040E+02  0.51100000000E-03 0.  1.
        -12    1    3    3    0    0 -0.15489203988E+02  0.32329227815E+01 -0.12627657107E+02  0.20244133815E+02  0.00000000000E+00 0.  1.
</event>
<event>
 7    1  0.2746803E-013  0.5052886E+02  0.7816164E-02  0.1300439E+00
        -11   -1    0    0    0    0  0.00000000000E+00  0.00000000000E+00  0.45593999997E+02  0.45594000000E+02  0.51100000000E-03 0. -1.
         11   -1    0    0    0    0 -0.00000000000E+00 -0.00000000000E+00 -0.45593999997E+02  0.45594000000E+02  0.51100000000E-03 0.  1.
    9900012    2    1    2    0    0  0.33562294062E+02  0.19225260172E+02 -0.12535056421E+02  0.50528857721E+02  0.29999993530E+02 0.  0.
         12    1    1    2    0    0 -0.33562294062E+02 -0.19225260172E+02  0.12535056421E+02  0.40659142279E+02  0.00000000000E+00 0. -1.
         11    1    3    3    0    0 -0.26756091411E+01 -0.28258060111E+01  0.15953271861E+00  0.38948061361E+01  0.51100000000E-03 0. -1.
        -11    1    3    3    0    0  0.69293750082E+01  0.46931386683E+01 -0.91294195655E+01  0.12384994567E+02  0.51100000000E-03 0.  1.
        -12    1    3    3    0    0  0.29308528195E+02  0.17357927515E+02 -0.35651695741E+01  0.34249057018E+02  0.00000000000E+00 0.  1.
</event>
<event>
 7    1  0.2746803E-013  0.5052886E+02  0.7816164E-02  0.1300439E+00
        -11   -1    0    0    0    0  0.00000000000E+00  0.00000000000E+00  0.45593999997E+02  0.45594000000E+02  0.51100000000E-03 0. -1.
         11   -1    0    0    0    0 -0.00000000000E+00 -0.00000000000E+00 -0.45593999997E+02  0.45594000000E+02  0.51100000000E-03 0.  1.
    9900012    2    1    2    0    0  0.21170095962E+02 -0.11141644615E+02 -0.32876387253E+02  0.50528855314E+02  0.29999986213E+02 0.  0.
         12    1    1    2    0    0 -0.21170095962E+02  0.11141644615E+02  0.32876387253E+02  0.40659144686E+02  0.00000000000E+00 0. -1.
         11    1    3    3    0    0  0.14903740682E+02 -0.11434010850E+02 -0.19240255118E+02  0.26889505531E+02  0.51100000000E-03 0. -1.
        -11    1    3    3    0    0  0.86688193919E+01 -0.46065509216E+01 -0.15081359179E+02  0.17994891941E+02  0.51100000000E-03 0.  1.
         12    1    3    3    0    0 -0.24024641117E+01  0.48989171568E+01  0.14452270440E+01  0.56444578416E+01  0.00000000000E+00 0. -1.
</event>
<event>
 7    1  0.2746803E-013  0.5052886E+02  0.7816164E-02  0.1300439E+00
        -11   -1    0    0    0    0  0.00000000000E+00  0.00000000000E+00  0.45593999997E+02  0.45594000000E+02  0.51100000000E-03 0.  1.
         11   -1    0    0    0    0 -0.00000000000E+00 -0.00000000000E+00 -0.45593999997E+02  0.45594000000E+02  0.51100000000E-03 0. -1.
    9900012    2    1    2    0    0 -0.34304646431E+01  0.15049412620E+02  0.37615329166E+02  0.50528857164E+02  0.29999991837E+02 0.  0.
         12    1    1    2    0    0  0.34304646431E+01 -0.15049412620E+02 -0.37615329166E+02  0.40659142836E+02  0.00000000000E+00 0. -1.
         11    1    3    3    0    0  0.89461791346E+01  0.53059727787E+01  0.48872327408E+01  0.11492280555E+02  0.51100000000E-03 0.  1.
        -11    1    3    3    0    0 -0.10560804183E+01 -0.31669841722E+01  0.10059122999E+02  0.10598634363E+02  0.51100000000E-03 0. -1.
         12    1    3    3    0    0 -0.11320563359E+02  0.12910424014E+02  0.22668973426E+02  0.28437942246E+02  0.00000000000E+00 0. -1.
</event>
<event>
 7    1  0.2746803E-013  0.5052886E+02  0.7816164E-02  0.1300439E+00
        -11   -1    0    0    0    0  0.00000000000E+00  0.00000000000E+00  0.45593999997E+02  0.45594000000E+02  0.51100000000E-03 0.  1.
         11   -1    0    0    0    0 -0.00000000000E+00 -0.00000000000E+00 -0.45593999997E+02  0.45594000000E+02  0.51100000000E-03 0. -1.
    9900012    2    1    2    0    0  0.27081888200E+02  0.75072001307E+00  0.30317868823E+02  0.50528863032E+02  0.30000009673E+02 0.  0.
         12    1    1    2    0    0 -0.27081888200E+02 -0.75072001307E+00 -0.30317868823E+02  0.40659136968E+02  0.00000000000E+00 0. -1.
         11    1    3    3    0    0  0.22901799621E+02 -0.32071952168E+01  0.26425723399E+02  0.35115486390E+02  0.51100000000E-03 0. -1.
        -11    1    3    3    0    0  0.67980106537E+01  0.64815956846E+01  0.60618323608E+01  0.11178991157E+02  0.51100000000E-03 0.  1.
         12    1    3    3    0    0 -0.26179220744E+01 -0.25236804548E+01 -0.21696869371E+01  0.42343854844E+01  0.00000000000E+00 0. -1.
</event>
<event>
 7    1  0.2746803E-013  0.5052887E+02  0.7816164E-02  0.1300439E+00
        -11   -1    0    0    0    0  0.00000000000E+00  0.00000000000E+00  0.45593999997E+02  0.45594000000E+02  0.51100000000E-03 0.  1.
         11   -1    0    0    0    0 -0.00000000000E+00 -0.00000000000E+00 -0.45593999997E+02  0.45594000000E+02  0.51100000000E-03 0. -1.
    9900012    2    1    2    0    0  0.17774419183E+02 -0.36561570288E+02 -0.69744555625E+00  0.50528870281E+02  0.30000031705E+02 0.  0.
         12    1    1    2    0    0 -0.17774419183E+02  0.36561570288E+02  0.69744555625E+00  0.40659129719E+02  0.00000000000E+00 0. -1.
         11    1    3    3    0    0  0.22632069551E+01 -0.17544530781E+01 -0.98904921940E+01  0.10296700803E+02  0.51100000000E-03 0. -1.
        -11    1    3    3    0    0  0.37674169328E+01 -0.19042345919E+02  0.59907223370E+01  0.20314849811E+02  0.51100000000E-03 0.  1.
        -12    1    3    3    0    0  0.11743795295E+02 -0.15764771291E+02  0.32023243007E+01  0.19917319667E+02  0.00000000000E+00 0.  1.
</event>
<event>
 7    1  0.2746803E-013  0.5052886E+02  0.7816164E-02  0.1300439E+00
        -11   -1    0    0    0    0  0.00000000000E+00  0.00000000000E+00  0.45593999997E+02  0.45594000000E+02  0.51100000000E-03 0.  1.
         11   -1    0    0    0    0 -0.00000000000E+00 -0.00000000000E+00 -0.45593999997E+02  0.45594000000E+02  0.51100000000E-03 0. -1.
    9900012    2    1    2    0    0 -0.75481274142E+01 -0.10283751245E+02  0.38606164797E+02  0.50528859238E+02  0.29999998140E+02 0.  0.
         12    1    1    2    0    0  0.75481274142E+01  0.10283751245E+02 -0.38606164797E+02  0.40659140762E+02  0.00000000000E+00 0. -1.
         11    1    3    3    0    0 -0.12453607139E+01 -0.10868020072E+02  0.48823513675E+01  0.11979237819E+02  0.51100000000E-03 0. -1.
        -11    1    3    3    0    0 -0.11415540473E+02 -0.36207118010E+01  0.19972404110E+02  0.23287787453E+02  0.51100000000E-03 0.  1.
         12    1    3    3    0    0  0.51127737731E+01  0.42049806282E+01  0.13751409320E+02  0.15261833966E+02  0.00000000000E+00 0. -1.
</event>
<event>
 7    1  0.2746803E-013  0.5052886E+02  0.7816164E-02  0.1300439E+00
        -11   -1    0    0    0    0  0.00000000000E+00  0.00000000000E+00  0.45593999997E+02  0.45594000000E+02  0.51100000000E-03 0. -1.
         11   -1    0    0    0    0 -0.00000000000E+00 -0.00000000000E+00 -0.45593999997E+02  0.45594000000E+02  0.51100000000E-03 0.  1.
    9900012    2    1    2    0    0  0.38480839871E+01 -0.72970073128E+00 -0.40470057555E+02  0.50528858690E+02  0.29999996474E+02 0.  0.
         12    1    1    2    0    0 -0.38480839871E+01  0.72970073128E+00  0.40470057555E+02  0.40659141310E+02  0.00000000000E+00 0. -1.
         11    1    3    3    0    0  0.29383088271E+01  0.12996078942E+01 -0.21294617479E+02  0.21535630320E+02  0.51100000000E-03 0. -1.
        -11    1    3    3    0    0  0.96788325033E+01 -0.66661034082E+01 -0.11589222575E+02  0.16505357113E+02  0.51100000000E-03 0.  1.
         12    1    3    3    0    0 -0.87690573433E+01  0.46367947828E+01 -0.75862175007E+01  0.12487871256E+02  0.00000000000E+00 0. -1.
</event>
<event>
 7    1  0.2746803E-013  0.5052886E+02  0.7816164E-02  0.1300439E+00
        -11   -1    0    0    0    0  0.00000000000E+00  0.00000000000E+00  0.45593999997E+02  0.45594000000E+02  0.51100000000E-03 0. -1.
         11   -1    0    0    0    0 -0.00000000000E+00 -0.00000000000E+00 -0.45593999997E+02  0.45594000000E+02  0.51100000000E-03 0.  1.
    9900012    2    1    2    0    0  0.16581000720E+02 -0.32843563535E+02  0.17307110449E+02  0.50528864216E+02  0.30000013272E+02 0.  0.
         12    1    1    2    0    0 -0.16581000720E+02  0.32843563535E+02 -0.17307110449E+02  0.40659135784E+02  0.00000000000E+00 0. -1.
         11    1    3    3    0    0  0.22548560686E+01 -0.14124229247E+02  0.18616197547E+02  0.23476393230E+02  0.51100000000E-03 0. -1.
        -11    1    3    3    0    0 -0.21809310751E+01 -0.20244393058E+01 -0.19643789021E+01  0.35656134941E+01  0.51100000000E-03 0.  1.
        -12    1    3    3    0    0  0.16507075727E+02 -0.16694894983E+02  0.65529180374E+00  0.23486857493E+02  0.00000000000E+00 0.  1.
</event>
<event>
 7    1  0.2746803E-013  0.5052886E+02  0.7816164E-02  0.1300439E+00
        -11   -1    0    0    0    0  0.00000000000E+00  0.00000000000E+00  0.45593999997E+02  0.45594000000E+02  0.51100000000E-03 0.  1.
         11   -1    0    0    0    0 -0.00000000000E+00 -0.00000000000E+00 -0.45593999997E+02  0.45594000000E+02  0.51100000000E-03 0. -1.
    9900012    2    1    2    0    0  0.73407674265E+00  0.38476918804E+01  0.40470014188E+02  0.50528860193E+02  0.30000001042E+02 0.  0.
         12    1    1    2    0    0 -0.73407674265E+00 -0.38476918804E+01 -0.40470014188E+02  0.40659139807E+02  0.00000000000E+00 0. -1.
         11    1    3    3    0    0 -0.38438104091E+01 -0.48291582400E+01  0.55076483317E+01  0.82722329618E+01  0.51100000000E-03 0. -1.
        -11    1    3    3    0    0 -0.10981131363E+01 -0.22531123614E+01  0.27994104413E+02  0.28106089196E+02  0.51100000000E-03 0.  1.
         12    1    3    3    0    0  0.56760002881E+01  0.10929962482E+02  0.69682614436E+01  0.14150538035E+02  0.00000000000E+00 0. -1.
</event>
<event>
 7    1  0.2746803E-013  0.5052887E+02  0.7816164E-02  0.1300439E+00
        -11   -1    0    0    0    0  0.00000000000E+00  0.00000000000E+00  0.45593999997E+02  0.45594000000E+02  0.51100000000E-03 0.  1.
         11   -1    0    0    0    0 -0.00000000000E+00 -0.00000000000E+00 -0.45593999997E+02  0.45594000000E+02  0.51100000000E-03 0. -1.
    9900012    2    1    2    0    0  0.13316518256E+02  0.35288375930E+02  0.15184390534E+02  0.50528870028E+02  0.30000030936E+02 0.  0.
         12    1    1    2    0    0 -0.13316518256E+02 -0.35288375930E+02 -0.15184390534E+02  0.40659129972E+02  0.00000000000E+00 0. -1.
         11    1    3    3    0    0  0.66676048150E+01  0.16373756449E+02  0.18813305975E+02  0.25816609696E+02  0.51100000000E-03 0.  1.
        -11    1    3    3    0    0  0.11841601245E+01 -0.20329784693E+01 -0.18456427174E+01  0.29902565038E+01  0.51100000000E-03 0. -1.
        -12    1    3    3    0    0  0.54647533161E+01  0.20947597950E+02 -0.17832727239E+01  0.21722003828E+02  0.00000000000E+00 0.  1.
</event>
<event>
 7    1  0.2746803E-013  0.5052891E+02  0.7816164E-02  0.1300439E+00
        -11   -1    0    0    0    0  0.00000000000E+00  0.00000000000E+00  0.45593999997E+02  0.45594000000E+02  0.51100000000E-03 0. -1.
         11   -1    0    0    0    0 -0.00000000000E+00 -0.00000000000E+00 -0.45593999997E+02  0.45594000000E+02  0.51100000000E-03 0.  1.
    9900012    2    1    2    0    0 -0.46675494945E+01 -0.19916966445E+01 -0.40341152395E+02  0.50528911835E+02  0.30000158013E+02 0.  0.
         12    1    1    2    0    0  0.46675494945E+01  0.19916966445E+01  0.40341152395E+02  0.40659088165E+02  0.00000000000E+00 0. -1.
         11    1    3    3    0    0 -0.31205248452E+01 -0.10971905030E+02 -0.18186922698E+02  0.21468221463E+02  0.51100000000E-03 0.  1.
        -11    1    3    3    0    0  0.56665821950E+01 -0.16595931452E+01 -0.60296912261E+01  0.84392878683E+01  0.51100000000E-03 0. -1.
        -12    1    3    3    0    0 -0.72136068443E+01  0.10639801531E+02 -0.16124538472E+02  0.20621402504E+02  0.00000000000E+00 0.  1.
</event>
<event>
 7    1  0.2746803E-013  0.5052885E+02  0.7816164E-02  0.1300439E+00
        -11   -1    0    0    0    0  0.00000000000E+00  0.00000000000E+00  0.45593999997E+02  0.45594000000E+02  0.51100000000E-03 0. -1.
         11   -1    0    0    0    0 -0.00000000000E+00 -0.00000000000E+00 -0.45593999997E+02  0.45594000000E+02  0.51100000000E-03 0.  1.
    9900012    2    1    2    0    0  0.20998089597E+01  0.25159629587E+02 -0.31870836456E+02  0.50528851275E+02  0.29999973935E+02 0.  0.
         12    1    1    2    0    0 -0.20998089597E+01 -0.25159629587E+02  0.31870836456E+02  0.40659148725E+02  0.00000000000E+00 0. -1.
         11    1    3    3    0    0  0.31422457224E+01  0.55745103794E+01  0.12276558891E+01  0.65158279131E+01  0.51100000000E-03 0. -1.
        -11    1    3    3    0    0 -0.85862893099E+01  0.61416279967E+01 -0.44012513955E+01  0.11437437330E+02  0.51100000000E-03 0.  1.
         12    1    3    3    0    0  0.75438525472E+01  0.13443491211E+02 -0.28697240950E+02  0.32575586032E+02  0.00000000000E+00 0. -1.
</event>
<event>
 7    1  0.2746803E-013  0.5052886E+02  0.7816164E-02  0.1300439E+00
        -11   -1    0    0    0    0  0.00000000000E+00  0.00000000000E+00  0.45593999997E+02  0.45594000000E+02  0.51100000000E-03 0.  1.
         11   -1    0    0    0    0 -0.00000000000E+00 -0.00000000000E+00 -0.45593999997E+02  0.45594000000E+02  0.51100000000E-03 0. -1.
    9900012    2    1    2    0    0  0.19420209383E+02  0.34481722992E+02 -0.93291009588E+01  0.50528857392E+02  0.29999992527E+02 0.  0.
         12    1    1    2    0    0 -0.19420209383E+02 -0.34481722992E+02  0.93291009588E+01  0.40659142608E+02  0.00000000000E+00 0. -1.
         11    1    3    3    0    0  0.63796255710E+00 -0.30691113164E+01 -0.19160660023E+01  0.36739283721E+01  0.51100000000E-03 0. -1.
        -11    1    3    3    0    0  0.16421064294E+02  0.17232694299E+02 -0.10769322000E+02  0.26126526787E+02  0.51100000000E-03 0.  1.
        -12    1    3    3    0    0  0.23611825313E+01  0.20318140009E+02  0.33562870438E+01  0.20728402232E+02  0.00000000000E+00 0.  1.
</event>
<event>
 7    1  0.2746803E-013  0.5052886E+02  0.7816164E-02  0.1300439E+00
        -11   -1    0    0    0    0  0.00000000000E+00  0.00000000000E+00  0.45593999997E+02  0.45594000000E+02  0.51100000000E-03 0.  1.
         11   -1    0    0    0    0 -0.00000000000E+00 -0.00000000000E+00 -0.45593999997E+02  0.45594000000E+02  0.51100000000E-03 0. -1.
    9900012    2    1    2    0    0  0.14833079275E+01  0.61857664769E+00  0.40627369674E+02  0.50528855812E+02  0.29999987727E+02 0.  0.
         12    1    1    2    0    0 -0.14833079275E+01 -0.61857664769E+00 -0.40627369674E+02  0.40659144188E+02  0.00000000000E+00 0. -1.
         11    1    3    3    0    0  0.28783335689E+01  0.74568645177E+01  0.33314786836E+01  0.86595833070E+01  0.51100000000E-03 0.  1.
        -11    1    3    3    0    0  0.47831359085E+01 -0.45306089252E+01  0.35476979330E+01  0.74827112224E+01  0.51100000000E-03 0. -1.
        -12    1    3    3    0    0 -0.61781615499E+01 -0.23076789448E+01  0.33748193057E+02  0.34386561283E+02  0.00000000000E+00 0.  1.
</event>
<event>
 7    1  0.2746803E-013  0.5052886E+02  0.7816164E-02  0.1300439E+00
        -11   -1    0    0    0    0  0.00000000000E+00  0.00000000000E+00  0.45593999997E+02  0.45594000000E+02  0.51100000000E-03 0.  1.
         11   -1    0    0    0    0 -0.00000000000E+00 -0.00000000000E+00 -0.45593999997E+02  0.45594000000E+02  0.51100000000E-03 0. -1.
    9900012    2    1    2    0    0 -0.32414120318E+02 -0.16946384459E+02  0.17756988011E+02  0.50528858772E+02  0.29999996723E+02 0.  0.
         12    1    1    2    0    0  0.32414120318E+02  0.16946384459E+02 -0.17756988011E+02  0.40659141228E+02  0.00000000000E+00 0. -1.
         11    1    3    3    0    0 -0.18010505067E+02 -0.91236680535E+01  0.19825442603E+02  0.28296073688E+02  0.51100000000E-03 0. -1.
        -11    1    3    3    0    0 -0.60431083201E+01  0.92816306384E+00  0.52761888957E+01  0.80758166377E+01  0.51100000000E-03 0.  1.
         12    1    3    3    0    0 -0.83605069308E+01 -0.87508794691E+01 -0.73446434876E+01  0.14156968446E+02  0.00000000000E+00 0. -1.
</event>
<event>
 7    1  0.2746803E-013  0.5052885E+02  0.7816164E-02  0.1300439E+00
        -11   -1    0    0    0    0  0.00000000000E+00  0.00000000000E+00  0.45593999997E+02  0.45594000000E+02  0.51100000000E-03 0.  1.
         11   -1    0    0    0    0 -0.00000000000E+00 -0.00000000000E+00 -0.45593999997E+02  0.45594000000E+02  0.51100000000E-03 0. -1.
    9900012    2    1    2    0    0  0.34329379791E+02  0.15617486754E+02  0.15190587259E+02  0.50528854035E+02  0.29999982326E+02 0.  0.
         12    1    1    2    0    0 -0.34329379791E+02 -0.15617486754E+02 -0.15190587259E+02  0.40659145965E+02  0.00000000000E+00 0. -1.
         11    1    3    3    0    0  0.85725045464E+01 -0.31941782238E+01 -0.41699587660E+01  0.10053813460E+02  0.51100000000E-03 0. -1.
        -11    1    3    3    0    0  0.21220343278E+02  0.13192463760E+02  0.66509109377E+01  0.25856888549E+02  0.51100000000E-03 0.  1.
         12    1    3    3    0    0  0.45365319665E+01  0.56192012174E+01  0.12709635087E+02  0.14618152026E+02  0.00000000000E+00 0. -1.
</event>
<event>
 7    1  0.2746803E-013  0.5052888E+02  0.7816164E-02  0.1300439E+00
        -11   -1    0    0    0    0  0.00000000000E+00  0.00000000000E+00  0.45593999997E+02  0.45594000000E+02  0.51100000000E-03 0. -1.
         11   -1    0    0    0    0 -0.00000000000E+00 -0.00000000000E+00 -0.45593999997E+02  0.45594000000E+02  0.51100000000E-03 0.  1.
    9900012    2    1    2    0    0 -0.37341663901E+02  0.62618840589E+01 -0.14817332588E+02  0.50528875564E+02  0.30000047763E+02 0.  0.
         12    1    1    2    0    0  0.37341663901E+02 -0.62618840589E+01  0.14817332588E+02  0.40659124436E+02  0.00000000000E+00 0. -1.
         11    1    3    3    0    0 -0.12398288768E+01  0.41052707349E+01  0.37674782215E+01  0.57082673257E+01  0.51100000000E-03 0. -1.
        -11    1    3    3    0    0 -0.22696316425E+02 -0.46957227789E+01 -0.33781263251E+01  0.23421877154E+02  0.51100000000E-03 0.  1.
        -12    1    3    3    0    0 -0.13405518600E+02  0.68523361029E+01 -0.15206684485E+02  0.21398731084E+02  0.00000000000E+00 0.  1.
</event>
<event>
 7    1  0.2746803E-013  0.5052885E+02  0.7816164E-02  0.1300439E+00
        -11   -1    0    0    0    0  0.00000000000E+00  0.00000000000E+00  0.45593999997E+02  0.45594000000E+02  0.51100000000E-03 0. -1.
         11   -1    0    0    0    0 -0.00000000000E+00 -0.00000000000E+00 -0.45593999997E+02  0.45594000000E+02  0.51100000000E-03 0.  1.
    9900012    2    1    2    0    0 -0.39260265745E+02 -0.10307489767E+02  0.23566108700E+01  0.50528850643E+02  0.29999972013E+02 0.  0.
         12    1    1    2    0    0  0.39260265745E+02  0.10307489767E+02 -0.23566108700E+01  0.40659149357E+02  0.00000000000E+00 0. -1.
         11    1    3    3    0    0  0.15187465551E+01  0.25781802327E+01 -0.15112324603E+01  0.33522273523E+01  0.51100000000E-03 0. -1.
        -11    1    3    3    0    0 -0.87249534406E+01 -0.97096923605E+01  0.70025045479E+01  0.14813440130E+02  0.51100000000E-03 0.  1.
        -12    1    3    3    0    0 -0.32054058860E+02 -0.31759776395E+01 -0.31346612176E+01  0.32363183161E+02  0.00000000000E+00 0.  1.
</event>
<event>
 7    1  0.2746803E-013  0.5052888E+02  0.7816164E-02  0.1300439E+00
        -11   -1    0    0    0    0  0.00000000000E+00  0.00000000000E+00  0.45593999997E+02  0.45594000000E+02  0.51100000000E-03 0. -1.
         11   -1    0    0    0    0 -0.00000000000E+00 -0.00000000000E+00 -0.45593999997E+02  0.45594000000E+02  0.51100000000E-03 0.  1.
    9900012    2    1    2    0    0 -0.30973298577E+02 -0.25590152967E+02  0.62420286017E+01  0.50528879563E+02  0.30000059920E+02 0.  0.
         12    1    1    2    0    0  0.30973298577E+02  0.25590152967E+02 -0.62420286017E+01  0.40659120437E+02  0.00000000000E+00 0. -1.
         11    1    3    3    0    0  0.30941521708E-01 -0.10678677375E+01 -0.33002272617E+01  0.34688325302E+01  0.51100000000E-03 0. -1.
        -11    1    3    3    0    0 -0.16471789924E+02 -0.25910479591E+02  0.10451620090E+02  0.32433149380E+02  0.51100000000E-03 0.  1.
         12    1    3    3    0    0 -0.14532450174E+02  0.13881943608E+01 -0.90936422626E+00  0.14626897653E+02  0.00000000000E+00 0. -1.
</event>
<event>
 7    1  0.2746803E-013  0.5052886E+02  0.7816164E-02  0.1300439E+00
        -11   -1    0    0    0    0  0.00000000000E+00  0.00000000000E+00  0.45593999997E+02  0.45594000000E+02  0.51100000000E-03 0. -1.
         11   -1    0    0    0    0 -0.00000000000E+00 -0.00000000000E+00 -0.45593999997E+02  0.45594000000E+02  0.51100000000E-03 0.  1.
    9900012    2    1    2    0    0 -0.10417271845E+02 -0.79669974404E+01 -0.38486011991E+02  0.50528859331E+02  0.29999998424E+02 0.  0.
         12    1    1    2    0    0  0.10417271845E+02  0.79669974404E+01  0.38486011991E+02  0.40659140669E+02  0.00000000000E+00 0. -1.
         11    1    3    3    0    0  0.25244750378E+01  0.63170412427E+01 -0.66718442383E+01  0.95284568572E+01  0.51100000000E-03 0. -1.
        -11    1    3    3    0    0  0.39655395999E+00 -0.66695913903E+01 -0.12542410513E+01  0.67980751123E+01  0.51100000000E-03 0.  1.
        -12    1    3    3    0    0 -0.13338300843E+02 -0.76144472928E+01 -0.30559926702E+02  0.34202327362E+02  0.00000000000E+00 0.  1.
</event>
<event>
 7    1  0.2746803E-013  0.5052884E+02  0.7816164E-02  0.1300439E+00
        -11   -1    0    0    0    0  0.00000000000E+00  0.00000000000E+00  0.45593999997E+02  0.45594000000E+02  0.51100000000E-03 0.  1.
         11   -1    0    0    0    0 -0.00000000000E+00 -0.00000000000E+00 -0.45593999997E+02  0.45594000000E+02  0.51100000000E-03 0. -1.
    9900012    2    1    2    0    0  0.55185333613E+01 -0.69017437890E+01  0.39687270099E+02  0.50528835157E+02  0.29999924945E+02 0.  0.
         12    1    1    2    0    0 -0.55185333613E+01  0.69017437890E+01 -0.39687270099E+02  0.40659164843E+02  0.00000000000E+00 0. -1.
         11    1    3    3    0    0  0.10032928327E+02 -0.35463422034E+01  0.39844532770E+01  0.11362748876E+02  0.51100000000E-03 0. -1.
        -11    1    3    3    0    0 -0.42190474104E+01  0.34758962060E+01  0.41030512422E+01  0.68350014809E+01  0.51100000000E-03 0.  1.
         12    1    3    3    0    0 -0.29534755538E+00 -0.68312977916E+01  0.31599765580E+02  0.32331084801E+02  0.00000000000E+00 0. -1.
</event>
<event>
 7    1  0.2746803E-013  0.5052886E+02  0.7816164E-02  0.1300439E+00
        -11   -1    0    0    0    0  0.00000000000E+00  0.00000000000E+00  0.45593999997E+02  0.45594000000E+02  0.51100000000E-03 0.  1.
         11   -1    0    0    0    0 -0.00000000000E+00 -0.00000000000E+00 -0.45593999997E+02  0.45594000000E+02  0.51100000000E-03 0. -1.
    9900012    2    1    2    0    0 -0.10760238358E+02  0.43082270833E+01  0.38972066109E+02  0.50528862196E+02  0.30000007132E+02 0.  0.
         12    1    1    2    0    0  0.10760238358E+02 -0.43082270833E+01 -0.38972066109E+02  0.40659137804E+02  0.00000000000E+00 0. -1.
         11    1    3    3    0    0  0.45085039539E+01  0.11555656493E+01  0.11001800116E+02  0.11945775234E+02  0.51100000000E-03 0. -1.
        -11    1    3    3    0    0 -0.84715226662E+01  0.33489928474E+01  0.30107220944E+02  0.31455161780E+02  0.51100000000E-03 0.  1.
         12    1    3    3    0    0 -0.67972196459E+01 -0.19633141340E+00 -0.21369549518E+01  0.71279251823E+01  0.00000000000E+00 0. -1.
</event>
<event>
 7    1  0.2746803E-013  0.5052884E+02  0.7816164E-02  0.1300439E+00
        -11   -1    0    0    0    0  0.00000000000E+00  0.00000000000E+00  0.45593999997E+02  0.45594000000E+02  0.51100000000E-03 0.  1.
         11   -1    0    0    0    0 -0.00000000000E+00 -0.00000000000E+00 -0.45593999997E+02  0.45594000000E+02  0.51100000000E-03 0. -1.
    9900012    2    1    2    0    0  0.12237015535E+02 -0.60867514913E+01  0.38293263307E+02  0.50528842267E+02  0.29999946553E+02 0.  0.
         12    1    1    2    0    0 -0.12237015535E+02  0.60867514913E+01 -0.38293263307E+02  0.40659157733E+02  0.00000000000E+00 0. -1.
         11    1    3    3    0    0  0.83945887976E+00 -0.85109189399E+01  0.55793537082E+01  0.10211249702E+02  0.51100000000E-03 0. -1.
        -11    1    3    3    0    0  0.30062739559E+01  0.22555903288E+01 -0.22365585991E+01  0.43735072262E+01  0.51100000000E-03 0.  1.
        -12    1    3    3    0    0  0.83912826992E+01  0.16857711981E+00  0.34950468198E+02  0.35944085338E+02  0.00000000000E+00 0.  1.
</event>
<event>
 7    1  0.2746803E-013  0.5052885E+02  0.7816164E-02  0.1300439E+00
        -11   -1    0    0    0    0  0.00000000000E+00  0.00000000000E+00  0.45593999997E+02  0.45594000000E+02  0.51100000000E-03 0.  1.
         11   -1    0    0    0    0 -0.00000000000E+00 -0.00000000000E+00 -0.45593999997E+02  0.45594000000E+02  0.51100000000E-03 0. -1.
    9900012    2    1    2    0    0 -0.19759179225E+02  0.16031762375E+02  0.31713144993E+02  0.50528854241E+02  0.29999982951E+02 0.  0.
         12    1    1    2    0    0  0.19759179225E+02 -0.16031762375E+02 -0.31713144993E+02  0.40659145759E+02  0.00000000000E+00 0. -1.
         11    1    3    3    0    0 -0.12112568091E+02  0.11387389027E+02  0.48747837392E+01  0.17324850689E+02  0.51100000000E-03 0. -1.
        -11    1    3    3    0    0  0.42174124449E+01  0.50001091877E+01  0.46012652789E+01  0.79974559735E+01  0.51100000000E-03 0.  1.
         12    1    3    3    0    0 -0.11864023579E+02 -0.35573583967E+00  0.22237095974E+02  0.25206547579E+02  0.00000000000E+00 0. -1.
</event>
<event>
 7    1  0.2746803E-013  0.5052886E+02  0.7816164E-02  0.1300439E+00
        -11   -1    0    0    0    0  0.00000000000E+00  0.00000000000E+00  0.45593999997E+02  0.45594000000E+02  0.51100000000E-03 0.  1.
         11   -1    0    0    0    0 -0.00000000000E+00 -0.00000000000E+00 -0.45593999997E+02  0.45594000000E+02  0.51100000000E-03 0. -1.
    9900012    2    1    2    0    0  0.22065071633E+01  0.14397336673E+02  0.37960683225E+02  0.50528862674E+02  0.30000008585E+02 0.  0.
         12    1    1    2    0    0 -0.22065071633E+01 -0.14397336673E+02 -0.37960683225E+02  0.40659137326E+02  0.00000000000E+00 0. -1.
         11    1    3    3    0    0  0.43872014967E+01  0.34872758323E+01  0.47579448365E+01  0.73516439680E+01  0.51100000000E-03 0. -1.
        -11    1    3    3    0    0  0.98180496224E+01  0.12045427564E+02  0.19258985393E+02  0.24746614763E+02  0.51100000000E-03 0.  1.
         12    1    3    3    0    0 -0.11998743956E+02 -0.11353667234E+01  0.13943752995E+02  0.18430603943E+02  0.00000000000E+00 0. -1.
</event>
<event>
 7    1  0.2746803E-013  0.5052886E+02  0.7816164E-02  0.1300439E+00
        -11   -1    0    0    0    0  0.00000000000E+00  0.00000000000E+00  0.45593999997E+02  0.45594000000E+02  0.51100000000E-03 0. -1.
         11   -1    0    0    0    0 -0.00000000000E+00 -0.00000000000E+00 -0.45593999997E+02  0.45594000000E+02  0.51100000000E-03 0.  1.
    9900012    2    1    2    0    0 -0.16432572477E+02  0.32594634560E+02 -0.17908822664E+02  0.50528861181E+02  0.30000004046E+02 0.  0.
         12    1    1    2    0    0  0.16432572477E+02 -0.32594634560E+02  0.17908822664E+02  0.40659138819E+02  0.00000000000E+00 0. -1.
         11    1    3    3    0    0 -0.81591543398E+01  0.11974946637E+02  0.76784707496E+00  0.14510711075E+02  0.51100000000E-03 0. -1.
        -11    1    3    3    0    0  0.59673751408E+01  0.12687078225E+02 -0.55119763378E+01  0.15064972731E+02  0.51100000000E-03 0.  1.
        -12    1    3    3    0    0 -0.14240793278E+02  0.79326096970E+01 -0.13164693401E+02  0.20953177376E+02  0.00000000000E+00 0.  1.
</event>
<event>
 7    1  0.2746803E-013  0.5052886E+02  0.7816164E-02  0.1300439E+00
        -11   -1    0    0    0    0  0.00000000000E+00  0.00000000000E+00  0.45593999997E+02  0.45594000000E+02  0.51100000000E-03 0. -1.
         11   -1    0    0    0    0 -0.00000000000E+00 -0.00000000000E+00 -0.45593999997E+02  0.45594000000E+02  0.51100000000E-03 0.  1.
    9900012    2    1    2    0    0  0.91217453983E+01 -0.19567845816E+02 -0.34453718262E+02  0.50528861654E+02  0.30000005482E+02 0.  0.
         12    1    1    2    0    0 -0.91217453983E+01  0.19567845816E+02  0.34453718262E+02  0.40659138346E+02  0.00000000000E+00 0. -1.
         11    1    3    3    0    0  0.62175010692E+01 -0.32103879962E+01 -0.80389367588E+01  0.10657786595E+02  0.51100000000E-03 0. -1.
        -11    1    3    3    0    0  0.16165195100E+01  0.64991342289E+01 -0.38405577747E+01  0.77202179590E+01  0.51100000000E-03 0.  1.
        -12    1    3    3    0    0  0.12877248192E+01 -0.22856592049E+02 -0.22574223728E+02  0.32150857100E+02  0.00000000000E+00 0.  1.
</event>
<event>
 7    1  0.2746803E-013  0.5052885E+02  0.7816164E-02  0.1300439E+00
        -11   -1    0    0    0    0  0.00000000000E+00  0.00000000000E+00  0.45593999997E+02  0.45594000000E+02  0.51100000000E-03 0.  1.
         11   -1    0    0    0    0 -0.00000000000E+00 -0.00000000000E+00 -0.45593999997E+02  0.45594000000E+02  0.51100000000E-03 0. -1.
    9900012    2    1    2    0    0 -0.13683535836E+02 -0.36038143850E+02  0.12929777892E+02  0.50528854393E+02  0.29999983412E+02 0.  0.
         12    1    1    2    0    0  0.13683535836E+02  0.36038143850E+02 -0.12929777892E+02  0.40659145607E+02  0.00000000000E+00 0. -1.
         11    1    3    3    0    0 -0.15655694356E+02 -0.28268651583E+02  0.96398324380E+01  0.33721562802E+02  0.51100000000E-03 0. -1.
        -11    1    3    3    0    0 -0.51113354657E+01 -0.77020735290E+00  0.43990212823E+01  0.67875148701E+01  0.51100000000E-03 0.  1.
         12    1    3    3    0    0  0.70834939848E+01 -0.69992849144E+01 -0.11090758281E+01  0.10019776721E+02  0.00000000000E+00 0. -1.
</event>
<event>
 7    1  0.2746803E-013  0.5052886E+02  0.7816164E-02  0.1300439E+00
        -11   -1    0    0    0    0  0.00000000000E+00  0.00000000000E+00  0.45593999997E+02  0.45594000000E+02  0.51100000000E-03 0. -1.
         11   -1    0    0    0    0 -0.00000000000E+00 -0.00000000000E+00 -0.45593999997E+02  0.45594000000E+02  0.51100000000E-03 0.  1.
    9900012    2    1    2    0    0 -0.12293440843E+02  0.11497064546E+02 -0.37011544552E+02  0.50528860670E+02  0.30000002492E+02 0.  0.
         12    1    1    2    0    0  0.12293440843E+02 -0.11497064546E+02  0.37011544552E+02  0.40659139330E+02  0.00000000000E+00 0. -1.
         11    1    3    3    0    0  0.39078943292E+01  0.31419574904E+01 -0.28264018975E+01  0.57560475073E+01  0.51100000000E-03 0. -1.
        -11    1    3    3    0    0 -0.62962803321E+01 -0.48806000651E+01 -0.14459643104E+01  0.80965558149E+01  0.51100000000E-03 0.  1.
        -12    1    3    3    0    0 -0.99050548402E+01  0.13235707121E+02 -0.32739178344E+02  0.36676257348E+02  0.00000000000E+00 0.  1.
</event>
<event>
 7    1  0.2746803E-013  0.5052886E+02  0.7816164E-02  0.1300439E+00
        -11   -1    0    0    0    0  0.00000000000E+00  0.00000000000E+00  0.45593999997E+02  0.45594000000E+02  0.51100000000E-03 0.  1.
         11   -1    0    0    0    0 -0.00000000000E+00 -0.00000000000E+00 -0.45593999997E+02  0.45594000000E+02  0.51100000000E-03 0. -1.
    9900012    2    1    2    0    0 -0.38967083045E+01 -0.31272541040E+02  0.25690642744E+02  0.50528864701E+02  0.30000014744E+02 0.  0.
         12    1    1    2    0    0  0.38967083045E+01  0.31272541040E+02 -0.25690642744E+02  0.40659135299E+02  0.00000000000E+00 0. -1.
         11    1    3    3    0    0 -0.39034928292E+01 -0.18695642225E+01 -0.20580681345E+01  0.47925120091E+01  0.51100000000E-03 0. -1.
        -11    1    3    3    0    0 -0.10596224108E+02 -0.13057917834E+02  0.14141768412E+02  0.21972227870E+02  0.51100000000E-03 0.  1.
        -12    1    3    3    0    0  0.10603008633E+02 -0.16345058984E+02  0.13606942467E+02  0.23764124822E+02  0.00000000000E+00 0.  1.
</event>
<event>
 7    1  0.2746803E-013  0.5052885E+02  0.7816164E-02  0.1300439E+00
        -11   -1    0    0    0    0  0.00000000000E+00  0.00000000000E+00  0.45593999997E+02  0.45594000000E+02  0.51100000000E-03 0. -1.
         11   -1    0    0    0    0 -0.00000000000E+00 -0.00000000000E+00 -0.45593999997E+02  0.45594000000E+02  0.51100000000E-03 0.  1.
    9900012    2    1    2    0    0  0.39303949166E+02  0.35471629867E+01 -0.97868974751E+01  0.50528854074E+02  0.29999982443E+02 0.  0.
         12    1    1    2    0    0 -0.39303949166E+02 -0.35471629867E+01  0.97868974751E+01  0.40659145926E+02  0.00000000000E+00 0. -1.
         11    1    3    3    0    0  0.11361390706E+02 -0.76105555441E+01  0.13283230566E+01  0.13739221115E+02  0.51100000000E-03 0. -1.
        -11    1    3    3    0    0 -0.26468983411E+01  0.85280958410E+00 -0.63670695843E+00  0.28528496327E+01  0.51100000000E-03 0.  1.
        -12    1    3    3    0    0  0.30589456801E+02  0.10304908947E+02 -0.10478513573E+02  0.33936783326E+02  0.00000000000E+00 0.  1.
</event>
<event>
 7    1  0.2746803E-013  0.5052886E+02  0.7816164E-02  0.1300439E+00
        -11   -1    0    0    0    0  0.00000000000E+00  0.00000000000E+00  0.45593999997E+02  0.45594000000E+02  0.51100000000E-03 0.  1.
         11   -1    0    0    0    0 -0.00000000000E+00 -0.00000000000E+00 -0.45593999997E+02  0.45594000000E+02  0.51100000000E-03 0. -1.
    9900012    2    1    2    0    0  0.26214473110E+02 -0.19805949964E+02  0.23951854596E+02  0.50528860892E+02  0.30000003167E+02 0.  0.
         12    1    1    2    0    0 -0.26214473110E+02  0.19805949964E+02 -0.23951854596E+02  0.40659139108E+02  0.00000000000E+00 0. -1.
         11    1    3    3    0    0 -0.23342102697E+01 -0.39771462757E+01  0.38438607294E+01  0.60034569749E+01  0.51100000000E-03 0. -1.
        -11    1    3    3    0    0  0.49674595075E+01 -0.12037406427E+02  0.15424646361E+02  0.20186493580E+02  0.51100000000E-03 0.  1.
         12    1    3    3    0    0  0.23581223872E+02 -0.37913972612E+01  0.46833475064E+01  0.24338910337E+02  0.00000000000E+00 0. -1.
</event>
<event>
 7    1  0.2746803E-013  0.5052885E+02  0.7816164E-02  0.1300439E+00
        -11   -1    0    0    0    0  0.00000000000E+00  0.00000000000E+00  0.45593999997E+02  0.45594000000E+02  0.51100000000E-03 0.  1.
         11   -1    0    0    0    0 -0.00000000000E+00 -0.00000000000E+00 -0.45593999997E+02  0.45594000000E+02  0.51100000000E-03 0. -1.
    9900012    2    1    2    0    0 -0.27219713310E+02  0.23751803820E+02  0.18657582812E+02  0.50528851291E+02  0.29999973983E+02 0.  0.
         12    1    1    2    0    0  0.27219713310E+02 -0.23751803820E+02 -0.18657582812E+02  0.40659148709E+02  0.00000000000E+00 0. -1.
         11    1    3    3    0    0 -0.15376857262E+02  0.74143918710E+01  0.14162750565E+01  0.17129704649E+02  0.51100000000E-03 0. -1.
        -11    1    3    3    0    0 -0.10907156615E+02 -0.10114927268E+01  0.89630566358E+01  0.14153641492E+02  0.51100000000E-03 0.  1.
         12    1    3    3    0    0 -0.93569943321E+00  0.17348904676E+02  0.82782511194E+01  0.19245505150E+02  0.00000000000E+00 0. -1.
</event>
<event>
 7    1  0.2746803E-013  0.5052886E+02  0.7816164E-02  0.1300439E+00
        -11   -1    0    0    0    0  0.00000000000E+00  0.00000000000E+00  0.45593999997E+02  0.45594000000E+02  0.51100000000E-03 0.  1.
         11   -1    0    0    0    0 -0.00000000000E+00 -0.00000000000E+00 -0.45593999997E+02  0.45594000000E+02  0.51100000000E-03 0. -1.
    9900012    2    1    2    0    0  0.27042031142E+02 -0.30152180739E+02  0.35693367238E+01  0.50528860606E+02  0.30000002297E+02 0.  0.
         12    1    1    2    0    0 -0.27042031142E+02  0.30152180739E+02 -0.35693367238E+01  0.40659139394E+02  0.00000000000E+00 0. -1.
         11    1    3    3    0    0  0.13872994667E+02 -0.17552396385E+02  0.83299512662E+01  0.23873304929E+02  0.51100000000E-03 0. -1.
        -11    1    3    3    0    0  0.17685693079E+02 -0.12463511868E+02 -0.46779846258E+01  0.22136088367E+02  0.51100000000E-03 0.  1.
         12    1    3    3    0    0 -0.45166566034E+01 -0.13627248657E+00 -0.82629916556E-01  0.45194673101E+01  0.00000000000E+00 0. -1.
</event>
<event>
 7    1  0.2746803E-013  0.5052884E+02  0.7816164E-02  0.1300439E+00
        -11   -1    0    0    0    0  0.00000000000E+00  0.00000000000E+00  0.45593999997E+02  0.45594000000E+02  0.51100000000E-03 0.  1.
         11   -1    0    0    0    0 -0.00000000000E+00 -0.00000000000E+00 -0.45593999997E+02  0.45594000000E+02  0.51100000000E-03 0. -1.
    9900012    2    1    2    0    0  0.17967445877E+02  0.14828455585E+02  0.33323490044E+02  0.50528841191E+02  0.29999943284E+02 0.  0.
         12    1    1    2    0    0 -0.17967445877E+02 -0.14828455585E+02 -0.33323490044E+02  0.40659158809E+02  0.00000000000E+00 0. -1.
         11    1    3    3    0    0  0.16834372046E+02  0.92209235314E+00  0.71195127623E+01  0.18301196648E+02  0.51100000000E-03 0. -1.
        -11    1    3    3    0    0  0.32371039970E+01  0.35063692607E+00  0.12188668140E+02  0.12616077830E+02  0.51100000000E-03 0.  1.
         12    1    3    3    0    0 -0.21040301657E+01  0.13555726305E+02  0.14015309142E+02  0.19611566713E+02  0.00000000000E+00 0. -1.
</event>
<event>
 7    1  0.2746803E-013  0.5052886E+02  0.7816164E-02  0.1300439E+00
        -11   -1    0    0    0    0  0.00000000000E+00  0.00000000000E+00  0.45593999997E+02  0.45594000000E+02  0.51100000000E-03 0. -1.
         11   -1    0    0    0    0 -0.00000000000E+00 -0.00000000000E+00 -0.45593999997E+02  0.45594000000E+02  0.51100000000E-03 0.  1.
    9900012    2    1    2    0    0  0.32826506285E+02  0.22261934100E+02 -0.89438492937E+01  0.50528860007E+02  0.30000000479E+02 0.  0.
         12    1    1    2    0    0 -0.32826506285E+02 -0.22261934100E+02  0.89438492937E+01  0.40659139993E+02  0.00000000000E+00 0. -1.
         11    1    3    3    0    0  0.12940570306E+02  0.13274906973E+02 -0.10701034695E+01  0.18569508251E+02  0.51100000000E-03 0. -1.
        -11    1    3    3    0    0  0.17875671224E+02  0.90141860027E+01 -0.14703883834E+02  0.24839472037E+02  0.51100000000E-03 0.  1.
         12    1    3    3    0    0  0.20102647556E+01 -0.27158875803E-01  0.68301380100E+01  0.71198797201E+01  0.00000000000E+00 0. -1.
</event>
<event>
 7    1  0.2746803E-013  0.5052885E+02  0.7816164E-02  0.1300439E+00
        -11   -1    0    0    0    0  0.00000000000E+00  0.00000000000E+00  0.45593999997E+02  0.45594000000E+02  0.51100000000E-03 0. -1.
         11   -1    0    0    0    0 -0.00000000000E+00 -0.00000000000E+00 -0.45593999997E+02  0.45594000000E+02  0.51100000000E-03 0.  1.
    9900012    2    1    2    0    0 -0.14171229434E+02 -0.29651006976E+02 -0.23940766269E+02  0.50528852838E+02  0.29999978687E+02 0.  0.
         12    1    1    2    0    0  0.14171229434E+02  0.29651006976E+02  0.23940766269E+02  0.40659147162E+02  0.00000000000E+00 0. -1.
         11    1    3    3    0    0  0.52978550038E+01 -0.62598303331E+00  0.46086973152E+00  0.53545796819E+01  0.51100000000E-03 0. -1.
        -11    1    3    3    0    0 -0.51416548474E+01 -0.20928630537E+02 -0.14322059091E+02  0.25875965056E+02  0.51100000000E-03 0.  1.
         12    1    3    3    0    0 -0.14327429591E+02 -0.80963934058E+01 -0.10079576910E+02  0.19298308100E+02  0.00000000000E+00 0. -1.
</event>
<event>
 7    1  0.2746803E-013  0.5052886E+02  0.7816164E-02  0.1300439E+00
        -11   -1    0    0    0    0  0.00000000000E+00  0.00000000000E+00  0.45593999997E+02  0.45594000000E+02  0.51100000000E-03 0. -1.
         11   -1    0    0    0    0 -0.00000000000E+00 -0.00000000000E+00 -0.45593999997E+02  0.45594000000E+02  0.51100000000E-03 0.  1.
    9900012    2    1    2    0    0 -0.19711391645E+02  0.35148551790E+02 -0.54042832661E+01  0.50528856734E+02  0.29999990529E+02 0.  0.
         12    1    1    2    0    0  0.19711391645E+02 -0.35148551790E+02  0.54042832661E+01  0.40659143266E+02  0.00000000000E+00 0. -1.
         11    1    3    3    0    0 -0.99754517892E+01  0.25538685208E+02  0.51465509157E+01  0.27896613901E+02  0.51100000000E-03 0. -1.
        -11    1    3    3    0    0 -0.78455819504E+01  0.10490243855E+02 -0.13166843267E+01  0.13165562280E+02  0.51100000000E-03 0.  1.
        -12    1    3    3    0    0 -0.18903579052E+01 -0.88037727302E+00 -0.92341498551E+01  0.94666805533E+01  0.00000000000E+00 0.  1.
</event>
<event>
 7    1  0.2746803E-013  0.5052886E+02  0.7816164E-02  0.1300439E+00
        -11   -1    0    0    0    0  0.00000000000E+00  0.00000000000E+00  0.45593999997E+02  0.45594000000E+02  0.51100000000E-03 0. -1.
         11   -1    0    0    0    0 -0.00000000000E+00 -0.00000000000E+00 -0.45593999997E+02  0.45594000000E+02  0.51100000000E-03 0.  1.
    9900012    2    1    2    0    0  0.39872801873E+02 -0.78122723331E+01  0.15143982097E+01  0.50528864125E+02  0.30000012993E+02 0.  0.
         12    1    1    2    0    0 -0.39872801873E+02  0.78122723331E+01 -0.15143982097E+01  0.40659135875E+02  0.00000000000E+00 0. -1.
         11    1    3    3    0    0  0.33923541137E+01  0.33994185120E+01 -0.14431453129E+01  0.50146566490E+01  0.51100000000E-03 0. -1.
        -11    1    3    3    0    0  0.36339832521E+02 -0.13434671636E+02  0.83909822420E+01  0.39641927462E+02  0.51100000000E-03 0.  1.
         12    1    3    3    0    0  0.14061523815E+00  0.22229807914E+01 -0.54334387194E+01  0.58722800139E+01  0.00000000000E+00 0. -1.
</event>
<event>
 7    1  0.2746803E-013  0.5052886E+02  0.7816164E-02  0.1300439E+00
        -11   -1    0    0    0    0  0.00000000000E+00  0.00000000000E+00  0.45593999997E+02  0.45594000000E+02  0.51100000000E-03 0. -1.
         11   -1    0    0    0    0 -0.00000000000E+00 -0.00000000000E+00 -0.45593999997E+02  0.45594000000E+02  0.51100000000E-03 0.  1.
    9900012    2    1    2    0    0  0.27901297243E+02 -0.17076975369E+02 -0.24146641667E+02  0.50528858600E+02  0.29999996200E+02 0.  0.
         12    1    1    2    0    0 -0.27901297243E+02  0.17076975369E+02  0.24146641667E+02  0.40659141400E+02  0.00000000000E+00 0. -1.
         11    1    3    3    0    0  0.10720070528E+02 -0.85196837034E+01 -0.22853963928E+02  0.26642233203E+02  0.51100000000E-03 0. -1.
        -11    1    3    3    0    0  0.49600551849E+00 -0.70822065624E+01 -0.25180561231E+00  0.71040184118E+01  0.51100000000E-03 0.  1.
        -12    1    3    3    0    0  0.16685221197E+02 -0.14750851034E+01 -0.10408721269E+01  0.16782606986E+02  0.00000000000E+00 0.  1.
</event>
<event>
 7    1  0.2746803E-013  0.5052886E+02  0.7816164E-02  0.1300439E+00
        -11   -1    0    0    0    0  0.00000000000E+00  0.00000000000E+00  0.45593999997E+02  0.45594000000E+02  0.51100000000E-03 0. -1.
         11   -1    0    0    0    0 -0.00000000000E+00 -0.00000000000E+00 -0.45593999997E+02  0.45594000000E+02  0.51100000000E-03 0.  1.
    9900012    2    1    2    0    0 -0.34878863510E+02  0.68268367230E+01 -0.19749045876E+02  0.50528860408E+02  0.30000001695E+02 0.  0.
         12    1    1    2    0    0  0.34878863510E+02 -0.68268367230E+01  0.19749045876E+02  0.40659139592E+02  0.00000000000E+00 0. -1.
         11    1    3    3    0    0 -0.25666125185E+01  0.46158373552E+01 -0.13269227788E+01  0.54455650425E+01  0.51100000000E-03 0. -1.
        -11    1    3    3    0    0 -0.15777376833E+02 -0.16383862479E+01 -0.22589309692E+02  0.27602297764E+02  0.51100000000E-03 0.  1.
         12    1    3    3    0    0 -0.16534874158E+02  0.38493856157E+01  0.41671865944E+01  0.17480997601E+02  0.00000000000E+00 0. -1.
</event>
<event>
 7    1  0.2746803E-013  0.5052886E+02  0.7816164E-02  0.1300439E+00
        -11   -1    0    0    0    0  0.00000000000E+00  0.00000000000E+00  0.45593999997E+02  0.45594000000E+02  0.51100000000E-03 0.  1.
         11   -1    0    0    0    0 -0.00000000000E+00 -0.00000000000E+00 -0.45593999997E+02  0.45594000000E+02  0.51100000000E-03 0. -1.
    9900012    2    1    2    0    0  0.33934528131E+02  0.22264572713E+02  0.24294783248E+01  0.50528858807E+02  0.29999996831E+02 0.  0.
         12    1    1    2    0    0 -0.33934528131E+02 -0.22264572713E+02 -0.24294783248E+01  0.40659141193E+02  0.00000000000E+00 0. -1.
         11    1    3    3    0    0  0.10001664136E+02  0.16666032797E+02 -0.64773974557E+01  0.20487718583E+02  0.51100000000E-03 0. -1.
        -11    1    3    3    0    0  0.14936141284E+02  0.10313700425E+02  0.33318912159E+01  0.18454328279E+02  0.51100000000E-03 0.  1.
         12    1    3    3    0    0  0.89967227116E+01 -0.47151605081E+01  0.55749845646E+01  0.11586811946E+02  0.00000000000E+00 0. -1.
</event>
<event>
 7    1  0.2746803E-013  0.5052886E+02  0.7816164E-02  0.1300439E+00
        -11   -1    0    0    0    0  0.00000000000E+00  0.00000000000E+00  0.45593999997E+02  0.45594000000E+02  0.51100000000E-03 0.  1.
         11   -1    0    0    0    0 -0.00000000000E+00 -0.00000000000E+00 -0.45593999997E+02  0.45594000000E+02  0.51100000000E-03 0. -1.
    9900012    2    1    2    0    0  0.39115949574E+02 -0.95452091076E+01 -0.56566103960E+01  0.50528858726E+02  0.29999996583E+02 0.  0.
         12    1    1    2    0    0 -0.39115949574E+02  0.95452091076E+01  0.56566103960E+01  0.40659141274E+02  0.00000000000E+00 0. -1.
         11    1    3    3    0    0  0.14452074893E+02 -0.67926484860E+00 -0.14709266213E+02  0.20632168626E+02  0.51100000000E-03 0. -1.
        -11    1    3    3    0    0  0.85606766014E+01 -0.82515265829E+01  0.11417416584E+01  0.11944724739E+02  0.51100000000E-03 0.  1.
        -12    1    3    3    0    0  0.16103198080E+02 -0.61441767606E+00  0.79109141585E+01  0.17951965360E+02  0.00000000000E+00 0.  1.
</event>
<event>
 7    1  0.2746803E-013  0.5052887E+02  0.7816164E-02  0.1300439E+00
        -11   -1    0    0    0    0  0.00000000000E+00  0.00000000000E+00  0.45593999997E+02  0.45594000000E+02  0.51100000000E-03 0.  1.
         11   -1    0    0    0    0 -0.00000000000E+00 -0.00000000000E+00 -0.45593999997E+02  0.45594000000E+02  0.51100000000E-03 0. -1.
    9900012    2    1    2    0    0 -0.39066962420E+00  0.32458107116E+02  0.24484350373E+02  0.50528871215E+02  0.30000034546E+02 0.  0.
         12    1    1    2    0    0  0.39066962420E+00 -0.32458107116E+02 -0.24484350373E+02  0.40659128785E+02  0.00000000000E+00 0. -1.
         11    1    3    3    0    0  0.64433648604E+01  0.26720659917E+01  0.26695543475E+01  0.74688290959E+01  0.51100000000E-03 0. -1.
        -11    1    3    3    0    0  0.44152115172E+01  0.23792695024E+02  0.12240922448E+02  0.27118750190E+02  0.51100000000E-03 0.  1.
        -12    1    3    3    0    0 -0.11249246002E+02  0.59933461012E+01  0.95738735781E+01  0.15941291930E+02  0.00000000000E+00 0.  1.
</event>
<event>
 7    1  0.2746803E-013  0.5052895E+02  0.7816164E-02  0.1300438E+00
        -11   -1    0    0    0    0  0.00000000000E+00  0.00000000000E+00  0.45593999997E+02  0.45594000000E+02  0.51100000000E-03 0. -1.
         11   -1    0    0    0    0 -0.00000000000E+00 -0.00000000000E+00 -0.45593999997E+02  0.45594000000E+02  0.51100000000E-03 0.  1.
    9900012    2    1    2    0    0  0.61871549152E+01 -0.25796090776E+02 -0.30812973480E+02  0.50528947872E+02  0.30000267551E+02 0.  0.
         12    1    1    2    0    0 -0.61871549152E+01  0.25796090776E+02  0.30812973480E+02  0.40659052128E+02  0.00000000000E+00 0. -1.
         11    1    3    3    0    0  0.97716967581E+01 -0.10536020707E+02 -0.14847305652E+02  0.20662436334E+02  0.51100000000E-03 0.  1.
        -11    1    3    3    0    0  0.65102107884E+01 -0.94186769615E+00 -0.67391349038E+00  0.66124215625E+01  0.51100000000E-03 0. -1.
        -12    1    3    3    0    0 -0.10094752631E+02 -0.14318202373E+02 -0.15291754338E+02  0.23254089976E+02  0.00000000000E+00 0.  1.
</event>
<event>
 7    1  0.2746803E-013  0.5052886E+02  0.7816164E-02  0.1300439E+00
        -11   -1    0    0    0    0  0.00000000000E+00  0.00000000000E+00  0.45593999997E+02  0.45594000000E+02  0.51100000000E-03 0. -1.
         11   -1    0    0    0    0 -0.00000000000E+00 -0.00000000000E+00 -0.45593999997E+02  0.45594000000E+02  0.51100000000E-03 0.  1.
    9900012    2    1    2    0    0  0.39337140375E+01  0.36915720904E+01 -0.40299680198E+02  0.50528855461E+02  0.29999986659E+02 0.  0.
         12    1    1    2    0    0 -0.39337140375E+01 -0.36915720904E+01  0.40299680198E+02  0.40659144539E+02  0.00000000000E+00 0. -1.
         11    1    3    3    0    0 -0.13684649551E+01  0.15368805654E+01  0.15575219284E+01  0.25808085989E+01  0.51100000000E-03 0. -1.
        -11    1    3    3    0    0 -0.69702863338E+01 -0.30525303226E+01 -0.26695355046E+02  0.27758688987E+02  0.51100000000E-03 0.  1.
         12    1    3    3    0    0  0.12272465326E+02  0.52072218476E+01 -0.15161847080E+02  0.20189357875E+02  0.00000000000E+00 0. -1.
</event>
<event>
 7    1  0.2746803E-013  0.5052884E+02  0.7816164E-02  0.1300439E+00
        -11   -1    0    0    0    0  0.00000000000E+00  0.00000000000E+00  0.45593999997E+02  0.45594000000E+02  0.51100000000E-03 0.  1.
         11   -1    0    0    0    0 -0.00000000000E+00 -0.00000000000E+00 -0.45593999997E+02  0.45594000000E+02  0.51100000000E-03 0. -1.
    9900012    2    1    2    0    0  0.10456717215E+02  0.34944556984E+02  0.17963911077E+02  0.50528842373E+02  0.29999946877E+02 0.  0.
         12    1    1    2    0    0 -0.10456717215E+02 -0.34944556984E+02 -0.17963911077E+02  0.40659157627E+02  0.00000000000E+00 0. -1.
         11    1    3    3    0    0  0.34023159586E+01  0.30672321605E+01 -0.29987564802E+01  0.54750532141E+01  0.51100000000E-03 0.  1.
        -11    1    3    3    0    0  0.80191253069E+01  0.26991074870E+02  0.53434140968E+01  0.28659667964E+02  0.51100000000E-03 0. -1.
        -12    1    3    3    0    0 -0.96472405038E+00  0.48862499540E+01  0.15619253461E+02  0.16394121195E+02  0.00000000000E+00 0.  1.
</event>
<event>
 7    1  0.2746803E-013  0.5052886E+02  0.7816164E-02  0.1300439E+00
        -11   -1    0    0    0    0  0.00000000000E+00  0.00000000000E+00  0.45593999997E+02  0.45594000000E+02  0.51100000000E-03 0. -1.
         11   -1    0    0    0    0 -0.00000000000E+00 -0.00000000000E+00 -0.45593999997E+02  0.45594000000E+02  0.51100000000E-03 0.  1.
    9900012    2    1    2    0    0 -0.11449739951E+02  0.82318715664E+01 -0.38135355663E+02  0.50528860732E+02  0.30000002682E+02 0.  0.
         12    1    1    2    0    0  0.11449739951E+02 -0.82318715664E+01  0.38135355663E+02  0.40659139268E+02  0.00000000000E+00 0. -1.
         11    1    3    3    0    0 -0.24512120211E+01  0.62826988885E+01  0.22357041794E+01  0.71048658774E+01  0.51100000000E-03 0. -1.
        -11    1    3    3    0    0 -0.69309755838E+01  0.46007795856E+01 -0.10653186101E+02  0.13516507304E+02  0.51100000000E-03 0.  1.
         12    1    3    3    0    0 -0.20675523461E+01 -0.26516069078E+01 -0.29717873741E+02  0.29907487551E+02  0.00000000000E+00 0. -1.
</event>
<event>
 7    1  0.2746803E-013  0.5052886E+02  0.7816164E-02  0.1300439E+00
        -11   -1    0    0    0    0  0.00000000000E+00  0.00000000000E+00  0.45593999997E+02  0.45594000000E+02  0.51100000000E-03 0. -1.
         11   -1    0    0    0    0 -0.00000000000E+00 -0.00000000000E+00 -0.45593999997E+02  0.45594000000E+02  0.51100000000E-03 0.  1.
    9900012    2    1    2    0    0  0.62412156009E+01  0.32692608105E+02 -0.23353932280E+02  0.50528861423E+02  0.30000004783E+02 0.  0.
         12    1    1    2    0    0 -0.62412156009E+01 -0.32692608105E+02  0.23353932280E+02  0.40659138577E+02  0.00000000000E+00 0. -1.
         11    1    3    3    0    0 -0.54286726684E+01  0.45100925286E+01 -0.45877619951E+01  0.84177777318E+01  0.51100000000E-03 0. -1.
        -11    1    3    3    0    0  0.16575328675E+01  0.27570149617E+02 -0.14689700571E+02  0.31283348098E+02  0.51100000000E-03 0.  1.
         12    1    3    3    0    0  0.10012355402E+02  0.61236595950E+00 -0.40764697132E+01  0.10827735594E+02  0.00000000000E+00 0. -1.
</event>
<event>
 7    1  0.2746803E-013  0.5052885E+02  0.7816164E-02  0.1300439E+00
        -11   -1    0    0    0    0  0.00000000000E+00  0.00000000000E+00  0.45593999997E+02  0.45594000000E+02  0.51100000000E-03 0. -1.
         11   -1    0    0    0    0 -0.00000000000E+00 -0.00000000000E+00 -0.45593999997E+02  0.45594000000E+02  0.51100000000E-03 0.  1.
    9900012    2    1    2    0    0 -0.71286646930E+01 -0.14136970045E+02 -0.37449890658E+02  0.50528854748E+02  0.29999984491E+02 0.  0.
         12    1    1    2    0    0  0.71286646930E+01  0.14136970045E+02  0.37449890658E+02  0.40659145252E+02  0.00000000000E+00 0. -1.
         11    1    3    3    0    0  0.57051262923E+01 -0.86825324214E+00 -0.50355041911E+01  0.76588923758E+01  0.51100000000E-03 0. -1.
        -11    1    3    3    0    0 -0.74312935535E+01 -0.56754974538E+01 -0.21927243381E+00  0.93532601743E+01  0.51100000000E-03 0.  1.
         12    1    3    3    0    0 -0.54024974318E+01 -0.75932193487E+01 -0.32195114033E+02  0.33516702197E+02  0.00000000000E+00 0. -1.
</event>
<event>
 7    1  0.2746803E-013  0.5052885E+02  0.7816164E-02  0.1300439E+00
        -11   -1    0    0    0    0  0.00000000000E+00  0.00000000000E+00  0.45593999997E+02  0.45594000000E+02  0.51100000000E-03 0.  1.
         11   -1    0    0    0    0 -0.00000000000E+00 -0.00000000000E+00 -0.45593999997E+02  0.45594000000E+02  0.51100000000E-03 0. -1.
    9900012    2    1    2    0    0  0.33868831538E+02  0.21213068166E+02  0.74882681507E+01  0.50528853788E+02  0.29999981575E+02 0.  0.
         12    1    1    2    0    0 -0.33868831538E+02 -0.21213068166E+02 -0.74882681507E+01  0.40659146212E+02  0.00000000000E+00 0. -1.
         11    1    3    3    0    0  0.15280818111E+02  0.17199936610E+01 -0.22405957593E+01  0.15539692724E+02  0.51100000000E-03 0. -1.
        -11    1    3    3    0    0  0.29633196911E+01  0.10169948233E+02 -0.48726778195E+01  0.11659849915E+02  0.51100000000E-03 0.  1.
        -12    1    3    3    0    0  0.15624693736E+02  0.93231262723E+01  0.14601541730E+02  0.23329311149E+02  0.00000000000E+00 0.  1.
</event>
<event>
 7    1  0.2746803E-013  0.5052887E+02  0.7816164E-02  0.1300439E+00
        -11   -1    0    0    0    0  0.00000000000E+00  0.00000000000E+00  0.45593999997E+02  0.45594000000E+02  0.51100000000E-03 0.  1.
         11   -1    0    0    0    0 -0.00000000000E+00 -0.00000000000E+00 -0.45593999997E+02  0.45594000000E+02  0.51100000000E-03 0. -1.
    9900012    2    1    2    0    0 -0.24726388346E+02 -0.13010379172E+02  0.29538125727E+02  0.50528866729E+02  0.30000020911E+02 0.  0.
         12    1    1    2    0    0  0.24726388346E+02  0.13010379172E+02 -0.29538125727E+02  0.40659133271E+02  0.00000000000E+00 0. -1.
         11    1    3    3    0    0 -0.62931985662E+01  0.67926425328E+01  0.59670867969E+01  0.11015918749E+02  0.51100000000E-03 0. -1.
        -11    1    3    3    0    0 -0.44669634048E+01 -0.57216808443E+01  0.17221056840E+02  0.18688397275E+02  0.51100000000E-03 0.  1.
         12    1    3    3    0    0 -0.13966226375E+02 -0.14081340860E+02  0.63499820905E+01  0.20824550706E+02  0.00000000000E+00 0. -1.
</event>
<event>
 7    1  0.2746803E-013  0.5052886E+02  0.7816164E-02  0.1300439E+00
        -11   -1    0    0    0    0  0.00000000000E+00  0.00000000000E+00  0.45593999997E+02  0.45594000000E+02  0.51100000000E-03 0.  1.
         11   -1    0    0    0    0 -0.00000000000E+00 -0.00000000000E+00 -0.45593999997E+02  0.45594000000E+02  0.51100000000E-03 0. -1.
    9900012    2    1    2    0    0 -0.37958611492E+01 -0.29422546064E+02  0.27804151733E+02  0.50528860408E+02  0.30000001697E+02 0.  0.
         12    1    1    2    0    0  0.37958611492E+01  0.29422546064E+02 -0.27804151733E+02  0.40659139592E+02  0.00000000000E+00 0. -1.
         11    1    3    3    0    0  0.45694573545E+01 -0.18148590505E+02  0.42318426931E+01  0.19187489952E+02  0.51100000000E-03 0. -1.
        -11    1    3    3    0    0  0.41052395329E+01 -0.40480544169E+01  0.10005771613E+02  0.11547952287E+02  0.51100000000E-03 0.  1.
         12    1    3    3    0    0 -0.12470558037E+02 -0.72259011423E+01  0.13566537426E+02  0.19793418169E+02  0.00000000000E+00 0. -1.
</event>
<event>
 7    1  0.2746803E-013  0.5052886E+02  0.7816164E-02  0.1300439E+00
        -11   -1    0    0    0    0  0.00000000000E+00  0.00000000000E+00  0.45593999997E+02  0.45594000000E+02  0.51100000000E-03 0.  1.
         11   -1    0    0    0    0 -0.00000000000E+00 -0.00000000000E+00 -0.45593999997E+02  0.45594000000E+02  0.51100000000E-03 0. -1.
    9900012    2    1    2    0    0  0.14196866953E+02 -0.34130925240E+02  0.16932056882E+02  0.50528860323E+02  0.30000001438E+02 0.  0.
         12    1    1    2    0    0 -0.14196866953E+02  0.34130925240E+02 -0.16932056882E+02  0.40659139677E+02  0.00000000000E+00 0. -1.
         11    1    3    3    0    0  0.20444429027E+01 -0.21003501469E+01  0.10353865934E+02  0.10760750790E+02  0.51100000000E-03 0. -1.
        -11    1    3    3    0    0  0.51836838388E+01 -0.16215495106E+02  0.12906769669E+02  0.21363463278E+02  0.51100000000E-03 0.  1.
        -12    1    3    3    0    0  0.69687402110E+01 -0.15815079987E+02 -0.63285787215E+01  0.18404646255E+02  0.00000000000E+00 0.  1.
</event>
<event>
 7    1  0.2746803E-013  0.5052886E+02  0.7816164E-02  0.1300439E+00
        -11   -1    0    0    0    0  0.00000000000E+00  0.00000000000E+00  0.45593999997E+02  0.45594000000E+02  0.51100000000E-03 0.  1.
         11   -1    0    0    0    0 -0.00000000000E+00 -0.00000000000E+00 -0.45593999997E+02  0.45594000000E+02  0.51100000000E-03 0. -1.
    9900012    2    1    2    0    0 -0.10555535152E+02 -0.26249128972E+02  0.29201538645E+02  0.50528856461E+02  0.29999989698E+02 0.  0.
         12    1    1    2    0    0  0.10555535152E+02  0.26249128972E+02 -0.29201538645E+02  0.40659143539E+02  0.00000000000E+00 0. -1.
         11    1    3    3    0    0 -0.11952909404E+02 -0.81576376809E+01  0.66392454807E+01  0.15921641767E+02  0.51100000000E-03 0. -1.
        -11    1    3    3    0    0 -0.41896970259E+00 -0.41127836810E+01 -0.32085383558E+01  0.52330912337E+01  0.51100000000E-03 0.  1.
        -12    1    3    3    0    0  0.18163439541E+01 -0.13978707610E+02  0.25770831520E+02  0.29374123460E+02  0.00000000000E+00 0.  1.
</event>
<event>
 7    1  0.2746803E-013  0.5052886E+02  0.7816164E-02  0.1300439E+00
        -11   -1    0    0    0    0  0.00000000000E+00  0.00000000000E+00  0.45593999997E+02  0.45594000000E+02  0.51100000000E-03 0. -1.
         11   -1    0    0    0    0 -0.00000000000E+00 -0.00000000000E+00 -0.45593999997E+02  0.45594000000E+02  0.51100000000E-03 0.  1.
    9900012    2    1    2    0    0 -0.20085814308E+02  0.28352322579E+02 -0.21115664470E+02  0.50528863043E+02  0.30000009707E+02 0.  0.
         12    1    1    2    0    0  0.20085814308E+02 -0.28352322579E+02  0.21115664470E+02  0.40659136957E+02  0.00000000000E+00 0. -1.
         11    1    3    3    0    0 -0.97732921627E+01  0.79997461184E+01 -0.22222111847E+02  0.25560427087E+02  0.51100000000E-03 0. -1.
        -11    1    3    3    0    0 -0.65933792088E+01  0.46138122896E+01 -0.24455337953E+01  0.84107401006E+01  0.51100000000E-03 0.  1.
         12    1    3    3    0    0 -0.37191429364E+01  0.15738764171E+02  0.35519811723E+01  0.16557695856E+02  0.00000000000E+00 0. -1.
</event>
<event>
 7    1  0.2746803E-013  0.5052886E+02  0.7816164E-02  0.1300439E+00
        -11   -1    0    0    0    0  0.00000000000E+00  0.00000000000E+00  0.45593999997E+02  0.45594000000E+02  0.51100000000E-03 0.  1.
         11   -1    0    0    0    0 -0.00000000000E+00 -0.00000000000E+00 -0.45593999997E+02  0.45594000000E+02  0.51100000000E-03 0. -1.
    9900012    2    1    2    0    0  0.37312769242E+02  0.15235687446E+02  0.53662675865E+01  0.50528858982E+02  0.29999997363E+02 0.  0.
         12    1    1    2    0    0 -0.37312769242E+02 -0.15235687446E+02 -0.53662675865E+01  0.40659141018E+02  0.00000000000E+00 0. -1.
         11    1    3    3    0    0  0.16400547029E+02 -0.15175434656E+01 -0.20135062285E+01  0.16593224178E+02  0.51100000000E-03 0. -1.
        -11    1    3    3    0    0  0.27699685060E+01  0.59552534015E+01 -0.60367946939E+01  0.89207992376E+01  0.51100000000E-03 0.  1.
        -12    1    3    3    0    0  0.18142253707E+02  0.10797977510E+02  0.13416568509E+02  0.25014835567E+02  0.00000000000E+00 0.  1.
</event>
<event>
 7    1  0.2746803E-013  0.5052886E+02  0.7816164E-02  0.1300439E+00
        -11   -1    0    0    0    0  0.00000000000E+00  0.00000000000E+00  0.45593999997E+02  0.45594000000E+02  0.51100000000E-03 0.  1.
         11   -1    0    0    0    0 -0.00000000000E+00 -0.00000000000E+00 -0.45593999997E+02  0.45594000000E+02  0.51100000000E-03 0. -1.
    9900012    2    1    2    0    0 -0.25453333627E+01 -0.25838410161E+02  0.31289993075E+02  0.50528857999E+02  0.29999994375E+02 0.  0.
         12    1    1    2    0    0  0.25453333627E+01  0.25838410161E+02 -0.31289993075E+02  0.40659142001E+02  0.00000000000E+00 0. -1.
         11    1    3    3    0    0  0.16696899926E+01 -0.80916934450E+01  0.14414803547E+01  0.83869680668E+01  0.51100000000E-03 0.  1.
        -11    1    3    3    0    0 -0.85792508521E+01 -0.26839604455E+01  0.66767845209E+00  0.90140436893E+01  0.51100000000E-03 0. -1.
         12    1    3    3    0    0  0.43642274967E+01 -0.15062756270E+02  0.29180834269E+02  0.33127846243E+02  0.00000000000E+00 0. -1.
</event>
<event>
 7    1  0.2746803E-013  0.5052886E+02  0.7816164E-02  0.1300439E+00
        -11   -1    0    0    0    0  0.00000000000E+00  0.00000000000E+00  0.45593999997E+02  0.45594000000E+02  0.51100000000E-03 0. -1.
         11   -1    0    0    0    0 -0.00000000000E+00 -0.00000000000E+00 -0.45593999997E+02  0.45594000000E+02  0.51100000000E-03 0.  1.
    9900012    2    1    2    0    0  0.52325334721E-01 -0.31329603475E+02 -0.25915605049E+02  0.50528863549E+02  0.30000011244E+02 0.  0.
         12    1    1    2    0    0 -0.52325334721E-01  0.31329603475E+02  0.25915605049E+02  0.40659136451E+02  0.00000000000E+00 0. -1.
         11    1    3    3    0    0  0.79575131667E+00 -0.13752211263E+02 -0.11412425794E+02  0.17888543751E+02  0.51100000000E-03 0.  1.
        -11    1    3    3    0    0 -0.55671044172E+00 -0.18955188751E+02 -0.91947260122E+00  0.18985640290E+02  0.51100000000E-03 0. -1.
        -12    1    3    3    0    0 -0.18671554023E+00  0.13777965385E+01 -0.13583706654E+02  0.13654679507E+02  0.00000000000E+00 0.  1.
</event>
<event>
 7    1  0.2746803E-013  0.5052886E+02  0.7816164E-02  0.1300439E+00
        -11   -1    0    0    0    0  0.00000000000E+00  0.00000000000E+00  0.45593999997E+02  0.45594000000E+02  0.51100000000E-03 0.  1.
         11   -1    0    0    0    0 -0.00000000000E+00 -0.00000000000E+00 -0.45593999997E+02  0.45594000000E+02  0.51100000000E-03 0. -1.
    9900012    2    1    2    0    0  0.12179828261E+02 -0.26414110378E+02  0.28409723529E+02  0.50528857923E+02  0.29999994141E+02 0.  0.
         12    1    1    2    0    0 -0.12179828261E+02  0.26414110378E+02 -0.28409723529E+02  0.40659142077E+02  0.00000000000E+00 0. -1.
         11    1    3    3    0    0 -0.14163169761E+01  0.36823104993E+01  0.40286848015E+01  0.56387645705E+01  0.51100000000E-03 0. -1.
        -11    1    3    3    0    0  0.11109633278E+02 -0.14982682112E+02  0.22850928414E+02  0.29496942968E+02  0.51100000000E-03 0.  1.
        -12    1    3    3    0    0  0.24865119591E+01 -0.15113738765E+02  0.15301103136E+01  0.15393150384E+02  0.00000000000E+00 0.  1.
</event>
<event>
 7    1  0.2746803E-013  0.5052887E+02  0.7816164E-02  0.1300439E+00
        -11   -1    0    0    0    0  0.00000000000E+00  0.00000000000E+00  0.45593999997E+02  0.45594000000E+02  0.51100000000E-03 0. -1.
         11   -1    0    0    0    0 -0.00000000000E+00 -0.00000000000E+00 -0.45593999997E+02  0.45594000000E+02  0.51100000000E-03 0.  1.
    9900012    2    1    2    0    0  0.25469918273E+02 -0.16875418384E+02 -0.26826642318E+02  0.50528865472E+02  0.30000017089E+02 0.  0.
         12    1    1    2    0    0 -0.25469918273E+02  0.16875418384E+02  0.26826642318E+02  0.40659134528E+02  0.00000000000E+00 0. -1.
         11    1    3    3    0    0  0.13647685491E+02 -0.69880613214E+01 -0.21795901129E+01  0.15486863259E+02  0.51100000000E-03 0. -1.
        -11    1    3    3    0    0  0.11691539805E+02 -0.78383059964E+01 -0.44813686112E+01  0.14772061766E+02  0.51100000000E-03 0.  1.
        -12    1    3    3    0    0  0.13069297725E+00 -0.20490510658E+01 -0.20165683594E+02  0.20269940447E+02  0.00000000000E+00 0.  1.
</event>
<event>
 7    1  0.2746803E-013  0.5052886E+02  0.7816164E-02  0.1300439E+00
        -11   -1    0    0    0    0  0.00000000000E+00  0.00000000000E+00  0.45593999997E+02  0.45594000000E+02  0.51100000000E-03 0.  1.
         11   -1    0    0    0    0 -0.00000000000E+00 -0.00000000000E+00 -0.45593999997E+02  0.45594000000E+02  0.51100000000E-03 0. -1.
    9900012    2    1    2    0    0  0.34847697673E+02  0.18969719466E+02  0.88855524538E+01  0.50528864100E+02  0.30000012918E+02 0.  0.
         12    1    1    2    0    0 -0.34847697673E+02 -0.18969719466E+02 -0.88855524538E+01  0.40659135900E+02  0.00000000000E+00 0. -1.
         11    1    3    3    0    0  0.31421581989E+01  0.97673449024E+01  0.89284189104E+01  0.13601134110E+02  0.51100000000E-03 0. -1.
        -11    1    3    3    0    0  0.40199797702E+01  0.51738156853E+01 -0.53413192902E+01  0.84533010191E+01  0.51100000000E-03 0.  1.
        -12    1    3    3    0    0  0.27685559704E+02  0.40285588784E+01  0.52984528336E+01  0.28474428970E+02  0.00000000000E+00 0.  1.
</event>
<event>
 7    1  0.2746803E-013  0.5052885E+02  0.7816164E-02  0.1300439E+00
        -11   -1    0    0    0    0  0.00000000000E+00  0.00000000000E+00  0.45593999997E+02  0.45594000000E+02  0.51100000000E-03 0.  1.
         11   -1    0    0    0    0 -0.00000000000E+00 -0.00000000000E+00 -0.45593999997E+02  0.45594000000E+02  0.51100000000E-03 0. -1.
    9900012    2    1    2    0    0 -0.11082245390E+02  0.25368842818E+02  0.29778714723E+02  0.50528853436E+02  0.29999980503E+02 0.  0.
         12    1    1    2    0    0  0.11082245390E+02 -0.25368842818E+02 -0.29778714723E+02  0.40659146564E+02  0.00000000000E+00 0. -1.
         11    1    3    3    0    0  0.33613164994E+01 -0.36705373462E+01  0.31572064767E+01  0.58940008497E+01  0.51100000000E-03 0. -1.
        -11    1    3    3    0    0  0.17082089768E+01  0.11000907958E+02  0.11910189116E+02  0.16303084336E+02  0.51100000000E-03 0.  1.
         12    1    3    3    0    0 -0.16151770866E+02  0.18038472206E+02  0.14711319130E+02  0.28331768250E+02  0.00000000000E+00 0. -1.
</event>
<event>
 7    1  0.2746803E-013  0.5052887E+02  0.7816164E-02  0.1300439E+00
        -11   -1    0    0    0    0  0.00000000000E+00  0.00000000000E+00  0.45593999997E+02  0.45594000000E+02  0.51100000000E-03 0.  1.
         11   -1    0    0    0    0 -0.00000000000E+00 -0.00000000000E+00 -0.45593999997E+02  0.45594000000E+02  0.51100000000E-03 0. -1.
    9900012    2    1    2    0    0  0.28000769360E+02  0.29294699481E+02  0.33079274512E+01  0.50528869581E+02  0.30000029577E+02 0.  0.
         12    1    1    2    0    0 -0.28000769360E+02 -0.29294699481E+02 -0.33079274512E+01  0.40659130419E+02  0.00000000000E+00 0. -1.
         11    1    3    3    0    0 -0.62397341634E+00 -0.24132504627E+01  0.28938403188E+01  0.38193497708E+01  0.51100000000E-03 0. -1.
        -11    1    3    3    0    0  0.10439019139E+02  0.11866616558E+02  0.93340794520E+01  0.18355237634E+02  0.51100000000E-03 0.  1.
        -12    1    3    3    0    0  0.18185723638E+02  0.19841333385E+02 -0.89199923196E+01  0.28354282176E+02  0.00000000000E+00 0.  1.
</event>
<event>
 7    1  0.2746803E-013  0.5052886E+02  0.7816164E-02  0.1300439E+00
        -11   -1    0    0    0    0  0.00000000000E+00  0.00000000000E+00  0.45593999997E+02  0.45594000000E+02  0.51100000000E-03 0.  1.
         11   -1    0    0    0    0 -0.00000000000E+00 -0.00000000000E+00 -0.45593999997E+02  0.45594000000E+02  0.51100000000E-03 0. -1.
    9900012    2    1    2    0    0 -0.39685460848E+02  0.27184287385E+01  0.84166469535E+01  0.50528860764E+02  0.30000002777E+02 0.  0.
         12    1    1    2    0    0  0.39685460848E+02 -0.27184287385E+01 -0.84166469535E+01  0.40659139236E+02  0.00000000000E+00 0. -1.
         11    1    3    3    0    0 -0.44195859679E+01  0.50494304776E+01  0.15811375789E+01  0.68941630805E+01  0.51100000000E-03 0. -1.
        -11    1    3    3    0    0 -0.37296570316E+01 -0.99634631609E+01  0.21066126220E+01  0.10845218150E+02  0.51100000000E-03 0.  1.
         12    1    3    3    0    0 -0.31536217848E+02  0.76324614217E+01  0.47288967526E+01  0.32789479533E+02  0.00000000000E+00 0. -1.
</event>
<event>
 7    1  0.2746803E-013  0.5052887E+02  0.7816164E-02  0.1300439E+00
        -11   -1    0    0    0    0  0.00000000000E+00  0.00000000000E+00  0.45593999997E+02  0.45594000000E+02  0.51100000000E-03 0.  1.
         11   -1    0    0    0    0 -0.00000000000E+00 -0.00000000000E+00 -0.45593999997E+02  0.45594000000E+02  0.51100000000E-03 0. -1.
    9900012    2    1    2    0    0 -0.17635809202E+02 -0.34288894321E+02  0.12900189131E+02  0.50528869173E+02  0.30000028338E+02 0.  0.
         12    1    1    2    0    0  0.17635809202E+02  0.34288894321E+02 -0.12900189131E+02  0.40659130827E+02  0.00000000000E+00 0. -1.
         11    1    3    3    0    0 -0.11395778872E+02 -0.14495650336E+02 -0.12123204313E+01  0.18478565308E+02  0.51100000000E-03 0. -1.
        -11    1    3    3    0    0 -0.92097329146E+01 -0.21955914908E+02  0.15165122791E+02  0.28228750049E+02  0.51100000000E-03 0.  1.
         12    1    3    3    0    0  0.29697025848E+01  0.21626709224E+01 -0.10526132282E+01  0.38215538160E+01  0.00000000000E+00 0. -1.
</event>
<event>
 7    1  0.2746803E-013  0.5052887E+02  0.7816164E-02  0.1300439E+00
        -11   -1    0    0    0    0  0.00000000000E+00  0.00000000000E+00  0.45593999997E+02  0.45594000000E+02  0.51100000000E-03 0.  1.
         11   -1    0    0    0    0 -0.00000000000E+00 -0.00000000000E+00 -0.45593999997E+02  0.45594000000E+02  0.51100000000E-03 0. -1.
    9900012    2    1    2    0    0  0.12488739421E+01  0.33514102406E+02  0.22987180192E+02  0.50528865733E+02  0.30000017881E+02 0.  0.
         12    1    1    2    0    0 -0.12488739421E+01 -0.33514102406E+02 -0.22987180192E+02  0.40659134267E+02  0.00000000000E+00 0. -1.
         11    1    3    3    0    0 -0.69667169418E+01  0.81229745216E+00  0.16020009013E+01  0.71945381538E+01  0.51100000000E-03 0. -1.
        -11    1    3    3    0    0 -0.50335166557E+01  0.10684592013E+02  0.47903552710E+01  0.12745363874E+02  0.51100000000E-03 0.  1.
        -12    1    3    3    0    0  0.13249107540E+02  0.22017212941E+02  0.16594824019E+02  0.30588963705E+02  0.00000000000E+00 0.  1.
</event>
<event>
 7    1  0.2746803E-013  0.5052886E+02  0.7816164E-02  0.1300439E+00
        -11   -1    0    0    0    0  0.00000000000E+00  0.00000000000E+00  0.45593999997E+02  0.45594000000E+02  0.51100000000E-03 0.  1.
         11   -1    0    0    0    0 -0.00000000000E+00 -0.00000000000E+00 -0.45593999997E+02  0.45594000000E+02  0.51100000000E-03 0. -1.
    9900012    2    1    2    0    0  0.23855376149E+02 -0.91916895896E+01  0.31616444010E+02  0.50528860062E+02  0.30000000643E+02 0.  0.
         12    1    1    2    0    0 -0.23855376149E+02  0.91916895896E+01 -0.31616444010E+02  0.40659139938E+02  0.00000000000E+00 0. -1.
         11    1    3    3    0    0 -0.54689281368E+01 -0.42358472344E+01  0.23470876545E+01  0.73048201537E+01  0.51100000000E-03 0. -1.
        -11    1    3    3    0    0  0.39946392145E+00 -0.26557210652E+01  0.35399383750E+01  0.44433759418E+01  0.51100000000E-03 0.  1.
        -12    1    3    3    0    0  0.28924840364E+02 -0.23001212900E+01  0.25729417980E+02  0.38780663966E+02  0.00000000000E+00 0.  1.
</event>
<event>
 7    1  0.2746803E-013  0.5052885E+02  0.7816164E-02  0.1300439E+00
        -11   -1    0    0    0    0  0.00000000000E+00  0.00000000000E+00  0.45593999997E+02  0.45594000000E+02  0.51100000000E-03 0. -1.
         11   -1    0    0    0    0 -0.00000000000E+00 -0.00000000000E+00 -0.45593999997E+02  0.45594000000E+02  0.51100000000E-03 0.  1.
    9900012    2    1    2    0    0 -0.21090312095E+02  0.30521893656E+01 -0.34627289254E+02  0.50528852379E+02  0.29999977292E+02 0.  0.
         12    1    1    2    0    0  0.21090312095E+02 -0.30521893656E+01  0.34627289254E+02  0.40659147621E+02  0.00000000000E+00 0. -1.
         11    1    3    3    0    0 -0.19916366511E+02  0.27521649635E+00 -0.16735783777E+02  0.26015838599E+02  0.51100000000E-03 0. -1.
        -11    1    3    3    0    0 -0.87468590722E+00  0.76972768931E+01 -0.17985271757E+02  0.19582725740E+02  0.51100000000E-03 0.  1.
         12    1    3    3    0    0 -0.29925967618E+00 -0.49203040239E+01  0.93766279386E-01  0.49302880399E+01  0.00000000000E+00 0. -1.
</event>
<event>
 7    1  0.2746803E-013  0.5052886E+02  0.7816164E-02  0.1300439E+00
        -11   -1    0    0    0    0  0.00000000000E+00  0.00000000000E+00  0.45593999997E+02  0.45594000000E+02  0.51100000000E-03 0.  1.
         11   -1    0    0    0    0 -0.00000000000E+00 -0.00000000000E+00 -0.45593999997E+02  0.45594000000E+02  0.51100000000E-03 0. -1.
    9900012    2    1    2    0    0  0.37365959726E+02 -0.68130569331E+01  0.14509768247E+02  0.50528855081E+02  0.29999985503E+02 0.  0.
         12    1    1    2    0    0 -0.37365959726E+02  0.68130569331E+01 -0.14509768247E+02  0.40659144919E+02  0.00000000000E+00 0. -1.
         11    1    3    3    0    0  0.16275612738E+02 -0.76607925705E+01  0.58821025662E+01  0.18925708538E+02  0.51100000000E-03 0. -1.
        -11    1    3    3    0    0  0.81996381437E+01 -0.75109707230E+01 -0.38953984481E+01  0.11782312007E+02  0.51100000000E-03 0.  1.
        -12    1    3    3    0    0  0.12890708844E+02  0.83587063604E+01  0.12523064129E+02  0.19820834536E+02  0.00000000000E+00 0.  1.
</event>
<event>
 7    1  0.2746803E-013  0.5052886E+02  0.7816164E-02  0.1300439E+00
        -11   -1    0    0    0    0  0.00000000000E+00  0.00000000000E+00  0.45593999997E+02  0.45594000000E+02  0.51100000000E-03 0.  1.
         11   -1    0    0    0    0 -0.00000000000E+00 -0.00000000000E+00 -0.45593999997E+02  0.45594000000E+02  0.51100000000E-03 0. -1.
    9900012    2    1    2    0    0 -0.98449042217E+01 -0.16549667182E+02  0.35809943446E+02  0.50528859913E+02  0.30000000193E+02 0.  0.
         12    1    1    2    0    0  0.98449042217E+01  0.16549667182E+02 -0.35809943446E+02  0.40659140087E+02  0.00000000000E+00 0. -1.
         11    1    3    3    0    0  0.86567199304E+01 -0.59355052167E+01  0.57670286257E+01  0.11976127987E+02  0.51100000000E-03 0. -1.
        -11    1    3    3    0    0 -0.91527251964E+01 -0.22593892393E+01  0.53018783620E+01  0.10816059018E+02  0.51100000000E-03 0.  1.
        -12    1    3    3    0    0 -0.93488989556E+01 -0.83547727262E+01  0.24741036458E+02  0.27736672908E+02  0.00000000000E+00 0.  1.
</event>
<event>
 7    1  0.2746803E-013  0.5052887E+02  0.7816164E-02  0.1300439E+00
        -11   -1    0    0    0    0  0.00000000000E+00  0.00000000000E+00  0.45593999997E+02  0.45594000000E+02  0.51100000000E-03 0.  1.
         11   -1    0    0    0    0 -0.00000000000E+00 -0.00000000000E+00 -0.45593999997E+02  0.45594000000E+02  0.51100000000E-03 0. -1.
    9900012    2    1    2    0    0 -0.15927496701E+02  0.95428421495E+01  0.36172008691E+02  0.50528865722E+02  0.30000017849E+02 0.  0.
         12    1    1    2    0    0  0.15927496701E+02 -0.95428421495E+01 -0.36172008691E+02  0.40659134278E+02  0.00000000000E+00 0. -1.
         11    1    3    3    0    0  0.22611234699E+01 -0.79603343394E+01  0.15863969899E+02  0.17892600240E+02  0.51100000000E-03 0. -1.
        -11    1    3    3    0    0 -0.41256871741E+01  0.52900404749E+01  0.35946769365E+01  0.76110134294E+01  0.51100000000E-03 0.  1.
        -12    1    3    3    0    0 -0.14062932997E+02  0.12213136014E+02  0.16713361856E+02  0.25025252053E+02  0.00000000000E+00 0.  1.
</event>
<event>
 7    1  0.2746803E-013  0.5052886E+02  0.7816164E-02  0.1300439E+00
        -11   -1    0    0    0    0  0.00000000000E+00  0.00000000000E+00  0.45593999997E+02  0.45594000000E+02  0.51100000000E-03 0. -1.
         11   -1    0    0    0    0 -0.00000000000E+00 -0.00000000000E+00 -0.45593999997E+02  0.45594000000E+02  0.51100000000E-03 0.  1.
    9900012    2    1    2    0    0 -0.92156342265E+01  0.27546859046E+02 -0.28450098764E+02  0.50528862317E+02  0.30000007497E+02 0.  0.
         12    1    1    2    0    0  0.92156342265E+01 -0.27546859046E+02  0.28450098764E+02  0.40659137683E+02  0.00000000000E+00 0. -1.
         11    1    3    3    0    0 -0.66476661536E+01  0.13804229207E+01 -0.95652743198E-01  0.67901533442E+01  0.51100000000E-03 0. -1.
        -11    1    3    3    0    0 -0.29118906182E+01  0.49100094274E+01 -0.20163724625E+02  0.20956218423E+02  0.51100000000E-03 0.  1.
        -12    1    3    3    0    0  0.34392254535E+00  0.21256426698E+02 -0.81907213955E+01  0.22782490550E+02  0.00000000000E+00 0.  1.
</event>
<event>
 7    1  0.2746803E-013  0.5052886E+02  0.7816164E-02  0.1300439E+00
        -11   -1    0    0    0    0  0.00000000000E+00  0.00000000000E+00  0.45593999997E+02  0.45594000000E+02  0.51100000000E-03 0.  1.
         11   -1    0    0    0    0 -0.00000000000E+00 -0.00000000000E+00 -0.45593999997E+02  0.45594000000E+02  0.51100000000E-03 0. -1.
    9900012    2    1    2    0    0  0.62092411270E+01 -0.20964104386E+02  0.34279984128E+02  0.50528860069E+02  0.30000000666E+02 0.  0.
         12    1    1    2    0    0 -0.62092411270E+01  0.20964104386E+02 -0.34279984128E+02  0.40659139931E+02  0.00000000000E+00 0. -1.
         11    1    3    3    0    0 -0.29316618026E+01 -0.13222450103E+02  0.11012101314E+02  0.17455492066E+02  0.51100000000E-03 0. -1.
        -11    1    3    3    0    0  0.12151048308E+02 -0.10903956931E+02  0.10093355249E+02  0.19194271859E+02  0.51100000000E-03 0.  1.
        -12    1    3    3    0    0 -0.30101453788E+01  0.31623026468E+01  0.13174527565E+02  0.13879096145E+02  0.00000000000E+00 0.  1.
</event>
<event>
 7    1  0.2746803E-013  0.5052889E+02  0.7816164E-02  0.1300439E+00
        -11   -1    0    0    0    0  0.00000000000E+00  0.00000000000E+00  0.45593999997E+02  0.45594000000E+02  0.51100000000E-03 0.  1.
         11   -1    0    0    0    0 -0.00000000000E+00 -0.00000000000E+00 -0.45593999997E+02  0.45594000000E+02  0.51100000000E-03 0. -1.
    9900012    2    1    2    0    0  0.38771738991E+02 -0.11712643584E+02 -0.35678663550E+01  0.50528887436E+02  0.30000083852E+02 0.  0.
         12    1    1    2    0    0 -0.38771738991E+02  0.11712643584E+02  0.35678663550E+01  0.40659112564E+02  0.00000000000E+00 0. -1.
         11    1    3    3    0    0  0.49667719110E+00 -0.87828638270E+01  0.46478302089E+01  0.99492568138E+01  0.51100000000E-03 0. -1.
        -11    1    3    3    0    0  0.11591578076E+02  0.89454097389E+00 -0.70535718836E+01  0.13598447059E+02  0.51100000000E-03 0.  1.
        -12    1    3    3    0    0  0.26683483724E+02 -0.38243207308E+01 -0.11621246803E+01  0.26981183564E+02  0.00000000000E+00 0.  1.
</event>
<event>
 7    1  0.2746803E-013  0.5052886E+02  0.7816164E-02  0.1300439E+00
        -11   -1    0    0    0    0  0.00000000000E+00  0.00000000000E+00  0.45593999997E+02  0.45594000000E+02  0.51100000000E-03 0. -1.
         11   -1    0    0    0    0 -0.00000000000E+00 -0.00000000000E+00 -0.45593999997E+02  0.45594000000E+02  0.51100000000E-03 0.  1.
    9900012    2    1    2    0    0  0.11067914235E+02  0.29341059931E+02 -0.25879898488E+02  0.50528859955E+02  0.30000000320E+02 0.  0.
         12    1    1    2    0    0 -0.11067914235E+02 -0.29341059931E+02  0.25879898488E+02  0.40659140045E+02  0.00000000000E+00 0. -1.
         11    1    3    3    0    0  0.10482499176E+02  0.12799572740E+02 -0.27854798625E+01  0.16777090023E+02  0.51100000000E-03 0. -1.
        -11    1    3    3    0    0  0.52796889214E+01  0.50919493655E+01 -0.19548367294E+02  0.20879217600E+02  0.51100000000E-03 0.  1.
         12    1    3    3    0    0 -0.46942738627E+01  0.11449537825E+02 -0.35460513321E+01  0.12872552333E+02  0.00000000000E+00 0. -1.
</event>
<event>
 7    1  0.2746803E-013  0.5052885E+02  0.7816164E-02  0.1300439E+00
        -11   -1    0    0    0    0  0.00000000000E+00  0.00000000000E+00  0.45593999997E+02  0.45594000000E+02  0.51100000000E-03 0.  1.
         11   -1    0    0    0    0 -0.00000000000E+00 -0.00000000000E+00 -0.45593999997E+02  0.45594000000E+02  0.51100000000E-03 0. -1.
    9900012    2    1    2    0    0  0.39000783846E+02  0.63762758403E+01 -0.95628649842E+01  0.50528850711E+02  0.29999972222E+02 0.  0.
         12    1    1    2    0    0 -0.39000783846E+02 -0.63762758403E+01  0.95628649842E+01  0.40659149289E+02  0.00000000000E+00 0. -1.
         11    1    3    3    0    0  0.76259535827E+01  0.70709891177E+01 -0.64862763575E+01  0.12256664978E+02  0.51100000000E-03 0.  1.
        -11    1    3    3    0    0  0.10978692432E+02  0.29364284006E+01 -0.11259482228E+02  0.15997819838E+02  0.51100000000E-03 0. -1.
        -12    1    3    3    0    0  0.20396137832E+02 -0.36311416780E+01  0.81828936011E+01  0.22274365895E+02  0.00000000000E+00 0.  1.
</event>
<event>
 7    1  0.2746803E-013  0.5052886E+02  0.7816164E-02  0.1300439E+00
        -11   -1    0    0    0    0  0.00000000000E+00  0.00000000000E+00  0.45593999997E+02  0.45594000000E+02  0.51100000000E-03 0.  1.
         11   -1    0    0    0    0 -0.00000000000E+00 -0.00000000000E+00 -0.45593999997E+02  0.45594000000E+02  0.51100000000E-03 0. -1.
    9900012    2    1    2    0    0  0.34674778021E+02 -0.14195774243E+02  0.15789405376E+02  0.50528861307E+02  0.30000004428E+02 0.  0.
         12    1    1    2    0    0 -0.34674778021E+02  0.14195774243E+02 -0.15789405376E+02  0.40659138693E+02  0.00000000000E+00 0. -1.
         11    1    3    3    0    0  0.37351594450E+01  0.32800110341E+00 -0.32703826330E+01  0.49753797474E+01  0.51100000000E-03 0. -1.
        -11    1    3    3    0    0  0.90757100756E+01  0.77052179878E+00 -0.43166724325E+01  0.10079478080E+02  0.51100000000E-03 0.  1.
        -12    1    3    3    0    0  0.21863908500E+02 -0.15294297146E+02  0.23376460441E+02  0.35474003479E+02  0.00000000000E+00 0.  1.
</event>
<event>
 7    1  0.2746803E-013  0.5052886E+02  0.7816164E-02  0.1300439E+00
        -11   -1    0    0    0    0  0.00000000000E+00  0.00000000000E+00  0.45593999997E+02  0.45594000000E+02  0.51100000000E-03 0. -1.
         11   -1    0    0    0    0 -0.00000000000E+00 -0.00000000000E+00 -0.45593999997E+02  0.45594000000E+02  0.51100000000E-03 0.  1.
    9900012    2    1    2    0    0  0.37448356739E+02 -0.16980471494E+01 -0.15744938384E+02  0.50528857470E+02  0.29999992766E+02 0.  0.
         12    1    1    2    0    0 -0.37448356739E+02  0.16980471494E+01  0.15744938384E+02  0.40659142530E+02  0.00000000000E+00 0. -1.
         11    1    3    3    0    0  0.13824368264E+02  0.49810497907E+01  0.66982030775E+00  0.14709611634E+02  0.51100000000E-03 0. -1.
        -11    1    3    3    0    0  0.20370698016E+02  0.22205222339E+01 -0.16554072538E+02  0.26342615179E+02  0.51100000000E-03 0.  1.
         12    1    3    3    0    0  0.32532904591E+01 -0.88996191740E+01  0.13931384605E+00  0.94766306566E+01  0.00000000000E+00 0. -1.
</event>
<event>
 7    1  0.2746803E-013  0.5052886E+02  0.7816164E-02  0.1300439E+00
        -11   -1    0    0    0    0  0.00000000000E+00  0.00000000000E+00  0.45593999997E+02  0.45594000000E+02  0.51100000000E-03 0. -1.
         11   -1    0    0    0    0 -0.00000000000E+00 -0.00000000000E+00 -0.45593999997E+02  0.45594000000E+02  0.51100000000E-03 0.  1.
    9900012    2    1    2    0    0 -0.33907758719E+02  0.20340602715E+01  0.22344854578E+02  0.50528855535E+02  0.29999986883E+02 0.  0.
         12    1    1    2    0    0  0.33907758719E+02 -0.20340602715E+01 -0.22344854578E+02  0.40659144465E+02  0.00000000000E+00 0. -1.
         11    1    3    3    0    0 -0.22610063348E+02 -0.32921590810E+01  0.44691785783E+01  0.23281469744E+02  0.51100000000E-03 0.  1.
        -11    1    3    3    0    0  0.16533824202E+00 -0.18307120188E+01 -0.23122472379E+01  0.29538670892E+01  0.51100000000E-03 0. -1.
        -12    1    3    3    0    0 -0.11463033614E+02  0.71569313713E+01  0.20187923237E+02  0.24293518702E+02  0.00000000000E+00 0.  1.
</event>
<event>
 7    1  0.2746803E-013  0.5052886E+02  0.7816164E-02  0.1300439E+00
        -11   -1    0    0    0    0  0.00000000000E+00  0.00000000000E+00  0.45593999997E+02  0.45594000000E+02  0.51100000000E-03 0. -1.
         11   -1    0    0    0    0 -0.00000000000E+00 -0.00000000000E+00 -0.45593999997E+02  0.45594000000E+02  0.51100000000E-03 0.  1.
    9900012    2    1    2    0    0 -0.21608674711E+02  0.19197734404E+02 -0.28595062213E+02  0.50528863119E+02  0.30000009936E+02 0.  0.
         12    1    1    2    0    0  0.21608674711E+02 -0.19197734404E+02  0.28595062213E+02  0.40659136881E+02  0.00000000000E+00 0. -1.
         11    1    3    3    0    0 -0.74316996607E+01 -0.47980118187E+00 -0.47426431302E+01  0.88291014912E+01  0.51100000000E-03 0. -1.
        -11    1    3    3    0    0 -0.80766027384E+01  0.76314916279E+01  0.31155766329E+01  0.11540277045E+02  0.51100000000E-03 0.  1.
        -12    1    3    3    0    0 -0.61003723116E+01  0.12046043958E+02 -0.26967995715E+02  0.30159484582E+02  0.00000000000E+00 0.  1.
</event>
<event>
 7    1  0.2746803E-013  0.5052886E+02  0.7816164E-02  0.1300439E+00
        -11   -1    0    0    0    0  0.00000000000E+00  0.00000000000E+00  0.45593999997E+02  0.45594000000E+02  0.51100000000E-03 0.  1.
         11   -1    0    0    0    0 -0.00000000000E+00 -0.00000000000E+00 -0.45593999997E+02  0.45594000000E+02  0.51100000000E-03 0. -1.
    9900012    2    1    2    0    0  0.22096059026E+02  0.82563542059E+01  0.33117407776E+02  0.50528857030E+02  0.29999991429E+02 0.  0.
         12    1    1    2    0    0 -0.22096059026E+02 -0.82563542059E+01 -0.33117407776E+02  0.40659142970E+02  0.00000000000E+00 0. -1.
         11    1    3    3    0    0  0.15339811755E+01  0.40857739111E+01  0.53239538387E+01  0.68841216896E+01  0.51100000000E-03 0. -1.
        -11    1    3    3    0    0  0.18615421464E+02  0.12757266531E+02  0.26399299973E+02  0.34730459325E+02  0.51100000000E-03 0.  1.
         12    1    3    3    0    0  0.19466563865E+01 -0.85866862359E+01  0.13941539641E+01  0.89142760153E+01  0.00000000000E+00 0. -1.
</event>
<event>
 7    1  0.2746803E-013  0.5052886E+02  0.7816164E-02  0.1300439E+00
        -11   -1    0    0    0    0  0.00000000000E+00  0.00000000000E+00  0.45593999997E+02  0.45594000000E+02  0.51100000000E-03 0. -1.
         11   -1    0    0    0    0 -0.00000000000E+00 -0.00000000000E+00 -0.45593999997E+02  0.45594000000E+02  0.51100000000E-03 0.  1.
    9900012    2    1    2    0    0  0.30102952930E+02 -0.22166000715E+02  0.15988940227E+02  0.50528861146E+02  0.30000003938E+02 0.  0.
         12    1    1    2    0    0 -0.30102952930E+02  0.22166000715E+02 -0.15988940227E+02  0.40659138854E+02  0.00000000000E+00 0. -1.
         11    1    3    3    0    0  0.53086039339E+01 -0.39814006814E+01  0.12171463462E+02  0.13862804556E+02  0.51100000000E-03 0. -1.
        -11    1    3    3    0    0  0.39993399079E+01 -0.14407232997E+02 -0.10112000210E+01  0.14986180570E+02  0.51100000000E-03 0.  1.
         12    1    3    3    0    0  0.20795009088E+02 -0.37773670366E+01  0.48286767859E+01  0.21679876019E+02  0.00000000000E+00 0. -1.
</event>
<event>
 7    1  0.2746803E-013  0.5052886E+02  0.7816164E-02  0.1300439E+00
        -11   -1    0    0    0    0  0.00000000000E+00  0.00000000000E+00  0.45593999997E+02  0.45594000000E+02  0.51100000000E-03 0. -1.
         11   -1    0    0    0    0 -0.00000000000E+00 -0.00000000000E+00 -0.45593999997E+02  0.45594000000E+02  0.51100000000E-03 0.  1.
    9900012    2    1    2    0    0  0.11512997858E+02  0.31389647540E+02 -0.23136685802E+02  0.50528864222E+02  0.30000013288E+02 0.  0.
         12    1    1    2    0    0 -0.11512997858E+02 -0.31389647540E+02  0.23136685802E+02  0.40659135778E+02  0.00000000000E+00 0. -1.
         11    1    3    3    0    0  0.12292710979E+02  0.15094784227E+02 -0.35433718858E+01  0.19786832456E+02  0.51100000000E-03 0. -1.
        -11    1    3    3    0    0  0.33156164016E+01 -0.20359614494E+01 -0.43949600703E+00  0.39155597489E+01  0.51100000000E-03 0.  1.
        -12    1    3    3    0    0 -0.40953295225E+01  0.18330824763E+02 -0.19153817909E+02  0.26826472017E+02  0.00000000000E+00 0.  1.
</event>
<event>
 7    1  0.2746803E-013  0.5052886E+02  0.7816164E-02  0.1300439E+00
        -11   -1    0    0    0    0  0.00000000000E+00  0.00000000000E+00  0.45593999997E+02  0.45594000000E+02  0.51100000000E-03 0. -1.
         11   -1    0    0    0    0 -0.00000000000E+00 -0.00000000000E+00 -0.45593999997E+02  0.45594000000E+02  0.51100000000E-03 0.  1.
    9900012    2    1    2    0    0 -0.25261152522E+02 -0.31809913785E+02 -0.17803243076E+01  0.50528855931E+02  0.29999988088E+02 0.  0.
         12    1    1    2    0    0  0.25261152522E+02  0.31809913785E+02  0.17803243076E+01  0.40659144069E+02  0.00000000000E+00 0. -1.
         11    1    3    3    0    0 -0.80366362712E+01 -0.73341180355E+01 -0.57873358957E+01  0.12323557398E+02  0.51100000000E-03 0. -1.
        -11    1    3    3    0    0 -0.18956824445E+02 -0.25661951400E+02  0.86954639035E+01  0.33068233026E+02  0.51100000000E-03 0.  1.
         12    1    3    3    0    0  0.17323081944E+01  0.11861556506E+01 -0.46884523153E+01  0.51370655068E+01  0.00000000000E+00 0. -1.
</event>
<event>
 7    1  0.2746803E-013  0.5052885E+02  0.7816164E-02  0.1300439E+00
        -11   -1    0    0    0    0  0.00000000000E+00  0.00000000000E+00  0.45593999997E+02  0.45594000000E+02  0.51100000000E-03 0.  1.
         11   -1    0    0    0    0 -0.00000000000E+00 -0.00000000000E+00 -0.45593999997E+02  0.45594000000E+02  0.51100000000E-03 0. -1.
    9900012    2    1    2    0    0 -0.34283067208E+02  0.12806955950E+02  0.17714962411E+02  0.50528847142E+02  0.29999961373E+02 0.  0.
         12    1    1    2    0    0  0.34283067208E+02 -0.12806955950E+02 -0.17714962411E+02  0.40659152858E+02  0.00000000000E+00 0. -1.
         11    1    3    3    0    0 -0.17708388749E+00  0.26518144523E+00  0.10256076884E+02  0.10261032756E+02  0.51100000000E-03 0. -1.
        -11    1    3    3    0    0 -0.38210110212E+01  0.80783714858E+01  0.22544965354E+01  0.92164508340E+01  0.51100000000E-03 0.  1.
         12    1    3    3    0    0 -0.30284972299E+02  0.44634030193E+01  0.52043889916E+01  0.31051363552E+02  0.00000000000E+00 0. -1.
</event>
<event>
 7    1  0.2746803E-013  0.5052886E+02  0.7816164E-02  0.1300439E+00
        -11   -1    0    0    0    0  0.00000000000E+00  0.00000000000E+00  0.45593999997E+02  0.45594000000E+02  0.51100000000E-03 0. -1.
         11   -1    0    0    0    0 -0.00000000000E+00 -0.00000000000E+00 -0.45593999997E+02  0.45594000000E+02  0.51100000000E-03 0.  1.
    9900012    2    1    2    0    0  0.40367808556E+02 -0.44459035009E+01 -0.19595668510E+01  0.50528856775E+02  0.29999990654E+02 0.  0.
         12    1    1    2    0    0 -0.40367808556E+02  0.44459035009E+01  0.19595668510E+01  0.40659143225E+02  0.00000000000E+00 0. -1.
         11    1    3    3    0    0  0.79379392137E+01  0.76901894050E+01  0.65426448701E+01  0.12843523434E+02  0.51100000000E-03 0. -1.
        -11    1    3    3    0    0  0.38967144291E+01 -0.30257053357E+01 -0.57955008213E+01  0.76109858857E+01  0.51100000000E-03 0.  1.
        -12    1    3    3    0    0  0.28533154913E+02 -0.91103875703E+01 -0.27067108998E+01  0.30074347455E+02  0.00000000000E+00 0.  1.
</event>
<event>
 7    1  0.2746803E-013  0.5052886E+02  0.7816164E-02  0.1300439E+00
        -11   -1    0    0    0    0  0.00000000000E+00  0.00000000000E+00  0.45593999997E+02  0.45594000000E+02  0.51100000000E-03 0.  1.
         11   -1    0    0    0    0 -0.00000000000E+00 -0.00000000000E+00 -0.45593999997E+02  0.45594000000E+02  0.51100000000E-03 0. -1.
    9900012    2    1    2    0    0  0.14357843243E+02  0.38024594926E+02  0.10715185736E+01  0.50528860389E+02  0.30000001638E+02 0.  0.
         12    1    1    2    0    0 -0.14357843243E+02 -0.38024594926E+02 -0.10715185736E+01  0.40659139611E+02  0.00000000000E+00 0. -1.
         11    1    3    3    0    0 -0.33301435643E+01  0.45756180844E+01 -0.38907552555E+01  0.68676133942E+01  0.51100000000E-03 0. -1.
        -11    1    3    3    0    0  0.36249027601E+01  0.99565286049E+01  0.11369550548E+02  0.15541527010E+02  0.51100000000E-03 0.  1.
        -12    1    3    3    0    0  0.14063084047E+02  0.23492448236E+02 -0.64072767189E+01  0.28119719985E+02  0.00000000000E+00 0.  1.
</event>
<event>
 7    1  0.2746803E-013  0.5052888E+02  0.7816164E-02  0.1300439E+00
        -11   -1    0    0    0    0  0.00000000000E+00  0.00000000000E+00  0.45593999997E+02  0.45594000000E+02  0.51100000000E-03 0.  1.
         11   -1    0    0    0    0 -0.00000000000E+00 -0.00000000000E+00 -0.45593999997E+02  0.45594000000E+02  0.51100000000E-03 0. -1.
    9900012    2    1    2    0    0 -0.30088802588E+02 -0.48289777084E+01  0.26916706652E+02  0.50528878467E+02  0.30000056587E+02 0.  0.
         12    1    1    2    0    0  0.30088802588E+02  0.48289777084E+01 -0.26916706652E+02  0.40659121533E+02  0.00000000000E+00 0. -1.
         11    1    3    3    0    0 -0.19177960247E+02  0.24683371088E+01  0.18644019217E+02  0.26860497020E+02  0.51100000000E-03 0. -1.
        -11    1    3    3    0    0 -0.13605173787E+02 -0.12428085020E+01  0.80683347143E+00  0.13685624109E+02  0.51100000000E-03 0.  1.
         12    1    3    3    0    0  0.26943314459E+01 -0.60545063152E+01  0.74658539636E+01  0.99827573379E+01  0.00000000000E+00 0. -1.
</event>
<event>
 7    1  0.2746803E-013  0.5052884E+02  0.7816164E-02  0.1300439E+00
        -11   -1    0    0    0    0  0.00000000000E+00  0.00000000000E+00  0.45593999997E+02  0.45594000000E+02  0.51100000000E-03 0.  1.
         11   -1    0    0    0    0 -0.00000000000E+00 -0.00000000000E+00 -0.45593999997E+02  0.45594000000E+02  0.51100000000E-03 0. -1.
    9900012    2    1    2    0    0 -0.23759396142E+02  0.50303258088E+01  0.32609115552E+02  0.50528837443E+02  0.29999931891E+02 0.  0.
         12    1    1    2    0    0  0.23759396142E+02 -0.50303258088E+01 -0.32609115552E+02  0.40659162557E+02  0.00000000000E+00 0. -1.
         11    1    3    3    0    0 -0.92206311097E+01  0.65841714606E+01  0.77024128968E+01  0.13700310820E+02  0.51100000000E-03 0. -1.
        -11    1    3    3    0    0 -0.42781389091E+01  0.69283255634E+01  0.21639449956E+02  0.23120769068E+02  0.51100000000E-03 0.  1.
        -12    1    3    3    0    0 -0.10260626123E+02 -0.84821712152E+01  0.32672526990E+01  0.13707757554E+02  0.00000000000E+00 0.  1.
</event>
<event>
 7    1  0.2746803E-013  0.5052887E+02  0.7816164E-02  0.1300439E+00
        -11   -1    0    0    0    0  0.00000000000E+00  0.00000000000E+00  0.45593999997E+02  0.45594000000E+02  0.51100000000E-03 0. -1.
         11   -1    0    0    0    0 -0.00000000000E+00 -0.00000000000E+00 -0.45593999997E+02  0.45594000000E+02  0.51100000000E-03 0.  1.
    9900012    2    1    2    0    0  0.25424772892E+02 -0.15810809688E+02 -0.27509348870E+02  0.50528867509E+02  0.30000023281E+02 0.  0.
         12    1    1    2    0    0 -0.25424772892E+02  0.15810809688E+02  0.27509348870E+02  0.40659132491E+02  0.00000000000E+00 0. -1.
         11    1    3    3    0    0 -0.44991887252E+00 -0.48868370049E+01  0.43823003417E+01  0.65793737886E+01  0.51100000000E-03 0. -1.
        -11    1    3    3    0    0  0.68406699590E+01 -0.56994110845E+01 -0.39529088814E+01  0.97418448502E+01  0.51100000000E-03 0.  1.
        -12    1    3    3    0    0  0.19034021806E+02 -0.52245615991E+01 -0.27938740330E+02  0.34207648871E+02  0.00000000000E+00 0.  1.
</event>
<event>
 7    1  0.2746803E-013  0.5052884E+02  0.7816164E-02  0.1300439E+00
        -11   -1    0    0    0    0  0.00000000000E+00  0.00000000000E+00  0.45593999997E+02  0.45594000000E+02  0.51100000000E-03 0. -1.
         11   -1    0    0    0    0 -0.00000000000E+00 -0.00000000000E+00 -0.45593999997E+02  0.45594000000E+02  0.51100000000E-03 0.  1.
    9900012    2    1    2    0    0 -0.31681344113E+02 -0.24795700268E+02 -0.58850070326E+01  0.50528835912E+02  0.29999927238E+02 0.  0.
         12    1    1    2    0    0  0.31681344113E+02  0.24795700268E+02  0.58850070326E+01  0.40659164088E+02  0.00000000000E+00 0. -1.
         11    1    3    3    0    0 -0.26224254228E+02 -0.94846465794E+01  0.24591157946E+01  0.27994950997E+02  0.51100000000E-03 0. -1.
        -11    1    3    3    0    0 -0.88863917716E+00 -0.34551012741E+01  0.36195133166E+01  0.50821532161E+01  0.51100000000E-03 0.  1.
        -12    1    3    3    0    0 -0.45684507077E+01 -0.11855952414E+02 -0.11963636144E+02  0.17451731699E+02  0.00000000000E+00 0.  1.
</event>
<event>
 7    1  0.2746803E-013  0.5052878E+02  0.7816164E-02  0.1300439E+00
        -11   -1    0    0    0    0  0.00000000000E+00  0.00000000000E+00  0.45593999997E+02  0.45594000000E+02  0.51100000000E-03 0.  1.
         11   -1    0    0    0    0 -0.00000000000E+00 -0.00000000000E+00 -0.45593999997E+02  0.45594000000E+02  0.51100000000E-03 0. -1.
    9900012    2    1    2    0    0  0.18478434297E+02 -0.10872456076E+02  0.34547200043E+02  0.50528783750E+02  0.29999768687E+02 0.  0.
         12    1    1    2    0    0 -0.18478434297E+02  0.10872456076E+02 -0.34547200043E+02  0.40659216250E+02  0.00000000000E+00 0. -1.
         11    1    3    3    0    0  0.63207074557E+01 -0.66549425561E+01  0.37339767500E+01  0.99086924363E+01  0.51100000000E-03 0. -1.
        -11    1    3    3    0    0  0.18093167959E+02 -0.25848277419E+01  0.28862193951E+02  0.34162410647E+02  0.51100000000E-03 0.  1.
         12    1    3    3    0    0 -0.59354411178E+01 -0.16326857777E+01  0.19510293423E+01  0.64576806677E+01  0.00000000000E+00 0. -1.
</event>
<event>
 7    1  0.2746803E-013  0.5052887E+02  0.7816164E-02  0.1300439E+00
        -11   -1    0    0    0    0  0.00000000000E+00  0.00000000000E+00  0.45593999997E+02  0.45594000000E+02  0.51100000000E-03 0. -1.
         11   -1    0    0    0    0 -0.00000000000E+00 -0.00000000000E+00 -0.45593999997E+02  0.45594000000E+02  0.51100000000E-03 0.  1.
    9900012    2    1    2    0    0 -0.11539410785E+02 -0.37294904683E+02  0.11362088605E+02  0.50528868503E+02  0.30000026303E+02 0.  0.
         12    1    1    2    0    0  0.11539410785E+02  0.37294904683E+02 -0.11362088605E+02  0.40659131497E+02  0.00000000000E+00 0. -1.
         11    1    3    3    0    0 -0.10286621429E+01 -0.16179850076E+00  0.45809240883E+01  0.46977856829E+01  0.51100000000E-03 0. -1.
        -11    1    3    3    0    0 -0.44934412030E+00 -0.24608901607E+02  0.13891743798E+02  0.28262705010E+02  0.51100000000E-03 0.  1.
        -12    1    3    3    0    0 -0.10061404522E+02 -0.12524204575E+02 -0.71105792812E+01  0.17568377811E+02  0.00000000000E+00 0.  1.
</event>
<event>
 7    1  0.2746803E-013  0.5052887E+02  0.7816164E-02  0.1300439E+00
        -11   -1    0    0    0    0  0.00000000000E+00  0.00000000000E+00  0.45593999997E+02  0.45594000000E+02  0.51100000000E-03 0.  1.
         11   -1    0    0    0    0 -0.00000000000E+00 -0.00000000000E+00 -0.45593999997E+02  0.45594000000E+02  0.51100000000E-03 0. -1.
    9900012    2    1    2    0    0 -0.31271203174E+02  0.18514246308E+02  0.18234575663E+02  0.50528865553E+02  0.30000017336E+02 0.  0.
         12    1    1    2    0    0  0.31271203174E+02 -0.18514246308E+02 -0.18234575663E+02  0.40659134447E+02  0.00000000000E+00 0. -1.
         11    1    3    3    0    0 -0.14986867684E+02  0.20913352974E+02  0.46755575543E+01  0.26150246162E+02  0.51100000000E-03 0. -1.
        -11    1    3    3    0    0 -0.11144617720E+02  0.17039533241E+01  0.25564468546E+01  0.11560336580E+02  0.51100000000E-03 0.  1.
        -12    1    3    3    0    0 -0.51397177696E+01 -0.41030599899E+01  0.11002571254E+02  0.12818282812E+02  0.00000000000E+00 0.  1.
</event>
<event>
 7    1  0.2746803E-013  0.5052885E+02  0.7816164E-02  0.1300439E+00
        -11   -1    0    0    0    0  0.00000000000E+00  0.00000000000E+00  0.45593999997E+02  0.45594000000E+02  0.51100000000E-03 0.  1.
         11   -1    0    0    0    0 -0.00000000000E+00 -0.00000000000E+00 -0.45593999997E+02  0.45594000000E+02  0.51100000000E-03 0. -1.
    9900012    2    1    2    0    0 -0.15473123569E+02  0.32225086776E+02  0.19372465042E+02  0.50528853765E+02  0.29999981505E+02 0.  0.
         12    1    1    2    0    0  0.15473123569E+02 -0.32225086776E+02 -0.19372465042E+02  0.40659146235E+02  0.00000000000E+00 0. -1.
         11    1    3    3    0    0 -0.57811573666E+01  0.22415216157E+02  0.16550867168E+02  0.28456895476E+02  0.51100000000E-03 0. -1.
        -11    1    3    3    0    0  0.27074588762E+01 -0.20785813481E+01  0.34891278758E+01  0.48810703316E+01  0.51100000000E-03 0.  1.
        -12    1    3    3    0    0 -0.12399425079E+02  0.11888451967E+02 -0.66753000206E+00  0.17190887957E+02  0.00000000000E+00 0.  1.
</event>
<event>
 7    1  0.2746803E-013  0.5052888E+02  0.7816164E-02  0.1300439E+00
        -11   -1    0    0    0    0  0.00000000000E+00  0.00000000000E+00  0.45593999997E+02  0.45594000000E+02  0.51100000000E-03 0.  1.
         11   -1    0    0    0    0 -0.00000000000E+00 -0.00000000000E+00 -0.45593999997E+02  0.45594000000E+02  0.51100000000E-03 0. -1.
    9900012    2    1    2    0    0 -0.99082413714E+01  0.18007158644E+02  0.35081808999E+02  0.50528876397E+02  0.30000050296E+02 0.  0.
         12    1    1    2    0    0  0.99082413714E+01 -0.18007158644E+02 -0.35081808999E+02  0.40659123603E+02  0.00000000000E+00 0. -1.
         11    1    3    3    0    0 -0.32349495698E+01  0.77075843614E+01  0.18461935225E+02  0.20266099968E+02  0.51100000000E-03 0.  1.
        -11    1    3    3    0    0  0.89096664662E+00  0.15730388935E+02  0.12347759065E+02  0.20017645012E+02  0.51100000000E-03 0. -1.
         12    1    3    3    0    0 -0.75642584482E+01 -0.54308146524E+01  0.42721147089E+01  0.10245131417E+02  0.00000000000E+00 0. -1.
</event>
<event>
 7    1  0.2746803E-013  0.5052886E+02  0.7816164E-02  0.1300439E+00
        -11   -1    0    0    0    0  0.00000000000E+00  0.00000000000E+00  0.45593999997E+02  0.45594000000E+02  0.51100000000E-03 0.  1.
         11   -1    0    0    0    0 -0.00000000000E+00 -0.00000000000E+00 -0.45593999997E+02  0.45594000000E+02  0.51100000000E-03 0. -1.
    9900012    2    1    2    0    0 -0.10284303927E+02  0.24010593418E+02  0.31159116851E+02  0.50528855069E+02  0.29999985469E+02 0.  0.
         12    1    1    2    0    0  0.10284303927E+02 -0.24010593418E+02 -0.31159116851E+02  0.40659144931E+02  0.00000000000E+00 0. -1.
         11    1    3    3    0    0 -0.36310990553E+01  0.12318478945E+02  0.24171680131E+02  0.27371516664E+02  0.51100000000E-03 0. -1.
        -11    1    3    3    0    0 -0.36593523366E+01  0.67483776318E+01  0.12822252790E+02  0.14944618666E+02  0.51100000000E-03 0.  1.
         12    1    3    3    0    0 -0.29938525355E+01  0.49437368413E+01 -0.58348160698E+01  0.82127197401E+01  0.00000000000E+00 0. -1.
</event>
<event>
 7    1  0.2746803E-013  0.5052885E+02  0.7816164E-02  0.1300439E+00
        -11   -1    0    0    0    0  0.00000000000E+00  0.00000000000E+00  0.45593999997E+02  0.45594000000E+02  0.51100000000E-03 0.  1.
         11   -1    0    0    0    0 -0.00000000000E+00 -0.00000000000E+00 -0.45593999997E+02  0.45594000000E+02  0.51100000000E-03 0. -1.
    9900012    2    1    2    0    0  0.50061206582E+01 -0.19308634107E+02  0.35429954756E+02  0.50528852331E+02  0.29999977146E+02 0.  0.
         12    1    1    2    0    0 -0.50061206582E+01  0.19308634107E+02 -0.35429954756E+02  0.40659147669E+02  0.00000000000E+00 0. -1.
         11    1    3    3    0    0  0.90320670638E+01 -0.56718429980E+01  0.23907443110E+02  0.26178500239E+02  0.51100000000E-03 0. -1.
        -11    1    3    3    0    0 -0.44221721609E+01 -0.66029446711E+01  0.14631080469E+02  0.16650015042E+02  0.51100000000E-03 0.  1.
        -12    1    3    3    0    0  0.39622575526E+00 -0.70338464380E+01 -0.31085688227E+01  0.77003370502E+01  0.00000000000E+00 0.  1.
</event>
<event>
 7    1  0.2746803E-013  0.5052884E+02  0.7816164E-02  0.1300439E+00
        -11   -1    0    0    0    0  0.00000000000E+00  0.00000000000E+00  0.45593999997E+02  0.45594000000E+02  0.51100000000E-03 0.  1.
         11   -1    0    0    0    0 -0.00000000000E+00 -0.00000000000E+00 -0.45593999997E+02  0.45594000000E+02  0.51100000000E-03 0. -1.
    9900012    2    1    2    0    0 -0.34916775305E+02  0.20167127718E+02  0.52223358643E+01  0.50528843222E+02  0.29999949456E+02 0.  0.
         12    1    1    2    0    0  0.34916775305E+02 -0.20167127718E+02 -0.52223358643E+01  0.40659156778E+02  0.00000000000E+00 0. -1.
         11    1    3    3    0    0 -0.97773900131E+01 -0.47600985649E+00  0.35073475619E+01  0.10398337753E+02  0.51100000000E-03 0.  1.
        -11    1    3    3    0    0 -0.17996124498E+02  0.17457121883E+02  0.11516588176E+02  0.27590639806E+02  0.51100000000E-03 0. -1.
         12    1    3    3    0    0 -0.71432607934E+01  0.31860156907E+01 -0.98015998740E+01  0.12539865662E+02  0.00000000000E+00 0. -1.
</event>
<event>
 7    1  0.2746803E-013  0.5052886E+02  0.7816164E-02  0.1300439E+00
        -11   -1    0    0    0    0  0.00000000000E+00  0.00000000000E+00  0.45593999997E+02  0.45594000000E+02  0.51100000000E-03 0.  1.
         11   -1    0    0    0    0 -0.00000000000E+00 -0.00000000000E+00 -0.45593999997E+02  0.45594000000E+02  0.51100000000E-03 0. -1.
    9900012    2    1    2    0    0 -0.24477055729E+02 -0.84300917551E+01  0.31352402563E+02  0.50528857724E+02  0.29999993537E+02 0.  0.
         12    1    1    2    0    0  0.24477055729E+02  0.84300917551E+01 -0.31352402563E+02  0.40659142276E+02  0.00000000000E+00 0. -1.
         11    1    3    3    0    0 -0.85521921014E+01 -0.71154046200E+01 -0.26737956591E+01  0.11441947218E+02  0.51100000000E-03 0. -1.
        -11    1    3    3    0    0 -0.11350640467E+02 -0.16866576710E+01  0.12062627335E+02  0.16648988906E+02  0.51100000000E-03 0.  1.
        -12    1    3    3    0    0 -0.45742231614E+01  0.37197053595E+00  0.21963570887E+02  0.22437921600E+02  0.00000000000E+00 0.  1.
</event>
<event>
 7    1  0.2746803E-013  0.5052884E+02  0.7816164E-02  0.1300439E+00
        -11   -1    0    0    0    0  0.00000000000E+00  0.00000000000E+00  0.45593999997E+02  0.45594000000E+02  0.51100000000E-03 0.  1.
         11   -1    0    0    0    0 -0.00000000000E+00 -0.00000000000E+00 -0.45593999997E+02  0.45594000000E+02  0.51100000000E-03 0. -1.
    9900012    2    1    2    0    0  0.16602911060E+02 -0.13376780855E+01  0.37090714320E+02  0.50528842026E+02  0.29999945824E+02 0.  0.
         12    1    1    2    0    0 -0.16602911060E+02  0.13376780855E+01 -0.37090714320E+02  0.40659157974E+02  0.00000000000E+00 0. -1.
         11    1    3    3    0    0 -0.68386074038E+00  0.81927222129E+01  0.17926314980E+01  0.84143859383E+01  0.51100000000E-03 0. -1.
        -11    1    3    3    0    0  0.80253259563E+01 -0.21360090503E+00  0.60531343937E+01  0.10054447688E+02  0.51100000000E-03 0.  1.
        -12    1    3    3    0    0  0.92614458436E+01 -0.93167993934E+01  0.29244948429E+02  0.32060008401E+02  0.00000000000E+00 0.  1.
</event>
<event>
 7    1  0.2746803E-013  0.5052886E+02  0.7816164E-02  0.1300439E+00
        -11   -1    0    0    0    0  0.00000000000E+00  0.00000000000E+00  0.45593999997E+02  0.45594000000E+02  0.51100000000E-03 0.  1.
         11   -1    0    0    0    0 -0.00000000000E+00 -0.00000000000E+00 -0.45593999997E+02  0.45594000000E+02  0.51100000000E-03 0. -1.
    9900012    2    1    2    0    0  0.12999559026E+02  0.30297688408E+02  0.23795525840E+02  0.50528861940E+02  0.30000006354E+02 0.  0.
         12    1    1    2    0    0 -0.12999559026E+02 -0.30297688408E+02 -0.23795525840E+02  0.40659138060E+02  0.00000000000E+00 0. -1.
         11    1    3    3    0    0  0.17655361613E+00  0.38061948041E+01 -0.52904164496E+00  0.38468396625E+01  0.51100000000E-03 0. -1.
        -11    1    3    3    0    0 -0.37296158783E+01  0.78040716610E+00  0.13841547831E+02  0.14356445123E+02  0.51100000000E-03 0.  1.
        -12    1    3    3    0    0  0.16552621288E+02  0.25711086438E+02  0.10483019654E+02  0.32325577155E+02  0.00000000000E+00 0.  1.
</event>
<event>
 7    1  0.2746803E-013  0.5052886E+02  0.7816164E-02  0.1300439E+00
        -11   -1    0    0    0    0  0.00000000000E+00  0.00000000000E+00  0.45593999997E+02  0.45594000000E+02  0.51100000000E-03 0.  1.
         11   -1    0    0    0    0 -0.00000000000E+00 -0.00000000000E+00 -0.45593999997E+02  0.45594000000E+02  0.51100000000E-03 0. -1.
    9900012    2    1    2    0    0  0.40423966105E+02 -0.17334177926E+01  0.40080119335E+01  0.50528856716E+02  0.29999990474E+02 0.  0.
         12    1    1    2    0    0 -0.40423966105E+02  0.17334177926E+01 -0.40080119335E+01  0.40659143284E+02  0.00000000000E+00 0. -1.
         11    1    3    3    0    0  0.15484172294E+00 -0.31419696554E+01 -0.13841354803E+01  0.34368271070E+01  0.51100000000E-03 0. -1.
        -11    1    3    3    0    0  0.29527050161E+02 -0.33920647060E+01 -0.64341519459E+01  0.30409720579E+02  0.51100000000E-03 0.  1.
        -12    1    3    3    0    0  0.10742074221E+02  0.48006165687E+01  0.11826299360E+02  0.16682309030E+02  0.00000000000E+00 0.  1.
</event>
<event>
 7    1  0.2746803E-013  0.5052887E+02  0.7816164E-02  0.1300439E+00
        -11   -1    0    0    0    0  0.00000000000E+00  0.00000000000E+00  0.45593999997E+02  0.45594000000E+02  0.51100000000E-03 0. -1.
         11   -1    0    0    0    0 -0.00000000000E+00 -0.00000000000E+00 -0.45593999997E+02  0.45594000000E+02  0.51100000000E-03 0.  1.
    9900012    2    1    2    0    0 -0.39014333906E+02  0.29674395352E+01 -0.11056267980E+02  0.50528868072E+02  0.30000024990E+02 0.  0.
         12    1    1    2    0    0  0.39014333906E+02 -0.29674395352E+01  0.11056267980E+02  0.40659131928E+02  0.00000000000E+00 0. -1.
         11    1    3    3    0    0 -0.11595693917E+02  0.10543562763E+02 -0.29997806644E+01  0.15956989611E+02  0.51100000000E-03 0. -1.
        -11    1    3    3    0    0 -0.15522030321E+02 -0.35783567519E+00  0.41394892351E+01  0.16068504692E+02  0.51100000000E-03 0.  1.
        -12    1    3    3    0    0 -0.11896609668E+02 -0.72182875523E+01 -0.12195976551E+02  0.18503373768E+02  0.00000000000E+00 0.  1.
</event>
<event>
 7    1  0.2746803E-013  0.5052886E+02  0.7816164E-02  0.1300439E+00
        -11   -1    0    0    0    0  0.00000000000E+00  0.00000000000E+00  0.45593999997E+02  0.45594000000E+02  0.51100000000E-03 0.  1.
         11   -1    0    0    0    0 -0.00000000000E+00 -0.00000000000E+00 -0.45593999997E+02  0.45594000000E+02  0.51100000000E-03 0. -1.
    9900012    2    1    2    0    0 -0.18705441066E+02 -0.95593048146E+01  0.34812233846E+02  0.50528862536E+02  0.30000008164E+02 0.  0.
         12    1    1    2    0    0  0.18705441066E+02  0.95593048146E+01 -0.34812233846E+02  0.40659137464E+02  0.00000000000E+00 0. -1.
         11    1    3    3    0    0 -0.61672235785E+01 -0.13958877897E+02  0.26545477996E+02  0.30619394526E+02  0.51100000000E-03 0. -1.
        -11    1    3    3    0    0 -0.65955018839E+01 -0.40507468748E+01  0.42081858009E+01  0.88101091560E+01  0.51100000000E-03 0.  1.
         12    1    3    3    0    0 -0.59427156038E+01  0.84503199575E+01  0.40585700484E+01  0.11099358854E+02  0.00000000000E+00 0. -1.
</event>
<event>
 7    1  0.2746803E-013  0.5052888E+02  0.7816164E-02  0.1300439E+00
        -11   -1    0    0    0    0  0.00000000000E+00  0.00000000000E+00  0.45593999997E+02  0.45594000000E+02  0.51100000000E-03 0.  1.
         11   -1    0    0    0    0 -0.00000000000E+00 -0.00000000000E+00 -0.45593999997E+02  0.45594000000E+02  0.51100000000E-03 0. -1.
    9900012    2    1    2    0    0 -0.33720737076E+02  0.21852355458E+02  0.62089034252E+01  0.50528880116E+02  0.30000061601E+02 0.  0.
         12    1    1    2    0    0  0.33720737076E+02 -0.21852355458E+02 -0.62089034252E+01  0.40659119884E+02  0.00000000000E+00 0. -1.
         11    1    3    3    0    0 -0.15105555495E+02  0.14838093883E+02  0.70797944185E+01  0.22326449027E+02  0.51100000000E-03 0. -1.
        -11    1    3    3    0    0 -0.22772272898E+02  0.63309311645E+01  0.85101436960E+00  0.23651243689E+02  0.51100000000E-03 0.  1.
        -12    1    3    3    0    0  0.41570913169E+01  0.68333041022E+00 -0.17219053629E+01  0.45511873995E+01  0.00000000000E+00 0.  1.
</event>
<event>
 7    1  0.2746803E-013  0.5052886E+02  0.7816164E-02  0.1300439E+00
        -11   -1    0    0    0    0  0.00000000000E+00  0.00000000000E+00  0.45593999997E+02  0.45594000000E+02  0.51100000000E-03 0.  1.
         11   -1    0    0    0    0 -0.00000000000E+00 -0.00000000000E+00 -0.45593999997E+02  0.45594000000E+02  0.51100000000E-03 0. -1.
    9900012    2    1    2    0    0 -0.11257729485E+02  0.29166011049E+02  0.25995638629E+02  0.50528857100E+02  0.29999991641E+02 0.  0.
         12    1    1    2    0    0  0.11257729485E+02 -0.29166011049E+02 -0.25995638629E+02  0.40659142900E+02  0.00000000000E+00 0. -1.
         11    1    3    3    0    0 -0.13351860350E+02  0.61290449266E+01  0.31940666741E+01  0.15034607700E+02  0.51100000000E-03 0.  1.
        -11    1    3    3    0    0 -0.30406722300E+01  0.20811149914E+02  0.14750115000E+02  0.25688821326E+02  0.51100000000E-03 0. -1.
         12    1    3    3    0    0  0.51348030954E+01  0.22258162084E+01  0.80514569544E+01  0.98054280738E+01  0.00000000000E+00 0. -1.
</event>
<event>
 7    1  0.2746803E-013  0.5052885E+02  0.7816164E-02  0.1300439E+00
        -11   -1    0    0    0    0  0.00000000000E+00  0.00000000000E+00  0.45593999997E+02  0.45594000000E+02  0.51100000000E-03 0. -1.
         11   -1    0    0    0    0 -0.00000000000E+00 -0.00000000000E+00 -0.45593999997E+02  0.45594000000E+02  0.51100000000E-03 0.  1.
    9900012    2    1    2    0    0  0.19774846539E+02 -0.30402206746E+02  0.18380093900E+02  0.50528848725E+02  0.29999966184E+02 0.  0.
         12    1    1    2    0    0 -0.19774846539E+02  0.30402206746E+02 -0.18380093900E+02  0.40659151275E+02  0.00000000000E+00 0. -1.
         11    1    3    3    0    0  0.10844445344E+02 -0.14145270713E+02 -0.16417716085E+01  0.17899332184E+02  0.51100000000E-03 0. -1.
        -11    1    3    3    0    0 -0.82945126247E+00 -0.13011132726E+02  0.40863225775E+01  0.13662927823E+02  0.51100000000E-03 0.  1.
         12    1    3    3    0    0  0.97598524565E+01 -0.32458033063E+01  0.15935542931E+02  0.18966588718E+02  0.00000000000E+00 0. -1.
</event>
<event>
 7    1  0.2746803E-013  0.5052886E+02  0.7816164E-02  0.1300439E+00
        -11   -1    0    0    0    0  0.00000000000E+00  0.00000000000E+00  0.45593999997E+02  0.45594000000E+02  0.51100000000E-03 0. -1.
         11   -1    0    0    0    0 -0.00000000000E+00 -0.00000000000E+00 -0.45593999997E+02  0.45594000000E+02  0.51100000000E-03 0.  1.
    9900012    2    1    2    0    0 -0.32199891003E+02  0.20336659353E+02 -0.14239137393E+02  0.50528859232E+02  0.29999998122E+02 0.  0.
         12    1    1    2    0    0  0.32199891003E+02 -0.20336659353E+02  0.14239137393E+02  0.40659140768E+02  0.00000000000E+00 0. -1.
         11    1    3    3    0    0 -0.17903391982E+01 -0.32710891669E+01 -0.11555144514E+01  0.39039150465E+01  0.51100000000E-03 0. -1.
        -11    1    3    3    0    0 -0.31292184354E+02  0.13834509595E+02 -0.13553459653E+02  0.36800689209E+02  0.51100000000E-03 0.  1.
         12    1    3    3    0    0  0.88263254924E+00  0.97732389256E+01  0.46983671132E+00  0.98242549768E+01  0.00000000000E+00 0. -1.
</event>
<event>
 7    1  0.2746803E-013  0.5052886E+02  0.7816164E-02  0.1300439E+00
        -11   -1    0    0    0    0  0.00000000000E+00  0.00000000000E+00  0.45593999997E+02  0.45594000000E+02  0.51100000000E-03 0. -1.
         11   -1    0    0    0    0 -0.00000000000E+00 -0.00000000000E+00 -0.45593999997E+02  0.45594000000E+02  0.51100000000E-03 0.  1.
    9900012    2    1    2    0    0 -0.38793367590E+02 -0.12107393933E+02 -0.12851291795E+01  0.50528856946E+02  0.29999991174E+02 0.  0.
         12    1    1    2    0    0  0.38793367590E+02  0.12107393933E+02  0.12851291795E+01  0.40659143054E+02  0.00000000000E+00 0. -1.
         11    1    3    3    0    0 -0.82701280300E+01 -0.45241604578E+01 -0.11759034044E+02  0.15071095759E+02  0.51100000000E-03 0. -1.
        -11    1    3    3    0    0 -0.20416875166E+02 -0.62245732349E+01  0.73542495260E+00  0.21357316162E+02  0.51100000000E-03 0.  1.
        -12    1    3    3    0    0 -0.10106364394E+02 -0.13586602405E+01  0.97384799119E+01  0.14100445025E+02  0.00000000000E+00 0.  1.
</event>
<event>
 7    1  0.2746803E-013  0.5052887E+02  0.7816164E-02  0.1300439E+00
        -11   -1    0    0    0    0  0.00000000000E+00  0.00000000000E+00  0.45593999997E+02  0.45594000000E+02  0.51100000000E-03 0.  1.
         11   -1    0    0    0    0 -0.00000000000E+00 -0.00000000000E+00 -0.45593999997E+02  0.45594000000E+02  0.51100000000E-03 0. -1.
    9900012    2    1    2    0    0 -0.15801963714E+02  0.96694891796E+01  0.36193425287E+02  0.50528866805E+02  0.30000021140E+02 0.  0.
         12    1    1    2    0    0  0.15801963714E+02 -0.96694891796E+01 -0.36193425287E+02  0.40659133195E+02  0.00000000000E+00 0. -1.
         11    1    3    3    0    0 -0.94539796014E+01  0.12841956170E+02  0.24281462762E+02  0.29049664417E+02  0.51100000000E-03 0. -1.
        -11    1    3    3    0    0 -0.81767627311E+01  0.45875776201E+01  0.38337795655E+01  0.10129322939E+02  0.51100000000E-03 0.  1.
         12    1    3    3    0    0  0.18287786187E+01 -0.77600446109E+01  0.80781829590E+01  0.11349879449E+02  0.00000000000E+00 0. -1.
</event>
<event>
 7    1  0.2746803E-013  0.5052886E+02  0.7816164E-02  0.1300439E+00
        -11   -1    0    0    0    0  0.00000000000E+00  0.00000000000E+00  0.45593999997E+02  0.45594000000E+02  0.51100000000E-03 0.  1.
         11   -1    0    0    0    0 -0.00000000000E+00 -0.00000000000E+00 -0.45593999997E+02  0.45594000000E+02  0.51100000000E-03 0. -1.
    9900012    2    1    2    0    0  0.39632160453E+02  0.84509773015E+01 -0.33223808614E+01  0.50528863583E+02  0.30000011348E+02 0.  0.
         12    1    1    2    0    0 -0.39632160453E+02 -0.84509773015E+01  0.33223808614E+01  0.40659136417E+02  0.00000000000E+00 0. -1.
         11    1    3    3    0    0 -0.54363930469E+00 -0.40667509127E+01  0.94059348415E+00  0.42093613581E+01  0.51100000000E-03 0. -1.
        -11    1    3    3    0    0  0.91576345253E+01  0.11935273099E+01 -0.90778162699E+01  0.12949653510E+02  0.51100000000E-03 0.  1.
        -12    1    3    3    0    0  0.31018165233E+02  0.11324200904E+02  0.48148419243E+01  0.33369848715E+02  0.00000000000E+00 0.  1.
</event>
<event>
 7    1  0.2746803E-013  0.5052885E+02  0.7816164E-02  0.1300439E+00
        -11   -1    0    0    0    0  0.00000000000E+00  0.00000000000E+00  0.45593999997E+02  0.45594000000E+02  0.51100000000E-03 0.  1.
         11   -1    0    0    0    0 -0.00000000000E+00 -0.00000000000E+00 -0.45593999997E+02  0.45594000000E+02  0.51100000000E-03 0. -1.
    9900012    2    1    2    0    0 -0.56339261388E+01  0.45552386076E+01  0.40008434916E+02  0.50528853588E+02  0.29999980967E+02 0.  0.
         12    1    1    2    0    0  0.56339261388E+01 -0.45552386076E+01 -0.40008434916E+02  0.40659146412E+02  0.00000000000E+00 0. -1.
         11    1    3    3    0    0 -0.39870133471E+01 -0.66737544104E+00  0.16542760022E+02  0.17029520686E+02  0.51100000000E-03 0.  1.
        -11    1    3    3    0    0  0.68476004653E+01  0.81037774677E+01  0.28026893887E+01  0.10973418312E+02  0.51100000000E-03 0. -1.
         12    1    3    3    0    0 -0.84945132570E+01 -0.28811634191E+01  0.20662985506E+02  0.22525914590E+02  0.00000000000E+00 0. -1.
</event>
<event>
 7    1  0.2746803E-013  0.5052886E+02  0.7816164E-02  0.1300439E+00
        -11   -1    0    0    0    0  0.00000000000E+00  0.00000000000E+00  0.45593999997E+02  0.45594000000E+02  0.51100000000E-03 0. -1.
         11   -1    0    0    0    0 -0.00000000000E+00 -0.00000000000E+00 -0.45593999997E+02  0.45594000000E+02  0.51100000000E-03 0.  1.
    9900012    2    1    2    0    0  0.58161383868E+01 -0.38343054567E+02 -0.12212627509E+02  0.50528861176E+02  0.30000004029E+02 0.  0.
         12    1    1    2    0    0 -0.58161383868E+01  0.38343054567E+02  0.12212627509E+02  0.40659138824E+02  0.00000000000E+00 0. -1.
         11    1    3    3    0    0 -0.14526102299E-01 -0.32432833179E+02  0.27946011828E-01  0.32432848476E+02  0.51100000000E-03 0. -1.
        -11    1    3    3    0    0  0.55615999144E+01 -0.55935170355E+01 -0.23975415173E+01  0.82442120317E+01  0.51100000000E-03 0.  1.
        -12    1    3    3    0    0  0.26906457465E+00 -0.31670435290E+00 -0.98430320031E+01  0.98518006682E+01  0.00000000000E+00 0.  1.
</event>
<event>
 7    1  0.2746803E-013  0.5052886E+02  0.7816164E-02  0.1300439E+00
        -11   -1    0    0    0    0  0.00000000000E+00  0.00000000000E+00  0.45593999997E+02  0.45594000000E+02  0.51100000000E-03 0. -1.
         11   -1    0    0    0    0 -0.00000000000E+00 -0.00000000000E+00 -0.45593999997E+02  0.45594000000E+02  0.51100000000E-03 0.  1.
    9900012    2    1    2    0    0  0.27840896485E+02  0.13025740248E+02 -0.26615417295E+02  0.50528857561E+02  0.29999993042E+02 0.  0.
         12    1    1    2    0    0 -0.27840896485E+02 -0.13025740248E+02  0.26615417295E+02  0.40659142439E+02  0.00000000000E+00 0. -1.
         11    1    3    3    0    0 -0.39671580465E+01 -0.16480631060E+01 -0.17459872579E+01  0.46371248347E+01  0.51100000000E-03 0. -1.
        -11    1    3    3    0    0  0.96259125439E+01  0.64252629417E+01 -0.16554319021E-01  0.11573351739E+02  0.51100000000E-03 0.  1.
        -12    1    3    3    0    0  0.22182141988E+02  0.82485404122E+01 -0.24852875718E+02  0.34318380987E+02  0.00000000000E+00 0.  1.
</event>
<event>
 7    1  0.2746803E-013  0.5052887E+02  0.7816164E-02  0.1300439E+00
        -11   -1    0    0    0    0  0.00000000000E+00  0.00000000000E+00  0.45593999997E+02  0.45594000000E+02  0.51100000000E-03 0. -1.
         11   -1    0    0    0    0 -0.00000000000E+00 -0.00000000000E+00 -0.45593999997E+02  0.45594000000E+02  0.51100000000E-03 0.  1.
    9900012    2    1    2    0    0 -0.19796672356E+02  0.73126688926E+01 -0.34753152483E+02  0.50528868551E+02  0.30000026447E+02 0.  0.
         12    1    1    2    0    0  0.19796672356E+02 -0.73126688926E+01  0.34753152483E+02  0.40659131449E+02  0.00000000000E+00 0. -1.
         11    1    3    3    0    0 -0.97534706836E+01  0.61788079982E+01 -0.22660255365E+02  0.25432165306E+02  0.51100000000E-03 0.  1.
        -11    1    3    3    0    0  0.17737604111E+01  0.80766673843E+01 -0.40845078713E+01  0.92229055532E+01  0.51100000000E-03 0. -1.
         12    1    3    3    0    0 -0.11816962083E+02 -0.69428064899E+01 -0.80083892466E+01  0.15873797692E+02  0.00000000000E+00 0. -1.
</event>
<event>
 7    1  0.2746803E-013  0.5052886E+02  0.7816164E-02  0.1300439E+00
        -11   -1    0    0    0    0  0.00000000000E+00  0.00000000000E+00  0.45593999997E+02  0.45594000000E+02  0.51100000000E-03 0.  1.
         11   -1    0    0    0    0 -0.00000000000E+00 -0.00000000000E+00 -0.45593999997E+02  0.45594000000E+02  0.51100000000E-03 0. -1.
    9900012    2    1    2    0    0  0.37006549481E+02 -0.11501003017E+02 -0.12304789345E+02  0.50528860613E+02  0.30000002319E+02 0.  0.
         12    1    1    2    0    0 -0.37006549481E+02  0.11501003017E+02  0.12304789345E+02  0.40659139387E+02  0.00000000000E+00 0. -1.
         11    1    3    3    0    0  0.89256174392E+01 -0.42337640660E+01  0.34061643596E+01  0.10449562706E+02  0.51100000000E-03 0. -1.
        -11    1    3    3    0    0  0.24080751460E+02  0.23503075495E+01 -0.42033404865E+01  0.24557577405E+02  0.51100000000E-03 0.  1.
         12    1    3    3    0    0  0.40001805810E+01 -0.96175465008E+01 -0.11507613218E+02  0.15521720503E+02  0.00000000000E+00 0. -1.
</event>
<event>
 7    1  0.2746803E-013  0.5052887E+02  0.7816164E-02  0.1300439E+00
        -11   -1    0    0    0    0  0.00000000000E+00  0.00000000000E+00  0.45593999997E+02  0.45594000000E+02  0.51100000000E-03 0. -1.
         11   -1    0    0    0    0 -0.00000000000E+00 -0.00000000000E+00 -0.45593999997E+02  0.45594000000E+02  0.51100000000E-03 0.  1.
    9900012    2    1    2    0    0 -0.74573290663E+01  0.31868269448E+02  0.24123984162E+02  0.50528868599E+02  0.30000026594E+02 0.  0.
         12    1    1    2    0    0  0.74573290663E+01 -0.31868269448E+02 -0.24123984162E+02  0.40659131401E+02  0.00000000000E+00 0. -1.
         11    1    3    3    0    0 -0.33059699878E+01  0.22568868566E+01 -0.50288913837E+01  0.64274975421E+01  0.51100000000E-03 0. -1.
        -11    1    3    3    0    0 -0.89364832279E+01  0.17036410192E+02  0.13732804862E+02  0.23636622736E+02  0.51100000000E-03 0.  1.
        -12    1    3    3    0    0  0.47851241494E+01  0.12574972399E+02  0.15420070684E+02  0.20464748321E+02  0.00000000000E+00 0.  1.
</event>
<event>
 7    1  0.2746803E-013  0.5052882E+02  0.7816164E-02  0.1300439E+00
        -11   -1    0    0    0    0  0.00000000000E+00  0.00000000000E+00  0.45593999997E+02  0.45594000000E+02  0.51100000000E-03 0. -1.
         11   -1    0    0    0    0 -0.00000000000E+00 -0.00000000000E+00 -0.45593999997E+02  0.45594000000E+02  0.51100000000E-03 0.  1.
    9900012    2    1    2    0    0 -0.25159531613E+02  0.17857002970E+02 -0.26481959078E+02  0.50528822160E+02  0.29999885436E+02 0.  0.
         12    1    1    2    0    0  0.25159531613E+02 -0.17857002970E+02  0.26481959078E+02  0.40659177840E+02  0.00000000000E+00 0. -1.
         11    1    3    3    0    0 -0.69108646680E+01 -0.25155980100E+01 -0.78035561808E+01  0.10723048687E+02  0.51100000000E-03 0. -1.
        -11    1    3    3    0    0 -0.22913707171E+02  0.20042613261E+02 -0.15599442751E+02  0.34206533544E+02  0.51100000000E-03 0.  1.
         12    1    3    3    0    0  0.46650402260E+01  0.32998771892E+00 -0.30789601461E+01  0.55992399294E+01  0.00000000000E+00 0. -1.
</event>
<event>
 7    1  0.2746803E-013  0.5052886E+02  0.7816164E-02  0.1300439E+00
        -11   -1    0    0    0    0  0.00000000000E+00  0.00000000000E+00  0.45593999997E+02  0.45594000000E+02  0.51100000000E-03 0. -1.
         11   -1    0    0    0    0 -0.00000000000E+00 -0.00000000000E+00 -0.45593999997E+02  0.45594000000E+02  0.51100000000E-03 0.  1.
    9900012    2    1    2    0    0 -0.36326401844E+02  0.17935451899E+02 -0.34463732779E+01  0.50528863333E+02  0.30000010587E+02 0.  0.
         12    1    1    2    0    0  0.36326401844E+02 -0.17935451899E+02  0.34463732779E+01  0.40659136667E+02  0.00000000000E+00 0. -1.
         11    1    3    3    0    0 -0.18293231878E+02  0.49458238706E+01  0.97274146727E+01  0.21300847467E+02  0.51100000000E-03 0. -1.
        -11    1    3    3    0    0  0.49926078666E+00 -0.11093450612E+01 -0.40326942120E+01  0.42121883465E+01  0.51100000000E-03 0.  1.
        -12    1    3    3    0    0 -0.18532430752E+02  0.14098973090E+02 -0.91410937386E+01  0.25015827520E+02  0.00000000000E+00 0.  1.
</event>
<event>
 7    1  0.2746803E-013  0.5052884E+02  0.7816164E-02  0.1300439E+00
        -11   -1    0    0    0    0  0.00000000000E+00  0.00000000000E+00  0.45593999997E+02  0.45594000000E+02  0.51100000000E-03 0. -1.
         11   -1    0    0    0    0 -0.00000000000E+00 -0.00000000000E+00 -0.45593999997E+02  0.45594000000E+02  0.51100000000E-03 0.  1.
    9900012    2    1    2    0    0  0.37524917885E+02 -0.11013698131E+02  0.11124119225E+02  0.50528843130E+02  0.29999949179E+02 0.  0.
         12    1    1    2    0    0 -0.37524917885E+02  0.11013698131E+02 -0.11124119225E+02  0.40659156870E+02  0.00000000000E+00 0. -1.
         11    1    3    3    0    0  0.44975624757E+01  0.39229430755E+01  0.54446785152E+01  0.80784945994E+01  0.51100000000E-03 0. -1.
        -11    1    3    3    0    0  0.20502408815E+02  0.60530738166E+00 -0.29162174943E+01  0.20717613013E+02  0.51100000000E-03 0.  1.
        -12    1    3    3    0    0  0.12524946595E+02 -0.15541948588E+02  0.85956582044E+01  0.21732735518E+02  0.00000000000E+00 0.  1.
</event>
<event>
 7    1  0.2746803E-013  0.5052886E+02  0.7816164E-02  0.1300439E+00
        -11   -1    0    0    0    0  0.00000000000E+00  0.00000000000E+00  0.45593999997E+02  0.45594000000E+02  0.51100000000E-03 0. -1.
         11   -1    0    0    0    0 -0.00000000000E+00 -0.00000000000E+00 -0.45593999997E+02  0.45594000000E+02  0.51100000000E-03 0.  1.
    9900012    2    1    2    0    0 -0.17333859510E+02 -0.31929691467E+02 -0.18253712717E+02  0.50528856986E+02  0.29999991295E+02 0.  0.
         12    1    1    2    0    0  0.17333859510E+02  0.31929691467E+02  0.18253712717E+02  0.40659143014E+02  0.00000000000E+00 0. -1.
         11    1    3    3    0    0  0.66610572348E+01 -0.11136677642E+02 -0.20404109910E+01  0.13136154295E+02  0.51100000000E-03 0. -1.
        -11    1    3    3    0    0 -0.11741129132E+02 -0.16690508929E+02 -0.72081685853E+01  0.21642201742E+02  0.51100000000E-03 0.  1.
        -12    1    3    3    0    0 -0.12253787613E+02 -0.41025048951E+01 -0.90051331402E+01  0.15750500949E+02  0.00000000000E+00 0.  1.
</event>
<event>
 7    1  0.2746803E-013  0.5052886E+02  0.7816164E-02  0.1300439E+00
        -11   -1    0    0    0    0  0.00000000000E+00  0.00000000000E+00  0.45593999997E+02  0.45594000000E+02  0.51100000000E-03 0.  1.
         11   -1    0    0    0    0 -0.00000000000E+00 -0.00000000000E+00 -0.45593999997E+02  0.45594000000E+02  0.51100000000E-03 0. -1.
    9900012    2    1    2    0    0 -0.28039468256E+02  0.28970295582E+02  0.52608095812E+01  0.50528856826E+02  0.29999990808E+02 0.  0.
         12    1    1    2    0    0  0.28039468256E+02 -0.28970295582E+02 -0.52608095812E+01  0.40659143174E+02  0.00000000000E+00 0. -1.
         11    1    3    3    0    0  0.28939830219E+01  0.33710092972E+01 -0.31766234566E+01  0.54616644220E+01  0.51100000000E-03 0. -1.
        -11    1    3    3    0    0 -0.10417663347E+02  0.42720452203E+01  0.10508821669E+02  0.15401734095E+02  0.51100000000E-03 0.  1.
        -12    1    3    3    0    0 -0.20515787931E+02  0.21327241064E+02 -0.20713886312E+01  0.29665458309E+02  0.00000000000E+00 0.  1.
</event>
<event>
 7    1  0.2746803E-013  0.5052886E+02  0.7816164E-02  0.1300439E+00
        -11   -1    0    0    0    0  0.00000000000E+00  0.00000000000E+00  0.45593999997E+02  0.45594000000E+02  0.51100000000E-03 0.  1.
         11   -1    0    0    0    0 -0.00000000000E+00 -0.00000000000E+00 -0.45593999997E+02  0.45594000000E+02  0.51100000000E-03 0. -1.
    9900012    2    1    2    0    0 -0.13815845681E+02  0.14865507208E+02  0.35232152269E+02  0.50528862651E+02  0.30000008515E+02 0.  0.
         12    1    1    2    0    0  0.13815845681E+02 -0.14865507208E+02 -0.35232152269E+02  0.40659137349E+02  0.00000000000E+00 0. -1.
         11    1    3    3    0    0 -0.65488007208E+01 -0.32660402345E+01  0.10372291122E+02  0.12694023518E+02  0.51100000000E-03 0. -1.
        -11    1    3    3    0    0 -0.97200245593E+01  0.10761603427E+02  0.26206856031E+02  0.29951465558E+02  0.51100000000E-03 0.  1.
        -12    1    3    3    0    0  0.24529795991E+01  0.73699440158E+01 -0.13469948844E+01  0.78833735754E+01  0.00000000000E+00 0.  1.
</event>
<event>
 7    1  0.2746803E-013  0.5052889E+02  0.7816164E-02  0.1300439E+00
        -11   -1    0    0    0    0  0.00000000000E+00  0.00000000000E+00  0.45593999997E+02  0.45594000000E+02  0.51100000000E-03 0.  1.
         11   -1    0    0    0    0 -0.00000000000E+00 -0.00000000000E+00 -0.45593999997E+02  0.45594000000E+02  0.51100000000E-03 0. -1.
    9900012    2    1    2    0    0  0.25249976245E+01 -0.33186181389E+02  0.23355194354E+02  0.50528888456E+02  0.30000086951E+02 0.  0.
         12    1    1    2    0    0 -0.25249976245E+01  0.33186181389E+02 -0.23355194354E+02  0.40659111544E+02  0.00000000000E+00 0. -1.
         11    1    3    3    0    0  0.93706531648E+00  0.32472841648E+01  0.37136954012E+01  0.50214021596E+01  0.51100000000E-03 0. -1.
        -11    1    3    3    0    0  0.36492016045E+01 -0.15065062944E+02 -0.12516226233E+01  0.15551184948E+02  0.51100000000E-03 0.  1.
        -12    1    3    3    0    0 -0.20612692965E+01 -0.21368402611E+02  0.20893121577E+02  0.29956301348E+02  0.00000000000E+00 0.  1.
</event>
<event>
 7    1  0.2746803E-013  0.5052887E+02  0.7816164E-02  0.1300439E+00
        -11   -1    0    0    0    0  0.00000000000E+00  0.00000000000E+00  0.45593999997E+02  0.45594000000E+02  0.51100000000E-03 0. -1.
         11   -1    0    0    0    0 -0.00000000000E+00 -0.00000000000E+00 -0.45593999997E+02  0.45594000000E+02  0.51100000000E-03 0.  1.
    9900012    2    1    2    0    0  0.30606722341E+02  0.14078735533E+02 -0.22763631153E+02  0.50528866340E+02  0.30000019728E+02 0.  0.
         12    1    1    2    0    0 -0.30606722341E+02 -0.14078735533E+02  0.22763631153E+02  0.40659133660E+02  0.00000000000E+00 0. -1.
         11    1    3    3    0    0  0.17393126506E+01  0.10613661114E+02 -0.50985105956E+01  0.11902513234E+02  0.51100000000E-03 0. -1.
        -11    1    3    3    0    0  0.88686647173E+01  0.79691637144E+00 -0.16089299552E+02  0.18388960001E+02  0.51100000000E-03 0.  1.
         12    1    3    3    0    0  0.19998744973E+02  0.26681580475E+01 -0.15758210058E+01  0.20237393106E+02  0.00000000000E+00 0. -1.
</event>
<event>
 7    1  0.2746803E-013  0.5052886E+02  0.7816164E-02  0.1300439E+00
        -11   -1    0    0    0    0  0.00000000000E+00  0.00000000000E+00  0.45593999997E+02  0.45594000000E+02  0.51100000000E-03 0. -1.
         11   -1    0    0    0    0 -0.00000000000E+00 -0.00000000000E+00 -0.45593999997E+02  0.45594000000E+02  0.51100000000E-03 0.  1.
    9900012    2    1    2    0    0 -0.25422064786E+02 -0.28295523204E+02  0.14361314401E+02  0.50528863724E+02  0.30000011774E+02 0.  0.
         12    1    1    2    0    0  0.25422064786E+02  0.28295523204E+02 -0.14361314401E+02  0.40659136276E+02  0.00000000000E+00 0. -1.
         11    1    3    3    0    0 -0.13589601468E+02 -0.95022572751E+01  0.28393239206E+01  0.16823552597E+02  0.51100000000E-03 0. -1.
        -11    1    3    3    0    0 -0.87219941923E+01  0.18777828597E+01 -0.15433409048E+01  0.90543444030E+01  0.51100000000E-03 0.  1.
        -12    1    3    3    0    0 -0.31104691260E+01 -0.20671048789E+02  0.13065331385E+02  0.24650966724E+02  0.00000000000E+00 0.  1.
</event>
<event>
 7    1  0.2746803E-013  0.5052886E+02  0.7816164E-02  0.1300439E+00
        -11   -1    0    0    0    0  0.00000000000E+00  0.00000000000E+00  0.45593999997E+02  0.45594000000E+02  0.51100000000E-03 0. -1.
         11   -1    0    0    0    0 -0.00000000000E+00 -0.00000000000E+00 -0.45593999997E+02  0.45594000000E+02  0.51100000000E-03 0.  1.
    9900012    2    1    2    0    0 -0.11926937364E+02  0.27203652308E+02 -0.27764637808E+02  0.50528860235E+02  0.30000001171E+02 0.  0.
         12    1    1    2    0    0  0.11926937364E+02 -0.27203652308E+02  0.27764637808E+02  0.40659139765E+02  0.00000000000E+00 0. -1.
         11    1    3    3    0    0 -0.47994558483E+01  0.37732627135E+01 -0.10508832358E+02  0.12153511663E+02  0.51100000000E-03 0. -1.
        -11    1    3    3    0    0  0.40602219756E+01  0.22460783986E+02 -0.13581285017E+02  0.26559810291E+02  0.51100000000E-03 0.  1.
         12    1    3    3    0    0 -0.11187703492E+02  0.96960560879E+00 -0.36745204329E+01  0.11815538281E+02  0.00000000000E+00 0. -1.
</event>
<event>
 7    1  0.2746803E-013  0.5052886E+02  0.7816164E-02  0.1300439E+00
        -11   -1    0    0    0    0  0.00000000000E+00  0.00000000000E+00  0.45593999997E+02  0.45594000000E+02  0.51100000000E-03 0.  1.
         11   -1    0    0    0    0 -0.00000000000E+00 -0.00000000000E+00 -0.45593999997E+02  0.45594000000E+02  0.51100000000E-03 0. -1.
    9900012    2    1    2    0    0  0.10596228590E+02  0.73258905677E+01  0.38564452477E+02  0.50528859235E+02  0.29999998131E+02 0.  0.
         12    1    1    2    0    0 -0.10596228590E+02 -0.73258905677E+01 -0.38564452477E+02  0.40659140765E+02  0.00000000000E+00 0. -1.
         11    1    3    3    0    0  0.12629312749E+01  0.48728302184E+01  0.16515457138E+02  0.17265566729E+02  0.51100000000E-03 0. -1.
        -11    1    3    3    0    0 -0.16574020097E+01 -0.74932788064E+01  0.15000549478E+02  0.16849709006E+02  0.51100000000E-03 0.  1.
         12    1    3    3    0    0  0.10990699324E+02  0.99463391557E+01  0.70484458603E+01  0.16413583499E+02  0.00000000000E+00 0. -1.
</event>
<event>
 7    1  0.2746803E-013  0.5052884E+02  0.7816164E-02  0.1300439E+00
        -11   -1    0    0    0    0  0.00000000000E+00  0.00000000000E+00  0.45593999997E+02  0.45594000000E+02  0.51100000000E-03 0.  1.
         11   -1    0    0    0    0 -0.00000000000E+00 -0.00000000000E+00 -0.45593999997E+02  0.45594000000E+02  0.51100000000E-03 0. -1.
    9900012    2    1    2    0    0  0.25200407669E+02 -0.21531600544E+02  0.23547751094E+02  0.50528844202E+02  0.29999952435E+02 0.  0.
         12    1    1    2    0    0 -0.25200407669E+02  0.21531600544E+02 -0.23547751094E+02  0.40659155798E+02  0.00000000000E+00 0. -1.
         11    1    3    3    0    0 -0.23730475035E+01 -0.38674205789E+01  0.81679477842E+00  0.46103633652E+01  0.51100000000E-03 0. -1.
        -11    1    3    3    0    0  0.61560348489E+01  0.37449001606E+01  0.11597768858E+02  0.13653910979E+02  0.51100000000E-03 0.  1.
        -12    1    3    3    0    0  0.21417420324E+02 -0.21409080125E+02  0.11133187457E+02  0.32264569858E+02  0.00000000000E+00 0.  1.
</event>
<event>
 7    1  0.2746803E-013  0.5052886E+02  0.7816164E-02  0.1300439E+00
        -11   -1    0    0    0    0  0.00000000000E+00  0.00000000000E+00  0.45593999997E+02  0.45594000000E+02  0.51100000000E-03 0.  1.
         11   -1    0    0    0    0 -0.00000000000E+00 -0.00000000000E+00 -0.45593999997E+02  0.45594000000E+02  0.51100000000E-03 0. -1.
    9900012    2    1    2    0    0 -0.18782274928E+02  0.21711220391E+02  0.28792622784E+02  0.50528855037E+02  0.29999985370E+02 0.  0.
         12    1    1    2    0    0  0.18782274928E+02 -0.21711220391E+02 -0.28792622784E+02  0.40659144963E+02  0.00000000000E+00 0. -1.
         11    1    3    3    0    0 -0.22537554811E+01  0.29512897707E+01  0.77348974404E+01  0.85801027823E+01  0.51100000000E-03 0. -1.
        -11    1    3    3    0    0 -0.23308045690E+02  0.15432395433E+02  0.12759026020E+02  0.30728107132E+02  0.51100000000E-03 0.  1.
         12    1    3    3    0    0  0.67795262430E+01  0.33275351878E+01  0.82986993236E+01  0.11220645123E+02  0.00000000000E+00 0. -1.
</event>
<event>
 7    1  0.2746803E-013  0.5052886E+02  0.7816164E-02  0.1300439E+00
        -11   -1    0    0    0    0  0.00000000000E+00  0.00000000000E+00  0.45593999997E+02  0.45594000000E+02  0.51100000000E-03 0. -1.
         11   -1    0    0    0    0 -0.00000000000E+00 -0.00000000000E+00 -0.45593999997E+02  0.45594000000E+02  0.51100000000E-03 0.  1.
    9900012    2    1    2    0    0 -0.29051608347E+02  0.10259911893E+02 -0.26531184824E+02  0.50528861940E+02  0.30000006353E+02 0.  0.
         12    1    1    2    0    0  0.29051608347E+02 -0.10259911893E+02  0.26531184824E+02  0.40659138060E+02  0.00000000000E+00 0. -1.
         11    1    3    3    0    0 -0.14904523253E+02  0.67198233088E+01 -0.14925671011E+02  0.22137671379E+02  0.51100000000E-03 0.  1.
        -11    1    3    3    0    0  0.50259376773E+01  0.35786738430E+01 -0.39780051607E+00  0.61826532753E+01  0.51100000000E-03 0. -1.
         12    1    3    3    0    0 -0.19173022771E+02 -0.38585258311E-01 -0.11207713297E+02  0.22208537286E+02  0.00000000000E+00 0. -1.
</event>
<event>
 7    1  0.2746803E-013  0.5052888E+02  0.7816164E-02  0.1300439E+00
        -11   -1    0    0    0    0  0.00000000000E+00  0.00000000000E+00  0.45593999997E+02  0.45594000000E+02  0.51100000000E-03 0.  1.
         11   -1    0    0    0    0 -0.00000000000E+00 -0.00000000000E+00 -0.45593999997E+02  0.45594000000E+02  0.51100000000E-03 0. -1.
    9900012    2    1    2    0    0  0.33434529463E+02  0.72096039127E+01  0.21984501209E+02  0.50528875042E+02  0.30000046177E+02 0.  0.
         12    1    1    2    0    0 -0.33434529463E+02 -0.72096039127E+01 -0.21984501209E+02  0.40659124958E+02  0.00000000000E+00 0. -1.
         11    1    3    3    0    0  0.62307736997E+01 -0.26851335922E+01 -0.39807577077E+01  0.78663152425E+01  0.51100000000E-03 0.  1.
        -11    1    3    3    0    0 -0.12251737149E+01  0.47949260491E+01  0.43198092330E+01  0.65691033268E+01  0.51100000000E-03 0. -1.
        -12    1    3    3    0    0  0.28428929478E+02  0.50998114558E+01  0.21645449683E+02  0.36093456473E+02  0.00000000000E+00 0.  1.
</event>
<event>
 7    1  0.2746803E-013  0.5052886E+02  0.7816164E-02  0.1300439E+00
        -11   -1    0    0    0    0  0.00000000000E+00  0.00000000000E+00  0.45593999997E+02  0.45594000000E+02  0.51100000000E-03 0. -1.
         11   -1    0    0    0    0 -0.00000000000E+00 -0.00000000000E+00 -0.45593999997E+02  0.45594000000E+02  0.51100000000E-03 0.  1.
    9900012    2    1    2    0    0  0.71681897796E+01 -0.12715627265E+02 -0.37948588908E+02  0.50528861770E+02  0.30000005836E+02 0.  0.
         12    1    1    2    0    0 -0.71681897796E+01  0.12715627265E+02  0.37948588908E+02  0.40659138230E+02  0.00000000000E+00 0. -1.
         11    1    3    3    0    0 -0.47397587096E+01 -0.18544626845E+01  0.80022354746E+00  0.51521551277E+01  0.51100000000E-03 0. -1.
        -11    1    3    3    0    0 -0.34036252491E+01  0.16981183871E+01 -0.58807544483E+01  0.70036807491E+01  0.51100000000E-03 0.  1.
        -12    1    3    3    0    0  0.15311573738E+02 -0.12559282968E+02 -0.32868058008E+02  0.38373025893E+02  0.00000000000E+00 0.  1.
</event>
<event>
 7    1  0.2746803E-013  0.5052886E+02  0.7816164E-02  0.1300439E+00
        -11   -1    0    0    0    0  0.00000000000E+00  0.00000000000E+00  0.45593999997E+02  0.45594000000E+02  0.51100000000E-03 0.  1.
         11   -1    0    0    0    0 -0.00000000000E+00 -0.00000000000E+00 -0.45593999997E+02  0.45594000000E+02  0.51100000000E-03 0. -1.
    9900012    2    1    2    0    0 -0.11052621098E+02 -0.46465757913E+01  0.38851185590E+02  0.50528859313E+02  0.29999998367E+02 0.  0.
         12    1    1    2    0    0  0.11052621098E+02  0.46465757913E+01 -0.38851185590E+02  0.40659140687E+02  0.00000000000E+00 0. -1.
         11    1    3    3    0    0 -0.30529411594E+00  0.29914480593E+01 -0.85734543744E+00  0.31268206615E+01  0.51100000000E-03 0.  1.
        -11    1    3    3    0    0 -0.16306642022E+01 -0.11986055801E+02  0.90062798673E+01  0.15081036990E+02  0.51100000000E-03 0. -1.
        -12    1    3    3    0    0 -0.91166627795E+01  0.43480319500E+01  0.30702251160E+02  0.32321001661E+02  0.00000000000E+00 0.  1.
</event>
<event>
 7    1  0.2746803E-013  0.5052888E+02  0.7816164E-02  0.1300439E+00
        -11   -1    0    0    0    0  0.00000000000E+00  0.00000000000E+00  0.45593999997E+02  0.45594000000E+02  0.51100000000E-03 0.  1.
         11   -1    0    0    0    0 -0.00000000000E+00 -0.00000000000E+00 -0.45593999997E+02  0.45594000000E+02  0.51100000000E-03 0. -1.
    9900012    2    1    2    0    0 -0.22247540250E+02  0.33951950163E+02 -0.23401794671E+01  0.50528875477E+02  0.30000047500E+02 0.  0.
         12    1    1    2    0    0  0.22247540250E+02 -0.33951950163E+02  0.23401794671E+01  0.40659124523E+02  0.00000000000E+00 0. -1.
         11    1    3    3    0    0  0.21004400523E+01  0.38066827693E+01 -0.17132497600E+01  0.46731046555E+01  0.51100000000E-03 0. -1.
        -11    1    3    3    0    0 -0.15842001863E+02  0.48509474996E+01  0.71713137394E+01  0.18053488740E+02  0.51100000000E-03 0.  1.
         12    1    3    3    0    0 -0.85059784396E+01  0.25294319894E+02 -0.77982434465E+01  0.27802282082E+02  0.00000000000E+00 0. -1.
</event>
<event>
 7    1  0.2746803E-013  0.5052887E+02  0.7816164E-02  0.1300439E+00
        -11   -1    0    0    0    0  0.00000000000E+00  0.00000000000E+00  0.45593999997E+02  0.45594000000E+02  0.51100000000E-03 0.  1.
         11   -1    0    0    0    0 -0.00000000000E+00 -0.00000000000E+00 -0.45593999997E+02  0.45594000000E+02  0.51100000000E-03 0. -1.
    9900012    2    1    2    0    0 -0.33628783503E+02  0.19901195870E+02  0.11234432998E+02  0.50528866195E+02  0.30000019288E+02 0.  0.
         12    1    1    2    0    0  0.33628783503E+02 -0.19901195870E+02 -0.11234432998E+02  0.40659133805E+02  0.00000000000E+00 0. -1.
         11    1    3    3    0    0 -0.28255937841E+01  0.38360593182E+01  0.41001242869E+01  0.62857259528E+01  0.51100000000E-03 0. -1.
        -11    1    3    3    0    0 -0.21012988231E+02 -0.38349032816E+01  0.51807234827E+01  0.21979355169E+02  0.51100000000E-03 0.  1.
         12    1    3    3    0    0 -0.97902014875E+01  0.19900039834E+02  0.19535852284E+01  0.22263785074E+02  0.00000000000E+00 0. -1.
</event>
<event>
 7    1  0.2746803E-013  0.5052886E+02  0.7816164E-02  0.1300439E+00
        -11   -1    0    0    0    0  0.00000000000E+00  0.00000000000E+00  0.45593999997E+02  0.45594000000E+02  0.51100000000E-03 0. -1.
         11   -1    0    0    0    0 -0.00000000000E+00 -0.00000000000E+00 -0.45593999997E+02  0.45594000000E+02  0.51100000000E-03 0.  1.
    9900012    2    1    2    0    0 -0.19938192523E+02  0.11338306166E+02 -0.33571966149E+02  0.50528860573E+02  0.30000002199E+02 0.  0.
         12    1    1    2    0    0  0.19938192523E+02 -0.11338306166E+02  0.33571966149E+02  0.40659139427E+02  0.00000000000E+00 0. -1.
         11    1    3    3    0    0  0.16136145413E+01  0.33511585393E+01  0.35303152038E+00  0.37361272674E+01  0.51100000000E-03 0. -1.
        -11    1    3    3    0    0  0.61978876246E+00 -0.28058817321E+01  0.17947949038E+01  0.33879786618E+01  0.51100000000E-03 0.  1.
        -12    1    3    3    0    0 -0.22171595827E+02  0.10793029359E+02 -0.35719792573E+02  0.43404754644E+02  0.00000000000E+00 0.  1.
</event>
<event>
 7    1  0.2746803E-013  0.5052886E+02  0.7816164E-02  0.1300439E+00
        -11   -1    0    0    0    0  0.00000000000E+00  0.00000000000E+00  0.45593999997E+02  0.45594000000E+02  0.51100000000E-03 0.  1.
         11   -1    0    0    0    0 -0.00000000000E+00 -0.00000000000E+00 -0.45593999997E+02  0.45594000000E+02  0.51100000000E-03 0. -1.
    9900012    2    1    2    0    0 -0.24494727242E+02  0.94542601836E+01  0.31044980994E+02  0.50528861505E+02  0.30000005031E+02 0.  0.
         12    1    1    2    0    0  0.24494727242E+02 -0.94542601836E+01 -0.31044980994E+02  0.40659138495E+02  0.00000000000E+00 0. -1.
         11    1    3    3    0    0  0.76765556619E-01  0.55445232931E+01 -0.10672337411E+01  0.56468238522E+01  0.51100000000E-03 0. -1.
        -11    1    3    3    0    0 -0.12479679532E+02 -0.51181898702E+01  0.24530232942E+02  0.27994117190E+02  0.51100000000E-03 0.  1.
         12    1    3    3    0    0 -0.12091813267E+02  0.90279267606E+01  0.75819817924E+01  0.16887920463E+02  0.00000000000E+00 0. -1.
</event>
<event>
 7    1  0.2746803E-013  0.5052885E+02  0.7816164E-02  0.1300439E+00
        -11   -1    0    0    0    0  0.00000000000E+00  0.00000000000E+00  0.45593999997E+02  0.45594000000E+02  0.51100000000E-03 0. -1.
         11   -1    0    0    0    0 -0.00000000000E+00 -0.00000000000E+00 -0.45593999997E+02  0.45594000000E+02  0.51100000000E-03 0.  1.
    9900012    2    1    2    0    0  0.30184860276E+02 -0.21203945573E+02 -0.17100689997E+02  0.50528847327E+02  0.29999961935E+02 0.  0.
         12    1    1    2    0    0 -0.30184860276E+02  0.21203945573E+02  0.17100689997E+02  0.40659152673E+02  0.00000000000E+00 0. -1.
         11    1    3    3    0    0  0.88719897698E+01 -0.33397560174E+01 -0.10386881698E+02  0.14062485001E+02  0.51100000000E-03 0. -1.
        -11    1    3    3    0    0  0.25742027152E+02 -0.12330647844E+02 -0.69415851896E+01  0.29374860738E+02  0.51100000000E-03 0.  1.
        -12    1    3    3    0    0 -0.44291566465E+01 -0.55335417113E+01  0.22777689017E+00  0.70915015886E+01  0.00000000000E+00 0.  1.
</event>
<event>
 7    1  0.2746803E-013  0.5052885E+02  0.7816164E-02  0.1300439E+00
        -11   -1    0    0    0    0  0.00000000000E+00  0.00000000000E+00  0.45593999997E+02  0.45594000000E+02  0.51100000000E-03 0.  1.
         11   -1    0    0    0    0 -0.00000000000E+00 -0.00000000000E+00 -0.45593999997E+02  0.45594000000E+02  0.51100000000E-03 0. -1.
    9900012    2    1    2    0    0  0.35731930410E+02  0.19321178335E+02  0.17571391496E+01  0.50528851939E+02  0.29999975954E+02 0.  0.
         12    1    1    2    0    0 -0.35731930410E+02 -0.19321178335E+02 -0.17571391496E+01  0.40659148061E+02  0.00000000000E+00 0. -1.
         11    1    3    3    0    0  0.21023339700E+01  0.11387720860E+02 -0.15092635967E+01  0.11678093653E+02  0.51100000000E-03 0. -1.
        -11    1    3    3    0    0  0.29428740217E+02  0.11819546867E+02  0.63605781738E+01  0.32345160285E+02  0.51100000000E-03 0.  1.
         12    1    3    3    0    0  0.42008562227E+01 -0.38860893925E+01 -0.30941754275E+01  0.65055980007E+01  0.00000000000E+00 0. -1.
</event>
<event>
 7    1  0.2746803E-013  0.5052890E+02  0.7816164E-02  0.1300439E+00
        -11   -1    0    0    0    0  0.00000000000E+00  0.00000000000E+00  0.45593999997E+02  0.45594000000E+02  0.51100000000E-03 0.  1.
         11   -1    0    0    0    0 -0.00000000000E+00 -0.00000000000E+00 -0.45593999997E+02  0.45594000000E+02  0.51100000000E-03 0. -1.
    9900012    2    1    2    0    0 -0.19659344880E+02  0.33533655929E+02  0.11923347799E+02  0.50528903308E+02  0.30000132095E+02 0.  0.
         12    1    1    2    0    0  0.19659344880E+02 -0.33533655929E+02 -0.11923347799E+02  0.40659096692E+02  0.00000000000E+00 0. -1.
         11    1    3    3    0    0 -0.57817049190E+01  0.27362205430E+01  0.62145622485E+00  0.64266027363E+01  0.51100000000E-03 0. -1.
        -11    1    3    3    0    0 -0.99069338506E+01  0.30201702698E+02 -0.34061672996E+00  0.31786887300E+02  0.51100000000E-03 0.  1.
         12    1    3    3    0    0 -0.39707061103E+01  0.59573268781E+00  0.11642508304E+02  0.12315413272E+02  0.00000000000E+00 0. -1.
</event>
<event>
 7    1  0.2746803E-013  0.5052886E+02  0.7816164E-02  0.1300439E+00
        -11   -1    0    0    0    0  0.00000000000E+00  0.00000000000E+00  0.45593999997E+02  0.45594000000E+02  0.51100000000E-03 0. -1.
         11   -1    0    0    0    0 -0.00000000000E+00 -0.00000000000E+00 -0.45593999997E+02  0.45594000000E+02  0.51100000000E-03 0.  1.
    9900012    2    1    2    0    0  0.57083118371E+01  0.36850402642E+02 -0.16205813566E+02  0.50528863361E+02  0.30000010672E+02 0.  0.
         12    1    1    2    0    0 -0.57083118371E+01 -0.36850402642E+02  0.16205813566E+02  0.40659136639E+02  0.00000000000E+00 0. -1.
         11    1    3    3    0    0  0.60108297483E+01  0.17997907583E+02 -0.13045857215E+02  0.23027139257E+02  0.51100000000E-03 0. -1.
        -11    1    3    3    0    0 -0.86789965983E+01  0.11773655807E+02 -0.65447142484E+01  0.16024270275E+02  0.51100000000E-03 0.  1.
         12    1    3    3    0    0  0.83764786871E+01  0.70788392521E+01  0.33847578974E+01  0.11477453828E+02  0.00000000000E+00 0. -1.
</event>
<event>
 7    1  0.2746803E-013  0.5052886E+02  0.7816164E-02  0.1300439E+00
        -11   -1    0    0    0    0  0.00000000000E+00  0.00000000000E+00  0.45593999997E+02  0.45594000000E+02  0.51100000000E-03 0.  1.
         11   -1    0    0    0    0 -0.00000000000E+00 -0.00000000000E+00 -0.45593999997E+02  0.45594000000E+02  0.51100000000E-03 0. -1.
    9900012    2    1    2    0    0 -0.83944750217E+01 -0.24363086192E+02  0.31450567904E+02  0.50528863251E+02  0.30000010337E+02 0.  0.
         12    1    1    2    0    0  0.83944750217E+01  0.24363086192E+02 -0.31450567904E+02  0.40659136749E+02  0.00000000000E+00 0. -1.
         11    1    3    3    0    0  0.17404728533E+01 -0.64457845161E+01  0.27602415774E+01  0.72247019045E+01  0.51100000000E-03 0. -1.
        -11    1    3    3    0    0  0.49984965483E+01 -0.16463962231E+02  0.14344683530E+02  0.22401271525E+02  0.51100000000E-03 0.  1.
        -12    1    3    3    0    0 -0.15133444423E+02 -0.14533394452E+01  0.14345642796E+02  0.20902889822E+02  0.00000000000E+00 0.  1.
</event>
<event>
 7    1  0.2746803E-013  0.5052885E+02  0.7816164E-02  0.1300439E+00
        -11   -1    0    0    0    0  0.00000000000E+00  0.00000000000E+00  0.45593999997E+02  0.45594000000E+02  0.51100000000E-03 0. -1.
         11   -1    0    0    0    0 -0.00000000000E+00 -0.00000000000E+00 -0.45593999997E+02  0.45594000000E+02  0.51100000000E-03 0.  1.
    9900012    2    1    2    0    0 -0.37607855119E+02 -0.49304770310E+01 -0.14646013969E+02  0.50528854711E+02  0.29999984380E+02 0.  0.
         12    1    1    2    0    0  0.37607855119E+02  0.49304770310E+01  0.14646013969E+02  0.40659145289E+02  0.00000000000E+00 0. -1.
         11    1    3    3    0    0 -0.24924739488E+02 -0.10547733299E+02 -0.22535074431E+01  0.27158343328E+02  0.51100000000E-03 0. -1.
        -11    1    3    3    0    0 -0.15226311405E+02  0.19491769073E+01 -0.95509830668E+01  0.18079301077E+02  0.51100000000E-03 0.  1.
         12    1    3    3    0    0  0.25431957734E+01  0.36680793602E+01 -0.28415234594E+01  0.52912103062E+01  0.00000000000E+00 0. -1.
</event>
<event>
 7    1  0.2746803E-013  0.5052886E+02  0.7816164E-02  0.1300439E+00
        -11   -1    0    0    0    0  0.00000000000E+00  0.00000000000E+00  0.45593999997E+02  0.45594000000E+02  0.51100000000E-03 0.  1.
         11   -1    0    0    0    0 -0.00000000000E+00 -0.00000000000E+00 -0.45593999997E+02  0.45594000000E+02  0.51100000000E-03 0. -1.
    9900012    2    1    2    0    0 -0.35946586390E+02 -0.16224952719E+02  0.98873215959E+01  0.50528864592E+02  0.30000014413E+02 0.  0.
         12    1    1    2    0    0  0.35946586390E+02  0.16224952719E+02 -0.98873215959E+01  0.40659135408E+02  0.00000000000E+00 0. -1.
         11    1    3    3    0    0  0.43407064011E+01 -0.11353313487E+01 -0.15109914831E+01  0.47343220059E+01  0.51100000000E-03 0. -1.
        -11    1    3    3    0    0 -0.18828860057E+02 -0.11563142768E+02  0.92094641138E+01  0.23938389069E+02  0.51100000000E-03 0.  1.
        -12    1    3    3    0    0 -0.21458432734E+02 -0.35264786017E+01  0.21888489652E+01  0.21856153517E+02  0.00000000000E+00 0.  1.
</event>
<event>
 7    1  0.2746803E-013  0.5052886E+02  0.7816164E-02  0.1300439E+00
        -11   -1    0    0    0    0  0.00000000000E+00  0.00000000000E+00  0.45593999997E+02  0.45594000000E+02  0.51100000000E-03 0.  1.
         11   -1    0    0    0    0 -0.00000000000E+00 -0.00000000000E+00 -0.45593999997E+02  0.45594000000E+02  0.51100000000E-03 0. -1.
    9900012    2    1    2    0    0  0.51941607570E+01 -0.23413364123E+01  0.40257973608E+02  0.50528860791E+02  0.30000002861E+02 0.  0.
         12    1    1    2    0    0 -0.51941607570E+01  0.23413364123E+01 -0.40257973608E+02  0.40659139209E+02  0.00000000000E+00 0. -1.
         11    1    3    3    0    0 -0.34467100033E+01 -0.35160501009E+01  0.18592730366E+02  0.19233617468E+02  0.51100000000E-03 0. -1.
        -11    1    3    3    0    0  0.89987595972E+01 -0.87415648070E+01  0.13651008197E+02  0.18540298127E+02  0.51100000000E-03 0.  1.
         12    1    3    3    0    0 -0.35788883689E+00  0.99162784956E+01  0.80142350446E+01  0.12754945197E+02  0.00000000000E+00 0. -1.
</event>
<event>
 7    1  0.2746803E-013  0.5052885E+02  0.7816164E-02  0.1300439E+00
        -11   -1    0    0    0    0  0.00000000000E+00  0.00000000000E+00  0.45593999997E+02  0.45594000000E+02  0.51100000000E-03 0.  1.
         11   -1    0    0    0    0 -0.00000000000E+00 -0.00000000000E+00 -0.45593999997E+02  0.45594000000E+02  0.51100000000E-03 0. -1.
    9900012    2    1    2    0    0 -0.33269324963E+02 -0.19227735768E+02  0.13289557991E+02  0.50528853946E+02  0.29999982054E+02 0.  0.
         12    1    1    2    0    0  0.33269324963E+02  0.19227735768E+02 -0.13289557991E+02  0.40659146054E+02  0.00000000000E+00 0. -1.
         11    1    3    3    0    0 -0.22762274175E+02 -0.57081156448E+01  0.68802627599E+01  0.24454891652E+02  0.51100000000E-03 0. -1.
        -11    1    3    3    0    0 -0.14126165468E+02 -0.15531856327E+02  0.43157498045E+01  0.21433917244E+02  0.51100000000E-03 0.  1.
        -12    1    3    3    0    0  0.36191146802E+01  0.20122362037E+01  0.20935454266E+01  0.46400450494E+01  0.00000000000E+00 0.  1.
</event>
<event>
 7    1  0.2746803E-013  0.5052890E+02  0.7816164E-02  0.1300439E+00
        -11   -1    0    0    0    0  0.00000000000E+00  0.00000000000E+00  0.45593999997E+02  0.45594000000E+02  0.51100000000E-03 0.  1.
         11   -1    0    0    0    0 -0.00000000000E+00 -0.00000000000E+00 -0.45593999997E+02  0.45594000000E+02  0.51100000000E-03 0. -1.
    9900012    2    1    2    0    0 -0.39337569886E+02 -0.61576976937E+01 -0.82341192784E+01  0.50528900580E+02  0.30000123801E+02 0.  0.
         12    1    1    2    0    0  0.39337569886E+02  0.61576976937E+01  0.82341192784E+01  0.40659099420E+02  0.00000000000E+00 0. -1.
         11    1    3    3    0    0 -0.64303204597E+01 -0.86653138306E+00 -0.83511281618E+01  0.10575501865E+02  0.51100000000E-03 0.  1.
        -11    1    3    3    0    0  0.19533098990E+01 -0.46802548568E+01 -0.35945033590E+00  0.50842314946E+01  0.51100000000E-03 0. -1.
        -12    1    3    3    0    0 -0.34860559325E+02 -0.61091145385E+00  0.47645921927E+00  0.34869167220E+02  0.00000000000E+00 0.  1.
</event>
<event>
 7    1  0.2746803E-013  0.5052886E+02  0.7816164E-02  0.1300439E+00
        -11   -1    0    0    0    0  0.00000000000E+00  0.00000000000E+00  0.45593999997E+02  0.45594000000E+02  0.51100000000E-03 0.  1.
         11   -1    0    0    0    0 -0.00000000000E+00 -0.00000000000E+00 -0.45593999997E+02  0.45594000000E+02  0.51100000000E-03 0. -1.
    9900012    2    1    2    0    0  0.23857264579E+02  0.31345148149E+02 -0.10073640794E+02  0.50528860505E+02  0.30000001990E+02 0.  0.
         12    1    1    2    0    0 -0.23857264579E+02 -0.31345148149E+02  0.10073640794E+02  0.40659139495E+02  0.00000000000E+00 0. -1.
         11    1    3    3    0    0  0.22807503784E+01  0.75259469557E+00  0.56435497826E+01  0.61333412977E+01  0.51100000000E-03 0. -1.
        -11    1    3    3    0    0  0.74121224474E+01  0.70655291769E+00 -0.69386454371E+01  0.10177601729E+02  0.51100000000E-03 0.  1.
         12    1    3    3    0    0  0.14164391753E+02  0.29886000535E+02 -0.87785451392E+01  0.34217917478E+02  0.00000000000E+00 0. -1.
</event>
<event>
 7    1  0.2746803E-013  0.5052888E+02  0.7816164E-02  0.1300439E+00
        -11   -1    0    0    0    0  0.00000000000E+00  0.00000000000E+00  0.45593999997E+02  0.45594000000E+02  0.51100000000E-03 0. -1.
         11   -1    0    0    0    0 -0.00000000000E+00 -0.00000000000E+00 -0.45593999997E+02  0.45594000000E+02  0.51100000000E-03 0.  1.
    9900012    2    1    2    0    0 -0.37505882938E+02 -0.15162920104E+02 -0.40692439144E+01  0.50528878673E+02  0.30000057215E+02 0.  0.
         12    1    1    2    0    0  0.37505882938E+02  0.15162920104E+02  0.40692439144E+01  0.40659121327E+02  0.00000000000E+00 0. -1.
         11    1    3    3    0    0 -0.20220155897E+02 -0.30352967251E+01  0.11794327506E+02  0.23604531181E+02  0.51100000000E-03 0. -1.
        -11    1    3    3    0    0 -0.42510787721E+01 -0.33185337472E+01 -0.14423968665E+01  0.55825483374E+01  0.51100000000E-03 0.  1.
         12    1    3    3    0    0 -0.13034648269E+02 -0.88090896319E+01 -0.14421174554E+02  0.21341799154E+02  0.00000000000E+00 0. -1.
</event>
<event>
 7    1  0.2746803E-013  0.5052886E+02  0.7816164E-02  0.1300439E+00
        -11   -1    0    0    0    0  0.00000000000E+00  0.00000000000E+00  0.45593999997E+02  0.45594000000E+02  0.51100000000E-03 0.  1.
         11   -1    0    0    0    0 -0.00000000000E+00 -0.00000000000E+00 -0.45593999997E+02  0.45594000000E+02  0.51100000000E-03 0. -1.
    9900012    2    1    2    0    0  0.21185368743E+02  0.20019623907E+02  0.28347143765E+02  0.50528858964E+02  0.29999997307E+02 0.  0.
         12    1    1    2    0    0 -0.21185368743E+02 -0.20019623907E+02 -0.28347143765E+02  0.40659141036E+02  0.00000000000E+00 0. -1.
         11    1    3    3    0    0  0.41350797715E+01 -0.58652274844E-01 -0.16102423256E+01  0.44379280542E+01  0.51100000000E-03 0. -1.
        -11    1    3    3    0    0  0.27594214137E+01  0.19377634622E+02  0.11375315035E+02  0.22638571564E+02  0.51100000000E-03 0.  1.
         12    1    3    3    0    0  0.14290867558E+02  0.70064155987E+00  0.18582071056E+02  0.23452359346E+02  0.00000000000E+00 0. -1.
</event>
<event>
 7    1  0.2746803E-013  0.5052889E+02  0.7816164E-02  0.1300439E+00
        -11   -1    0    0    0    0  0.00000000000E+00  0.00000000000E+00  0.45593999997E+02  0.45594000000E+02  0.51100000000E-03 0. -1.
         11   -1    0    0    0    0 -0.00000000000E+00 -0.00000000000E+00 -0.45593999997E+02  0.45594000000E+02  0.51100000000E-03 0.  1.
    9900012    2    1    2    0    0  0.20934670989E+02  0.10037568290E+00 -0.34855312805E+02  0.50528888408E+02  0.30000086805E+02 0.  0.
         12    1    1    2    0    0 -0.20934670989E+02 -0.10037568290E+00  0.34855312805E+02  0.40659111592E+02  0.00000000000E+00 0. -1.
         11    1    3    3    0    0  0.26577587537E+01  0.98306024589E+01 -0.78713962509E+01  0.12871025814E+02  0.51100000000E-03 0. -1.
        -11    1    3    3    0    0  0.14797016778E+02  0.80109396576E+00 -0.18444847486E+02  0.23660216738E+02  0.51100000000E-03 0.  1.
        -12    1    3    3    0    0  0.34798954579E+01 -0.10531320742E+02 -0.85390690681E+01  0.13997645856E+02  0.00000000000E+00 0.  1.
</event>
<event>
 7    1  0.2746803E-013  0.5052885E+02  0.7816164E-02  0.1300439E+00
        -11   -1    0    0    0    0  0.00000000000E+00  0.00000000000E+00  0.45593999997E+02  0.45594000000E+02  0.51100000000E-03 0. -1.
         11   -1    0    0    0    0 -0.00000000000E+00 -0.00000000000E+00 -0.45593999997E+02  0.45594000000E+02  0.51100000000E-03 0.  1.
    9900012    2    1    2    0    0 -0.23808775844E+01 -0.37462392222E+02 -0.15622642264E+02  0.50528851455E+02  0.29999974483E+02 0.  0.
         12    1    1    2    0    0  0.23808775844E+01  0.37462392222E+02  0.15622642264E+02  0.40659148545E+02  0.00000000000E+00 0. -1.
         11    1    3    3    0    0  0.24126368385E+01 -0.18267907372E+00  0.48493728606E+01  0.54194654313E+01  0.51100000000E-03 0. -1.
        -11    1    3    3    0    0  0.11568258684E+01 -0.18006617661E+02 -0.27359257790E+01  0.18249981255E+02  0.51100000000E-03 0.  1.
         12    1    3    3    0    0 -0.59503402914E+01 -0.19273095487E+02 -0.17736089346E+02  0.26859404769E+02  0.00000000000E+00 0. -1.
</event>
<event>
 7    1  0.2746803E-013  0.5052884E+02  0.7816164E-02  0.1300439E+00
        -11   -1    0    0    0    0  0.00000000000E+00  0.00000000000E+00  0.45593999997E+02  0.45594000000E+02  0.51100000000E-03 0.  1.
         11   -1    0    0    0    0 -0.00000000000E+00 -0.00000000000E+00 -0.45593999997E+02  0.45594000000E+02  0.51100000000E-03 0. -1.
    9900012    2    1    2    0    0  0.41569320390E+00 -0.21077051584E+02  0.34767118747E+02  0.50528838052E+02  0.29999933743E+02 0.  0.
         12    1    1    2    0    0 -0.41569320390E+00  0.21077051584E+02 -0.34767118747E+02  0.40659161948E+02  0.00000000000E+00 0. -1.
         11    1    3    3    0    0  0.72662303439E+01 -0.21680324382E+01  0.88684035090E+01  0.11668206766E+02  0.51100000000E-03 0.  1.
        -11    1    3    3    0    0 -0.10686340910E+02 -0.13720231918E+01  0.73166092184E+01  0.13023559436E+02  0.51100000000E-03 0. -1.
         12    1    3    3    0    0  0.38358037697E+01 -0.17536995954E+02  0.18582106020E+02  0.25837071850E+02  0.00000000000E+00 0. -1.
</event>
<event>
 7    1  0.2746803E-013  0.5052885E+02  0.7816164E-02  0.1300439E+00
        -11   -1    0    0    0    0  0.00000000000E+00  0.00000000000E+00  0.45593999997E+02  0.45594000000E+02  0.51100000000E-03 0.  1.
         11   -1    0    0    0    0 -0.00000000000E+00 -0.00000000000E+00 -0.45593999997E+02  0.45594000000E+02  0.51100000000E-03 0. -1.
    9900012    2    1    2    0    0  0.24735322463E+02 -0.26829521930E+02  0.17930625450E+02  0.50528846623E+02  0.29999959794E+02 0.  0.
         12    1    1    2    0    0 -0.24735322463E+02  0.26829521930E+02 -0.17930625450E+02  0.40659153377E+02  0.00000000000E+00 0. -1.
         11    1    3    3    0    0  0.14466011976E+02 -0.84830713400E+01 -0.24874166549E+01  0.16953325447E+02  0.51100000000E-03 0. -1.
        -11    1    3    3    0    0  0.86696733878E+01 -0.16859892468E+02  0.73611866138E+01  0.20337312489E+02  0.51100000000E-03 0.  1.
         12    1    3    3    0    0  0.15996370992E+01 -0.14865581225E+01  0.13056855491E+02  0.13238208686E+02  0.00000000000E+00 0. -1.
</event>
<event>
 7    1  0.2746803E-013  0.5052889E+02  0.7816164E-02  0.1300439E+00
        -11   -1    0    0    0    0  0.00000000000E+00  0.00000000000E+00  0.45593999997E+02  0.45594000000E+02  0.51100000000E-03 0. -1.
         11   -1    0    0    0    0 -0.00000000000E+00 -0.00000000000E+00 -0.45593999997E+02  0.45594000000E+02  0.51100000000E-03 0.  1.
    9900012    2    1    2    0    0  0.26910097705E+02  0.24533870506E+02 -0.18085882505E+02  0.50528889010E+02  0.30000088635E+02 0.  0.
         12    1    1    2    0    0 -0.26910097705E+02 -0.24533870506E+02  0.18085882505E+02  0.40659110990E+02  0.00000000000E+00 0. -1.
         11    1    3    3    0    0  0.81309943285E+01  0.29816898416E+01  0.10179409220E+00  0.86610568281E+01  0.51100000000E-03 0. -1.
        -11    1    3    3    0    0 -0.11205816779E+01  0.98612069256E+01  0.31736396205E+01  0.10419745392E+02  0.51100000000E-03 0.  1.
        -12    1    3    3    0    0  0.19899685054E+02  0.11690973739E+02 -0.21361316218E+02  0.31448086790E+02  0.00000000000E+00 0.  1.
</event>
<event>
 7    1  0.2746803E-013  0.5052886E+02  0.7816164E-02  0.1300439E+00
        -11   -1    0    0    0    0  0.00000000000E+00  0.00000000000E+00  0.45593999997E+02  0.45594000000E+02  0.51100000000E-03 0.  1.
         11   -1    0    0    0    0 -0.00000000000E+00 -0.00000000000E+00 -0.45593999997E+02  0.45594000000E+02  0.51100000000E-03 0. -1.
    9900012    2    1    2    0    0 -0.78326966133E+01  0.77338384050E+01  0.39140796478E+02  0.50528863983E+02  0.30000012563E+02 0.  0.
         12    1    1    2    0    0  0.78326966133E+01 -0.77338384050E+01 -0.39140796478E+02  0.40659136017E+02  0.00000000000E+00 0. -1.
         11    1    3    3    0    0 -0.12068924645E+01 -0.64637487946E+01  0.18492188952E+02  0.19626453842E+02  0.51100000000E-03 0. -1.
        -11    1    3    3    0    0 -0.34521087257E+01  0.12606257427E+02  0.23132359860E+02  0.26569547491E+02  0.51100000000E-03 0.  1.
        -12    1    3    3    0    0 -0.31736954231E+01  0.15913297727E+01 -0.24837523338E+01  0.43328626495E+01  0.00000000000E+00 0.  1.
</event>
<event>
 7    1  0.2746803E-013  0.5052887E+02  0.7816164E-02  0.1300439E+00
        -11   -1    0    0    0    0  0.00000000000E+00  0.00000000000E+00  0.45593999997E+02  0.45594000000E+02  0.51100000000E-03 0. -1.
         11   -1    0    0    0    0 -0.00000000000E+00 -0.00000000000E+00 -0.45593999997E+02  0.45594000000E+02  0.51100000000E-03 0.  1.
    9900012    2    1    2    0    0  0.24789668955E+02 -0.30305412266E+02  0.10964466108E+02  0.50528865521E+02  0.30000017238E+02 0.  0.
         12    1    1    2    0    0 -0.24789668955E+02  0.30305412266E+02 -0.10964466108E+02  0.40659134479E+02  0.00000000000E+00 0. -1.
         11    1    3    3    0    0  0.25702510882E+02 -0.16033919019E+02  0.54897078411E+01  0.30787051129E+02  0.51100000000E-03 0. -1.
        -11    1    3    3    0    0  0.34780288459E+01 -0.11371089953E+02 -0.34445672273E+00  0.11896092723E+02  0.51100000000E-03 0.  1.
        -12    1    3    3    0    0 -0.43908707730E+01 -0.29004032944E+01  0.58192149899E+01  0.78457216695E+01  0.00000000000E+00 0.  1.
</event>
<event>
 7    1  0.2746803E-013  0.5052886E+02  0.7816164E-02  0.1300439E+00
        -11   -1    0    0    0    0  0.00000000000E+00  0.00000000000E+00  0.45593999997E+02  0.45594000000E+02  0.51100000000E-03 0.  1.
         11   -1    0    0    0    0 -0.00000000000E+00 -0.00000000000E+00 -0.45593999997E+02  0.45594000000E+02  0.51100000000E-03 0. -1.
    9900012    2    1    2    0    0 -0.24620199317E+02  0.91172957696E+01  0.31046517580E+02  0.50528861416E+02  0.30000004759E+02 0.  0.
         12    1    1    2    0    0  0.24620199317E+02 -0.91172957696E+01 -0.31046517580E+02  0.40659138584E+02  0.00000000000E+00 0. -1.
         11    1    3    3    0    0 -0.21641177008E+01  0.11423142260E+02  0.57447315277E+01  0.12968173546E+02  0.51100000000E-03 0. -1.
        -11    1    3    3    0    0 -0.40271479488E+01  0.60724531400E+01  0.89264876596E+01  0.11522794363E+02  0.51100000000E-03 0.  1.
         12    1    3    3    0    0 -0.18428933667E+02 -0.83782996307E+01  0.16375298393E+02  0.26037893507E+02  0.00000000000E+00 0. -1.
</event>
<event>
 7    1  0.2746803E-013  0.5052884E+02  0.7816164E-02  0.1300439E+00
        -11   -1    0    0    0    0  0.00000000000E+00  0.00000000000E+00  0.45593999997E+02  0.45594000000E+02  0.51100000000E-03 0. -1.
         11   -1    0    0    0    0 -0.00000000000E+00 -0.00000000000E+00 -0.45593999997E+02  0.45594000000E+02  0.51100000000E-03 0.  1.
    9900012    2    1    2    0    0 -0.26618811311E+02 -0.80836023877E+01 -0.29652346244E+02  0.50528838905E+02  0.29999936336E+02 0.  0.
         12    1    1    2    0    0  0.26618811311E+02  0.80836023877E+01  0.29652346244E+02  0.40659161095E+02  0.00000000000E+00 0. -1.
         11    1    3    3    0    0 -0.16036155836E+02 -0.11581251083E+02 -0.15909464253E+02  0.25384931037E+02  0.51100000000E-03 0. -1.
        -11    1    3    3    0    0 -0.13287427469E+02 -0.22177144103E+01 -0.13096163496E+02  0.18787854708E+02  0.51100000000E-03 0.  1.
         12    1    3    3    0    0  0.27047719939E+01  0.57153631058E+01 -0.64671849403E+00  0.63560531606E+01  0.00000000000E+00 0. -1.
</event>
<event>
 7    1  0.2746803E-013  0.5052886E+02  0.7816164E-02  0.1300439E+00
        -11   -1    0    0    0    0  0.00000000000E+00  0.00000000000E+00  0.45593999997E+02  0.45594000000E+02  0.51100000000E-03 0.  1.
         11   -1    0    0    0    0 -0.00000000000E+00 -0.00000000000E+00 -0.45593999997E+02  0.45594000000E+02  0.51100000000E-03 0. -1.
    9900012    2    1    2    0    0  0.22606435171E+02 -0.19090483981E+02  0.27886708942E+02  0.50528855575E+02  0.29999987006E+02 0.  0.
         12    1    1    2    0    0 -0.22606435171E+02  0.19090483981E+02 -0.27886708942E+02  0.40659144425E+02  0.00000000000E+00 0. -1.
         11    1    3    3    0    0  0.84883825069E+01  0.29083700847E+01  0.53690199569E+01  0.10456463537E+02  0.51100000000E-03 0. -1.
        -11    1    3    3    0    0  0.75957917669E+01 -0.56383960593E+00  0.14310374841E+02  0.16211131855E+02  0.51100000000E-03 0.  1.
        -12    1    3    3    0    0  0.65222608971E+01 -0.21435014460E+02  0.82073141436E+01  0.23861260183E+02  0.00000000000E+00 0.  1.
</event>
<event>
 7    1  0.2746803E-013  0.5052887E+02  0.7816164E-02  0.1300439E+00
        -11   -1    0    0    0    0  0.00000000000E+00  0.00000000000E+00  0.45593999997E+02  0.45594000000E+02  0.51100000000E-03 0.  1.
         11   -1    0    0    0    0 -0.00000000000E+00 -0.00000000000E+00 -0.45593999997E+02  0.45594000000E+02  0.51100000000E-03 0. -1.
    9900012    2    1    2    0    0  0.56142227178E+01 -0.40199518631E+02  0.23757223604E+01  0.50528870009E+02  0.30000030878E+02 0.  0.
         12    1    1    2    0    0 -0.56142227178E+01  0.40199518631E+02 -0.23757223604E+01  0.40659129991E+02  0.00000000000E+00 0. -1.
         11    1    3    3    0    0  0.64000360453E+01 -0.66968237130E+01 -0.13233526193E+00  0.92642011046E+01  0.51100000000E-03 0. -1.
        -11    1    3    3    0    0 -0.12259869932E+00 -0.24344544481E+02  0.12773003357E+02  0.27492207831E+02  0.51100000000E-03 0.  1.
         12    1    3    3    0    0 -0.66321462817E+00 -0.91581504377E+01 -0.10264945734E+02  0.13772461073E+02  0.00000000000E+00 0. -1.
</event>
<event>
 7    1  0.2746803E-013  0.5052884E+02  0.7816164E-02  0.1300439E+00
        -11   -1    0    0    0    0  0.00000000000E+00  0.00000000000E+00  0.45593999997E+02  0.45594000000E+02  0.51100000000E-03 0.  1.
         11   -1    0    0    0    0 -0.00000000000E+00 -0.00000000000E+00 -0.45593999997E+02  0.45594000000E+02  0.51100000000E-03 0. -1.
    9900012    2    1    2    0    0 -0.38635962140E+02  0.97577356914E+01 -0.80756537379E+01  0.50528841627E+02  0.29999944610E+02 0.  0.
         12    1    1    2    0    0  0.38635962140E+02 -0.97577356914E+01  0.80756537379E+01  0.40659158373E+02  0.00000000000E+00 0. -1.
         11    1    3    3    0    0 -0.84067051783E+01  0.33020667790E+01 -0.10590190137E+02  0.13918637303E+02  0.51100000000E-03 0. -1.
        -11    1    3    3    0    0 -0.27121971088E+02  0.86843795311E+01 -0.42949915097E+01  0.28800463813E+02  0.51100000000E-03 0.  1.
        -12    1    3    3    0    0 -0.31072858733E+01 -0.22287106187E+01  0.68095279083E+01  0.78097405114E+01  0.00000000000E+00 0.  1.
</event>
<event>
 7    1  0.2746803E-013  0.5052886E+02  0.7816164E-02  0.1300439E+00
        -11   -1    0    0    0    0  0.00000000000E+00  0.00000000000E+00  0.45593999997E+02  0.45594000000E+02  0.51100000000E-03 0. -1.
         11   -1    0    0    0    0 -0.00000000000E+00 -0.00000000000E+00 -0.45593999997E+02  0.45594000000E+02  0.51100000000E-03 0.  1.
    9900012    2    1    2    0    0 -0.83917284038E+01 -0.38158398119E+02  0.11255266596E+02  0.50528862297E+02  0.30000007439E+02 0.  0.
         12    1    1    2    0    0  0.83917284038E+01  0.38158398119E+02 -0.11255266596E+02  0.40659137703E+02  0.00000000000E+00 0. -1.
         11    1    3    3    0    0  0.33146657554E+01 -0.39189287746E+00 -0.47284920454E+00  0.33710793121E+01  0.51100000000E-03 0. -1.
        -11    1    3    3    0    0  0.18656298670E+01 -0.24725202151E+02  0.13534886045E+02  0.28249059041E+02  0.51100000000E-03 0.  1.
        -12    1    3    3    0    0 -0.13572024026E+02 -0.13041303090E+02 -0.18067702447E+01  0.18908723944E+02  0.00000000000E+00 0.  1.
</event>
<event>
 7    1  0.2746803E-013  0.5052886E+02  0.7816164E-02  0.1300439E+00
        -11   -1    0    0    0    0  0.00000000000E+00  0.00000000000E+00  0.45593999997E+02  0.45594000000E+02  0.51100000000E-03 0.  1.
         11   -1    0    0    0    0 -0.00000000000E+00 -0.00000000000E+00 -0.45593999997E+02  0.45594000000E+02  0.51100000000E-03 0. -1.
    9900012    2    1    2    0    0 -0.70253642942E+01  0.26382654365E+02  0.30129149401E+02  0.50528857874E+02  0.29999993993E+02 0.  0.
         12    1    1    2    0    0  0.70253642942E+01 -0.26382654365E+02 -0.30129149401E+02  0.40659142126E+02  0.00000000000E+00 0. -1.
         11    1    3    3    0    0  0.43541944273E+01  0.78157176980E+01  0.85459170821E+01  0.12372435139E+02  0.51100000000E-03 0. -1.
        -11    1    3    3    0    0  0.15650869005E+01  0.68342986009E+01 -0.33028666167E+01  0.77502298367E+01  0.51100000000E-03 0.  1.
        -12    1    3    3    0    0 -0.12944645622E+02  0.11732638066E+02  0.24886098936E+02  0.30406192897E+02  0.00000000000E+00 0.  1.
</event>
<event>
 7    1  0.2746803E-013  0.5052886E+02  0.7816164E-02  0.1300439E+00
        -11   -1    0    0    0    0  0.00000000000E+00  0.00000000000E+00  0.45593999997E+02  0.45594000000E+02  0.51100000000E-03 0. -1.
         11   -1    0    0    0    0 -0.00000000000E+00 -0.00000000000E+00 -0.45593999997E+02  0.45594000000E+02  0.51100000000E-03 0.  1.
    9900012    2    1    2    0    0 -0.28909795609E+02 -0.17050557965E+02 -0.22949241750E+02  0.50528861962E+02  0.30000006420E+02 0.  0.
         12    1    1    2    0    0  0.28909795609E+02  0.17050557965E+02  0.22949241750E+02  0.40659138038E+02  0.00000000000E+00 0. -1.
         11    1    3    3    0    0  0.32744752293E+01 -0.22718365036E+01 -0.60830055637E+01  0.72723026667E+01  0.51100000000E-03 0. -1.
        -11    1    3    3    0    0 -0.11318863006E+02 -0.56192430437E+01 -0.16085736855E+02  0.20455891145E+02  0.51100000000E-03 0.  1.
         12    1    3    3    0    0 -0.20865407832E+02 -0.91594784181E+01 -0.78049933198E+00  0.22800668150E+02  0.00000000000E+00 0. -1.
</event>
<event>
 7    1  0.2746803E-013  0.5052887E+02  0.7816164E-02  0.1300439E+00
        -11   -1    0    0    0    0  0.00000000000E+00  0.00000000000E+00  0.45593999997E+02  0.45594000000E+02  0.51100000000E-03 0.  1.
         11   -1    0    0    0    0 -0.00000000000E+00 -0.00000000000E+00 -0.45593999997E+02  0.45594000000E+02  0.51100000000E-03 0. -1.
    9900012    2    1    2    0    0 -0.24832254755E+02 -0.31929107531E+02  0.41299345307E+01  0.50528866423E+02  0.30000019981E+02 0.  0.
         12    1    1    2    0    0  0.24832254755E+02  0.31929107531E+02 -0.41299345307E+01  0.40659133577E+02  0.00000000000E+00 0. -1.
         11    1    3    3    0    0 -0.16240724938E+02 -0.27811537943E+02  0.18133866945E+01  0.32257265241E+02  0.51100000000E-03 0. -1.
        -11    1    3    3    0    0 -0.95106218554E+01 -0.32690283554E+01  0.77496977707E+01  0.12696310104E+02  0.51100000000E-03 0.  1.
        -12    1    3    3    0    0  0.91909203790E+00 -0.84854123300E+00 -0.54331499345E+01  0.55752910784E+01  0.00000000000E+00 0.  1.
</event>
<event>
 7    1  0.2746803E-013  0.5052891E+02  0.7816164E-02  0.1300439E+00
        -11   -1    0    0    0    0  0.00000000000E+00  0.00000000000E+00  0.45593999997E+02  0.45594000000E+02  0.51100000000E-03 0.  1.
         11   -1    0    0    0    0 -0.00000000000E+00 -0.00000000000E+00 -0.45593999997E+02  0.45594000000E+02  0.51100000000E-03 0. -1.
    9900012    2    1    2    0    0 -0.72604325415E+01 -0.46749847949E+01  0.39731497507E+02  0.50528914205E+02  0.30000165218E+02 0.  0.
         12    1    1    2    0    0  0.72604325415E+01  0.46749847949E+01 -0.39731497507E+02  0.40659085795E+02  0.00000000000E+00 0. -1.
         11    1    3    3    0    0 -0.76725321384E+01 -0.44706606580E+01  0.13346838676E+02  0.16030990582E+02  0.51100000000E-03 0.  1.
        -11    1    3    3    0    0  0.43488173547E+01 -0.10306675729E+02  0.15681813923E+02  0.19262893478E+02  0.51100000000E-03 0. -1.
        -12    1    3    3    0    0 -0.39367177577E+01  0.10102351592E+02  0.10702844908E+02  0.15235030145E+02  0.00000000000E+00 0.  1.
</event>
<event>
 7    1  0.2746803E-013  0.5052887E+02  0.7816164E-02  0.1300439E+00
        -11   -1    0    0    0    0  0.00000000000E+00  0.00000000000E+00  0.45593999997E+02  0.45594000000E+02  0.51100000000E-03 0.  1.
         11   -1    0    0    0    0 -0.00000000000E+00 -0.00000000000E+00 -0.45593999997E+02  0.45594000000E+02  0.51100000000E-03 0. -1.
    9900012    2    1    2    0    0 -0.13491930026E+02 -0.33043197791E+01  0.38212752949E+02  0.50528865812E+02  0.30000018121E+02 0.  0.
         12    1    1    2    0    0  0.13491930026E+02  0.33043197791E+01 -0.38212752949E+02  0.40659134188E+02  0.00000000000E+00 0. -1.
         11    1    3    3    0    0 -0.57892070076E+01  0.16870101899E+01 -0.14783580939E+01  0.62085798757E+01  0.51100000000E-03 0. -1.
        -11    1    3    3    0    0 -0.64335757269E+01  0.56016512223E+01  0.12718503072E+02  0.15314362987E+02  0.51100000000E-03 0.  1.
         12    1    3    3    0    0 -0.12691472918E+01 -0.10592981191E+02  0.26972607971E+02  0.29005922949E+02  0.00000000000E+00 0. -1.
</event>
<event>
 7    1  0.2746803E-013  0.5052885E+02  0.7816164E-02  0.1300439E+00
        -11   -1    0    0    0    0  0.00000000000E+00  0.00000000000E+00  0.45593999997E+02  0.45594000000E+02  0.51100000000E-03 0.  1.
         11   -1    0    0    0    0 -0.00000000000E+00 -0.00000000000E+00 -0.45593999997E+02  0.45594000000E+02  0.51100000000E-03 0. -1.
    9900012    2    1    2    0    0 -0.19328334132E+02 -0.24035960172E+02  0.26492535149E+02  0.50528852194E+02  0.29999976729E+02 0.  0.
         12    1    1    2    0    0  0.19328334132E+02  0.24035960172E+02 -0.26492535149E+02  0.40659147806E+02  0.00000000000E+00 0. -1.
         11    1    3    3    0    0  0.24516596514E+01 -0.30531264731E+01 -0.36291958851E+01  0.53388462555E+01  0.51100000000E-03 0. -1.
        -11    1    3    3    0    0 -0.39839254697E+01 -0.89060107383E+01  0.18072205891E+02  0.20537607345E+02  0.51100000000E-03 0.  1.
         12    1    3    3    0    0 -0.17796068314E+02 -0.12076822961E+02  0.12049525143E+02  0.24652398593E+02  0.00000000000E+00 0. -1.
</event>
<event>
 7    1  0.2746803E-013  0.5052886E+02  0.7816164E-02  0.1300439E+00
        -11   -1    0    0    0    0  0.00000000000E+00  0.00000000000E+00  0.45593999997E+02  0.45594000000E+02  0.51100000000E-03 0. -1.
         11   -1    0    0    0    0 -0.00000000000E+00 -0.00000000000E+00 -0.45593999997E+02  0.45594000000E+02  0.51100000000E-03 0.  1.
    9900012    2    1    2    0    0  0.18197404705E+02  0.10152990598E+02 -0.34913278435E+02  0.50528858750E+02  0.29999996656E+02 0.  0.
         12    1    1    2    0    0 -0.18197404705E+02 -0.10152990598E+02  0.34913278435E+02  0.40659141250E+02  0.00000000000E+00 0. -1.
         11    1    3    3    0    0  0.59528313630E+01 -0.23746059492E+01  0.14217959459E+01  0.65647893054E+01  0.51100000000E-03 0. -1.
        -11    1    3    3    0    0 -0.42162616171E+01  0.45731674246E+01 -0.66891591513E+01  0.91343074576E+01  0.51100000000E-03 0.  1.
        -12    1    3    3    0    0  0.16460834959E+02  0.79544291229E+01 -0.29645915230E+02  0.34829761987E+02  0.00000000000E+00 0.  1.
</event>
<event>
 7    1  0.2746803E-013  0.5052887E+02  0.7816164E-02  0.1300439E+00
        -11   -1    0    0    0    0  0.00000000000E+00  0.00000000000E+00  0.45593999997E+02  0.45594000000E+02  0.51100000000E-03 0.  1.
         11   -1    0    0    0    0 -0.00000000000E+00 -0.00000000000E+00 -0.45593999997E+02  0.45594000000E+02  0.51100000000E-03 0. -1.
    9900012    2    1    2    0    0 -0.15723665873E+02 -0.33283100810E+02  0.17267496421E+02  0.50528869406E+02  0.30000029046E+02 0.  0.
         12    1    1    2    0    0  0.15723665873E+02  0.33283100810E+02 -0.17267496421E+02  0.40659130594E+02  0.00000000000E+00 0. -1.
         11    1    3    3    0    0 -0.75354021504E+01 -0.40169207383E+01  0.10487705657E+02  0.13524418952E+02  0.51100000000E-03 0. -1.
        -11    1    3    3    0    0 -0.66064298978E+01 -0.28557735684E+02  0.11872351599E+02  0.31625020413E+02  0.51100000000E-03 0.  1.
         12    1    3    3    0    0 -0.15818338246E+01 -0.70844438800E+00 -0.50925608351E+01  0.53794300403E+01  0.00000000000E+00 0. -1.
</event>
<event>
 7    1  0.2746803E-013  0.5052886E+02  0.7816164E-02  0.1300439E+00
        -11   -1    0    0    0    0  0.00000000000E+00  0.00000000000E+00  0.45593999997E+02  0.45594000000E+02  0.51100000000E-03 0.  1.
         11   -1    0    0    0    0 -0.00000000000E+00 -0.00000000000E+00 -0.45593999997E+02  0.45594000000E+02  0.51100000000E-03 0. -1.
    9900012    2    1    2    0    0 -0.30446023149E+02 -0.16364263717E+02  0.21410647349E+02  0.50528864834E+02  0.30000015148E+02 0.  0.
         12    1    1    2    0    0  0.30446023149E+02  0.16364263717E+02 -0.21410647349E+02  0.40659135166E+02  0.00000000000E+00 0. -1.
         11    1    3    3    0    0  0.11377107111E+01 -0.11666806076E+01  0.25777827165E+00  0.16498421745E+01  0.51100000000E-03 0.  1.
        -11    1    3    3    0    0 -0.28380392109E+02 -0.38498796051E+01  0.53076158103E+01  0.29127976502E+02  0.51100000000E-03 0. -1.
         12    1    3    3    0    0 -0.32033417503E+01 -0.11347703505E+02  0.15845253267E+02  0.19751046157E+02  0.00000000000E+00 0. -1.
</event>
<event>
 7    1  0.2746803E-013  0.5052886E+02  0.7816164E-02  0.1300439E+00
        -11   -1    0    0    0    0  0.00000000000E+00  0.00000000000E+00  0.45593999997E+02  0.45594000000E+02  0.51100000000E-03 0.  1.
         11   -1    0    0    0    0 -0.00000000000E+00 -0.00000000000E+00 -0.45593999997E+02  0.45594000000E+02  0.51100000000E-03 0. -1.
    9900012    2    1    2    0    0 -0.20162608428E+02 -0.29959485259E+02  0.18683261593E+02  0.50528858354E+02  0.29999995453E+02 0.  0.
         12    1    1    2    0    0  0.20162608428E+02  0.29959485259E+02 -0.18683261593E+02  0.40659141646E+02  0.00000000000E+00 0. -1.
         11    1    3    3    0    0 -0.11650812714E+02 -0.13231895997E+02 -0.37192321330E+01  0.18018246210E+02  0.51100000000E-03 0. -1.
        -11    1    3    3    0    0 -0.11226902497E+02 -0.15451037586E+02  0.22494476310E+02  0.29508970957E+02  0.51100000000E-03 0.  1.
         12    1    3    3    0    0  0.27151067826E+01 -0.12765516764E+01 -0.91982584263E-01  0.30016411877E+01  0.00000000000E+00 0. -1.
</event>
<event>
 7    1  0.2746803E-013  0.5052886E+02  0.7816164E-02  0.1300439E+00
        -11   -1    0    0    0    0  0.00000000000E+00  0.00000000000E+00  0.45593999997E+02  0.45594000000E+02  0.51100000000E-03 0. -1.
         11   -1    0    0    0    0 -0.00000000000E+00 -0.00000000000E+00 -0.45593999997E+02  0.45594000000E+02  0.51100000000E-03 0.  1.
    9900012    2    1    2    0    0 -0.71535022812E+01  0.11278129589E+02 -0.38403079008E+02  0.50528864751E+02  0.30000014897E+02 0.  0.
         12    1    1    2    0    0  0.71535022812E+01 -0.11278129589E+02  0.38403079008E+02  0.40659135249E+02  0.00000000000E+00 0. -1.
         11    1    3    3    0    0  0.65294805137E+01  0.10356890088E+02 -0.71289675538E+01  0.14167620362E+02  0.51100000000E-03 0. -1.
        -11    1    3    3    0    0 -0.94520770229E+00  0.44214234179E+01 -0.13352554989E+02  0.14097273767E+02  0.51100000000E-03 0.  1.
         12    1    3    3    0    0 -0.12737775093E+02 -0.35001839172E+01 -0.17921556465E+02  0.22263970623E+02  0.00000000000E+00 0. -1.
</event>
<event>
 7    1  0.2746803E-013  0.5052886E+02  0.7816164E-02  0.1300439E+00
        -11   -1    0    0    0    0  0.00000000000E+00  0.00000000000E+00  0.45593999997E+02  0.45594000000E+02  0.51100000000E-03 0. -1.
         11   -1    0    0    0    0 -0.00000000000E+00 -0.00000000000E+00 -0.45593999997E+02  0.45594000000E+02  0.51100000000E-03 0.  1.
    9900012    2    1    2    0    0  0.30547479776E+02 -0.18155961430E+02 -0.19757994170E+02  0.50528858473E+02  0.29999995814E+02 0.  0.
         12    1    1    2    0    0 -0.30547479776E+02  0.18155961430E+02  0.19757994170E+02  0.40659141527E+02  0.00000000000E+00 0. -1.
         11    1    3    3    0    0  0.22069426548E+01 -0.18701305203E+01 -0.17329681001E+02  0.17569457245E+02  0.51100000000E-03 0. -1.
        -11    1    3    3    0    0  0.14102389633E+01 -0.15203160327E+00 -0.51077809029E+00  0.15075748939E+01  0.51100000000E-03 0.  1.
         12    1    3    3    0    0  0.26930298158E+02 -0.16133799307E+02 -0.19175350783E+01  0.31451826334E+02  0.00000000000E+00 0. -1.
</event>
<event>
 7    1  0.2746803E-013  0.5052886E+02  0.7816164E-02  0.1300439E+00
        -11   -1    0    0    0    0  0.00000000000E+00  0.00000000000E+00  0.45593999997E+02  0.45594000000E+02  0.51100000000E-03 0.  1.
         11   -1    0    0    0    0 -0.00000000000E+00 -0.00000000000E+00 -0.45593999997E+02  0.45594000000E+02  0.51100000000E-03 0. -1.
    9900012    2    1    2    0    0  0.23377957398E+02 -0.18385908507E+02  0.27723550410E+02  0.50528858702E+02  0.29999996511E+02 0.  0.
         12    1    1    2    0    0 -0.23377957398E+02  0.18385908507E+02 -0.27723550410E+02  0.40659141298E+02  0.00000000000E+00 0. -1.
         11    1    3    3    0    0 -0.19060733418E+01  0.21027861137E+01  0.67813622911E+00  0.29179948648E+01  0.51100000000E-03 0. -1.
        -11    1    3    3    0    0  0.19707743442E+02 -0.10105678407E+02  0.51401662711E+01  0.22736340893E+02  0.51100000000E-03 0.  1.
         12    1    3    3    0    0  0.55762872978E+01 -0.10383016213E+02  0.21905247910E+02  0.24874522944E+02  0.00000000000E+00 0. -1.
</event>
<event>
 7    1  0.2746803E-013  0.5052885E+02  0.7816164E-02  0.1300439E+00
        -11   -1    0    0    0    0  0.00000000000E+00  0.00000000000E+00  0.45593999997E+02  0.45594000000E+02  0.51100000000E-03 0.  1.
         11   -1    0    0    0    0 -0.00000000000E+00 -0.00000000000E+00 -0.45593999997E+02  0.45594000000E+02  0.51100000000E-03 0. -1.
    9900012    2    1    2    0    0 -0.15725060255E+02  0.19364627968E+02  0.32107635168E+02  0.50528848847E+02  0.29999966556E+02 0.  0.
         12    1    1    2    0    0  0.15725060255E+02 -0.19364627968E+02 -0.32107635168E+02  0.40659151153E+02  0.00000000000E+00 0. -1.
         11    1    3    3    0    0 -0.77377988721E+01  0.12307426469E+02  0.72465619193E+01  0.16243735333E+02  0.51100000000E-03 0. -1.
        -11    1    3    3    0    0 -0.14550064396E+02  0.58678303248E+01  0.22015744857E+02  0.27033845981E+02  0.51100000000E-03 0.  1.
         12    1    3    3    0    0  0.65628030131E+01  0.11893711744E+01  0.28453283924E+01  0.72512675334E+01  0.00000000000E+00 0. -1.
</event>
<event>
 7    1  0.2746803E-013  0.5052886E+02  0.7816164E-02  0.1300439E+00
        -11   -1    0    0    0    0  0.00000000000E+00  0.00000000000E+00  0.45593999997E+02  0.45594000000E+02  0.51100000000E-03 0.  1.
         11   -1    0    0    0    0 -0.00000000000E+00 -0.00000000000E+00 -0.45593999997E+02  0.45594000000E+02  0.51100000000E-03 0. -1.
    9900012    2    1    2    0    0  0.17060360752E+02  0.16081359971E+02  0.33218962979E+02  0.50528861435E+02  0.30000004817E+02 0.  0.
         12    1    1    2    0    0 -0.17060360752E+02 -0.16081359971E+02 -0.33218962979E+02  0.40659138565E+02  0.00000000000E+00 0. -1.
         11    1    3    3    0    0  0.47811820700E+01  0.61744572788E+01 -0.25164293264E+01  0.82046353661E+01  0.51100000000E-03 0. -1.
        -11    1    3    3    0    0  0.15466455839E+02  0.83850154825E+01  0.22147692061E+02  0.28284978430E+02  0.51100000000E-03 0.  1.
        -12    1    3    3    0    0 -0.31872771574E+01  0.15218872093E+01  0.13587700244E+02  0.14039247639E+02  0.00000000000E+00 0.  1.
</event>
<event>
 7    1  0.2746803E-013  0.5052877E+02  0.7816164E-02  0.1300439E+00
        -11   -1    0    0    0    0  0.00000000000E+00  0.00000000000E+00  0.45593999997E+02  0.45594000000E+02  0.51100000000E-03 0.  1.
         11   -1    0    0    0    0 -0.00000000000E+00 -0.00000000000E+00 -0.45593999997E+02  0.45594000000E+02  0.51100000000E-03 0. -1.
    9900012    2    1    2    0    0  0.72435988701E+01 -0.24394122785E+02  0.31711670641E+02  0.50528769733E+02  0.29999726078E+02 0.  0.
         12    1    1    2    0    0 -0.72435988701E+01  0.24394122785E+02 -0.31711670641E+02  0.40659230267E+02  0.00000000000E+00 0. -1.
         11    1    3    3    0    0 -0.40468006341E+01 -0.34416383628E+01 -0.28796082172E+01  0.60426495627E+01  0.51100000000E-03 0. -1.
        -11    1    3    3    0    0  0.73776540688E+01 -0.62726568519E+01  0.42939201335E+01  0.10593099354E+02  0.51100000000E-03 0.  1.
         12    1    3    3    0    0  0.39127454354E+01 -0.14679827571E+02  0.30297358725E+02  0.33893020816E+02  0.00000000000E+00 0. -1.
</event>
<event>
 7    1  0.2746803E-013  0.5052891E+02  0.7816164E-02  0.1300439E+00
        -11   -1    0    0    0    0  0.00000000000E+00  0.00000000000E+00  0.45593999997E+02  0.45594000000E+02  0.51100000000E-03 0. -1.
         11   -1    0    0    0    0 -0.00000000000E+00 -0.00000000000E+00 -0.45593999997E+02  0.45594000000E+02  0.51100000000E-03 0.  1.
    9900012    2    1    2    0    0 -0.27268175487E+02  0.37707360393E+01 -0.29923061334E+02  0.50528911911E+02  0.30000158243E+02 0.  0.
         12    1    1    2    0    0  0.27268175487E+02 -0.37707360393E+01  0.29923061334E+02  0.40659088089E+02  0.00000000000E+00 0. -1.
         11    1    3    3    0    0 -0.27830211220E+02  0.19484475433E+01 -0.23570622729E+02  0.36522477469E+02  0.51100000000E-03 0. -1.
        -11    1    3    3    0    0 -0.29656554787E+01 -0.42040258114E+01 -0.43628271310E+01  0.67456064425E+01  0.51100000000E-03 0.  1.
         12    1    3    3    0    0  0.35276912115E+01  0.60263143074E+01 -0.19896114734E+01  0.72608279989E+01  0.00000000000E+00 0. -1.
</event>
<event>
 7    1  0.2746803E-013  0.5052886E+02  0.7816164E-02  0.1300439E+00
        -11   -1    0    0    0    0  0.00000000000E+00  0.00000000000E+00  0.45593999997E+02  0.45594000000E+02  0.51100000000E-03 0. -1.
         11   -1    0    0    0    0 -0.00000000000E+00 -0.00000000000E+00 -0.45593999997E+02  0.45594000000E+02  0.51100000000E-03 0.  1.
    9900012    2    1    2    0    0  0.20147615718E+02 -0.31456304226E+02 -0.16054286634E+02  0.50528860633E+02  0.30000002381E+02 0.  0.
         12    1    1    2    0    0 -0.20147615718E+02  0.31456304226E+02  0.16054286634E+02  0.40659139367E+02  0.00000000000E+00 0. -1.
         11    1    3    3    0    0  0.12233985146E+02 -0.66235748664E+01 -0.86183671029E+01  0.16365157755E+02  0.51100000000E-03 0.  1.
        -11    1    3    3    0    0  0.42657823688E+01 -0.14366982118E+02  0.65186972952E+01  0.16343209265E+02  0.51100000000E-03 0. -1.
         12    1    3    3    0    0  0.36478482034E+01 -0.10465747242E+02 -0.13954616827E+02  0.17820493613E+02  0.00000000000E+00 0. -1.
</event>
<event>
 7    1  0.2746803E-013  0.5052885E+02  0.7816164E-02  0.1300439E+00
        -11   -1    0    0    0    0  0.00000000000E+00  0.00000000000E+00  0.45593999997E+02  0.45594000000E+02  0.51100000000E-03 0.  1.
         11   -1    0    0    0    0 -0.00000000000E+00 -0.00000000000E+00 -0.45593999997E+02  0.45594000000E+02  0.51100000000E-03 0. -1.
    9900012    2    1    2    0    0  0.89448516104E+01  0.33076085051E+02  0.21889000035E+02  0.50528854717E+02  0.29999984398E+02 0.  0.
         12    1    1    2    0    0 -0.89448516104E+01 -0.33076085051E+02 -0.21889000035E+02  0.40659145283E+02  0.00000000000E+00 0. -1.
         11    1    3    3    0    0  0.82022701671E+00 -0.20614799331E+01  0.21529354464E+01  0.30915373476E+01  0.51100000000E-03 0. -1.
        -11    1    3    3    0    0  0.62210586160E+01  0.34487824054E+02  0.24168217201E+02  0.42570110420E+02  0.51100000000E-03 0.  1.
         12    1    3    3    0    0  0.19035659778E+01  0.64974093019E+00 -0.44321526123E+01  0.48672069493E+01  0.00000000000E+00 0. -1.
</event>
<event>
 7    1  0.2746803E-013  0.5052887E+02  0.7816164E-02  0.1300439E+00
        -11   -1    0    0    0    0  0.00000000000E+00  0.00000000000E+00  0.45593999997E+02  0.45594000000E+02  0.51100000000E-03 0. -1.
         11   -1    0    0    0    0 -0.00000000000E+00 -0.00000000000E+00 -0.45593999997E+02  0.45594000000E+02  0.51100000000E-03 0.  1.
    9900012    2    1    2    0    0  0.13066638248E+02 -0.37885703378E+02 -0.68630577130E+01  0.50528866749E+02  0.30000020970E+02 0.  0.
         12    1    1    2    0    0 -0.13066638248E+02  0.37885703378E+02  0.68630577130E+01  0.40659133251E+02  0.00000000000E+00 0. -1.
         11    1    3    3    0    0  0.44907648842E+01 -0.82749912099E+01  0.18170227246E+01  0.95887444753E+01  0.51100000000E-03 0. -1.
        -11    1    3    3    0    0  0.17592333496E+02 -0.20065458658E+02 -0.39114840422E+01  0.26970586509E+02  0.51100000000E-03 0.  1.
        -12    1    3    3    0    0 -0.90164601321E+01 -0.95452535103E+01 -0.47685963954E+01  0.13969535764E+02  0.00000000000E+00 0.  1.
</event>
<event>
 7    1  0.2746803E-013  0.5052887E+02  0.7816164E-02  0.1300439E+00
        -11   -1    0    0    0    0  0.00000000000E+00  0.00000000000E+00  0.45593999997E+02  0.45594000000E+02  0.51100000000E-03 0. -1.
         11   -1    0    0    0    0 -0.00000000000E+00 -0.00000000000E+00 -0.45593999997E+02  0.45594000000E+02  0.51100000000E-03 0.  1.
    9900012    2    1    2    0    0 -0.19055692688E+02 -0.35665323622E+02 -0.42462150492E+01  0.50528867260E+02  0.30000022525E+02 0.  0.
         12    1    1    2    0    0  0.19055692688E+02  0.35665323622E+02  0.42462150492E+01  0.40659132740E+02  0.00000000000E+00 0. -1.
         11    1    3    3    0    0  0.67702488319E+00 -0.17851449466E+02  0.71015200730E+01  0.19224052599E+02  0.51100000000E-03 0. -1.
        -11    1    3    3    0    0 -0.11931119488E+02 -0.15316884526E+02 -0.30654191668E+01  0.19655924266E+02  0.51100000000E-03 0.  1.
        -12    1    3    3    0    0 -0.78015980835E+01 -0.24969896308E+01 -0.82823159554E+01  0.11648890396E+02  0.00000000000E+00 0.  1.
</event>
<event>
 7    1  0.2746803E-013  0.5052886E+02  0.7816164E-02  0.1300439E+00
        -11   -1    0    0    0    0  0.00000000000E+00  0.00000000000E+00  0.45593999997E+02  0.45594000000E+02  0.51100000000E-03 0.  1.
         11   -1    0    0    0    0 -0.00000000000E+00 -0.00000000000E+00 -0.45593999997E+02  0.45594000000E+02  0.51100000000E-03 0. -1.
    9900012    2    1    2    0    0  0.29935793304E+02 -0.27506161990E+02  0.65207026287E+00  0.50528857561E+02  0.29999993044E+02 0.  0.
         12    1    1    2    0    0 -0.29935793304E+02  0.27506161990E+02 -0.65207026287E+00  0.40659142439E+02  0.00000000000E+00 0. -1.
         11    1    3    3    0    0  0.18223864906E+02 -0.15146885136E+02 -0.97725894060E+01  0.25632808769E+02  0.51100000000E-03 0. -1.
        -11    1    3    3    0    0  0.11265877007E+02 -0.19812363843E+01  0.22041605059E+01  0.11649189076E+02  0.51100000000E-03 0.  1.
        -12    1    3    3    0    0  0.44605139176E+00 -0.10378040470E+02  0.82204991630E+01  0.13246859716E+02  0.00000000000E+00 0.  1.
</event>
<event>
 7    1  0.2746803E-013  0.5052886E+02  0.7816164E-02  0.1300439E+00
        -11   -1    0    0    0    0  0.00000000000E+00  0.00000000000E+00  0.45593999997E+02  0.45594000000E+02  0.51100000000E-03 0.  1.
         11   -1    0    0    0    0 -0.00000000000E+00 -0.00000000000E+00 -0.45593999997E+02  0.45594000000E+02  0.51100000000E-03 0. -1.
    9900012    2    1    2    0    0 -0.13289457038E+02 -0.18412616767E+02  0.33727311485E+02  0.50528860012E+02  0.30000000493E+02 0.  0.
         12    1    1    2    0    0  0.13289457038E+02  0.18412616767E+02 -0.33727311485E+02  0.40659139988E+02  0.00000000000E+00 0. -1.
         11    1    3    3    0    0 -0.11779698662E+02 -0.10079786289E+02  0.18034580921E+02  0.23782546152E+02  0.51100000000E-03 0.  1.
        -11    1    3    3    0    0 -0.19883629863E+01  0.36203164152E+01  0.14082466981E+02  0.14675699467E+02  0.51100000000E-03 0. -1.
         12    1    3    3    0    0  0.47860461028E+00 -0.11953146893E+02  0.16102635823E+01  0.12070614393E+02  0.00000000000E+00 0. -1.
</event>
<event>
 7    1  0.2746803E-013  0.5052886E+02  0.7816164E-02  0.1300439E+00
        -11   -1    0    0    0    0  0.00000000000E+00  0.00000000000E+00  0.45593999997E+02  0.45594000000E+02  0.51100000000E-03 0.  1.
         11   -1    0    0    0    0 -0.00000000000E+00 -0.00000000000E+00 -0.45593999997E+02  0.45594000000E+02  0.51100000000E-03 0. -1.
    9900012    2    1    2    0    0 -0.17154687309E+02 -0.72694182613E+01  0.36139145545E+02  0.50528861062E+02  0.30000003683E+02 0.  0.
         12    1    1    2    0    0  0.17154687309E+02  0.72694182613E+01 -0.36139145545E+02  0.40659138938E+02  0.00000000000E+00 0. -1.
         11    1    3    3    0    0 -0.20810534639E+01 -0.15071679551E+02  0.12899849601E+02  0.19947241112E+02  0.51100000000E-03 0. -1.
        -11    1    3    3    0    0 -0.12259910825E+02  0.35177828247E+01  0.94602750854E+01  0.15880082316E+02  0.51100000000E-03 0.  1.
        -12    1    3    3    0    0 -0.28137230206E+01  0.42844784650E+01  0.13779020858E+02  0.14701537633E+02  0.00000000000E+00 0.  1.
</event>
<event>
 7    1  0.2746803E-013  0.5052885E+02  0.7816164E-02  0.1300439E+00
        -11   -1    0    0    0    0  0.00000000000E+00  0.00000000000E+00  0.45593999997E+02  0.45594000000E+02  0.51100000000E-03 0.  1.
         11   -1    0    0    0    0 -0.00000000000E+00 -0.00000000000E+00 -0.45593999997E+02  0.45594000000E+02  0.51100000000E-03 0. -1.
    9900012    2    1    2    0    0 -0.24439985739E+02  0.18692786018E+02  0.26578806753E+02  0.50528854406E+02  0.29999983453E+02 0.  0.
         12    1    1    2    0    0  0.24439985739E+02 -0.18692786018E+02 -0.26578806753E+02  0.40659145594E+02  0.00000000000E+00 0. -1.
         11    1    3    3    0    0 -0.66513073411E+01  0.16854614988E+02  0.96016697985E+01  0.20506340457E+02  0.51100000000E-03 0. -1.
        -11    1    3    3    0    0  0.26815699429E+01 -0.15039687019E+01 -0.21548893221E+00  0.30820731588E+01  0.51100000000E-03 0.  1.
        -12    1    3    3    0    0 -0.20470248341E+02  0.33421397317E+01  0.17192625887E+02  0.26940440791E+02  0.00000000000E+00 0.  1.
</event>
<event>
 7    1  0.2746803E-013  0.5052886E+02  0.7816164E-02  0.1300439E+00
        -11   -1    0    0    0    0  0.00000000000E+00  0.00000000000E+00  0.45593999997E+02  0.45594000000E+02  0.51100000000E-03 0.  1.
         11   -1    0    0    0    0 -0.00000000000E+00 -0.00000000000E+00 -0.45593999997E+02  0.45594000000E+02  0.51100000000E-03 0. -1.
    9900012    2    1    2    0    0  0.12288995748E+02 -0.10781621822E+02  0.37227717354E+02  0.50528859269E+02  0.29999998235E+02 0.  0.
         12    1    1    2    0    0 -0.12288995748E+02  0.10781621822E+02 -0.37227717354E+02  0.40659140731E+02  0.00000000000E+00 0. -1.
         11    1    3    3    0    0  0.88219229396E+01 -0.11495117490E+02  0.47738607202E+01  0.15256270740E+02  0.51100000000E-03 0. -1.
        -11    1    3    3    0    0  0.18380614140E+01  0.27281881259E+01  0.63736169146E+00  0.33507775812E+01  0.51100000000E-03 0.  1.
         12    1    3    3    0    0  0.16290113945E+01 -0.20146924578E+01  0.31816494942E+02  0.31921810948E+02  0.00000000000E+00 0. -1.
</event>
<event>
 7    1  0.2746803E-013  0.5052886E+02  0.7816164E-02  0.1300439E+00
        -11   -1    0    0    0    0  0.00000000000E+00  0.00000000000E+00  0.45593999997E+02  0.45594000000E+02  0.51100000000E-03 0.  1.
         11   -1    0    0    0    0 -0.00000000000E+00 -0.00000000000E+00 -0.45593999997E+02  0.45594000000E+02  0.51100000000E-03 0. -1.
    9900012    2    1    2    0    0 -0.11473823516E+02  0.20794949272E+02  0.33001318258E+02  0.50528861445E+02  0.30000004848E+02 0.  0.
         12    1    1    2    0    0  0.11473823516E+02 -0.20794949272E+02 -0.33001318258E+02  0.40659138555E+02  0.00000000000E+00 0. -1.
         11    1    3    3    0    0 -0.87330623088E+01  0.24899230406E+01 -0.28959665271E+00  0.90857008822E+01  0.51100000000E-03 0. -1.
        -11    1    3    3    0    0 -0.89955580720E+01  0.65238104529E+01  0.17982096844E+02  0.21138495098E+02  0.51100000000E-03 0.  1.
        -12    1    3    3    0    0  0.62547968645E+01  0.11781215778E+02  0.15308818066E+02  0.20304665464E+02  0.00000000000E+00 0.  1.
</event>
<event>
 7    1  0.2746803E-013  0.5052887E+02  0.7816164E-02  0.1300439E+00
        -11   -1    0    0    0    0  0.00000000000E+00  0.00000000000E+00  0.45593999997E+02  0.45594000000E+02  0.51100000000E-03 0.  1.
         11   -1    0    0    0    0 -0.00000000000E+00 -0.00000000000E+00 -0.45593999997E+02  0.45594000000E+02  0.51100000000E-03 0. -1.
    9900012    2    1    2    0    0  0.24122224834E+02 -0.25068185199E+02  0.21044460166E+02  0.50528868875E+02  0.30000027434E+02 0.  0.
         12    1    1    2    0    0 -0.24122224834E+02  0.25068185199E+02 -0.21044460166E+02  0.40659131125E+02  0.00000000000E+00 0. -1.
         11    1    3    3    0    0  0.76779039403E+01  0.14738699801E+01  0.61870474581E+01  0.99700580813E+01  0.51100000000E-03 0.  1.
        -11    1    3    3    0    0 -0.44347505616E+01 -0.63608385740E+01  0.70726415251E+01  0.10495215020E+02  0.51100000000E-03 0. -1.
        -12    1    3    3    0    0  0.20879071455E+02 -0.20181216605E+02  0.77847711832E+01  0.30063595774E+02  0.00000000000E+00 0.  1.
</event>
<event>
 7    1  0.2746803E-013  0.5052885E+02  0.7816164E-02  0.1300439E+00
        -11   -1    0    0    0    0  0.00000000000E+00  0.00000000000E+00  0.45593999997E+02  0.45594000000E+02  0.51100000000E-03 0.  1.
         11   -1    0    0    0    0 -0.00000000000E+00 -0.00000000000E+00 -0.45593999997E+02  0.45594000000E+02  0.51100000000E-03 0. -1.
    9900012    2    1    2    0    0 -0.33599930782E+02 -0.22455865430E+02  0.44660231045E+01  0.50528848470E+02  0.29999965408E+02 0.  0.
         12    1    1    2    0    0  0.33599930782E+02  0.22455865430E+02 -0.44660231045E+01  0.40659151530E+02  0.00000000000E+00 0. -1.
         11    1    3    3    0    0 -0.89350971073E+01  0.61214871258E+01  0.37851739923E+01  0.11473277969E+02  0.51100000000E-03 0. -1.
        -11    1    3    3    0    0 -0.17830506083E+02 -0.13085179828E+02  0.31621117736E+00  0.22118970774E+02  0.51100000000E-03 0.  1.
        -12    1    3    3    0    0 -0.68343275918E+01 -0.15492172728E+02  0.36463793483E+00  0.16936599727E+02  0.00000000000E+00 0.  1.
</event>
<event>
 7    1  0.2746803E-013  0.5052886E+02  0.7816164E-02  0.1300439E+00
        -11   -1    0    0    0    0  0.00000000000E+00  0.00000000000E+00  0.45593999997E+02  0.45594000000E+02  0.51100000000E-03 0.  1.
         11   -1    0    0    0    0 -0.00000000000E+00 -0.00000000000E+00 -0.45593999997E+02  0.45594000000E+02  0.51100000000E-03 0. -1.
    9900012    2    1    2    0    0  0.14677181334E+02  0.29181170126E+02  0.24211674140E+02  0.50528861956E+02  0.30000006400E+02 0.  0.
         12    1    1    2    0    0 -0.14677181334E+02 -0.29181170126E+02 -0.24211674140E+02  0.40659138044E+02  0.00000000000E+00 0. -1.
         11    1    3    3    0    0  0.55170292956E+00  0.36659309776E+01  0.83400348451E+01  0.91268618667E+01  0.51100000000E-03 0.  1.
        -11    1    3    3    0    0  0.95353093551E+00  0.12364396969E+02 -0.50582011981E+01  0.13393018079E+02  0.51100000000E-03 0. -1.
         12    1    3    3    0    0  0.13171947468E+02  0.13150842180E+02  0.20929840493E+02  0.28008982010E+02  0.00000000000E+00 0. -1.
</event>
<event>
 7    1  0.2746803E-013  0.5052886E+02  0.7816164E-02  0.1300439E+00
        -11   -1    0    0    0    0  0.00000000000E+00  0.00000000000E+00  0.45593999997E+02  0.45594000000E+02  0.51100000000E-03 0.  1.
         11   -1    0    0    0    0 -0.00000000000E+00 -0.00000000000E+00 -0.45593999997E+02  0.45594000000E+02  0.51100000000E-03 0. -1.
    9900012    2    1    2    0    0  0.25662107440E+02 -0.25831938751E+02  0.18092351029E+02  0.50528856088E+02  0.29999988564E+02 0.  0.
         12    1    1    2    0    0 -0.25662107440E+02  0.25831938751E+02 -0.18092351029E+02  0.40659143912E+02  0.00000000000E+00 0. -1.
         11    1    3    3    0    0 -0.55178517127E+00  0.28796308261E+01  0.24840451430E+00  0.29425236845E+01  0.51100000000E-03 0. -1.
        -11    1    3    3    0    0  0.82188434355E+01 -0.46019085744E+01  0.14534668906E+02  0.17320033211E+02  0.51100000000E-03 0.  1.
        -12    1    3    3    0    0  0.17995049176E+02 -0.24109661003E+02  0.33092776081E+01  0.30266299193E+02  0.00000000000E+00 0.  1.
</event>
<event>
 7    1  0.2746803E-013  0.5052885E+02  0.7816164E-02  0.1300439E+00
        -11   -1    0    0    0    0  0.00000000000E+00  0.00000000000E+00  0.45593999997E+02  0.45594000000E+02  0.51100000000E-03 0. -1.
         11   -1    0    0    0    0 -0.00000000000E+00 -0.00000000000E+00 -0.45593999997E+02  0.45594000000E+02  0.51100000000E-03 0.  1.
    9900012    2    1    2    0    0 -0.15534078239E+02 -0.37518702325E+02 -0.20507468334E+01  0.50528853754E+02  0.29999981470E+02 0.  0.
         12    1    1    2    0    0  0.15534078239E+02  0.37518702325E+02  0.20507468334E+01  0.40659146246E+02  0.00000000000E+00 0. -1.
         11    1    3    3    0    0  0.47384744598E+01 -0.25387973041E+01  0.27236744247E+01  0.60263616379E+01  0.51100000000E-03 0. -1.
        -11    1    3    3    0    0 -0.14738409660E+02 -0.13475502733E+02  0.44460029714E+01  0.20459150420E+02  0.51100000000E-03 0.  1.
         12    1    3    3    0    0 -0.55341430387E+01 -0.21504402288E+02 -0.92204242295E+01  0.24043341696E+02  0.00000000000E+00 0. -1.
</event>
<event>
 7    1  0.2746803E-013  0.5052886E+02  0.7816164E-02  0.1300439E+00
        -11   -1    0    0    0    0  0.00000000000E+00  0.00000000000E+00  0.45593999997E+02  0.45594000000E+02  0.51100000000E-03 0. -1.
         11   -1    0    0    0    0 -0.00000000000E+00 -0.00000000000E+00 -0.45593999997E+02  0.45594000000E+02  0.51100000000E-03 0.  1.
    9900012    2    1    2    0    0  0.23225968962E+02 -0.32831184541E+02  0.59861179237E+01  0.50528856866E+02  0.29999990930E+02 0.  0.
         12    1    1    2    0    0 -0.23225968962E+02  0.32831184541E+02 -0.59861179237E+01  0.40659143134E+02  0.00000000000E+00 0. -1.
         11    1    3    3    0    0  0.58918128171E+01 -0.67844921233E+01 -0.73713106152E+01  0.11622349680E+02  0.51100000000E-03 0. -1.
        -11    1    3    3    0    0  0.30522624933E+01 -0.21239836268E+02  0.73055445855E+01  0.22667552425E+02  0.51100000000E-03 0.  1.
         12    1    3    3    0    0  0.14281893651E+02 -0.48068561503E+01  0.60518839533E+01  0.16238954760E+02  0.00000000000E+00 0. -1.
</event>
<event>
 7    1  0.2746803E-013  0.5052886E+02  0.7816164E-02  0.1300439E+00
        -11   -1    0    0    0    0  0.00000000000E+00  0.00000000000E+00  0.45593999997E+02  0.45594000000E+02  0.51100000000E-03 0. -1.
         11   -1    0    0    0    0 -0.00000000000E+00 -0.00000000000E+00 -0.45593999997E+02  0.45594000000E+02  0.51100000000E-03 0.  1.
    9900012    2    1    2    0    0  0.25897665347E+02 -0.31289802020E+02  0.18506738912E+01  0.50528858658E+02  0.29999996376E+02 0.  0.
         12    1    1    2    0    0 -0.25897665347E+02  0.31289802020E+02 -0.18506738912E+01  0.40659141342E+02  0.00000000000E+00 0. -1.
         11    1    3    3    0    0  0.96308239597E+00 -0.17922171137E+02 -0.12315569862E+01  0.17990232873E+02  0.51100000000E-03 0. -1.
        -11    1    3    3    0    0  0.96587628859E+01 -0.67380569357E+01 -0.63714775951E+01  0.13389878221E+02  0.51100000000E-03 0.  1.
        -12    1    3    3    0    0  0.15275820065E+02 -0.66295739471E+01  0.94537084725E+01  0.19148747564E+02  0.00000000000E+00 0.  1.
</event>
<event>
 7    1  0.2746803E-013  0.5052885E+02  0.7816164E-02  0.1300439E+00
        -11   -1    0    0    0    0  0.00000000000E+00  0.00000000000E+00  0.45593999997E+02  0.45594000000E+02  0.51100000000E-03 0.  1.
         11   -1    0    0    0    0 -0.00000000000E+00 -0.00000000000E+00 -0.45593999997E+02  0.45594000000E+02  0.51100000000E-03 0. -1.
    9900012    2    1    2    0    0  0.21308380291E+02  0.80913095857E+01  0.33669715535E+02  0.50528854588E+02  0.29999984004E+02 0.  0.
         12    1    1    2    0    0 -0.21308380291E+02 -0.80913095857E+01 -0.33669715535E+02  0.40659145412E+02  0.00000000000E+00 0. -1.
         11    1    3    3    0    0  0.25818343613E+01 -0.51009057104E+01  0.49512954492E+00  0.57384894583E+01  0.51100000000E-03 0. -1.
        -11    1    3    3    0    0  0.11061823164E+02  0.10995650823E+02  0.64090997861E+01  0.16862527363E+02  0.51100000000E-03 0.  1.
        -12    1    3    3    0    0  0.76647227657E+01  0.21965644732E+01  0.26765486204E+02  0.27927837766E+02  0.00000000000E+00 0.  1.
</event>
<event>
 7    1  0.2746803E-013  0.5052885E+02  0.7816164E-02  0.1300439E+00
        -11   -1    0    0    0    0  0.00000000000E+00  0.00000000000E+00  0.45593999997E+02  0.45594000000E+02  0.51100000000E-03 0. -1.
         11   -1    0    0    0    0 -0.00000000000E+00 -0.00000000000E+00 -0.45593999997E+02  0.45594000000E+02  0.51100000000E-03 0.  1.
    9900012    2    1    2    0    0  0.10306114769E+02 -0.39196403439E+02  0.32545432193E+01  0.50528854710E+02  0.29999984376E+02 0.  0.
         12    1    1    2    0    0 -0.10306114769E+02  0.39196403439E+02 -0.32545432193E+01  0.40659145290E+02  0.00000000000E+00 0. -1.
         11    1    3    3    0    0  0.44099853651E+01 -0.14037800038E+02  0.11995513661E+02  0.18984207886E+02  0.51100000000E-03 0. -1.
        -11    1    3    3    0    0  0.91058963379E+01 -0.60598487835E+01 -0.28844305767E+01  0.11311898842E+02  0.51100000000E-03 0.  1.
         12    1    3    3    0    0 -0.32097669335E+01 -0.19098754618E+02 -0.58565398647E+01  0.20232747982E+02  0.00000000000E+00 0. -1.
</event>
<event>
 7    1  0.2746803E-013  0.5052887E+02  0.7816164E-02  0.1300439E+00
        -11   -1    0    0    0    0  0.00000000000E+00  0.00000000000E+00  0.45593999997E+02  0.45594000000E+02  0.51100000000E-03 0.  1.
         11   -1    0    0    0    0 -0.00000000000E+00 -0.00000000000E+00 -0.45593999997E+02  0.45594000000E+02  0.51100000000E-03 0. -1.
    9900012    2    1    2    0    0  0.89632603747E+01  0.24318374110E+02  0.31327972390E+02  0.50528865603E+02  0.30000017486E+02 0.  0.
         12    1    1    2    0    0 -0.89632603747E+01 -0.24318374110E+02 -0.31327972390E+02  0.40659134397E+02  0.00000000000E+00 0. -1.
         11    1    3    3    0    0  0.66196052243E+01  0.59280526301E+01 -0.18284406061E+01  0.90721649358E+01  0.51100000000E-03 0. -1.
        -11    1    3    3    0    0  0.68118244820E+00 -0.25777866492E+01  0.91910025591E+01  0.95699279955E+01  0.51100000000E-03 0.  1.
        -12    1    3    3    0    0  0.16624727022E+01  0.20968108129E+02  0.23965410437E+02  0.31886772671E+02  0.00000000000E+00 0.  1.
</event>
<event>
 7    1  0.2746803E-013  0.5052886E+02  0.7816164E-02  0.1300439E+00
        -11   -1    0    0    0    0  0.00000000000E+00  0.00000000000E+00  0.45593999997E+02  0.45594000000E+02  0.51100000000E-03 0.  1.
         11   -1    0    0    0    0 -0.00000000000E+00 -0.00000000000E+00 -0.45593999997E+02  0.45594000000E+02  0.51100000000E-03 0. -1.
    9900012    2    1    2    0    0  0.25057053405E+02  0.26360791841E+00  0.32019368671E+02  0.50528863455E+02  0.30000010958E+02 0.  0.
         12    1    1    2    0    0 -0.25057053405E+02 -0.26360791841E+00 -0.32019368671E+02  0.40659136545E+02  0.00000000000E+00 0. -1.
         11    1    3    3    0    0 -0.16854496239E+01 -0.12526341652E+01  0.18966827883E+01  0.28297064595E+01  0.51100000000E-03 0. -1.
        -11    1    3    3    0    0  0.10801975360E+02  0.10896931858E+02  0.42979829716E+01  0.15934191334E+02  0.51100000000E-03 0.  1.
        -12    1    3    3    0    0  0.15940527670E+02 -0.93806897742E+01  0.25824702911E+02  0.31764965662E+02  0.00000000000E+00 0.  1.
</event>
<event>
 7    1  0.2746803E-013  0.5052886E+02  0.7816164E-02  0.1300439E+00
        -11   -1    0    0    0    0  0.00000000000E+00  0.00000000000E+00  0.45593999997E+02  0.45594000000E+02  0.51100000000E-03 0. -1.
         11   -1    0    0    0    0 -0.00000000000E+00 -0.00000000000E+00 -0.45593999997E+02  0.45594000000E+02  0.51100000000E-03 0.  1.
    9900012    2    1    2    0    0  0.21544364030E+02 -0.19976306035E+02 -0.28106109091E+02  0.50528858439E+02  0.29999995711E+02 0.  0.
         12    1    1    2    0    0 -0.21544364030E+02  0.19976306035E+02  0.28106109091E+02  0.40659141561E+02  0.00000000000E+00 0. -1.
         11    1    3    3    0    0  0.66926328776E+00 -0.55818902838E+01  0.19775524172E+01  0.59595407804E+01  0.51100000000E-03 0. -1.
        -11    1    3    3    0    0  0.10179825688E+01  0.94675385427E+00 -0.15467569094E+02  0.15529917106E+02  0.51100000000E-03 0.  1.
        -12    1    3    3    0    0  0.19857118173E+02 -0.15341169605E+02 -0.14616092414E+02  0.29039400553E+02  0.00000000000E+00 0.  1.
</event>
<event>
 7    1  0.2746803E-013  0.5052888E+02  0.7816164E-02  0.1300439E+00
        -11   -1    0    0    0    0  0.00000000000E+00  0.00000000000E+00  0.45593999997E+02  0.45594000000E+02  0.51100000000E-03 0.  1.
         11   -1    0    0    0    0 -0.00000000000E+00 -0.00000000000E+00 -0.45593999997E+02  0.45594000000E+02  0.51100000000E-03 0. -1.
    9900012    2    1    2    0    0 -0.83103770786E+01  0.36485245375E+02  0.15903738609E+02  0.50528875574E+02  0.30000047796E+02 0.  0.
         12    1    1    2    0    0  0.83103770786E+01 -0.36485245375E+02 -0.15903738609E+02  0.40659124426E+02  0.00000000000E+00 0. -1.
         11    1    3    3    0    0 -0.10871944506E+01  0.17202034221E+02  0.12059635974E+02  0.21036320810E+02  0.51100000000E-03 0. -1.
        -11    1    3    3    0    0  0.49910944742E+01  0.15301749579E+02  0.43087524359E-01  0.16095229760E+02  0.51100000000E-03 0.  1.
         12    1    3    3    0    0 -0.12214277102E+02  0.39814615750E+01  0.38010151109E+01  0.13397325004E+02  0.00000000000E+00 0. -1.
</event>
<event>
 7    1  0.2746803E-013  0.5052889E+02  0.7816164E-02  0.1300439E+00
        -11   -1    0    0    0    0  0.00000000000E+00  0.00000000000E+00  0.45593999997E+02  0.45594000000E+02  0.51100000000E-03 0. -1.
         11   -1    0    0    0    0 -0.00000000000E+00 -0.00000000000E+00 -0.45593999997E+02  0.45594000000E+02  0.51100000000E-03 0.  1.
    9900012    2    1    2    0    0  0.29162007093E+02 -0.21239607519E+02  0.18751515338E+02  0.50528893852E+02  0.30000103352E+02 0.  0.
         12    1    1    2    0    0 -0.29162007093E+02  0.21239607519E+02 -0.18751515338E+02  0.40659106148E+02  0.00000000000E+00 0. -1.
         11    1    3    3    0    0  0.91045716591E+01 -0.13833472015E+02  0.12570513567E+02  0.20791247791E+02  0.51100000000E-03 0. -1.
        -11    1    3    3    0    0  0.90836297223E+01 -0.18480565418E+01  0.12772551872E+02  0.15781816230E+02  0.51100000000E-03 0.  1.
        -12    1    3    3    0    0  0.10973805712E+02 -0.55580789620E+01 -0.65915501009E+01  0.13955829831E+02  0.00000000000E+00 0.  1.
</event>
<event>
 7    1  0.2746803E-013  0.5052886E+02  0.7816164E-02  0.1300439E+00
        -11   -1    0    0    0    0  0.00000000000E+00  0.00000000000E+00  0.45593999997E+02  0.45594000000E+02  0.51100000000E-03 0.  1.
         11   -1    0    0    0    0 -0.00000000000E+00 -0.00000000000E+00 -0.45593999997E+02  0.45594000000E+02  0.51100000000E-03 0. -1.
    9900012    2    1    2    0    0  0.66222278809E+01  0.65365946583E+01  0.39580103001E+02  0.50528861723E+02  0.30000005693E+02 0.  0.
         12    1    1    2    0    0 -0.66222278809E+01 -0.65365946583E+01 -0.39580103001E+02  0.40659138277E+02  0.00000000000E+00 0. -1.
         11    1    3    3    0    0 -0.53614895340E+01 -0.18489076334E+01  0.83597360739E+01  0.10101941246E+02  0.51100000000E-03 0. -1.
        -11    1    3    3    0    0 -0.19812410246E+01  0.60439998941E+01  0.23404071221E+02  0.24252954473E+02  0.51100000000E-03 0.  1.
        -12    1    3    3    0    0  0.13964958439E+02  0.23415023975E+01  0.78162957069E+01  0.16173966003E+02  0.00000000000E+00 0.  1.
</event>
<event>
 7    1  0.2746803E-013  0.5052887E+02  0.7816164E-02  0.1300439E+00
        -11   -1    0    0    0    0  0.00000000000E+00  0.00000000000E+00  0.45593999997E+02  0.45594000000E+02  0.51100000000E-03 0. -1.
         11   -1    0    0    0    0 -0.00000000000E+00 -0.00000000000E+00 -0.45593999997E+02  0.45594000000E+02  0.51100000000E-03 0.  1.
    9900012    2    1    2    0    0 -0.14149086068E+02 -0.37980158217E+02  0.32366675357E+01  0.50528867306E+02  0.30000022662E+02 0.  0.
         12    1    1    2    0    0  0.14149086068E+02  0.37980158217E+02 -0.32366675357E+01  0.40659132694E+02  0.00000000000E+00 0. -1.
         11    1    3    3    0    0 -0.18025765781E+00 -0.37446862900E+01 -0.75050990161E+01  0.83893789840E+01  0.51100000000E-03 0. -1.
        -11    1    3    3    0    0  0.23687028912E+01 -0.15138238379E+02  0.16394639153E+01  0.15409894770E+02  0.51100000000E-03 0.  1.
        -12    1    3    3    0    0 -0.16337531301E+02 -0.19097233547E+02  0.91023026365E+01  0.26729593552E+02  0.00000000000E+00 0.  1.
</event>
<event>
 7    1  0.2746803E-013  0.5052887E+02  0.7816164E-02  0.1300439E+00
        -11   -1    0    0    0    0  0.00000000000E+00  0.00000000000E+00  0.45593999997E+02  0.45594000000E+02  0.51100000000E-03 0. -1.
         11   -1    0    0    0    0 -0.00000000000E+00 -0.00000000000E+00 -0.45593999997E+02  0.45594000000E+02  0.51100000000E-03 0.  1.
    9900012    2    1    2    0    0  0.31622173801E+02 -0.22571248713E+02  0.11989248683E+02  0.50528865376E+02  0.30000016798E+02 0.  0.
         12    1    1    2    0    0 -0.31622173801E+02  0.22571248713E+02 -0.11989248683E+02  0.40659134624E+02  0.00000000000E+00 0. -1.
         11    1    3    3    0    0  0.11711590294E+02 -0.17222229873E+02  0.72336149171E+01  0.22047488157E+02  0.51100000000E-03 0. -1.
        -11    1    3    3    0    0  0.16666845053E+02 -0.42040640684E+01  0.11657981892E+02  0.20769362551E+02  0.51100000000E-03 0.  1.
        -12    1    3    3    0    0  0.32437384535E+01 -0.11449547717E+01 -0.69023481265E+01  0.77120146682E+01  0.00000000000E+00 0.  1.
</event>
<event>
 7    1  0.2746803E-013  0.5052887E+02  0.7816164E-02  0.1300439E+00
        -11   -1    0    0    0    0  0.00000000000E+00  0.00000000000E+00  0.45593999997E+02  0.45594000000E+02  0.51100000000E-03 0.  1.
         11   -1    0    0    0    0 -0.00000000000E+00 -0.00000000000E+00 -0.45593999997E+02  0.45594000000E+02  0.51100000000E-03 0. -1.
    9900012    2    1    2    0    0 -0.21840005536E+02  0.24910236031E+02  0.23572430077E+02  0.50528866208E+02  0.30000019327E+02 0.  0.
         12    1    1    2    0    0  0.21840005536E+02 -0.24910236031E+02 -0.23572430077E+02  0.40659133792E+02  0.00000000000E+00 0. -1.
         11    1    3    3    0    0 -0.83397537809E+01  0.55810004337E+01 -0.19608432432E+01  0.10224674345E+02  0.51100000000E-03 0. -1.
        -11    1    3    3    0    0 -0.17906394328E+02  0.18982552662E+02  0.18464405144E+02  0.31967335218E+02  0.51100000000E-03 0.  1.
         12    1    3    3    0    0  0.44061425730E+01  0.34668293608E+00  0.70688681768E+01  0.83368566458E+01  0.00000000000E+00 0. -1.
</event>
<event>
 7    1  0.2746803E-013  0.5052886E+02  0.7816164E-02  0.1300439E+00
        -11   -1    0    0    0    0  0.00000000000E+00  0.00000000000E+00  0.45593999997E+02  0.45594000000E+02  0.51100000000E-03 0. -1.
         11   -1    0    0    0    0 -0.00000000000E+00 -0.00000000000E+00 -0.45593999997E+02  0.45594000000E+02  0.51100000000E-03 0.  1.
    9900012    2    1    2    0    0  0.16195458469E+02 -0.33755718237E+02 -0.15856354413E+02  0.50528863708E+02  0.30000011728E+02 0.  0.
         12    1    1    2    0    0 -0.16195458469E+02  0.33755718237E+02  0.15856354413E+02  0.40659136292E+02  0.00000000000E+00 0. -1.
         11    1    3    3    0    0  0.21108113183E+02 -0.17856300979E+02 -0.87964679102E+01  0.29013406811E+02  0.51100000000E-03 0. -1.
        -11    1    3    3    0    0  0.12073076338E+01  0.60281648467E+00 -0.32335574862E+01  0.35038369988E+01  0.51100000000E-03 0.  1.
        -12    1    3    3    0    0 -0.61199623484E+01 -0.16502233742E+02 -0.38263290169E+01  0.18011619899E+02  0.00000000000E+00 0.  1.
</event>
<event>
 7    1  0.2746803E-013  0.5052886E+02  0.7816164E-02  0.1300439E+00
        -11   -1    0    0    0    0  0.00000000000E+00  0.00000000000E+00  0.45593999997E+02  0.45594000000E+02  0.51100000000E-03 0. -1.
         11   -1    0    0    0    0 -0.00000000000E+00 -0.00000000000E+00 -0.45593999997E+02  0.45594000000E+02  0.51100000000E-03 0.  1.
    9900012    2    1    2    0    0 -0.18661742286E+01  0.40164147222E+02 -0.60435699648E+01  0.50528855072E+02  0.29999985477E+02 0.  0.
         12    1    1    2    0    0  0.18661742286E+01 -0.40164147222E+02  0.60435699648E+01  0.40659144928E+02  0.00000000000E+00 0. -1.
         11    1    3    3    0    0  0.21114294869E+01  0.26271756578E+02  0.55270069988E+01  0.26929744425E+02  0.51100000000E-03 0. -1.
        -11    1    3    3    0    0 -0.37670956983E+00  0.15371017835E+02 -0.53864434817E+01  0.16291834551E+02  0.51100000000E-03 0.  1.
         12    1    3    3    0    0 -0.36008941457E+01 -0.14786271911E+01 -0.61841334819E+01  0.73072760958E+01  0.00000000000E+00 0. -1.
</event>
<event>
 7    1  0.2746803E-013  0.5052885E+02  0.7816164E-02  0.1300439E+00
        -11   -1    0    0    0    0  0.00000000000E+00  0.00000000000E+00  0.45593999997E+02  0.45594000000E+02  0.51100000000E-03 0. -1.
         11   -1    0    0    0    0 -0.00000000000E+00 -0.00000000000E+00 -0.45593999997E+02  0.45594000000E+02  0.51100000000E-03 0.  1.
    9900012    2    1    2    0    0  0.30662860806E+02  0.15756035367E+02 -0.21556957272E+02  0.50528854779E+02  0.29999984585E+02 0.  0.
         12    1    1    2    0    0 -0.30662860806E+02 -0.15756035367E+02  0.21556957272E+02  0.40659145221E+02  0.00000000000E+00 0. -1.
         11    1    3    3    0    0  0.15283502978E+02  0.15538812181E+02 -0.13536620594E+02  0.25656972632E+02  0.51100000000E-03 0. -1.
        -11    1    3    3    0    0  0.35625613737E+01  0.66682624896E+01  0.23066198722E+01  0.79043066532E+01  0.51100000000E-03 0.  1.
        -12    1    3    3    0    0  0.11816796455E+02 -0.64510393031E+01 -0.10326956550E+02  0.16967575494E+02  0.00000000000E+00 0.  1.
</event>
<event>
 7    1  0.2746803E-013  0.5052886E+02  0.7816164E-02  0.1300439E+00
        -11   -1    0    0    0    0  0.00000000000E+00  0.00000000000E+00  0.45593999997E+02  0.45594000000E+02  0.51100000000E-03 0. -1.
         11   -1    0    0    0    0 -0.00000000000E+00 -0.00000000000E+00 -0.45593999997E+02  0.45594000000E+02  0.51100000000E-03 0.  1.
    9900012    2    1    2    0    0  0.17689254974E+02  0.36324970758E+02 -0.45554653084E+01  0.50528861959E+02  0.30000006409E+02 0.  0.
         12    1    1    2    0    0 -0.17689254974E+02 -0.36324970758E+02  0.45554653084E+01  0.40659138041E+02  0.00000000000E+00 0. -1.
         11    1    3    3    0    0  0.16614709036E+02  0.13550013039E+02 -0.12492493427E+02  0.24813580999E+02  0.51100000000E-03 0. -1.
        -11    1    3    3    0    0  0.19211205356E+01  0.26278619784E+01  0.40213534348E+01  0.51737458769E+01  0.51100000000E-03 0.  1.
        -12    1    3    3    0    0 -0.84657459796E+00  0.20147095741E+02  0.39156746833E+01  0.20541535083E+02  0.00000000000E+00 0.  1.
</event>
<event>
 7    1  0.2746803E-013  0.5052887E+02  0.7816164E-02  0.1300439E+00
        -11   -1    0    0    0    0  0.00000000000E+00  0.00000000000E+00  0.45593999997E+02  0.45594000000E+02  0.51100000000E-03 0. -1.
         11   -1    0    0    0    0 -0.00000000000E+00 -0.00000000000E+00 -0.45593999997E+02  0.45594000000E+02  0.51100000000E-03 0.  1.
    9900012    2    1    2    0    0  0.26157237087E+02  0.20727060124E+02 -0.23223968515E+02  0.50528870804E+02  0.30000033296E+02 0.  0.
         12    1    1    2    0    0 -0.26157237087E+02 -0.20727060124E+02  0.23223968515E+02  0.40659129196E+02  0.00000000000E+00 0. -1.
         11    1    3    3    0    0  0.54111224113E+01  0.14802844231E+02 -0.46722746178E+01  0.16438813626E+02  0.51100000000E-03 0. -1.
        -11    1    3    3    0    0  0.66664356443E+01  0.41191337271E+01  0.29095968917E+01  0.83590897348E+01  0.51100000000E-03 0.  1.
        -12    1    3    3    0    0  0.14079679031E+02  0.18050821660E+01 -0.21461290789E+02  0.25730967443E+02  0.00000000000E+00 0.  1.
</event>
<event>
 7    1  0.2746803E-013  0.5052886E+02  0.7816164E-02  0.1300439E+00
        -11   -1    0    0    0    0  0.00000000000E+00  0.00000000000E+00  0.45593999997E+02  0.45594000000E+02  0.51100000000E-03 0. -1.
         11   -1    0    0    0    0 -0.00000000000E+00 -0.00000000000E+00 -0.45593999997E+02  0.45594000000E+02  0.51100000000E-03 0.  1.
    9900012    2    1    2    0    0  0.19835965448E+02 -0.41800205934E+01 -0.35245252471E+02  0.50528856881E+02  0.29999990975E+02 0.  0.
         12    1    1    2    0    0 -0.19835965448E+02  0.41800205934E+01  0.35245252471E+02  0.40659143119E+02  0.00000000000E+00 0. -1.
         11    1    3    3    0    0  0.62710888230E+01 -0.42100604525E+01  0.32350388446E+01  0.82168510165E+01  0.51100000000E-03 0. -1.
        -11    1    3    3    0    0  0.29375116958E+01 -0.45843239529E+01 -0.77602495594E+01  0.94797929594E+01  0.51100000000E-03 0.  1.
        -12    1    3    3    0    0  0.10627364929E+02  0.46143638120E+01 -0.30720041756E+02  0.32832212905E+02  0.00000000000E+00 0.  1.
</event>
<event>
 7    1  0.2746803E-013  0.5052887E+02  0.7816164E-02  0.1300439E+00
        -11   -1    0    0    0    0  0.00000000000E+00  0.00000000000E+00  0.45593999997E+02  0.45594000000E+02  0.51100000000E-03 0.  1.
         11   -1    0    0    0    0 -0.00000000000E+00 -0.00000000000E+00 -0.45593999997E+02  0.45594000000E+02  0.51100000000E-03 0. -1.
    9900012    2    1    2    0    0  0.84100135749E+00  0.28458729913E+02  0.29026850307E+02  0.50528872731E+02  0.30000039152E+02 0.  0.
         12    1    1    2    0    0 -0.84100135749E+00 -0.28458729913E+02 -0.29026850307E+02  0.40659127269E+02  0.00000000000E+00 0. -1.
         11    1    3    3    0    0  0.59954173453E+01  0.31457631015E+01 -0.32960091392E+01  0.75302411078E+01  0.51100000000E-03 0. -1.
        -11    1    3    3    0    0 -0.50355369946E+01  0.34566707968E+01  0.43455526340E+01  0.74959344833E+01  0.51100000000E-03 0.  1.
        -12    1    3    3    0    0 -0.11887899320E+00  0.21856296015E+02  0.27977306813E+02  0.35502697140E+02  0.00000000000E+00 0.  1.
</event>
<event>
 7    1  0.2746803E-013  0.5052886E+02  0.7816164E-02  0.1300439E+00
        -11   -1    0    0    0    0  0.00000000000E+00  0.00000000000E+00  0.45593999997E+02  0.45594000000E+02  0.51100000000E-03 0. -1.
         11   -1    0    0    0    0 -0.00000000000E+00 -0.00000000000E+00 -0.45593999997E+02  0.45594000000E+02  0.51100000000E-03 0.  1.
    9900012    2    1    2    0    0 -0.10353323749E+02 -0.29501638605E+02 -0.25992845184E+02  0.50528855963E+02  0.29999988185E+02 0.  0.
         12    1    1    2    0    0  0.10353323749E+02  0.29501638605E+02  0.25992845184E+02  0.40659144037E+02  0.00000000000E+00 0. -1.
         11    1    3    3    0    0 -0.13989928431E+02 -0.19089415846E+02 -0.13596398232E+02  0.27294430568E+02  0.51100000000E-03 0. -1.
        -11    1    3    3    0    0  0.18033568891E+01 -0.14695389024E+02 -0.10735617257E+02  0.18288248488E+02  0.51100000000E-03 0.  1.
         12    1    3    3    0    0  0.18332477932E+01  0.42831662644E+01 -0.16608296951E+01  0.49461769071E+01  0.00000000000E+00 0. -1.
</event>
<event>
 7    1  0.2746803E-013  0.5052886E+02  0.7816164E-02  0.1300439E+00
        -11   -1    0    0    0    0  0.00000000000E+00  0.00000000000E+00  0.45593999997E+02  0.45594000000E+02  0.51100000000E-03 0.  1.
         11   -1    0    0    0    0 -0.00000000000E+00 -0.00000000000E+00 -0.45593999997E+02  0.45594000000E+02  0.51100000000E-03 0. -1.
    9900012    2    1    2    0    0  0.20573531371E+02  0.21106514411E+02  0.28007335104E+02  0.50528856339E+02  0.29999989327E+02 0.  0.
         12    1    1    2    0    0 -0.20573531371E+02 -0.21106514411E+02 -0.28007335104E+02  0.40659143661E+02  0.00000000000E+00 0. -1.
         11    1    3    3    0    0  0.17949084919E+02  0.56612074529E+01  0.45564117278E+01  0.19364395352E+02  0.51100000000E-03 0.  1.
        -11    1    3    3    0    0  0.63886567782E+01  0.10794678068E+02  0.87534858372E+01  0.15295866258E+02  0.51100000000E-03 0. -1.
         12    1    3    3    0    0 -0.37642103258E+01  0.46506288898E+01  0.14697437539E+02  0.15868594729E+02  0.00000000000E+00 0. -1.
</event>
<event>
 7    1  0.2746803E-013  0.5052887E+02  0.7816164E-02  0.1300439E+00
        -11   -1    0    0    0    0  0.00000000000E+00  0.00000000000E+00  0.45593999997E+02  0.45594000000E+02  0.51100000000E-03 0.  1.
         11   -1    0    0    0    0 -0.00000000000E+00 -0.00000000000E+00 -0.45593999997E+02  0.45594000000E+02  0.51100000000E-03 0. -1.
    9900012    2    1    2    0    0 -0.32732590052E+02 -0.14607319822E+02  0.19192940703E+02  0.50528865519E+02  0.30000017232E+02 0.  0.
         12    1    1    2    0    0  0.32732590052E+02  0.14607319822E+02 -0.19192940703E+02  0.40659134481E+02  0.00000000000E+00 0. -1.
         11    1    3    3    0    0 -0.23479095557E+01  0.15722672125E+01  0.10020956886E+02  0.10411737638E+02  0.51100000000E-03 0. -1.
        -11    1    3    3    0    0 -0.21801436583E+02 -0.11243200548E+02  0.14878007258E+02  0.28689149445E+02  0.51100000000E-03 0.  1.
        -12    1    3    3    0    0 -0.85832439136E+01 -0.49363864862E+01 -0.57060234415E+01  0.11427978436E+02  0.00000000000E+00 0.  1.
</event>
<event>
 7    1  0.2746803E-013  0.5052887E+02  0.7816164E-02  0.1300439E+00
        -11   -1    0    0    0    0  0.00000000000E+00  0.00000000000E+00  0.45593999997E+02  0.45594000000E+02  0.51100000000E-03 0.  1.
         11   -1    0    0    0    0 -0.00000000000E+00 -0.00000000000E+00 -0.45593999997E+02  0.45594000000E+02  0.51100000000E-03 0. -1.
    9900012    2    1    2    0    0 -0.21851699946E+02 -0.33672516950E+02  0.64675845715E+01  0.50528870171E+02  0.30000031373E+02 0.  0.
         12    1    1    2    0    0  0.21851699946E+02  0.33672516950E+02 -0.64675845715E+01  0.40659129829E+02  0.00000000000E+00 0. -1.
         11    1    3    3    0    0 -0.96863818550E+01 -0.84632213750E+01 -0.71051345791E+01  0.14694728549E+02  0.51100000000E-03 0. -1.
        -11    1    3    3    0    0 -0.13782578467E+02 -0.87091857927E+01  0.90594776427E+01  0.18651635901E+02  0.51100000000E-03 0.  1.
         12    1    3    3    0    0  0.16172603766E+01 -0.16500109782E+02  0.45132415079E+01  0.17182505721E+02  0.00000000000E+00 0. -1.
</event>
<event>
 7    1  0.2746803E-013  0.5052889E+02  0.7816164E-02  0.1300439E+00
        -11   -1    0    0    0    0  0.00000000000E+00  0.00000000000E+00  0.45593999997E+02  0.45594000000E+02  0.51100000000E-03 0.  1.
         11   -1    0    0    0    0 -0.00000000000E+00 -0.00000000000E+00 -0.45593999997E+02  0.45594000000E+02  0.51100000000E-03 0. -1.
    9900012    2    1    2    0    0  0.31573642488E+02 -0.54798687832E+01  0.25024781188E+02  0.50528886196E+02  0.30000080080E+02 0.  0.
         12    1    1    2    0    0 -0.31573642488E+02  0.54798687832E+01 -0.25024781188E+02  0.40659113804E+02  0.00000000000E+00 0. -1.
         11    1    3    3    0    0  0.26789821984E+01 -0.48190244781E+01  0.11495181893E+00  0.55148124829E+01  0.51100000000E-03 0. -1.
        -11    1    3    3    0    0  0.68759764824E+01  0.93598625611E+01  0.21748236639E+01  0.11815918838E+02  0.51100000000E-03 0.  1.
        -12    1    3    3    0    0  0.22018683808E+02 -0.10020706866E+02  0.22735005705E+02  0.33198154875E+02  0.00000000000E+00 0.  1.
</event>
<event>
 7    1  0.2746803E-013  0.5052886E+02  0.7816164E-02  0.1300439E+00
        -11   -1    0    0    0    0  0.00000000000E+00  0.00000000000E+00  0.45593999997E+02  0.45594000000E+02  0.51100000000E-03 0.  1.
         11   -1    0    0    0    0 -0.00000000000E+00 -0.00000000000E+00 -0.45593999997E+02  0.45594000000E+02  0.51100000000E-03 0. -1.
    9900012    2    1    2    0    0 -0.28070865000E+02 -0.26225788965E+02  0.13319177817E+02  0.50528856300E+02  0.29999989209E+02 0.  0.
         12    1    1    2    0    0  0.28070865000E+02  0.26225788965E+02 -0.13319177817E+02  0.40659143700E+02  0.00000000000E+00 0. -1.
         11    1    3    3    0    0 -0.15560103597E+02 -0.82275082039E+01  0.12530645405E+02  0.21606151664E+02  0.51100000000E-03 0. -1.
        -11    1    3    3    0    0 -0.12857241528E+02 -0.21215935204E+01  0.42885101573E+00  0.13038164450E+02  0.51100000000E-03 0.  1.
         12    1    3    3    0    0  0.34648012501E+00 -0.15876687241E+02  0.35968139689E+00  0.15884540186E+02  0.00000000000E+00 0. -1.
</event>
<event>
 7    1  0.2746803E-013  0.5052886E+02  0.7816164E-02  0.1300439E+00
        -11   -1    0    0    0    0  0.00000000000E+00  0.00000000000E+00  0.45593999997E+02  0.45594000000E+02  0.51100000000E-03 0.  1.
         11   -1    0    0    0    0 -0.00000000000E+00 -0.00000000000E+00 -0.45593999997E+02  0.45594000000E+02  0.51100000000E-03 0. -1.
    9900012    2    1    2    0    0 -0.24133759171E+02  0.35849491185E+01  0.32525002624E+02  0.50528856039E+02  0.29999988417E+02 0.  0.
         12    1    1    2    0    0  0.24133759171E+02 -0.35849491185E+01 -0.32525002624E+02  0.40659143961E+02  0.00000000000E+00 0. -1.
         11    1    3    3    0    0 -0.13201472197E+02 -0.38786985684E+01  0.12893870093E+02  0.18856697934E+02  0.51100000000E-03 0. -1.
        -11    1    3    3    0    0  0.57747875019E+01  0.30270326236E+01  0.98447024629E+01  0.11808016939E+02  0.51100000000E-03 0.  1.
         12    1    3    3    0    0 -0.16707074476E+02  0.44366150634E+01  0.97864300682E+01  0.19864141166E+02  0.00000000000E+00 0. -1.
</event>
<event>
 7    1  0.2746803E-013  0.5052886E+02  0.7816164E-02  0.1300439E+00
        -11   -1    0    0    0    0  0.00000000000E+00  0.00000000000E+00  0.45593999997E+02  0.45594000000E+02  0.51100000000E-03 0. -1.
         11   -1    0    0    0    0 -0.00000000000E+00 -0.00000000000E+00 -0.45593999997E+02  0.45594000000E+02  0.51100000000E-03 0.  1.
    9900012    2    1    2    0    0  0.19238901378E+02  0.35639824410E+02  0.35823730226E+01  0.50528858264E+02  0.29999995180E+02 0.  0.
         12    1    1    2    0    0 -0.19238901378E+02 -0.35639824410E+02 -0.35823730226E+01  0.40659141736E+02  0.00000000000E+00 0. -1.
         11    1    3    3    0    0  0.39037684523E+01 -0.30778269569E+01  0.54631389080E+00  0.50010884849E+01  0.51100000000E-03 0. -1.
        -11    1    3    3    0    0  0.51086365132E+01  0.26457511022E+01 -0.44758768401E+01  0.72891453318E+01  0.51100000000E-03 0.  1.
        -12    1    3    3    0    0  0.10226496412E+02  0.36071900265E+02  0.75119359719E+01  0.38238624448E+02  0.00000000000E+00 0.  1.
</event>
<event>
 7    1  0.2746803E-013  0.5052886E+02  0.7816164E-02  0.1300439E+00
        -11   -1    0    0    0    0  0.00000000000E+00  0.00000000000E+00  0.45593999997E+02  0.45594000000E+02  0.51100000000E-03 0.  1.
         11   -1    0    0    0    0 -0.00000000000E+00 -0.00000000000E+00 -0.45593999997E+02  0.45594000000E+02  0.51100000000E-03 0. -1.
    9900012    2    1    2    0    0  0.70662136279E+01 -0.40040219468E+02  0.12172620635E+00  0.50528863667E+02  0.30000011601E+02 0.  0.
         12    1    1    2    0    0 -0.70662136279E+01  0.40040219468E+02 -0.12172620635E+00  0.40659136333E+02  0.00000000000E+00 0. -1.
         11    1    3    3    0    0  0.10999259125E+01 -0.98854622083E+01 -0.56670025468E+01  0.11447581326E+02  0.51100000000E-03 0. -1.
        -11    1    3    3    0    0  0.13091232205E+02 -0.27105162239E+02  0.13086948031E+01  0.30129435159E+02  0.51100000000E-03 0.  1.
         12    1    3    3    0    0 -0.71249444896E+01 -0.30495950207E+01  0.44800339501E+01  0.89518471817E+01  0.00000000000E+00 0. -1.
</event>
<event>
 7    1  0.2746803E-013  0.5052886E+02  0.7816164E-02  0.1300439E+00
        -11   -1    0    0    0    0  0.00000000000E+00  0.00000000000E+00  0.45593999997E+02  0.45594000000E+02  0.51100000000E-03 0.  1.
         11   -1    0    0    0    0 -0.00000000000E+00 -0.00000000000E+00 -0.45593999997E+02  0.45594000000E+02  0.51100000000E-03 0. -1.
    9900012    2    1    2    0    0  0.77776730114E+01 -0.10582745769E+02  0.38479593769E+02  0.50528857828E+02  0.29999993855E+02 0.  0.
         12    1    1    2    0    0 -0.77776730114E+01  0.10582745769E+02 -0.38479593769E+02  0.40659142172E+02  0.00000000000E+00 0. -1.
         11    1    3    3    0    0  0.38510480444E+01  0.30185070853E+01  0.13599229247E+01  0.50785181585E+01  0.51100000000E-03 0. -1.
        -11    1    3    3    0    0  0.11072835081E+02 -0.14551926642E+02  0.21345676429E+02  0.28107012438E+02  0.51100000000E-03 0.  1.
         12    1    3    3    0    0 -0.71462101142E+01  0.95067378745E+00  0.15773994415E+02  0.17343327231E+02  0.00000000000E+00 0. -1.
</event>
<event>
 7    1  0.2746803E-013  0.5052886E+02  0.7816164E-02  0.1300439E+00
        -11   -1    0    0    0    0  0.00000000000E+00  0.00000000000E+00  0.45593999997E+02  0.45594000000E+02  0.51100000000E-03 0.  1.
         11   -1    0    0    0    0 -0.00000000000E+00 -0.00000000000E+00 -0.45593999997E+02  0.45594000000E+02  0.51100000000E-03 0. -1.
    9900012    2    1    2    0    0 -0.67741934652E+01 -0.11001805603E+02  0.38551735746E+02  0.50528858928E+02  0.29999997199E+02 0.  0.
         12    1    1    2    0    0  0.67741934652E+01  0.11001805603E+02 -0.38551735746E+02  0.40659141072E+02  0.00000000000E+00 0. -1.
         11    1    3    3    0    0 -0.26183465613E+01  0.29849086983E+01 -0.27370153248E+01  0.48225171645E+01  0.51100000000E-03 0. -1.
        -11    1    3    3    0    0  0.40780451435E+01 -0.29095446450E+01  0.17506305658E+02  0.18208971423E+02  0.51100000000E-03 0.  1.
        -12    1    3    3    0    0 -0.82338920474E+01 -0.11077169657E+02  0.23782445413E+02  0.27497370341E+02  0.00000000000E+00 0.  1.
</event>
<event>
 7    1  0.2746803E-013  0.5052885E+02  0.7816164E-02  0.1300439E+00
        -11   -1    0    0    0    0  0.00000000000E+00  0.00000000000E+00  0.45593999997E+02  0.45594000000E+02  0.51100000000E-03 0. -1.
         11   -1    0    0    0    0 -0.00000000000E+00 -0.00000000000E+00 -0.45593999997E+02  0.45594000000E+02  0.51100000000E-03 0.  1.
    9900012    2    1    2    0    0 -0.32287130429E+02 -0.38197295526E+01 -0.24415507114E+02  0.50528854499E+02  0.29999983736E+02 0.  0.
         12    1    1    2    0    0  0.32287130429E+02  0.38197295526E+01  0.24415507114E+02  0.40659145501E+02  0.00000000000E+00 0. -1.
         11    1    3    3    0    0 -0.10479131910E+02 -0.54951845651E+01 -0.15045907812E+02  0.19141280029E+02  0.51100000000E-03 0. -1.
        -11    1    3    3    0    0 -0.64290753146E+01 -0.65168957106E+01 -0.10494860013E+02  0.13926414687E+02  0.51100000000E-03 0.  1.
         12    1    3    3    0    0 -0.15378923204E+02  0.81923507230E+01  0.11252607102E+01  0.17461159783E+02  0.00000000000E+00 0. -1.
</event>
<event>
 7    1  0.2746803E-013  0.5052890E+02  0.7816164E-02  0.1300439E+00
        -11   -1    0    0    0    0  0.00000000000E+00  0.00000000000E+00  0.45593999997E+02  0.45594000000E+02  0.51100000000E-03 0.  1.
         11   -1    0    0    0    0 -0.00000000000E+00 -0.00000000000E+00 -0.45593999997E+02  0.45594000000E+02  0.51100000000E-03 0. -1.
    9900012    2    1    2    0    0  0.11597762087E+02 -0.22905391399E+02  0.31527723294E+02  0.50528900444E+02  0.30000123390E+02 0.  0.
         12    1    1    2    0    0 -0.11597762087E+02  0.22905391399E+02 -0.31527723294E+02  0.40659099556E+02  0.00000000000E+00 0. -1.
         11    1    3    3    0    0  0.11013342193E+02 -0.14529046706E+02  0.23073219054E+02  0.29406807753E+02  0.51100000000E-03 0. -1.
        -11    1    3    3    0    0 -0.10300068595E+01 -0.12824993922E+02  0.98323105977E+01  0.16193076150E+02  0.51100000000E-03 0.  1.
        -12    1    3    3    0    0  0.16144267528E+01  0.44486492295E+01 -0.13778063575E+01  0.49290165415E+01  0.00000000000E+00 0.  1.
</event>
<event>
 7    1  0.2746803E-013  0.5052886E+02  0.7816164E-02  0.1300439E+00
        -11   -1    0    0    0    0  0.00000000000E+00  0.00000000000E+00  0.45593999997E+02  0.45594000000E+02  0.51100000000E-03 0.  1.
         11   -1    0    0    0    0 -0.00000000000E+00 -0.00000000000E+00 -0.45593999997E+02  0.45594000000E+02  0.51100000000E-03 0. -1.
    9900012    2    1    2    0    0  0.28491271231E+02 -0.69313841250E+01  0.28166803222E+02  0.50528862946E+02  0.30000009411E+02 0.  0.
         12    1    1    2    0    0 -0.28491271231E+02  0.69313841250E+01 -0.28166803222E+02  0.40659137054E+02  0.00000000000E+00 0. -1.
         11    1    3    3    0    0  0.16669653640E+01 -0.75072772139E+01  0.51986687348E+01  0.92824641969E+01  0.51100000000E-03 0. -1.
        -11    1    3    3    0    0  0.80765059665E+01  0.10339249520E+02  0.90235388123E+01  0.15923387900E+02  0.51100000000E-03 0.  1.
         12    1    3    3    0    0  0.18747799901E+02 -0.97633564314E+01  0.13944595675E+02  0.25323010849E+02  0.00000000000E+00 0. -1.
</event>
<event>
 7    1  0.2746803E-013  0.5052888E+02  0.7816164E-02  0.1300439E+00
        -11   -1    0    0    0    0  0.00000000000E+00  0.00000000000E+00  0.45593999997E+02  0.45594000000E+02  0.51100000000E-03 0.  1.
         11   -1    0    0    0    0 -0.00000000000E+00 -0.00000000000E+00 -0.45593999997E+02  0.45594000000E+02  0.51100000000E-03 0. -1.
    9900012    2    1    2    0    0  0.16807759663E+02 -0.18339557036E+02  0.32160909817E+02  0.50528877316E+02  0.30000053089E+02 0.  0.
         12    1    1    2    0    0 -0.16807759663E+02  0.18339557036E+02 -0.32160909817E+02  0.40659122684E+02  0.00000000000E+00 0. -1.
         11    1    3    3    0    0 -0.41209031698E+01 -0.23961906280E+01  0.14134385923E+01  0.49720600736E+01  0.51100000000E-03 0. -1.
        -11    1    3    3    0    0  0.13907681464E+02 -0.20811681410E+02  0.21924036109E+02  0.33274810989E+02  0.51100000000E-03 0.  1.
         12    1    3    3    0    0  0.70209813691E+01  0.48683150021E+01  0.88234351163E+01  0.12282006253E+02  0.00000000000E+00 0. -1.
</event>
<event>
 7    1  0.2746803E-013  0.5052886E+02  0.7816164E-02  0.1300439E+00
        -11   -1    0    0    0    0  0.00000000000E+00  0.00000000000E+00  0.45593999997E+02  0.45594000000E+02  0.51100000000E-03 0. -1.
         11   -1    0    0    0    0 -0.00000000000E+00 -0.00000000000E+00 -0.45593999997E+02  0.45594000000E+02  0.51100000000E-03 0.  1.
    9900012    2    1    2    0    0 -0.40302909957E+01 -0.40096573877E+02 -0.54025032591E+01  0.50528861745E+02  0.30000005760E+02 0.  0.
         12    1    1    2    0    0  0.40302909957E+01  0.40096573877E+02  0.54025032591E+01  0.40659138255E+02  0.00000000000E+00 0. -1.
         11    1    3    3    0    0 -0.24870269550E+01 -0.12707703766E+02  0.81281877178E+01  0.15288507904E+02  0.51100000000E-03 0. -1.
        -11    1    3    3    0    0 -0.18661575210E+01 -0.20804936919E+02 -0.79940607605E+00  0.20903755510E+02  0.51100000000E-03 0.  1.
        -12    1    3    3    0    0  0.32289348023E+00 -0.65839331917E+01 -0.12731284901E+02  0.14336598331E+02  0.00000000000E+00 0.  1.
</event>
<event>
 7    1  0.2746803E-013  0.5052885E+02  0.7816164E-02  0.1300439E+00
        -11   -1    0    0    0    0  0.00000000000E+00  0.00000000000E+00  0.45593999997E+02  0.45594000000E+02  0.51100000000E-03 0. -1.
         11   -1    0    0    0    0 -0.00000000000E+00 -0.00000000000E+00 -0.45593999997E+02  0.45594000000E+02  0.51100000000E-03 0.  1.
    9900012    2    1    2    0    0  0.17780381743E+02  0.70658354781E+01 -0.35876156735E+02  0.50528848164E+02  0.29999964479E+02 0.  0.
         12    1    1    2    0    0 -0.17780381743E+02 -0.70658354781E+01  0.35876156735E+02  0.40659151836E+02  0.00000000000E+00 0. -1.
         11    1    3    3    0    0  0.43175337654E+01  0.14823851539E+01 -0.42876615615E+01  0.62627953414E+01  0.51100000000E-03 0. -1.
        -11    1    3    3    0    0 -0.15617145496E+01  0.40756260355E+01 -0.28526787580E+02  0.28858747198E+02  0.51100000000E-03 0.  1.
        -12    1    3    3    0    0  0.15024562527E+02  0.15078242887E+01 -0.30617075935E+01  0.15407305625E+02  0.00000000000E+00 0.  1.
</event>
<event>
 7    1  0.2746803E-013  0.5052885E+02  0.7816164E-02  0.1300439E+00
        -11   -1    0    0    0    0  0.00000000000E+00  0.00000000000E+00  0.45593999997E+02  0.45594000000E+02  0.51100000000E-03 0.  1.
         11   -1    0    0    0    0 -0.00000000000E+00 -0.00000000000E+00 -0.45593999997E+02  0.45594000000E+02  0.51100000000E-03 0. -1.
    9900012    2    1    2    0    0  0.15904004763E+02  0.19036111719E+02  0.32215764738E+02  0.50528850790E+02  0.29999972461E+02 0.  0.
         12    1    1    2    0    0 -0.15904004763E+02 -0.19036111719E+02 -0.32215764738E+02  0.40659149210E+02  0.00000000000E+00 0. -1.
         11    1    3    3    0    0  0.74268344124E+01  0.99363314891E+01  0.17102921382E+02  0.21128144095E+02  0.51100000000E-03 0. -1.
        -11    1    3    3    0    0 -0.16794859719E+01  0.29175083656E+01  0.17027676269E+02  0.17357254609E+02  0.51100000000E-03 0.  1.
         12    1    3    3    0    0  0.10156656323E+02  0.61822718639E+01 -0.19148329129E+01  0.12043452086E+02  0.00000000000E+00 0. -1.
</event>
<event>
 7    1  0.2746803E-013  0.5052886E+02  0.7816164E-02  0.1300439E+00
        -11   -1    0    0    0    0  0.00000000000E+00  0.00000000000E+00  0.45593999997E+02  0.45594000000E+02  0.51100000000E-03 0.  1.
         11   -1    0    0    0    0 -0.00000000000E+00 -0.00000000000E+00 -0.45593999997E+02  0.45594000000E+02  0.51100000000E-03 0. -1.
    9900012    2    1    2    0    0  0.28430784222E+02  0.11403673520E+02  0.26735971779E+02  0.50528862672E+02  0.30000008579E+02 0.  0.
         12    1    1    2    0    0 -0.28430784222E+02 -0.11403673520E+02 -0.26735971779E+02  0.40659137328E+02  0.00000000000E+00 0. -1.
         11    1    3    3    0    0 -0.29307427966E+01  0.21119204270E+01  0.56266223292E+01  0.66864295649E+01  0.51100000000E-03 0. -1.
        -11    1    3    3    0    0  0.66308542994E+01 -0.62937389702E+01  0.40747305786E+01  0.10009136252E+02  0.51100000000E-03 0.  1.
        -12    1    3    3    0    0  0.24730672719E+02  0.15585492063E+02  0.17034618871E+02  0.33833296855E+02  0.00000000000E+00 0.  1.
</event>
<event>
 7    1  0.2746803E-013  0.5052886E+02  0.7816164E-02  0.1300439E+00
        -11   -1    0    0    0    0  0.00000000000E+00  0.00000000000E+00  0.45593999997E+02  0.45594000000E+02  0.51100000000E-03 0. -1.
         11   -1    0    0    0    0 -0.00000000000E+00 -0.00000000000E+00 -0.45593999997E+02  0.45594000000E+02  0.51100000000E-03 0.  1.
    9900012    2    1    2    0    0  0.20058707217E+01  0.19873576420E+02  0.35414444879E+02  0.50528862489E+02  0.30000008021E+02 0.  0.
         12    1    1    2    0    0 -0.20058707217E+01 -0.19873576420E+02 -0.35414444879E+02  0.40659137511E+02  0.00000000000E+00 0. -1.
         11    1    3    3    0    0  0.37978647723E+01 -0.15605270107E+00 -0.25089009103E+00  0.38093405431E+01  0.51100000000E-03 0.  1.
        -11    1    3    3    0    0  0.93870550321E+00 -0.46562193664E+01  0.96303355700E+01  0.10738012398E+02  0.51100000000E-03 0. -1.
         12    1    3    3    0    0 -0.27306995539E+01  0.24685848487E+02  0.26034999400E+02  0.35981509548E+02  0.00000000000E+00 0. -1.
</event>
<event>
 7    1  0.2746803E-013  0.5052883E+02  0.7816164E-02  0.1300439E+00
        -11   -1    0    0    0    0  0.00000000000E+00  0.00000000000E+00  0.45593999997E+02  0.45594000000E+02  0.51100000000E-03 0.  1.
         11   -1    0    0    0    0 -0.00000000000E+00 -0.00000000000E+00 -0.45593999997E+02  0.45594000000E+02  0.51100000000E-03 0. -1.
    9900012    2    1    2    0    0 -0.56693825903E+01 -0.35130076289E+02  0.19669865653E+02  0.50528834074E+02  0.29999921650E+02 0.  0.
         12    1    1    2    0    0  0.56693825903E+01  0.35130076289E+02 -0.19669865653E+02  0.40659165926E+02  0.00000000000E+00 0. -1.
         11    1    3    3    0    0 -0.38880418142E+01 -0.27355836395E+02  0.23917365602E+02  0.36544480180E+02  0.51100000000E-03 0.  1.
        -11    1    3    3    0    0 -0.42114739903E+01  0.72049308743E+00 -0.23135385704E+00  0.42789190608E+01  0.51100000000E-03 0. -1.
        -12    1    3    3    0    0  0.24301332142E+01 -0.84947329813E+01 -0.40161460923E+01  0.97054348330E+01  0.00000000000E+00 0.  1.
</event>
<event>
 7    1  0.2746803E-013  0.5052886E+02  0.7816164E-02  0.1300439E+00
        -11   -1    0    0    0    0  0.00000000000E+00  0.00000000000E+00  0.45593999997E+02  0.45594000000E+02  0.51100000000E-03 0.  1.
         11   -1    0    0    0    0 -0.00000000000E+00 -0.00000000000E+00 -0.45593999997E+02  0.45594000000E+02  0.51100000000E-03 0. -1.
    9900012    2    1    2    0    0  0.58744426987E+01  0.36980950448E+02 -0.15845053775E+02  0.50528862009E+02  0.30000006563E+02 0.  0.
         12    1    1    2    0    0 -0.58744426987E+01 -0.36980950448E+02  0.15845053775E+02  0.40659137991E+02  0.00000000000E+00 0. -1.
         11    1    3    3    0    0  0.25924796956E+00  0.21785168266E+02 -0.15830963752E+02  0.26931026335E+02  0.51100000000E-03 0. -1.
        -11    1    3    3    0    0  0.31422604425E+01  0.18067344285E+02  0.32159845101E+01  0.18618412576E+02  0.51100000000E-03 0.  1.
         12    1    3    3    0    0  0.24729342867E+01 -0.28715621038E+01 -0.32300745329E+01  0.49794230982E+01  0.00000000000E+00 0. -1.
</event>
<event>
 7    1  0.2746803E-013  0.5052886E+02  0.7816164E-02  0.1300439E+00
        -11   -1    0    0    0    0  0.00000000000E+00  0.00000000000E+00  0.45593999997E+02  0.45594000000E+02  0.51100000000E-03 0.  1.
         11   -1    0    0    0    0 -0.00000000000E+00 -0.00000000000E+00 -0.45593999997E+02  0.45594000000E+02  0.51100000000E-03 0. -1.
    9900012    2    1    2    0    0  0.98593107219E+01  0.86521465796E+01  0.38485066659E+02  0.50528855837E+02  0.29999987802E+02 0.  0.
         12    1    1    2    0    0 -0.98593107219E+01 -0.86521465796E+01 -0.38485066659E+02  0.40659144163E+02  0.00000000000E+00 0. -1.
         11    1    3    3    0    0 -0.69373515556E+01  0.39248542529E+01  0.18774797000E+02  0.20396674488E+02  0.51100000000E-03 0. -1.
        -11    1    3    3    0    0  0.83588507228E+01  0.24119191371E+01  0.19530564900E+02  0.21380615166E+02  0.51100000000E-03 0.  1.
         12    1    3    3    0    0  0.84378115547E+01  0.23153731895E+01  0.17970475862E+00  0.87515661821E+01  0.00000000000E+00 0. -1.
</event>
<event>
 7    1  0.2746803E-013  0.5052886E+02  0.7816164E-02  0.1300439E+00
        -11   -1    0    0    0    0  0.00000000000E+00  0.00000000000E+00  0.45593999997E+02  0.45594000000E+02  0.51100000000E-03 0.  1.
         11   -1    0    0    0    0 -0.00000000000E+00 -0.00000000000E+00 -0.45593999997E+02  0.45594000000E+02  0.51100000000E-03 0. -1.
    9900012    2    1    2    0    0 -0.15367330850E+02  0.37457971821E+02  0.37297260700E+01  0.50528863672E+02  0.30000011618E+02 0.  0.
         12    1    1    2    0    0  0.15367330850E+02 -0.37457971821E+02 -0.37297260700E+01  0.40659136328E+02  0.00000000000E+00 0. -1.
         11    1    3    3    0    0 -0.76960591036E-01  0.14461453841E+02 -0.81200958338E+01  0.16585401012E+02  0.51100000000E-03 0. -1.
        -11    1    3    3    0    0 -0.15783916628E+02  0.20059932123E+02  0.43750329699E+01  0.25897370806E+02  0.51100000000E-03 0.  1.
        -12    1    3    3    0    0  0.49354636933E+00  0.29365858562E+01  0.74747889339E+01  0.80460918536E+01  0.00000000000E+00 0.  1.
</event>
<event>
 7    1  0.2746803E-013  0.5052886E+02  0.7816164E-02  0.1300439E+00
        -11   -1    0    0    0    0  0.00000000000E+00  0.00000000000E+00  0.45593999997E+02  0.45594000000E+02  0.51100000000E-03 0.  1.
         11   -1    0    0    0    0 -0.00000000000E+00 -0.00000000000E+00 -0.45593999997E+02  0.45594000000E+02  0.51100000000E-03 0. -1.
    9900012    2    1    2    0    0 -0.40086834224E+02 -0.31949388030E+01  0.60003187816E+01  0.50528859115E+02  0.29999997766E+02 0.  0.
         12    1    1    2    0    0  0.40086834224E+02  0.31949388030E+01 -0.60003187816E+01  0.40659140885E+02  0.00000000000E+00 0. -1.
         11    1    3    3    0    0 -0.89772655565E+01  0.39819856460E+01  0.98304698203E+01  0.13895526032E+02  0.51100000000E-03 0. -1.
        -11    1    3    3    0    0 -0.14966702221E+02 -0.72947063461E+01  0.60403259432E+01  0.17711590945E+02  0.51100000000E-03 0.  1.
         12    1    3    3    0    0 -0.16142866446E+02  0.11778189703E+00 -0.98704769819E+01  0.18921742138E+02  0.00000000000E+00 0. -1.
</event>
<event>
 7    1  0.2746803E-013  0.5052884E+02  0.7816164E-02  0.1300439E+00
        -11   -1    0    0    0    0  0.00000000000E+00  0.00000000000E+00  0.45593999997E+02  0.45594000000E+02  0.51100000000E-03 0.  1.
         11   -1    0    0    0    0 -0.00000000000E+00 -0.00000000000E+00 -0.45593999997E+02  0.45594000000E+02  0.51100000000E-03 0. -1.
    9900012    2    1    2    0    0  0.17759882275E+02  0.24085670368E+02  0.27525155092E+02  0.50528842380E+02  0.29999946898E+02 0.  0.
         12    1    1    2    0    0 -0.17759882275E+02 -0.24085670368E+02 -0.27525155092E+02  0.40659157620E+02  0.00000000000E+00 0. -1.
         11    1    3    3    0    0  0.15444949743E+01  0.91422820889E+01 -0.37504269909E+01  0.10001624338E+02  0.51100000000E-03 0. -1.
        -11    1    3    3    0    0  0.65186452706E+01  0.37733140365E+00  0.27994490265E+01  0.71043669855E+01  0.51100000000E-03 0.  1.
        -12    1    3    3    0    0  0.96967420306E+01  0.14566056876E+02  0.28476133056E+02  0.33422851057E+02  0.00000000000E+00 0.  1.
</event>
<event>
 7    1  0.2746803E-013  0.5052886E+02  0.7816164E-02  0.1300439E+00
        -11   -1    0    0    0    0  0.00000000000E+00  0.00000000000E+00  0.45593999997E+02  0.45594000000E+02  0.51100000000E-03 0.  1.
         11   -1    0    0    0    0 -0.00000000000E+00 -0.00000000000E+00 -0.45593999997E+02  0.45594000000E+02  0.51100000000E-03 0. -1.
    9900012    2    1    2    0    0  0.16148197568E+01  0.30267517599E+02  0.27100472892E+02  0.50528857173E+02  0.29999991863E+02 0.  0.
         12    1    1    2    0    0 -0.16148197568E+01 -0.30267517599E+02 -0.27100472892E+02  0.40659142827E+02  0.00000000000E+00 0. -1.
         11    1    3    3    0    0  0.57544097878E+01  0.65895902888E+01  0.24464736461E+01  0.90841161234E+01  0.51100000000E-03 0. -1.
        -11    1    3    3    0    0  0.55532778679E+01  0.19606478295E+02  0.23122557124E+02  0.30820537542E+02  0.51100000000E-03 0.  1.
         12    1    3    3    0    0 -0.96928678989E+01  0.40714490158E+01  0.15314421219E+01  0.10624203507E+02  0.00000000000E+00 0. -1.
</event>
<event>
 7    1  0.2746803E-013  0.5052885E+02  0.7816164E-02  0.1300439E+00
        -11   -1    0    0    0    0  0.00000000000E+00  0.00000000000E+00  0.45593999997E+02  0.45594000000E+02  0.51100000000E-03 0. -1.
         11   -1    0    0    0    0 -0.00000000000E+00 -0.00000000000E+00 -0.45593999997E+02  0.45594000000E+02  0.51100000000E-03 0.  1.
    9900012    2    1    2    0    0 -0.19121320724E+02  0.28519488454E+02 -0.21775680803E+02  0.50528850939E+02  0.29999972914E+02 0.  0.
         12    1    1    2    0    0  0.19121320724E+02 -0.28519488454E+02  0.21775680803E+02  0.40659149061E+02  0.00000000000E+00 0. -1.
         11    1    3    3    0    0 -0.91559454448E+01  0.72617647764E+01 -0.30338436681E+01  0.12073473913E+02  0.51100000000E-03 0.  1.
        -11    1    3    3    0    0 -0.63133601871E-01 -0.24824000834E+01  0.36077188967E+01  0.43797182472E+01  0.51100000000E-03 0. -1.
        -12    1    3    3    0    0 -0.99022416774E+01  0.23740123761E+02 -0.22349556031E+02  0.34075658779E+02  0.00000000000E+00 0.  1.
</event>
<event>
 7    1  0.2746803E-013  0.5052887E+02  0.7816164E-02  0.1300439E+00
        -11   -1    0    0    0    0  0.00000000000E+00  0.00000000000E+00  0.45593999997E+02  0.45594000000E+02  0.51100000000E-03 0.  1.
         11   -1    0    0    0    0 -0.00000000000E+00 -0.00000000000E+00 -0.45593999997E+02  0.45594000000E+02  0.51100000000E-03 0. -1.
    9900012    2    1    2    0    0 -0.34735356944E+02  0.12950662668E+02  0.16700315613E+02  0.50528865391E+02  0.30000016843E+02 0.  0.
         12    1    1    2    0    0  0.34735356944E+02 -0.12950662668E+02 -0.16700315613E+02  0.40659134609E+02  0.00000000000E+00 0. -1.
         11    1    3    3    0    0 -0.32495440843E+01  0.12459854608E+02  0.83565874577E+00  0.12903714171E+02  0.51100000000E-03 0. -1.
        -11    1    3    3    0    0 -0.11672035429E+02  0.31016208093E+01 -0.50591690492E-01  0.12077210873E+02  0.51100000000E-03 0.  1.
        -12    1    3    3    0    0 -0.19813777431E+02 -0.26108127493E+01  0.15915248557E+02  0.25547940346E+02  0.00000000000E+00 0.  1.
</event>
<event>
 7    1  0.2746803E-013  0.5052886E+02  0.7816164E-02  0.1300439E+00
        -11   -1    0    0    0    0  0.00000000000E+00  0.00000000000E+00  0.45593999997E+02  0.45594000000E+02  0.51100000000E-03 0. -1.
         11   -1    0    0    0    0 -0.00000000000E+00 -0.00000000000E+00 -0.45593999997E+02  0.45594000000E+02  0.51100000000E-03 0.  1.
    9900012    2    1    2    0    0 -0.31675333717E+02  0.24510022239E+02  0.70069512739E+01  0.50528864220E+02  0.30000013283E+02 0.  0.
         12    1    1    2    0    0  0.31675333717E+02 -0.24510022239E+02 -0.70069512739E+01  0.40659135780E+02  0.00000000000E+00 0. -1.
         11    1    3    3    0    0 -0.25042332542E+00 -0.14572433908E+01 -0.44129161407E+01  0.46540411759E+01  0.51100000000E-03 0. -1.
        -11    1    3    3    0    0 -0.33845794498E+01  0.77673830555E+01  0.89964253655E+01  0.12358126363E+02  0.51100000000E-03 0.  1.
         12    1    3    3    0    0 -0.28040330942E+02  0.18199882574E+02  0.24234420491E+01  0.33516696681E+02  0.00000000000E+00 0. -1.
</event>
<event>
 7    1  0.2746803E-013  0.5052886E+02  0.7816164E-02  0.1300439E+00
        -11   -1    0    0    0    0  0.00000000000E+00  0.00000000000E+00  0.45593999997E+02  0.45594000000E+02  0.51100000000E-03 0.  1.
         11   -1    0    0    0    0 -0.00000000000E+00 -0.00000000000E+00 -0.45593999997E+02  0.45594000000E+02  0.51100000000E-03 0. -1.
    9900012    2    1    2    0    0 -0.13585389811E+02  0.18284773896E+02  0.33678925252E+02  0.50528858606E+02  0.29999996218E+02 0.  0.
         12    1    1    2    0    0  0.13585389811E+02 -0.18284773896E+02 -0.33678925252E+02  0.40659141394E+02  0.00000000000E+00 0. -1.
         11    1    3    3    0    0 -0.60300511285E+00 -0.24941948861E+01  0.21819059380E+01  0.33682839962E+01  0.51100000000E-03 0. -1.
        -11    1    3    3    0    0 -0.80255601750E+01 -0.28636827159E+01  0.15100911311E+01  0.86539395829E+01  0.51100000000E-03 0.  1.
        -12    1    3    3    0    0 -0.49568245235E+01  0.23642651498E+02  0.29986928183E+02  0.38506635027E+02  0.00000000000E+00 0.  1.
</event>
<event>
 7    1  0.2746803E-013  0.5052886E+02  0.7816164E-02  0.1300439E+00
        -11   -1    0    0    0    0  0.00000000000E+00  0.00000000000E+00  0.45593999997E+02  0.45594000000E+02  0.51100000000E-03 0. -1.
         11   -1    0    0    0    0 -0.00000000000E+00 -0.00000000000E+00 -0.45593999997E+02  0.45594000000E+02  0.51100000000E-03 0.  1.
    9900012    2    1    2    0    0 -0.73386582458E+01 -0.23299127324E+02 -0.32503231136E+02  0.50528864825E+02  0.30000015123E+02 0.  0.
         12    1    1    2    0    0  0.73386582458E+01  0.23299127324E+02  0.32503231136E+02  0.40659135175E+02  0.00000000000E+00 0. -1.
         11    1    3    3    0    0  0.57031568129E+00 -0.37184454327E+01 -0.76290638519E+01  0.85061572951E+01  0.51100000000E-03 0. -1.
        -11    1    3    3    0    0 -0.90637083908E+01  0.35658214259E+01 -0.30951280825E+01  0.10219868411E+02  0.51100000000E-03 0.  1.
         12    1    3    3    0    0  0.11547344637E+01 -0.23146503317E+02 -0.21779039201E+02  0.31802839119E+02  0.00000000000E+00 0. -1.
</event>
<event>
 7    1  0.2746803E-013  0.5052883E+02  0.7816164E-02  0.1300439E+00
        -11   -1    0    0    0    0  0.00000000000E+00  0.00000000000E+00  0.45593999997E+02  0.45594000000E+02  0.51100000000E-03 0.  1.
         11   -1    0    0    0    0 -0.00000000000E+00 -0.00000000000E+00 -0.45593999997E+02  0.45594000000E+02  0.51100000000E-03 0. -1.
    9900012    2    1    2    0    0 -0.16422236745E+02  0.22447660548E+02  0.29657724706E+02  0.50528831802E+02  0.29999914746E+02 0.  0.
         12    1    1    2    0    0  0.16422236745E+02 -0.22447660548E+02 -0.29657724706E+02  0.40659168198E+02  0.00000000000E+00 0. -1.
         11    1    3    3    0    0 -0.15963726892E+02  0.12399261081E+02  0.21113003287E+02  0.29229114932E+02  0.51100000000E-03 0.  1.
        -11    1    3    3    0    0 -0.76457840230E+01  0.77866747217E+01  0.15567419158E+01  0.11023328091E+02  0.51100000000E-03 0. -1.
        -12    1    3    3    0    0  0.71872741696E+01  0.22617247454E+01  0.69879795026E+01  0.10276388779E+02  0.00000000000E+00 0.  1.
</event>
<event>
 7    1  0.2746803E-013  0.5052886E+02  0.7816164E-02  0.1300439E+00
        -11   -1    0    0    0    0  0.00000000000E+00  0.00000000000E+00  0.45593999997E+02  0.45594000000E+02  0.51100000000E-03 0.  1.
         11   -1    0    0    0    0 -0.00000000000E+00 -0.00000000000E+00 -0.45593999997E+02  0.45594000000E+02  0.51100000000E-03 0. -1.
    9900012    2    1    2    0    0  0.69571947286E+01  0.60396866098E+01  0.39601582677E+02  0.50528859289E+02  0.29999998295E+02 0.  0.
         12    1    1    2    0    0 -0.69571947286E+01 -0.60396866098E+01 -0.39601582677E+02  0.40659140711E+02  0.00000000000E+00 0. -1.
         11    1    3    3    0    0  0.38724455935E+01  0.12581567724E+01  0.78992597659E+01  0.88869060111E+01  0.51100000000E-03 0. -1.
        -11    1    3    3    0    0  0.10919686035E+02  0.51198851121E+01  0.31573668646E+02  0.33798658534E+02  0.51100000000E-03 0.  1.
         12    1    3    3    0    0 -0.78349369000E+01 -0.33835527468E+00  0.12865426511E+00  0.78432947439E+01  0.00000000000E+00 0. -1.
</event>
<event>
 7    1  0.2746803E-013  0.5052884E+02  0.7816164E-02  0.1300439E+00
        -11   -1    0    0    0    0  0.00000000000E+00  0.00000000000E+00  0.45593999997E+02  0.45594000000E+02  0.51100000000E-03 0.  1.
         11   -1    0    0    0    0 -0.00000000000E+00 -0.00000000000E+00 -0.45593999997E+02  0.45594000000E+02  0.51100000000E-03 0. -1.
    9900012    2    1    2    0    0 -0.13430916401E+01 -0.19152172782E+02  0.35840731621E+02  0.50528835466E+02  0.29999925883E+02 0.  0.
         12    1    1    2    0    0  0.13430916401E+01  0.19152172782E+02 -0.35840731621E+02  0.40659164534E+02  0.00000000000E+00 0. -1.
         11    1    3    3    0    0 -0.34620257633E+01  0.49034594256E+01  0.12914476952E+02  0.14241251769E+02  0.51100000000E-03 0. -1.
        -11    1    3    3    0    0  0.65204845428E+01 -0.78171150035E+01  0.39296921400E+01  0.10911759080E+02  0.51100000000E-03 0.  1.
        -12    1    3    3    0    0 -0.44015504196E+01 -0.16238517204E+02  0.18996562529E+02  0.25375824617E+02  0.00000000000E+00 0.  1.
</event>
<event>
 7    1  0.2746803E-013  0.5052887E+02  0.7816164E-02  0.1300439E+00
        -11   -1    0    0    0    0  0.00000000000E+00  0.00000000000E+00  0.45593999997E+02  0.45594000000E+02  0.51100000000E-03 0. -1.
         11   -1    0    0    0    0 -0.00000000000E+00 -0.00000000000E+00 -0.45593999997E+02  0.45594000000E+02  0.51100000000E-03 0.  1.
    9900012    2    1    2    0    0 -0.15697104791E+02 -0.32172928970E+02 -0.19278711653E+02  0.50528865966E+02  0.30000018591E+02 0.  0.
         12    1    1    2    0    0  0.15697104791E+02  0.32172928970E+02  0.19278711653E+02  0.40659134034E+02  0.00000000000E+00 0. -1.
         11    1    3    3    0    0  0.28600823139E+01 -0.10480963082E+02 -0.14258243691E+00  0.10865127150E+02  0.51100000000E-03 0. -1.
        -11    1    3    3    0    0 -0.95938977067E+01 -0.91970147850E+01  0.20893058746E+01  0.13453369595E+02  0.51100000000E-03 0.  1.
        -12    1    3    3    0    0 -0.89632893986E+01 -0.12494951104E+02 -0.21225435091E+02  0.26210369221E+02  0.00000000000E+00 0.  1.
</event>
<event>
 7    1  0.2746803E-013  0.5052887E+02  0.7816164E-02  0.1300439E+00
        -11   -1    0    0    0    0  0.00000000000E+00  0.00000000000E+00  0.45593999997E+02  0.45594000000E+02  0.51100000000E-03 0.  1.
         11   -1    0    0    0    0 -0.00000000000E+00 -0.00000000000E+00 -0.45593999997E+02  0.45594000000E+02  0.51100000000E-03 0. -1.
    9900012    2    1    2    0    0  0.22427176183E+02  0.18637574822E+02  0.28334215359E+02  0.50528865887E+02  0.30000018350E+02 0.  0.
         12    1    1    2    0    0 -0.22427176183E+02 -0.18637574822E+02 -0.28334215359E+02  0.40659134113E+02  0.00000000000E+00 0. -1.
         11    1    3    3    0    0 -0.36894077711E+01  0.74718804373E+01  0.15533566538E+01  0.84766528846E+01  0.51100000000E-03 0. -1.
        -11    1    3    3    0    0  0.45177642882E+01  0.11653604071E+01  0.14574693752E+02  0.15303266229E+02  0.51100000000E-03 0.  1.
         12    1    3    3    0    0  0.21598819666E+02  0.10000333978E+02  0.12206164953E+02  0.26748946774E+02  0.00000000000E+00 0. -1.
</event>
<event>
 7    1  0.2746803E-013  0.5052886E+02  0.7816164E-02  0.1300439E+00
        -11   -1    0    0    0    0  0.00000000000E+00  0.00000000000E+00  0.45593999997E+02  0.45594000000E+02  0.51100000000E-03 0. -1.
         11   -1    0    0    0    0 -0.00000000000E+00 -0.00000000000E+00 -0.45593999997E+02  0.45594000000E+02  0.51100000000E-03 0.  1.
    9900012    2    1    2    0    0 -0.52487321651E+00 -0.36447835236E+02  0.18012378285E+02  0.50528856419E+02  0.29999989571E+02 0.  0.
         12    1    1    2    0    0  0.52487321651E+00  0.36447835236E+02 -0.18012378285E+02  0.40659143581E+02  0.00000000000E+00 0. -1.
         11    1    3    3    0    0  0.36745461443E+01 -0.26690708443E+01  0.40447108556E+01  0.60816046160E+01  0.51100000000E-03 0. -1.
        -11    1    3    3    0    0 -0.34415047816E+00 -0.32574149571E+02  0.19218580740E+02  0.37822579311E+02  0.51100000000E-03 0.  1.
        -12    1    3    3    0    0 -0.38552688827E+01 -0.12046148206E+01 -0.52509133112E+01  0.66246724920E+01  0.00000000000E+00 0.  1.
</event>
<event>
 7    1  0.2746803E-013  0.5052882E+02  0.7816164E-02  0.1300439E+00
        -11   -1    0    0    0    0  0.00000000000E+00  0.00000000000E+00  0.45593999997E+02  0.45594000000E+02  0.51100000000E-03 0.  1.
         11   -1    0    0    0    0 -0.00000000000E+00 -0.00000000000E+00 -0.45593999997E+02  0.45594000000E+02  0.51100000000E-03 0. -1.
    9900012    2    1    2    0    0  0.17887027959E+02  0.29774490868E+02  0.21135347820E+02  0.50528818956E+02  0.29999875700E+02 0.  0.
         12    1    1    2    0    0 -0.17887027959E+02 -0.29774490868E+02 -0.21135347820E+02  0.40659181044E+02  0.00000000000E+00 0. -1.
         11    1    3    3    0    0  0.21280491125E+01 -0.54582194610E+00 -0.22120299875E+01  0.31176259476E+01  0.51100000000E-03 0. -1.
        -11    1    3    3    0    0  0.20825554295E+02  0.17205317795E+02  0.13158605537E+02  0.30047887981E+02  0.51100000000E-03 0.  1.
         12    1    3    3    0    0 -0.50665754492E+01  0.13114995019E+02  0.10188772271E+02  0.17363305028E+02  0.00000000000E+00 0. -1.
</event>
<event>
 7    1  0.2746803E-013  0.5052893E+02  0.7816164E-02  0.1300439E+00
        -11   -1    0    0    0    0  0.00000000000E+00  0.00000000000E+00  0.45593999997E+02  0.45594000000E+02  0.51100000000E-03 0.  1.
         11   -1    0    0    0    0 -0.00000000000E+00 -0.00000000000E+00 -0.45593999997E+02  0.45594000000E+02  0.51100000000E-03 0. -1.
    9900012    2    1    2    0    0  0.25732082019E+02 -0.35704277427E+01  0.31277343979E+02  0.50528926650E+02  0.30000203044E+02 0.  0.
         12    1    1    2    0    0 -0.25732082019E+02  0.35704277427E+01 -0.31277343979E+02  0.40659073350E+02  0.00000000000E+00 0. -1.
         11    1    3    3    0    0 -0.10255679751E+01  0.53557164509E+00 -0.24739920751E+00  0.11831455057E+01  0.51100000000E-03 0. -1.
        -11    1    3    3    0    0  0.25721284123E+02 -0.11394445894E+02  0.16498725439E+02  0.32613276369E+02  0.51100000000E-03 0.  1.
        -12    1    3    3    0    0  0.10363658712E+01  0.72884465062E+01  0.15026017748E+02  0.16732504775E+02  0.00000000000E+00 0.  1.
</event>
<event>
 7    1  0.2746803E-013  0.5052886E+02  0.7816164E-02  0.1300439E+00
        -11   -1    0    0    0    0  0.00000000000E+00  0.00000000000E+00  0.45593999997E+02  0.45594000000E+02  0.51100000000E-03 0.  1.
         11   -1    0    0    0    0 -0.00000000000E+00 -0.00000000000E+00 -0.45593999997E+02  0.45594000000E+02  0.51100000000E-03 0. -1.
    9900012    2    1    2    0    0 -0.18866814108E+02 -0.25051319853E+02  0.25877411069E+02  0.50528859520E+02  0.29999998996E+02 0.  0.
         12    1    1    2    0    0  0.18866814108E+02  0.25051319853E+02 -0.25877411069E+02  0.40659140480E+02  0.00000000000E+00 0. -1.
         11    1    3    3    0    0 -0.85472786936E+01 -0.17846750209E+02  0.65797722066E+01  0.20853198044E+02  0.51100000000E-03 0. -1.
        -11    1    3    3    0    0 -0.35469105110E+01 -0.13064183957E+02  0.10623209099E+02  0.17207732229E+02  0.51100000000E-03 0.  1.
        -12    1    3    3    0    0 -0.67726249038E+01  0.58596143135E+01  0.86744297635E+01  0.12467929247E+02  0.00000000000E+00 0.  1.
</event>
<event>
 7    1  0.2746803E-013  0.5052886E+02  0.7816164E-02  0.1300439E+00
        -11   -1    0    0    0    0  0.00000000000E+00  0.00000000000E+00  0.45593999997E+02  0.45594000000E+02  0.51100000000E-03 0. -1.
         11   -1    0    0    0    0 -0.00000000000E+00 -0.00000000000E+00 -0.45593999997E+02  0.45594000000E+02  0.51100000000E-03 0.  1.
    9900012    2    1    2    0    0 -0.24076744147E+02  0.24653642214E+02 -0.21579484877E+02  0.50528857723E+02  0.29999993535E+02 0.  0.
         12    1    1    2    0    0  0.24076744147E+02 -0.24653642214E+02  0.21579484877E+02  0.40659142277E+02  0.00000000000E+00 0. -1.
         11    1    3    3    0    0 -0.85547588227E+01  0.12980578739E+02 -0.16456566098E+02  0.22638416263E+02  0.51100000000E-03 0. -1.
        -11    1    3    3    0    0 -0.17770325022E+02  0.11365070913E+02 -0.93651829527E+01  0.23079340117E+02  0.51100000000E-03 0.  1.
         12    1    3    3    0    0  0.22483396977E+01  0.30799256213E+00  0.42422641736E+01  0.48111013431E+01  0.00000000000E+00 0. -1.
</event>
<event>
 7    1  0.2746803E-013  0.5052885E+02  0.7816164E-02  0.1300439E+00
        -11   -1    0    0    0    0  0.00000000000E+00  0.00000000000E+00  0.45593999997E+02  0.45594000000E+02  0.51100000000E-03 0.  1.
         11   -1    0    0    0    0 -0.00000000000E+00 -0.00000000000E+00 -0.45593999997E+02  0.45594000000E+02  0.51100000000E-03 0. -1.
    9900012    2    1    2    0    0 -0.18384388820E+02  0.23270577759E+02  0.27814755654E+02  0.50528853752E+02  0.29999981465E+02 0.  0.
         12    1    1    2    0    0  0.18384388820E+02 -0.23270577759E+02 -0.27814755654E+02  0.40659146248E+02  0.00000000000E+00 0. -1.
         11    1    3    3    0    0 -0.50005289474E+01 -0.25016292354E+01  0.16340933425E+02  0.17271060883E+02  0.51100000000E-03 0. -1.
        -11    1    3    3    0    0 -0.73904924636E+01  0.36298921685E+01  0.38076073541E+01  0.90715693259E+01  0.51100000000E-03 0.  1.
         12    1    3    3    0    0 -0.59933674087E+01  0.22142314826E+02  0.76662148751E+01  0.24186223543E+02  0.00000000000E+00 0. -1.
</event>
<event>
 7    1  0.2746803E-013  0.5052887E+02  0.7816164E-02  0.1300439E+00
        -11   -1    0    0    0    0  0.00000000000E+00  0.00000000000E+00  0.45593999997E+02  0.45594000000E+02  0.51100000000E-03 0. -1.
         11   -1    0    0    0    0 -0.00000000000E+00 -0.00000000000E+00 -0.45593999997E+02  0.45594000000E+02  0.51100000000E-03 0.  1.
    9900012    2    1    2    0    0  0.86893176876E+01 -0.39688315836E+02  0.15804554383E+01  0.50528874392E+02  0.30000044203E+02 0.  0.
         12    1    1    2    0    0 -0.86893176876E+01  0.39688315836E+02 -0.15804554383E+01  0.40659125608E+02  0.00000000000E+00 0. -1.
         11    1    3    3    0    0 -0.32237094490E+01 -0.90871460134E+01 -0.16661657534E+00  0.96434582296E+01  0.51100000000E-03 0. -1.
        -11    1    3    3    0    0  0.85341403915E+01 -0.31061982465E+02 -0.56826928628E+01  0.32710415854E+02  0.51100000000E-03 0.  1.
         12    1    3    3    0    0  0.33788867452E+01  0.46081264266E+00  0.74297648765E+01  0.81750003088E+01  0.00000000000E+00 0. -1.
</event>
<event>
 7    1  0.2746803E-013  0.5052886E+02  0.7816164E-02  0.1300439E+00
        -11   -1    0    0    0    0  0.00000000000E+00  0.00000000000E+00  0.45593999997E+02  0.45594000000E+02  0.51100000000E-03 0.  1.
         11   -1    0    0    0    0 -0.00000000000E+00 -0.00000000000E+00 -0.45593999997E+02  0.45594000000E+02  0.51100000000E-03 0. -1.
    9900012    2    1    2    0    0 -0.17786719193E+02 -0.23853807995E+02  0.27709096777E+02  0.50528861055E+02  0.30000003664E+02 0.  0.
         12    1    1    2    0    0  0.17786719193E+02  0.23853807995E+02 -0.27709096777E+02  0.40659138945E+02  0.00000000000E+00 0. -1.
         11    1    3    3    0    0 -0.10781581137E+02 -0.17070886303E+01  0.14913245122E+02  0.18481383166E+02  0.51100000000E-03 0. -1.
        -11    1    3    3    0    0 -0.11704238742E+02 -0.20178579854E+02  0.13424315779E+02  0.26914244255E+02  0.51100000000E-03 0.  1.
        -12    1    3    3    0    0  0.46991006854E+01 -0.19681395108E+01 -0.62846412391E+00  0.51332336339E+01  0.00000000000E+00 0.  1.
</event>
<event>
 7    1  0.2746803E-013  0.5052885E+02  0.7816164E-02  0.1300439E+00
        -11   -1    0    0    0    0  0.00000000000E+00  0.00000000000E+00  0.45593999997E+02  0.45594000000E+02  0.51100000000E-03 0. -1.
         11   -1    0    0    0    0 -0.00000000000E+00 -0.00000000000E+00 -0.45593999997E+02  0.45594000000E+02  0.51100000000E-03 0.  1.
    9900012    2    1    2    0    0  0.28646263006E+02 -0.28250279600E+02 -0.58719347008E+01  0.50528852212E+02  0.29999976784E+02 0.  0.
         12    1    1    2    0    0 -0.28646263006E+02  0.28250279600E+02  0.58719347008E+01  0.40659147788E+02  0.00000000000E+00 0. -1.
         11    1    3    3    0    0  0.66803126119E+01 -0.16402129559E+02 -0.43496903304E+01  0.18236672857E+02  0.51100000000E-03 0. -1.
        -11    1    3    3    0    0 -0.27703732729E+01 -0.27344971805E+01 -0.42813367715E+01  0.57863881406E+01  0.51100000000E-03 0.  1.
         12    1    3    3    0    0  0.24736323668E+02 -0.91136528604E+01  0.27590924011E+01  0.26505791215E+02  0.00000000000E+00 0. -1.
</event>
<event>
 7    1  0.2746803E-013  0.5052886E+02  0.7816164E-02  0.1300439E+00
        -11   -1    0    0    0    0  0.00000000000E+00  0.00000000000E+00  0.45593999997E+02  0.45594000000E+02  0.51100000000E-03 0.  1.
         11   -1    0    0    0    0 -0.00000000000E+00 -0.00000000000E+00 -0.45593999997E+02  0.45594000000E+02  0.51100000000E-03 0. -1.
    9900012    2    1    2    0    0 -0.15309262653E+02  0.36451641627E+02 -0.94905285111E+01  0.50528857957E+02  0.29999994245E+02 0.  0.
         12    1    1    2    0    0  0.15309262653E+02 -0.36451641627E+02  0.94905285111E+01  0.40659142043E+02  0.00000000000E+00 0. -1.
         11    1    3    3    0    0  0.35404700493E+01  0.95924192206E+01 -0.49869888736E+01  0.11376268851E+02  0.51100000000E-03 0. -1.
        -11    1    3    3    0    0 -0.14068190113E+02  0.29226955579E+02 -0.71217536316E+01  0.33209159588E+02  0.51100000000E-03 0.  1.
        -12    1    3    3    0    0 -0.47815425898E+01 -0.23677331730E+01  0.26182139941E+01  0.59434295180E+01  0.00000000000E+00 0.  1.
</event>
<event>
 7    1  0.2746803E-013  0.5052887E+02  0.7816164E-02  0.1300439E+00
        -11   -1    0    0    0    0  0.00000000000E+00  0.00000000000E+00  0.45593999997E+02  0.45594000000E+02  0.51100000000E-03 0. -1.
         11   -1    0    0    0    0 -0.00000000000E+00 -0.00000000000E+00 -0.45593999997E+02  0.45594000000E+02  0.51100000000E-03 0.  1.
    9900012    2    1    2    0    0  0.35399570776E+02  0.19976724249E+02 -0.98282507229E+00  0.50528867349E+02  0.30000022794E+02 0.  0.
         12    1    1    2    0    0 -0.35399570776E+02 -0.19976724249E+02  0.98282507229E+00  0.40659132651E+02  0.00000000000E+00 0. -1.
         11    1    3    3    0    0 -0.34581866580E-01  0.78018249473E+01 -0.37707833042E+01  0.86653606620E+01  0.51100000000E-03 0. -1.
        -11    1    3    3    0    0  0.11707931873E+01  0.67477616190E+01  0.21104374867E+01  0.71663791555E+01  0.51100000000E-03 0.  1.
         12    1    3    3    0    0  0.34263359455E+02  0.54271376826E+01  0.67752074522E+00  0.34697127531E+02  0.00000000000E+00 0. -1.
</event>
<event>
 7    1  0.2746803E-013  0.5052887E+02  0.7816164E-02  0.1300439E+00
        -11   -1    0    0    0    0  0.00000000000E+00  0.00000000000E+00  0.45593999997E+02  0.45594000000E+02  0.51100000000E-03 0. -1.
         11   -1    0    0    0    0 -0.00000000000E+00 -0.00000000000E+00 -0.45593999997E+02  0.45594000000E+02  0.51100000000E-03 0.  1.
    9900012    2    1    2    0    0  0.18908885416E+02  0.10762851349E+02 -0.34347919212E+02  0.50528874689E+02  0.30000045105E+02 0.  0.
         12    1    1    2    0    0 -0.18908885416E+02 -0.10762851349E+02  0.34347919212E+02  0.40659125311E+02  0.00000000000E+00 0. -1.
         11    1    3    3    0    0  0.10781901317E+02  0.16602005881E+00 -0.16033085694E+02  0.19321925261E+02  0.51100000000E-03 0. -1.
        -11    1    3    3    0    0  0.13415956512E+02  0.11065742953E+02 -0.70726612773E+01  0.18773947215E+02  0.51100000000E-03 0.  1.
        -12    1    3    3    0    0 -0.52889724126E+01 -0.46891166313E+00 -0.11242172241E+02  0.12433002213E+02  0.00000000000E+00 0.  1.
</event>
<event>
 7    1  0.2746803E-013  0.5052886E+02  0.7816164E-02  0.1300439E+00
        -11   -1    0    0    0    0  0.00000000000E+00  0.00000000000E+00  0.45593999997E+02  0.45594000000E+02  0.51100000000E-03 0. -1.
         11   -1    0    0    0    0 -0.00000000000E+00 -0.00000000000E+00 -0.45593999997E+02  0.45594000000E+02  0.51100000000E-03 0.  1.
    9900012    2    1    2    0    0  0.31509449839E+02 -0.20502584518E+02 -0.15490786360E+02  0.50528857570E+02  0.29999993071E+02 0.  0.
         12    1    1    2    0    0 -0.31509449839E+02  0.20502584518E+02  0.15490786360E+02  0.40659142430E+02  0.00000000000E+00 0. -1.
         11    1    3    3    0    0  0.30199267459E+01  0.48539633448E+01 -0.16073742506E+01  0.59383979275E+01  0.51100000000E-03 0.  1.
        -11    1    3    3    0    0  0.46355345836E+01 -0.79573880826E+01  0.40339244122E+01  0.10053892400E+02  0.51100000000E-03 0. -1.
        -12    1    3    3    0    0  0.23853988509E+02 -0.17399159781E+02 -0.17917336522E+02  0.34536567243E+02  0.00000000000E+00 0.  1.
</event>
<event>
 7    1  0.2746803E-013  0.5052886E+02  0.7816164E-02  0.1300439E+00
        -11   -1    0    0    0    0  0.00000000000E+00  0.00000000000E+00  0.45593999997E+02  0.45594000000E+02  0.51100000000E-03 0.  1.
         11   -1    0    0    0    0 -0.00000000000E+00 -0.00000000000E+00 -0.45593999997E+02  0.45594000000E+02  0.51100000000E-03 0. -1.
    9900012    2    1    2    0    0  0.18332583662E+02  0.29148295623E+02 -0.21620788993E+02  0.50528864764E+02  0.30000014937E+02 0.  0.
         12    1    1    2    0    0 -0.18332583662E+02 -0.29148295623E+02  0.21620788993E+02  0.40659135236E+02  0.00000000000E+00 0. -1.
         11    1    3    3    0    0 -0.65568602048E+01  0.41520256769E+01 -0.98628807009E+01  0.12550225056E+02  0.51100000000E-03 0. -1.
        -11    1    3    3    0    0  0.24363464585E+01  0.34714527413E+01  0.10040379610E+01  0.43583093843E+01  0.51100000000E-03 0.  1.
        -12    1    3    3    0    0  0.22453097408E+02  0.21524817205E+02 -0.12761946253E+02  0.33620330324E+02  0.00000000000E+00 0.  1.
</event>
<event>
 7    1  0.2746803E-013  0.5052886E+02  0.7816164E-02  0.1300439E+00
        -11   -1    0    0    0    0  0.00000000000E+00  0.00000000000E+00  0.45593999997E+02  0.45594000000E+02  0.51100000000E-03 0.  1.
         11   -1    0    0    0    0 -0.00000000000E+00 -0.00000000000E+00 -0.45593999997E+02  0.45594000000E+02  0.51100000000E-03 0. -1.
    9900012    2    1    2    0    0 -0.38395643400E+02  0.13252087062E+02  0.18226990323E+01  0.50528862339E+02  0.30000007566E+02 0.  0.
         12    1    1    2    0    0  0.38395643400E+02 -0.13252087062E+02 -0.18226990323E+01  0.40659137661E+02  0.00000000000E+00 0. -1.
         11    1    3    3    0    0  0.36580573100E+01  0.32872998777E+01 -0.12287014239E+01  0.50692633804E+01  0.51100000000E-03 0. -1.
        -11    1    3    3    0    0 -0.11330290042E+02  0.77515599257E+01  0.49619850576E+01  0.14597378179E+02  0.51100000000E-03 0.  1.
         12    1    3    3    0    0 -0.30723410668E+02  0.22132272586E+01 -0.19105846014E+01  0.30862220780E+02  0.00000000000E+00 0. -1.
</event>
<event>
 7    1  0.2746803E-013  0.5052885E+02  0.7816164E-02  0.1300439E+00
        -11   -1    0    0    0    0  0.00000000000E+00  0.00000000000E+00  0.45593999997E+02  0.45594000000E+02  0.51100000000E-03 0.  1.
         11   -1    0    0    0    0 -0.00000000000E+00 -0.00000000000E+00 -0.45593999997E+02  0.45594000000E+02  0.51100000000E-03 0. -1.
    9900012    2    1    2    0    0 -0.40628357997E+02  0.21061552126E+00  0.15679711460E+01  0.50528851387E+02  0.29999974277E+02 0.  0.
         12    1    1    2    0    0  0.40628357997E+02 -0.21061552126E+00 -0.15679711460E+01  0.40659148613E+02  0.00000000000E+00 0. -1.
         11    1    3    3    0    0 -0.14202863464E+02  0.73010943846E+01 -0.76004578620E+01  0.17685990777E+02  0.51100000000E-03 0. -1.
        -11    1    3    3    0    0 -0.62158999723E+01  0.54783272819E-01  0.95605791625E+01  0.11403731313E+02  0.51100000000E-03 0.  1.
         12    1    3    3    0    0 -0.20209594560E+02 -0.71452621361E+01 -0.39215015455E+00  0.21439129297E+02  0.00000000000E+00 0. -1.
</event>
<event>
 7    1  0.2746803E-013  0.5052886E+02  0.7816164E-02  0.1300439E+00
        -11   -1    0    0    0    0  0.00000000000E+00  0.00000000000E+00  0.45593999997E+02  0.45594000000E+02  0.51100000000E-03 0.  1.
         11   -1    0    0    0    0 -0.00000000000E+00 -0.00000000000E+00 -0.45593999997E+02  0.45594000000E+02  0.51100000000E-03 0. -1.
    9900012    2    1    2    0    0  0.25638689258E+02 -0.68078445512E+01  0.30813582050E+02  0.50528856219E+02  0.29999988963E+02 0.  0.
         12    1    1    2    0    0 -0.25638689258E+02  0.68078445512E+01 -0.30813582050E+02  0.40659143781E+02  0.00000000000E+00 0. -1.
         11    1    3    3    0    0  0.15826325664E+02 -0.11593342130E+02  0.13447344784E+02  0.23784643108E+02  0.51100000000E-03 0. -1.
        -11    1    3    3    0    0  0.10127059957E+02 -0.24437020820E+01  0.33034281005E+01  0.10928936852E+02  0.51100000000E-03 0.  1.
        -12    1    3    3    0    0 -0.31469636377E+00  0.72291996604E+01  0.14062809165E+02  0.15815276259E+02  0.00000000000E+00 0.  1.
</event>
<event>
 7    1  0.2746803E-013  0.5052886E+02  0.7816164E-02  0.1300439E+00
        -11   -1    0    0    0    0  0.00000000000E+00  0.00000000000E+00  0.45593999997E+02  0.45594000000E+02  0.51100000000E-03 0. -1.
         11   -1    0    0    0    0 -0.00000000000E+00 -0.00000000000E+00 -0.45593999997E+02  0.45594000000E+02  0.51100000000E-03 0.  1.
    9900012    2    1    2    0    0  0.10467261337E+02  0.15552448137E+01 -0.39257907481E+02  0.50528860239E+02  0.30000001181E+02 0.  0.
         12    1    1    2    0    0 -0.10467261337E+02 -0.15552448137E+01  0.39257907481E+02  0.40659139761E+02  0.00000000000E+00 0. -1.
         11    1    3    3    0    0  0.99168491662E+01 -0.58101416147E+01 -0.22815793338E+02  0.25547251689E+02  0.51100000000E-03 0. -1.
        -11    1    3    3    0    0  0.34903443139E+01  0.11492121097E+02 -0.15840789970E+02  0.19879184538E+02  0.51100000000E-03 0.  1.
         12    1    3    3    0    0 -0.29399321434E+01 -0.41267346688E+01 -0.60132417304E+00  0.51024240117E+01  0.00000000000E+00 0. -1.
</event>
<event>
 7    1  0.2746803E-013  0.5052883E+02  0.7816164E-02  0.1300439E+00
        -11   -1    0    0    0    0  0.00000000000E+00  0.00000000000E+00  0.45593999997E+02  0.45594000000E+02  0.51100000000E-03 0.  1.
         11   -1    0    0    0    0 -0.00000000000E+00 -0.00000000000E+00 -0.45593999997E+02  0.45594000000E+02  0.51100000000E-03 0. -1.
    9900012    2    1    2    0    0 -0.12946318302E+02  0.16286324406E+02  0.34933034061E+02  0.50528826510E+02  0.29999898658E+02 0.  0.
         12    1    1    2    0    0  0.12946318302E+02 -0.16286324406E+02 -0.34933034061E+02  0.40659173490E+02  0.00000000000E+00 0. -1.
         11    1    3    3    0    0  0.41956535366E+01  0.14234634726E+02  0.14402509563E+02  0.20679956875E+02  0.51100000000E-03 0.  1.
        -11    1    3    3    0    0 -0.66798109595E+01  0.48048531246E+01  0.21233077559E+01  0.84979364608E+01  0.51100000000E-03 0. -1.
        -12    1    3    3    0    0 -0.10462160879E+02 -0.27531634445E+01  0.18407216742E+02  0.21350933174E+02  0.00000000000E+00 0.  1.
</event>
<event>
 7    1  0.2746803E-013  0.5052887E+02  0.7816164E-02  0.1300439E+00
        -11   -1    0    0    0    0  0.00000000000E+00  0.00000000000E+00  0.45593999997E+02  0.45594000000E+02  0.51100000000E-03 0.  1.
         11   -1    0    0    0    0 -0.00000000000E+00 -0.00000000000E+00 -0.45593999997E+02  0.45594000000E+02  0.51100000000E-03 0. -1.
    9900012    2    1    2    0    0  0.35791837232E+02  0.11208716215E+02  0.15699483029E+02  0.50528871886E+02  0.30000036584E+02 0.  0.
         12    1    1    2    0    0 -0.35791837232E+02 -0.11208716215E+02 -0.15699483029E+02  0.40659128114E+02  0.00000000000E+00 0. -1.
         11    1    3    3    0    0  0.67215671497E+01  0.63499059563E+01  0.10007370433E+02  0.13625279221E+02  0.51100000000E-03 0. -1.
        -11    1    3    3    0    0  0.61123898946E+01 -0.50573152763E+01  0.86315714748E+01  0.11723556389E+02  0.51100000000E-03 0.  1.
        -12    1    3    3    0    0  0.22957880188E+02  0.99161255346E+01 -0.29394588789E+01  0.25180036276E+02  0.00000000000E+00 0.  1.
</event>
<event>
 7    1  0.2746803E-013  0.5052887E+02  0.7816164E-02  0.1300439E+00
        -11   -1    0    0    0    0  0.00000000000E+00  0.00000000000E+00  0.45593999997E+02  0.45594000000E+02  0.51100000000E-03 0.  1.
         11   -1    0    0    0    0 -0.00000000000E+00 -0.00000000000E+00 -0.45593999997E+02  0.45594000000E+02  0.51100000000E-03 0. -1.
    9900012    2    1    2    0    0 -0.12884133204E+02 -0.24815540411E+02  0.29518690834E+02  0.50528867658E+02  0.30000023733E+02 0.  0.
         12    1    1    2    0    0  0.12884133204E+02  0.24815540411E+02 -0.29518690834E+02  0.40659132342E+02  0.00000000000E+00 0. -1.
         11    1    3    3    0    0  0.53479202327E+00  0.98400857940E+00  0.48037386261E+01  0.49325632729E+01  0.51100000000E-03 0. -1.
        -11    1    3    3    0    0 -0.18340551990E+02 -0.83996025858E+01  0.14324149980E+02  0.24740865867E+02  0.51100000000E-03 0.  1.
        -12    1    3    3    0    0  0.49216267635E+01 -0.17399946404E+02  0.10390802228E+02  0.20855438518E+02  0.00000000000E+00 0.  1.
</event>
<event>
 7    1  0.2746803E-013  0.5052887E+02  0.7816164E-02  0.1300439E+00
        -11   -1    0    0    0    0  0.00000000000E+00  0.00000000000E+00  0.45593999997E+02  0.45594000000E+02  0.51100000000E-03 0.  1.
         11   -1    0    0    0    0 -0.00000000000E+00 -0.00000000000E+00 -0.45593999997E+02  0.45594000000E+02  0.51100000000E-03 0. -1.
    9900012    2    1    2    0    0  0.12066252383E+02  0.31564197482E+02  0.22611322983E+02  0.50528868968E+02  0.30000027715E+02 0.  0.
         12    1    1    2    0    0 -0.12066252383E+02 -0.31564197482E+02 -0.22611322983E+02  0.40659131032E+02  0.00000000000E+00 0. -1.
         11    1    3    3    0    0  0.10443867929E+02  0.15356347705E+02  0.12908171692E+02  0.22616646277E+02  0.51100000000E-03 0. -1.
        -11    1    3    3    0    0  0.19301033380E+01  0.21130115896E+02  0.74263050356E+01  0.22480149097E+02  0.51100000000E-03 0.  1.
        -12    1    3    3    0    0 -0.30771888428E+00 -0.49222661187E+01  0.22768462554E+01  0.54320735936E+01  0.00000000000E+00 0.  1.
</event>
<event>
 7    1  0.2746803E-013  0.5052887E+02  0.7816164E-02  0.1300439E+00
        -11   -1    0    0    0    0  0.00000000000E+00  0.00000000000E+00  0.45593999997E+02  0.45594000000E+02  0.51100000000E-03 0.  1.
         11   -1    0    0    0    0 -0.00000000000E+00 -0.00000000000E+00 -0.45593999997E+02  0.45594000000E+02  0.51100000000E-03 0. -1.
    9900012    2    1    2    0    0 -0.38483551299E+02  0.93070520260E+01 -0.92498555588E+01  0.50528871064E+02  0.30000034086E+02 0.  0.
         12    1    1    2    0    0  0.38483551299E+02 -0.93070520260E+01  0.92498555588E+01  0.40659128936E+02  0.00000000000E+00 0. -1.
         11    1    3    3    0    0 -0.16923876935E+01 -0.19918679816E+00 -0.75385134005E+01  0.77287150314E+01  0.51100000000E-03 0. -1.
        -11    1    3    3    0    0 -0.83168061746E+00  0.56393786544E+01  0.28038123348E+01  0.63526095525E+01  0.51100000000E-03 0.  1.
        -12    1    3    3    0    0 -0.35959482988E+02  0.38668601697E+01 -0.45151544931E+01  0.36447546480E+02  0.00000000000E+00 0.  1.
</event>
<event>
 7    1  0.2746803E-013  0.5052885E+02  0.7816164E-02  0.1300439E+00
        -11   -1    0    0    0    0  0.00000000000E+00  0.00000000000E+00  0.45593999997E+02  0.45594000000E+02  0.51100000000E-03 0.  1.
         11   -1    0    0    0    0 -0.00000000000E+00 -0.00000000000E+00 -0.45593999997E+02  0.45594000000E+02  0.51100000000E-03 0. -1.
    9900012    2    1    2    0    0 -0.33616493980E+02 -0.22871284231E+02 -0.42862254148E-01  0.50528854078E+02  0.29999982457E+02 0.  0.
         12    1    1    2    0    0  0.33616493980E+02  0.22871284231E+02  0.42862254148E-01  0.40659145922E+02  0.00000000000E+00 0. -1.
         11    1    3    3    0    0 -0.81492776649E+01 -0.85832726122E+00  0.61238898486E+01  0.10229832808E+02  0.51100000000E-03 0. -1.
        -11    1    3    3    0    0  0.34998567657E+01 -0.47104304412E+01  0.55600903118E+00  0.58945991065E+01  0.51100000000E-03 0.  1.
         12    1    3    3    0    0 -0.28967073081E+02 -0.17302526528E+02 -0.67227611339E+01  0.34404422164E+02  0.00000000000E+00 0. -1.
</event>
<event>
 7    1  0.2746803E-013  0.5052886E+02  0.7816164E-02  0.1300439E+00
        -11   -1    0    0    0    0  0.00000000000E+00  0.00000000000E+00  0.45593999997E+02  0.45594000000E+02  0.51100000000E-03 0. -1.
         11   -1    0    0    0    0 -0.00000000000E+00 -0.00000000000E+00 -0.45593999997E+02  0.45594000000E+02  0.51100000000E-03 0.  1.
    9900012    2    1    2    0    0 -0.36972635486E+02 -0.14820270993E+02 -0.81578036852E+01  0.50528856280E+02  0.29999989150E+02 0.  0.
         12    1    1    2    0    0  0.36972635486E+02  0.14820270993E+02  0.81578036852E+01  0.40659143720E+02  0.00000000000E+00 0. -1.
         11    1    3    3    0    0 -0.15048440200E+02  0.23326999483E+00  0.37115401417E+01  0.15501145049E+02  0.51100000000E-03 0. -1.
        -11    1    3    3    0    0 -0.24131024437E+02 -0.12207504816E+02 -0.53316081442E+01  0.27563663761E+02  0.51100000000E-03 0.  1.
        -12    1    3    3    0    0  0.22068291519E+01 -0.28460361713E+01 -0.65377356827E+01  0.74640474711E+01  0.00000000000E+00 0.  1.
</event>
<event>
 7    1  0.2746803E-013  0.5052885E+02  0.7816164E-02  0.1300439E+00
        -11   -1    0    0    0    0  0.00000000000E+00  0.00000000000E+00  0.45593999997E+02  0.45594000000E+02  0.51100000000E-03 0.  1.
         11   -1    0    0    0    0 -0.00000000000E+00 -0.00000000000E+00 -0.45593999997E+02  0.45594000000E+02  0.51100000000E-03 0. -1.
    9900012    2    1    2    0    0  0.59617182562E+01 -0.26653361185E+02  0.30120135701E+02  0.50528851932E+02  0.29999975932E+02 0.  0.
         12    1    1    2    0    0 -0.59617182562E+01  0.26653361185E+02 -0.30120135701E+02  0.40659148068E+02  0.00000000000E+00 0. -1.
         11    1    3    3    0    0 -0.14897838791E+01 -0.27141299196E+01  0.18738250464E+01  0.36190023201E+01  0.51100000000E-03 0. -1.
        -11    1    3    3    0    0  0.35786062552E+01 -0.29897256138E+02  0.24816099622E+02  0.39019112599E+02  0.51100000000E-03 0.  1.
         12    1    3    3    0    0  0.38728958801E+01  0.59580248726E+01  0.34302110325E+01  0.78907370130E+01  0.00000000000E+00 0. -1.
</event>
<event>
 7    1  0.2746803E-013  0.5052886E+02  0.7816164E-02  0.1300439E+00
        -11   -1    0    0    0    0  0.00000000000E+00  0.00000000000E+00  0.45593999997E+02  0.45594000000E+02  0.51100000000E-03 0.  1.
         11   -1    0    0    0    0 -0.00000000000E+00 -0.00000000000E+00 -0.45593999997E+02  0.45594000000E+02  0.51100000000E-03 0. -1.
    9900012    2    1    2    0    0  0.30219559221E+02 -0.82110618497E+01  0.25933039291E+02  0.50528858063E+02  0.29999994567E+02 0.  0.
         12    1    1    2    0    0 -0.30219559221E+02  0.82110618497E+01 -0.25933039291E+02  0.40659141937E+02  0.00000000000E+00 0. -1.
         11    1    3    3    0    0 -0.40266884461E+01 -0.90228849484E+00  0.18627409332E+01  0.45274880911E+01  0.51100000000E-03 0. -1.
        -11    1    3    3    0    0  0.15762543430E+02 -0.21479246829E+01  0.92511949513E+00  0.15935093416E+02  0.51100000000E-03 0.  1.
        -12    1    3    3    0    0  0.18483704236E+02 -0.51608486720E+01  0.23145178863E+02  0.30066276555E+02  0.00000000000E+00 0.  1.
</event>
<event>
 7    1  0.2746803E-013  0.5052886E+02  0.7816164E-02  0.1300439E+00
        -11   -1    0    0    0    0  0.00000000000E+00  0.00000000000E+00  0.45593999997E+02  0.45594000000E+02  0.51100000000E-03 0.  1.
         11   -1    0    0    0    0 -0.00000000000E+00 -0.00000000000E+00 -0.45593999997E+02  0.45594000000E+02  0.51100000000E-03 0. -1.
    9900012    2    1    2    0    0 -0.25703160122E+01 -0.37396511226E+02  0.15749929171E+02  0.50528857791E+02  0.29999993741E+02 0.  0.
         12    1    1    2    0    0  0.25703160122E+01  0.37396511226E+02 -0.15749929171E+02  0.40659142209E+02  0.00000000000E+00 0. -1.
         11    1    3    3    0    0  0.64145457795E+01 -0.14629640382E+02  0.12933417352E+02  0.20553492645E+02  0.51100000000E-03 0.  1.
        -11    1    3    3    0    0  0.27560675991E+01  0.43521102549E+00 -0.21239391809E+01  0.35066273187E+01  0.51100000000E-03 0. -1.
        -12    1    3    3    0    0 -0.11740929391E+02 -0.23202081870E+02  0.49404510001E+01  0.26468737827E+02  0.00000000000E+00 0.  1.
</event>
<event>
 7    1  0.2746803E-013  0.5052885E+02  0.7816164E-02  0.1300439E+00
        -11   -1    0    0    0    0  0.00000000000E+00  0.00000000000E+00  0.45593999997E+02  0.45594000000E+02  0.51100000000E-03 0.  1.
         11   -1    0    0    0    0 -0.00000000000E+00 -0.00000000000E+00 -0.45593999997E+02  0.45594000000E+02  0.51100000000E-03 0. -1.
    9900012    2    1    2    0    0  0.61890036489E+01  0.18516030469E+02  0.35665377586E+02  0.50528852089E+02  0.29999976410E+02 0.  0.
         12    1    1    2    0    0 -0.61890036489E+01 -0.18516030469E+02 -0.35665377586E+02  0.40659147911E+02  0.00000000000E+00 0. -1.
         11    1    3    3    0    0 -0.70631027403E+01  0.78186727789E+01  0.84589460033E+01  0.13511951454E+02  0.51100000000E-03 0. -1.
        -11    1    3    3    0    0  0.39887317098E+01  0.12870902523E+01  0.22670813106E+02  0.23054985341E+02  0.51100000000E-03 0.  1.
        -12    1    3    3    0    0  0.92633746795E+01  0.94102674375E+01  0.45356184773E+01  0.13961915294E+02  0.00000000000E+00 0.  1.
</event>
<event>
 7    1  0.2746803E-013  0.5052887E+02  0.7816164E-02  0.1300439E+00
        -11   -1    0    0    0    0  0.00000000000E+00  0.00000000000E+00  0.45593999997E+02  0.45594000000E+02  0.51100000000E-03 0.  1.
         11   -1    0    0    0    0 -0.00000000000E+00 -0.00000000000E+00 -0.45593999997E+02  0.45594000000E+02  0.51100000000E-03 0. -1.
    9900012    2    1    2    0    0 -0.51567943715E+01  0.34021678501E+02  0.21658667655E+02  0.50528867929E+02  0.30000024556E+02 0.  0.
         12    1    1    2    0    0  0.51567943715E+01 -0.34021678501E+02 -0.21658667655E+02  0.40659132071E+02  0.00000000000E+00 0. -1.
         11    1    3    3    0    0 -0.33122932073E+01  0.21039026900E+02 -0.36480673961E+00  0.21301291590E+02  0.51100000000E-03 0. -1.
        -11    1    3    3    0    0  0.35790505811E+01  0.12395857004E+01  0.11959139207E+00  0.37895221510E+01  0.51100000000E-03 0.  1.
        -12    1    3    3    0    0 -0.54235517453E+01  0.11743065901E+02  0.21903883002E+02  0.25438054188E+02  0.00000000000E+00 0.  1.
</event>
<event>
 7    1  0.2746803E-013  0.5052885E+02  0.7816164E-02  0.1300439E+00
        -11   -1    0    0    0    0  0.00000000000E+00  0.00000000000E+00  0.45593999997E+02  0.45594000000E+02  0.51100000000E-03 0.  1.
         11   -1    0    0    0    0 -0.00000000000E+00 -0.00000000000E+00 -0.45593999997E+02  0.45594000000E+02  0.51100000000E-03 0. -1.
    9900012    2    1    2    0    0  0.39741943334E+01  0.40068110478E+02  0.56496547364E+01  0.50528852241E+02  0.29999976871E+02 0.  0.
         12    1    1    2    0    0 -0.39741943334E+01 -0.40068110478E+02 -0.56496547364E+01  0.40659147759E+02  0.00000000000E+00 0. -1.
         11    1    3    3    0    0  0.63627495016E+01  0.23557429684E+02 -0.33919281478E+01  0.24636197989E+02  0.51100000000E-03 0. -1.
        -11    1    3    3    0    0  0.27981888163E+01  0.18444291387E+02  0.77960668015E+01  0.20218813102E+02  0.51100000000E-03 0.  1.
         12    1    3    3    0    0 -0.51867439845E+01 -0.19336105925E+01  0.12455160827E+01  0.56738411501E+01  0.00000000000E+00 0. -1.
</event>
<event>
 7    1  0.2746803E-013  0.5052887E+02  0.7816164E-02  0.1300439E+00
        -11   -1    0    0    0    0  0.00000000000E+00  0.00000000000E+00  0.45593999997E+02  0.45594000000E+02  0.51100000000E-03 0. -1.
         11   -1    0    0    0    0 -0.00000000000E+00 -0.00000000000E+00 -0.45593999997E+02  0.45594000000E+02  0.51100000000E-03 0.  1.
    9900012    2    1    2    0    0 -0.29869243223E+02  0.13555636128E+02 -0.24025783659E+02  0.50528865209E+02  0.30000016289E+02 0.  0.
         12    1    1    2    0    0  0.29869243223E+02 -0.13555636128E+02  0.24025783659E+02  0.40659134791E+02  0.00000000000E+00 0. -1.
         11    1    3    3    0    0 -0.11153005574E+02  0.67282600630E+01  0.41436185112E+01  0.13668525577E+02  0.51100000000E-03 0. -1.
        -11    1    3    3    0    0 -0.23377984072E+01  0.22914994201E+00  0.11646060219E+01  0.26218540265E+01  0.51100000000E-03 0.  1.
        -12    1    3    3    0    0 -0.16378439242E+02  0.65982261228E+01 -0.29334008192E+02  0.34238485606E+02  0.00000000000E+00 0.  1.
</event>
<event>
 7    1  0.2746803E-013  0.5052885E+02  0.7816164E-02  0.1300439E+00
        -11   -1    0    0    0    0  0.00000000000E+00  0.00000000000E+00  0.45593999997E+02  0.45594000000E+02  0.51100000000E-03 0.  1.
         11   -1    0    0    0    0 -0.00000000000E+00 -0.00000000000E+00 -0.45593999997E+02  0.45594000000E+02  0.51100000000E-03 0. -1.
    9900012    2    1    2    0    0 -0.31310170679E+01 -0.37463891391E+02  0.15486134074E+02  0.50528846361E+02  0.29999958999E+02 0.  0.
         12    1    1    2    0    0  0.31310170679E+01  0.37463891391E+02 -0.15486134074E+02  0.40659153639E+02  0.00000000000E+00 0. -1.
         11    1    3    3    0    0  0.54256582928E+01 -0.20066179986E+01 -0.95637310576E+00  0.58633551385E+01  0.51100000000E-03 0. -1.
        -11    1    3    3    0    0  0.49023880956E+01 -0.20650212791E+02  0.58044759585E+01  0.22003559684E+02  0.51100000000E-03 0.  1.
        -12    1    3    3    0    0 -0.13459063456E+02 -0.14807060602E+02  0.10638031222E+02  0.22661931539E+02  0.00000000000E+00 0.  1.
</event>
<event>
 7    1  0.2746803E-013  0.5052885E+02  0.7816164E-02  0.1300439E+00
        -11   -1    0    0    0    0  0.00000000000E+00  0.00000000000E+00  0.45593999997E+02  0.45594000000E+02  0.51100000000E-03 0.  1.
         11   -1    0    0    0    0 -0.00000000000E+00 -0.00000000000E+00 -0.45593999997E+02  0.45594000000E+02  0.51100000000E-03 0. -1.
    9900012    2    1    2    0    0 -0.10207999747E+02  0.63824352443E+01  0.38835906682E+02  0.50528851137E+02  0.29999973516E+02 0.  0.
         12    1    1    2    0    0  0.10207999747E+02 -0.63824352443E+01 -0.38835906682E+02  0.40659148863E+02  0.00000000000E+00 0. -1.
         11    1    3    3    0    0  0.65424615528E+01 -0.18163492285E+01  0.73639846795E+01  0.10016546227E+02  0.51100000000E-03 0. -1.
        -11    1    3    3    0    0 -0.75746038890E+01 -0.46744360033E+01  0.16455049412E+02  0.18708116619E+02  0.51100000000E-03 0.  1.
         12    1    3    3    0    0 -0.91758574108E+01  0.12873220476E+02  0.15016872590E+02  0.21804188291E+02  0.00000000000E+00 0. -1.
</event>
<event>
 7    1  0.2746803E-013  0.5052888E+02  0.7816164E-02  0.1300439E+00
        -11   -1    0    0    0    0  0.00000000000E+00  0.00000000000E+00  0.45593999997E+02  0.45594000000E+02  0.51100000000E-03 0. -1.
         11   -1    0    0    0    0 -0.00000000000E+00 -0.00000000000E+00 -0.45593999997E+02  0.45594000000E+02  0.51100000000E-03 0.  1.
    9900012    2    1    2    0    0  0.13718804124E+02 -0.38238589390E+02 -0.16640324631E+01  0.50528876680E+02  0.30000051155E+02 0.  0.
         12    1    1    2    0    0 -0.13718804124E+02  0.38238589390E+02  0.16640324631E+01  0.40659123320E+02  0.00000000000E+00 0. -1.
         11    1    3    3    0    0  0.17401279872E+01 -0.16511279316E+02  0.10618787534E+02  0.19708095773E+02  0.51100000000E-03 0. -1.
        -11    1    3    3    0    0 -0.25051329951E+00 -0.12121224973E+02 -0.85287961856E+01  0.14823198589E+02  0.51100000000E-03 0.  1.
        -12    1    3    3    0    0  0.12229189436E+02 -0.96060851013E+01 -0.37540238111E+01  0.15997582318E+02  0.00000000000E+00 0.  1.
</event>
<event>
 7    1  0.2746803E-013  0.5052885E+02  0.7816164E-02  0.1300439E+00
        -11   -1    0    0    0    0  0.00000000000E+00  0.00000000000E+00  0.45593999997E+02  0.45594000000E+02  0.51100000000E-03 0.  1.
         11   -1    0    0    0    0 -0.00000000000E+00 -0.00000000000E+00 -0.45593999997E+02  0.45594000000E+02  0.51100000000E-03 0. -1.
    9900012    2    1    2    0    0 -0.34797115182E+02 -0.19443043075E+02 -0.80184314975E+01  0.50528851058E+02  0.29999973276E+02 0.  0.
         12    1    1    2    0    0  0.34797115182E+02  0.19443043075E+02  0.80184314975E+01  0.40659148942E+02  0.00000000000E+00 0. -1.
         11    1    3    3    0    0 -0.13290237390E+02 -0.26371168639E+01  0.80080051576E+01  0.15738899012E+02  0.51100000000E-03 0. -1.
        -11    1    3    3    0    0 -0.11063710206E+02 -0.35452410334E+01 -0.15209580124E+00  0.11618844646E+02  0.51100000000E-03 0.  1.
         12    1    3    3    0    0 -0.10443167586E+02 -0.13260685178E+02 -0.15874340854E+02  0.23171107400E+02  0.00000000000E+00 0. -1.
</event>
<event>
 7    1  0.2746803E-013  0.5052885E+02  0.7816164E-02  0.1300439E+00
        -11   -1    0    0    0    0  0.00000000000E+00  0.00000000000E+00  0.45593999997E+02  0.45594000000E+02  0.51100000000E-03 0.  1.
         11   -1    0    0    0    0 -0.00000000000E+00 -0.00000000000E+00 -0.45593999997E+02  0.45594000000E+02  0.51100000000E-03 0. -1.
    9900012    2    1    2    0    0 -0.23770395087E+02  0.29931949105E+02 -0.13864091325E+02  0.50528852345E+02  0.29999977188E+02 0.  0.
         12    1    1    2    0    0  0.23770395087E+02 -0.29931949105E+02  0.13864091325E+02  0.40659147655E+02  0.00000000000E+00 0. -1.
         11    1    3    3    0    0 -0.80490168083E+01  0.21958636983E+01 -0.11274179507E+02  0.14025534313E+02  0.51100000000E-03 0. -1.
        -11    1    3    3    0    0 -0.88142803903E+01  0.12713765502E+01  0.80691273885E+00  0.89419821942E+01  0.51100000000E-03 0.  1.
         12    1    3    3    0    0 -0.69070978880E+01  0.26464708856E+02 -0.33968245566E+01  0.27561335837E+02  0.00000000000E+00 0. -1.
</event>
<event>
 7    1  0.2746803E-013  0.5052887E+02  0.7816164E-02  0.1300439E+00
        -11   -1    0    0    0    0  0.00000000000E+00  0.00000000000E+00  0.45593999997E+02  0.45594000000E+02  0.51100000000E-03 0.  1.
         11   -1    0    0    0    0 -0.00000000000E+00 -0.00000000000E+00 -0.45593999997E+02  0.45594000000E+02  0.51100000000E-03 0. -1.
    9900012    2    1    2    0    0 -0.15127218523E+02 -0.27046928457E+02  0.26321012716E+02  0.50528870772E+02  0.30000033199E+02 0.  0.
         12    1    1    2    0    0  0.15127218523E+02  0.27046928457E+02 -0.26321012716E+02  0.40659129228E+02  0.00000000000E+00 0. -1.
         11    1    3    3    0    0  0.39247193022E+01  0.25216885070E+00  0.14300941597E+01  0.41847557034E+01  0.51100000000E-03 0. -1.
        -11    1    3    3    0    0 -0.32767149796E+01 -0.11444411218E+02 -0.12166886053E+01  0.11966275135E+02  0.51100000000E-03 0.  1.
         12    1    3    3    0    0 -0.15775222845E+02 -0.15854686090E+02  0.26107607162E+02  0.34377839934E+02  0.00000000000E+00 0. -1.
</event>
<event>
 7    1  0.2746803E-013  0.5052885E+02  0.7816164E-02  0.1300439E+00
        -11   -1    0    0    0    0  0.00000000000E+00  0.00000000000E+00  0.45593999997E+02  0.45594000000E+02  0.51100000000E-03 0. -1.
         11   -1    0    0    0    0 -0.00000000000E+00 -0.00000000000E+00 -0.45593999997E+02  0.45594000000E+02  0.51100000000E-03 0.  1.
    9900012    2    1    2    0    0  0.15165226341E+02  0.50977209546E+01 -0.37379078710E+02  0.50528851286E+02  0.29999973970E+02 0.  0.
         12    1    1    2    0    0 -0.15165226341E+02 -0.50977209546E+01  0.37379078710E+02  0.40659148714E+02  0.00000000000E+00 0. -1.
         11    1    3    3    0    0  0.43509627664E+01 -0.10220811609E+02 -0.12972524592E+02  0.17078707840E+02  0.51100000000E-03 0. -1.
        -11    1    3    3    0    0 -0.30285429730E+01  0.23807901975E+01 -0.51893024899E+01  0.64629014456E+01  0.51100000000E-03 0.  1.
         12    1    3    3    0    0  0.13842806547E+02  0.12937742366E+02 -0.19217251628E+02  0.26987242000E+02  0.00000000000E+00 0. -1.
</event>
<event>
 7    1  0.2746803E-013  0.5052886E+02  0.7816164E-02  0.1300439E+00
        -11   -1    0    0    0    0  0.00000000000E+00  0.00000000000E+00  0.45593999997E+02  0.45594000000E+02  0.51100000000E-03 0.  1.
         11   -1    0    0    0    0 -0.00000000000E+00 -0.00000000000E+00 -0.45593999997E+02  0.45594000000E+02  0.51100000000E-03 0. -1.
    9900012    2    1    2    0    0  0.74976222471E+01 -0.34616329583E+02 -0.19966502726E+02  0.50528857802E+02  0.29999993776E+02 0.  0.
         12    1    1    2    0    0 -0.74976222471E+01  0.34616329583E+02  0.19966502726E+02  0.40659142198E+02  0.00000000000E+00 0. -1.
         11    1    3    3    0    0 -0.25636849776E+01  0.13342333042E+01  0.13190706569E+01  0.31768863425E+01  0.51100000000E-03 0. -1.
        -11    1    3    3    0    0 -0.53299751671E+01 -0.15569627554E+02 -0.56162107098E+01  0.17388610078E+02  0.51100000000E-03 0.  1.
        -12    1    3    3    0    0  0.15391282392E+02 -0.20380935332E+02 -0.15669362673E+02  0.29963361381E+02  0.00000000000E+00 0.  1.
</event>
<event>
 7    1  0.2746803E-013  0.5052888E+02  0.7816164E-02  0.1300439E+00
        -11   -1    0    0    0    0  0.00000000000E+00  0.00000000000E+00  0.45593999997E+02  0.45594000000E+02  0.51100000000E-03 0.  1.
         11   -1    0    0    0    0 -0.00000000000E+00 -0.00000000000E+00 -0.45593999997E+02  0.45594000000E+02  0.51100000000E-03 0. -1.
    9900012    2    1    2    0    0  0.10752191647E+02 -0.27385144508E+02  0.28064359787E+02  0.50528879803E+02  0.30000060650E+02 0.  0.
         12    1    1    2    0    0 -0.10752191647E+02  0.27385144508E+02 -0.28064359787E+02  0.40659120197E+02  0.00000000000E+00 0. -1.
         11    1    3    3    0    0 -0.33660539140E+01 -0.17773640064E+02  0.10014238010E+02  0.20676497848E+02  0.51100000000E-03 0. -1.
        -11    1    3    3    0    0  0.82474617885E+01 -0.12974460930E+02  0.17141596604E+02  0.23025889706E+02  0.51100000000E-03 0.  1.
        -12    1    3    3    0    0  0.58707837724E+01  0.33629564863E+01  0.90852517311E+00  0.68264922487E+01  0.00000000000E+00 0.  1.
</event>
<event>
 7    1  0.2746803E-013  0.5052887E+02  0.7816164E-02  0.1300439E+00
        -11   -1    0    0    0    0  0.00000000000E+00  0.00000000000E+00  0.45593999997E+02  0.45594000000E+02  0.51100000000E-03 0.  1.
         11   -1    0    0    0    0 -0.00000000000E+00 -0.00000000000E+00 -0.45593999997E+02  0.45594000000E+02  0.51100000000E-03 0. -1.
    9900012    2    1    2    0    0  0.69966800141E+00  0.12809525738E+02  0.38582265771E+02  0.50528871665E+02  0.30000035912E+02 0.  0.
         12    1    1    2    0    0 -0.69966800141E+00 -0.12809525738E+02 -0.38582265771E+02  0.40659128335E+02  0.00000000000E+00 0. -1.
         11    1    3    3    0    0 -0.63733051506E+01  0.55986440512E+01  0.47493817911E+01  0.97221634122E+01  0.51100000000E-03 0. -1.
        -11    1    3    3    0    0  0.22795250646E+00  0.73832961107E+01  0.33107098185E+02  0.33921158210E+02  0.51100000000E-03 0.  1.
         12    1    3    3    0    0  0.68450206456E+01 -0.17241442433E+00  0.72578579529E+00  0.68855500429E+01  0.00000000000E+00 0. -1.
</event>
<event>
 7    1  0.2746803E-013  0.5052887E+02  0.7816164E-02  0.1300439E+00
        -11   -1    0    0    0    0  0.00000000000E+00  0.00000000000E+00  0.45593999997E+02  0.45594000000E+02  0.51100000000E-03 0.  1.
         11   -1    0    0    0    0 -0.00000000000E+00 -0.00000000000E+00 -0.45593999997E+02  0.45594000000E+02  0.51100000000E-03 0. -1.
    9900012    2    1    2    0    0 -0.18597470497E+02  0.28374212599E+02  0.22409891580E+02  0.50528867076E+02  0.30000021965E+02 0.  0.
         12    1    1    2    0    0  0.18597470497E+02 -0.28374212599E+02 -0.22409891580E+02  0.40659132924E+02  0.00000000000E+00 0. -1.
         11    1    3    3    0    0 -0.70315003768E+01  0.18167331269E+01  0.84062357295E+01  0.11108884562E+02  0.51100000000E-03 0. -1.
        -11    1    3    3    0    0  0.34374049936E+01  0.12343110557E+02  0.13689197821E+02  0.18749993828E+02  0.51100000000E-03 0.  1.
         12    1    3    3    0    0 -0.15003375113E+02  0.14214368915E+02  0.31445802994E+00  0.20669988686E+02  0.00000000000E+00 0. -1.
</event>
<event>
 7    1  0.2746803E-013  0.5052886E+02  0.7816164E-02  0.1300439E+00
        -11   -1    0    0    0    0  0.00000000000E+00  0.00000000000E+00  0.45593999997E+02  0.45594000000E+02  0.51100000000E-03 0. -1.
         11   -1    0    0    0    0 -0.00000000000E+00 -0.00000000000E+00 -0.45593999997E+02  0.45594000000E+02  0.51100000000E-03 0.  1.
    9900012    2    1    2    0    0 -0.11747539722E+02  0.24094005554E+02 -0.30571885440E+02  0.50528856225E+02  0.29999988981E+02 0.  0.
         12    1    1    2    0    0  0.11747539722E+02 -0.24094005554E+02  0.30571885440E+02  0.40659143775E+02  0.00000000000E+00 0. -1.
         11    1    3    3    0    0 -0.53757404567E+01  0.12171817607E+02 -0.11701987450E+02  0.17719713312E+02  0.51100000000E-03 0.  1.
        -11    1    3    3    0    0  0.55072575556E+01  0.75709686803E+00 -0.15079876882E+02  0.16071893743E+02  0.51100000000E-03 0. -1.
         12    1    3    3    0    0 -0.11879056821E+02  0.11165091080E+02 -0.37900211078E+01  0.16737249169E+02  0.00000000000E+00 0. -1.
</event>
<event>
 7    1  0.2746803E-013  0.5052886E+02  0.7816164E-02  0.1300439E+00
        -11   -1    0    0    0    0  0.00000000000E+00  0.00000000000E+00  0.45593999997E+02  0.45594000000E+02  0.51100000000E-03 0. -1.
         11   -1    0    0    0    0 -0.00000000000E+00 -0.00000000000E+00 -0.45593999997E+02  0.45594000000E+02  0.51100000000E-03 0.  1.
    9900012    2    1    2    0    0 -0.34159884656E+02  0.68181116488E+01  0.20970963436E+02  0.50528859901E+02  0.30000000154E+02 0.  0.
         12    1    1    2    0    0  0.34159884656E+02 -0.68181116488E+01 -0.20970963436E+02  0.40659140099E+02  0.00000000000E+00 0. -1.
         11    1    3    3    0    0 -0.10217459821E+02  0.88659998706E+01  0.86456882141E+01  0.16054605690E+02  0.51100000000E-03 0. -1.
        -11    1    3    3    0    0 -0.21641621569E+01  0.26048809840E+01 -0.51519431249E+01  0.61653484091E+01  0.51100000000E-03 0.  1.
         12    1    3    3    0    0 -0.21778262678E+02 -0.46527692058E+01  0.17477218347E+02  0.28308905802E+02  0.00000000000E+00 0. -1.
</event>
<event>
 7    1  0.2746803E-013  0.5052887E+02  0.7816164E-02  0.1300439E+00
        -11   -1    0    0    0    0  0.00000000000E+00  0.00000000000E+00  0.45593999997E+02  0.45594000000E+02  0.51100000000E-03 0.  1.
         11   -1    0    0    0    0 -0.00000000000E+00 -0.00000000000E+00 -0.45593999997E+02  0.45594000000E+02  0.51100000000E-03 0. -1.
    9900012    2    1    2    0    0  0.32797346742E+00  0.21219173709E+02 -0.34681468373E+02  0.50528866364E+02  0.30000019801E+02 0.  0.
         12    1    1    2    0    0 -0.32797346742E+00 -0.21219173709E+02  0.34681468373E+02  0.40659133636E+02  0.00000000000E+00 0. -1.
         11    1    3    3    0    0  0.98635230133E+01  0.51947016476E+01 -0.94241111515E+01  0.14597530021E+02  0.51100000000E-03 0. -1.
        -11    1    3    3    0    0 -0.37973037787E+01  0.10379945670E+01  0.19122367198E+01  0.43764824051E+01  0.51100000000E-03 0.  1.
         12    1    3    3    0    0 -0.57382457673E+01  0.14986477494E+02 -0.27169593941E+02  0.31554853939E+02  0.00000000000E+00 0. -1.
</event>
<event>
 7    1  0.2746803E-013  0.5052886E+02  0.7816164E-02  0.1300439E+00
        -11   -1    0    0    0    0  0.00000000000E+00  0.00000000000E+00  0.45593999997E+02  0.45594000000E+02  0.51100000000E-03 0. -1.
         11   -1    0    0    0    0 -0.00000000000E+00 -0.00000000000E+00 -0.45593999997E+02  0.45594000000E+02  0.51100000000E-03 0.  1.
    9900012    2    1    2    0    0 -0.11770024391E+02 -0.33379510911E+02 -0.20011003996E+02  0.50528861990E+02  0.30000006504E+02 0.  0.
         12    1    1    2    0    0  0.11770024391E+02  0.33379510911E+02  0.20011003996E+02  0.40659138010E+02  0.00000000000E+00 0. -1.
         11    1    3    3    0    0 -0.14608793605E+02 -0.15974621309E+02 -0.73211390145E+01  0.22851793218E+02  0.51100000000E-03 0. -1.
        -11    1    3    3    0    0 -0.24529293606E+01 -0.14296394880E+02 -0.15232459045E+02  0.21034057570E+02  0.51100000000E-03 0.  1.
         12    1    3    3    0    0  0.52916985753E+01 -0.31084947222E+01  0.25425940641E+01  0.66430112016E+01  0.00000000000E+00 0. -1.
</event>
<event>
 7    1  0.2746803E-013  0.5052886E+02  0.7816164E-02  0.1300439E+00
        -11   -1    0    0    0    0  0.00000000000E+00  0.00000000000E+00  0.45593999997E+02  0.45594000000E+02  0.51100000000E-03 0. -1.
         11   -1    0    0    0    0 -0.00000000000E+00 -0.00000000000E+00 -0.45593999997E+02  0.45594000000E+02  0.51100000000E-03 0.  1.
    9900012    2    1    2    0    0 -0.13516328976E+02  0.25396627637E+02  0.28731269171E+02  0.50528859914E+02  0.30000000196E+02 0.  0.
         12    1    1    2    0    0  0.13516328976E+02 -0.25396627637E+02 -0.28731269171E+02  0.40659140086E+02  0.00000000000E+00 0. -1.
         11    1    3    3    0    0 -0.40822474266E+01 -0.22152480816E+01  0.12466125542E+02  0.13303246011E+02  0.51100000000E-03 0. -1.
        -11    1    3    3    0    0 -0.43188817117E+01  0.12150778437E+01 -0.17983453870E+01  0.48335493995E+01  0.51100000000E-03 0.  1.
         12    1    3    3    0    0 -0.51151998376E+01  0.26396797875E+02  0.18063489015E+02  0.32392064504E+02  0.00000000000E+00 0. -1.
</event>
<event>
 7    1  0.2746803E-013  0.5052886E+02  0.7816164E-02  0.1300439E+00
        -11   -1    0    0    0    0  0.00000000000E+00  0.00000000000E+00  0.45593999997E+02  0.45594000000E+02  0.51100000000E-03 0. -1.
         11   -1    0    0    0    0 -0.00000000000E+00 -0.00000000000E+00 -0.45593999997E+02  0.45594000000E+02  0.51100000000E-03 0.  1.
    9900012    2    1    2    0    0  0.28415395149E+02  0.28194830516E+02  0.71261799027E+01  0.50528860938E+02  0.30000003306E+02 0.  0.
         12    1    1    2    0    0 -0.28415395149E+02 -0.28194830516E+02 -0.71261799027E+01  0.40659139062E+02  0.00000000000E+00 0. -1.
         11    1    3    3    0    0  0.13465875717E+01  0.87206687773E+00 -0.34793400693E+01  0.38313974352E+01  0.51100000000E-03 0. -1.
        -11    1    3    3    0    0  0.30787297567E+02  0.23929748075E+02  0.52462395801E+01  0.39344803525E+02  0.51100000000E-03 0.  1.
         12    1    3    3    0    0 -0.37184899904E+01  0.33930155636E+01  0.53592803919E+01  0.73526599774E+01  0.00000000000E+00 0. -1.
</event>
<event>
 7    1  0.2746803E-013  0.5052887E+02  0.7816164E-02  0.1300439E+00
        -11   -1    0    0    0    0  0.00000000000E+00  0.00000000000E+00  0.45593999997E+02  0.45594000000E+02  0.51100000000E-03 0.  1.
         11   -1    0    0    0    0 -0.00000000000E+00 -0.00000000000E+00 -0.45593999997E+02  0.45594000000E+02  0.51100000000E-03 0. -1.
    9900012    2    1    2    0    0 -0.20978726665E+02 -0.31182318596E+02  0.15515187636E+02  0.50528868026E+02  0.30000024852E+02 0.  0.
         12    1    1    2    0    0  0.20978726665E+02  0.31182318596E+02 -0.15515187636E+02  0.40659131974E+02  0.00000000000E+00 0. -1.
         11    1    3    3    0    0 -0.19552164140E+01 -0.88872733913E+01  0.30575468732E+00  0.91049429293E+01  0.51100000000E-03 0. -1.
        -11    1    3    3    0    0 -0.72329956257E+01  0.51916612398E+00  0.13938090731E+02  0.15711655949E+02  0.51100000000E-03 0.  1.
         12    1    3    3    0    0 -0.11790514625E+02 -0.22814211329E+02  0.12713422174E+01  0.25712269147E+02  0.00000000000E+00 0. -1.
</event>
<event>
 7    1  0.2746803E-013  0.5052886E+02  0.7816164E-02  0.1300439E+00
        -11   -1    0    0    0    0  0.00000000000E+00  0.00000000000E+00  0.45593999997E+02  0.45594000000E+02  0.51100000000E-03 0.  1.
         11   -1    0    0    0    0 -0.00000000000E+00 -0.00000000000E+00 -0.45593999997E+02  0.45594000000E+02  0.51100000000E-03 0. -1.
    9900012    2    1    2    0    0  0.25627361659E+01  0.39008620083E+02  0.11177030461E+02  0.50528855058E+02  0.29999985435E+02 0.  0.
         12    1    1    2    0    0 -0.25627361659E+01 -0.39008620083E+02 -0.11177030461E+02  0.40659144942E+02  0.00000000000E+00 0. -1.
         11    1    3    3    0    0  0.33064978185E+01  0.10431610576E+02  0.59281703175E+01  0.12445667142E+02  0.51100000000E-03 0.  1.
        -11    1    3    3    0    0  0.83607862602E+01  0.17046828170E+02 -0.56282990016E+01  0.19803404946E+02  0.51100000000E-03 0. -1.
         12    1    3    3    0    0 -0.91045479128E+01  0.11530181337E+02  0.10877159146E+02  0.18279782970E+02  0.00000000000E+00 0. -1.
</event>
<event>
 7    1  0.2746803E-013  0.5052887E+02  0.7816164E-02  0.1300439E+00
        -11   -1    0    0    0    0  0.00000000000E+00  0.00000000000E+00  0.45593999997E+02  0.45594000000E+02  0.51100000000E-03 0. -1.
         11   -1    0    0    0    0 -0.00000000000E+00 -0.00000000000E+00 -0.45593999997E+02  0.45594000000E+02  0.51100000000E-03 0.  1.
    9900012    2    1    2    0    0  0.12975718740E+02  0.17621143349E+01 -0.38492735097E+02  0.50528868443E+02  0.30000026118E+02 0.  0.
         12    1    1    2    0    0 -0.12975718740E+02 -0.17621143349E+01  0.38492735097E+02  0.40659131557E+02  0.00000000000E+00 0. -1.
         11    1    3    3    0    0 -0.83895771724E-01 -0.60193362745E+01 -0.15497546248E+02  0.16625684577E+02  0.51100000000E-03 0. -1.
        -11    1    3    3    0    0  0.14314155933E+02  0.84824812370E+00 -0.60720598426E+01  0.15571913690E+02  0.51100000000E-03 0.  1.
         12    1    3    3    0    0 -0.12545414216E+01  0.69332024857E+01 -0.16923129007E+02  0.18331270176E+02  0.00000000000E+00 0. -1.
</event>
<event>
 7    1  0.2746803E-013  0.5052884E+02  0.7816164E-02  0.1300439E+00
        -11   -1    0    0    0    0  0.00000000000E+00  0.00000000000E+00  0.45593999997E+02  0.45594000000E+02  0.51100000000E-03 0. -1.
         11   -1    0    0    0    0 -0.00000000000E+00 -0.00000000000E+00 -0.45593999997E+02  0.45594000000E+02  0.51100000000E-03 0.  1.
    9900012    2    1    2    0    0  0.33615178064E+02  0.55664836746E+01  0.22185605839E+02  0.50528843058E+02  0.29999948959E+02 0.  0.
         12    1    1    2    0    0 -0.33615178064E+02 -0.55664836746E+01 -0.22185605839E+02  0.40659156942E+02  0.00000000000E+00 0. -1.
         11    1    3    3    0    0  0.46112913657E+01  0.59822445323E+01 -0.12427887507E+01  0.76547881645E+01  0.51100000000E-03 0. -1.
        -11    1    3    3    0    0 -0.12982299845E+00  0.14611216467E+01 -0.30985402843E+01  0.34282185800E+01  0.51100000000E-03 0.  1.
         12    1    3    3    0    0  0.29133709697E+02 -0.18768825044E+01  0.26526934874E+02  0.39445836313E+02  0.00000000000E+00 0. -1.
</event>
<event>
 7    1  0.2746803E-013  0.5052886E+02  0.7816164E-02  0.1300439E+00
        -11   -1    0    0    0    0  0.00000000000E+00  0.00000000000E+00  0.45593999997E+02  0.45594000000E+02  0.51100000000E-03 0. -1.
         11   -1    0    0    0    0 -0.00000000000E+00 -0.00000000000E+00 -0.45593999997E+02  0.45594000000E+02  0.51100000000E-03 0.  1.
    9900012    2    1    2    0    0 -0.22817371025E+02  0.26341834045E+02 -0.20943756883E+02  0.50528860883E+02  0.30000003141E+02 0.  0.
         12    1    1    2    0    0  0.22817371025E+02 -0.26341834045E+02  0.20943756883E+02  0.40659139117E+02  0.00000000000E+00 0. -1.
         11    1    3    3    0    0 -0.14537639246E+02  0.68925205070E+01 -0.61815291330E+01  0.17235460437E+02  0.51100000000E-03 0. -1.
        -11    1    3    3    0    0 -0.12344730588E+02  0.19955255208E+02 -0.69503947378E+01  0.24472690309E+02  0.51100000000E-03 0.  1.
        -12    1    3    3    0    0  0.40649988101E+01 -0.50594166965E+00 -0.78118330126E+01  0.88207101367E+01  0.00000000000E+00 0.  1.
</event>
<event>
 7    1  0.2746803E-013  0.5052886E+02  0.7816164E-02  0.1300439E+00
        -11   -1    0    0    0    0  0.00000000000E+00  0.00000000000E+00  0.45593999997E+02  0.45594000000E+02  0.51100000000E-03 0. -1.
         11   -1    0    0    0    0 -0.00000000000E+00 -0.00000000000E+00 -0.45593999997E+02  0.45594000000E+02  0.51100000000E-03 0.  1.
    9900012    2    1    2    0    0 -0.70405029371E+01  0.38017954741E+02  0.12579035648E+02  0.50528859550E+02  0.29999999089E+02 0.  0.
         12    1    1    2    0    0  0.70405029371E+01 -0.38017954741E+02 -0.12579035648E+02  0.40659140450E+02  0.00000000000E+00 0. -1.
         11    1    3    3    0    0 -0.59064057499E+01  0.18708662898E+02  0.19737306154E+02  0.27829138520E+02  0.51100000000E-03 0. -1.
        -11    1    3    3    0    0 -0.14811421225E+01  0.10922873204E+02  0.90588924597E+00  0.11059998943E+02  0.51100000000E-03 0.  1.
        -12    1    3    3    0    0  0.34704493527E+00  0.83864186380E+01 -0.80641597517E+01  0.11639722087E+02  0.00000000000E+00 0.  1.
</event>
<event>
 7    1  0.2746803E-013  0.5052886E+02  0.7816164E-02  0.1300439E+00
        -11   -1    0    0    0    0  0.00000000000E+00  0.00000000000E+00  0.45593999997E+02  0.45594000000E+02  0.51100000000E-03 0.  1.
         11   -1    0    0    0    0 -0.00000000000E+00 -0.00000000000E+00 -0.45593999997E+02  0.45594000000E+02  0.51100000000E-03 0. -1.
    9900012    2    1    2    0    0 -0.25507557743E+02 -0.44813521519E+01  0.31344020581E+02  0.50528860249E+02  0.30000001212E+02 0.  0.
         12    1    1    2    0    0  0.25507557743E+02  0.44813521519E+01 -0.31344020581E+02  0.40659139751E+02  0.00000000000E+00 0. -1.
         11    1    3    3    0    0 -0.19502987447E+02  0.26045197810E+01  0.75988051585E+01  0.21092460329E+02  0.51100000000E-03 0. -1.
        -11    1    3    3    0    0 -0.10704723239E+02 -0.57678942578E+01  0.14046991995E+02  0.18578958210E+02  0.51100000000E-03 0.  1.
         12    1    3    3    0    0  0.47001529422E+01 -0.13179776751E+01  0.96982234273E+01  0.10857441710E+02  0.00000000000E+00 0. -1.
</event>
<event>
 7    1  0.2746803E-013  0.5052886E+02  0.7816164E-02  0.1300439E+00
        -11   -1    0    0    0    0  0.00000000000E+00  0.00000000000E+00  0.45593999997E+02  0.45594000000E+02  0.51100000000E-03 0. -1.
         11   -1    0    0    0    0 -0.00000000000E+00 -0.00000000000E+00 -0.45593999997E+02  0.45594000000E+02  0.51100000000E-03 0.  1.
    9900012    2    1    2    0    0 -0.23410707700E+02  0.25132728730E+02 -0.21758910810E+02  0.50528862182E+02  0.30000007089E+02 0.  0.
         12    1    1    2    0    0  0.23410707700E+02 -0.25132728730E+02  0.21758910810E+02  0.40659137818E+02  0.00000000000E+00 0. -1.
         11    1    3    3    0    0 -0.18344066126E+02  0.75958976654E+01 -0.15178896960E+02  0.24992025460E+02  0.51100000000E-03 0. -1.
        -11    1    3    3    0    0 -0.91442119664E+01  0.18287844375E+02 -0.62362674264E+01  0.21376456583E+02  0.51100000000E-03 0.  1.
         12    1    3    3    0    0  0.40775703922E+01 -0.75101331086E+00 -0.34374642340E+00  0.41603801389E+01  0.00000000000E+00 0. -1.
</event>
<event>
 7    1  0.2746803E-013  0.5052886E+02  0.7816164E-02  0.1300439E+00
        -11   -1    0    0    0    0  0.00000000000E+00  0.00000000000E+00  0.45593999997E+02  0.45594000000E+02  0.51100000000E-03 0.  1.
         11   -1    0    0    0    0 -0.00000000000E+00 -0.00000000000E+00 -0.45593999997E+02  0.45594000000E+02  0.51100000000E-03 0. -1.
    9900012    2    1    2    0    0  0.18500708877E+02  0.24068598465E+02 -0.27047961150E+02  0.50528857567E+02  0.29999993060E+02 0.  0.
         12    1    1    2    0    0 -0.18500708877E+02 -0.24068598465E+02  0.27047961150E+02  0.40659142433E+02  0.00000000000E+00 0. -1.
         11    1    3    3    0    0  0.53145683511E+01 -0.45466527901E+01 -0.28532768169E+01  0.75536664744E+01  0.51100000000E-03 0. -1.
        -11    1    3    3    0    0  0.54208544701E+01  0.75560103396E+01  0.85749454610E+00  0.93388571354E+01  0.51100000000E-03 0.  1.
         12    1    3    3    0    0  0.77652860563E+01  0.21059240916E+02 -0.25052178879E+02  0.33636333957E+02  0.00000000000E+00 0. -1.
</event>
<event>
 7    1  0.2746803E-013  0.5052887E+02  0.7816164E-02  0.1300439E+00
        -11   -1    0    0    0    0  0.00000000000E+00  0.00000000000E+00  0.45593999997E+02  0.45594000000E+02  0.51100000000E-03 0.  1.
         11   -1    0    0    0    0 -0.00000000000E+00 -0.00000000000E+00 -0.45593999997E+02  0.45594000000E+02  0.51100000000E-03 0. -1.
    9900012    2    1    2    0    0  0.31206889043E+02  0.26002460269E+02  0.17796522769E+01  0.50528867864E+02  0.30000024361E+02 0.  0.
         12    1    1    2    0    0 -0.31206889043E+02 -0.26002460269E+02 -0.17796522769E+01  0.40659132136E+02  0.00000000000E+00 0. -1.
         11    1    3    3    0    0  0.15892462559E+02  0.12652354843E+02 -0.13538509746E+01  0.20358913576E+02  0.51100000000E-03 0.  1.
        -11    1    3    3    0    0  0.10630685958E+02 -0.44743733533E+01  0.41901063914E+00  0.11541536771E+02  0.51100000000E-03 0. -1.
         12    1    3    3    0    0  0.46837405251E+01  0.17824478780E+02  0.27144926124E+01  0.18628417518E+02  0.00000000000E+00 0. -1.
</event>
<event>
 7    1  0.2746803E-013  0.5052886E+02  0.7816164E-02  0.1300439E+00
        -11   -1    0    0    0    0  0.00000000000E+00  0.00000000000E+00  0.45593999997E+02  0.45594000000E+02  0.51100000000E-03 0.  1.
         11   -1    0    0    0    0 -0.00000000000E+00 -0.00000000000E+00 -0.45593999997E+02  0.45594000000E+02  0.51100000000E-03 0. -1.
    9900012    2    1    2    0    0 -0.17687467873E+02  0.96086537198E+01  0.35326941414E+02  0.50528861596E+02  0.30000005307E+02 0.  0.
         12    1    1    2    0    0  0.17687467873E+02 -0.96086537198E+01 -0.35326941414E+02  0.40659138404E+02  0.00000000000E+00 0. -1.
         11    1    3    3    0    0 -0.16567283317E+02  0.30456261223E+01  0.17860281724E+02  0.24550771445E+02  0.51100000000E-03 0. -1.
        -11    1    3    3    0    0 -0.41536458957E+01  0.37041914362E+01  0.20226981158E+02  0.20978669534E+02  0.51100000000E-03 0.  1.
         12    1    3    3    0    0  0.30334613401E+01  0.28588361614E+01 -0.27603214675E+01  0.49994206168E+01  0.00000000000E+00 0. -1.
</event>
<event>
 7    1  0.2746803E-013  0.5052887E+02  0.7816164E-02  0.1300439E+00
        -11   -1    0    0    0    0  0.00000000000E+00  0.00000000000E+00  0.45593999997E+02  0.45594000000E+02  0.51100000000E-03 0.  1.
         11   -1    0    0    0    0 -0.00000000000E+00 -0.00000000000E+00 -0.45593999997E+02  0.45594000000E+02  0.51100000000E-03 0. -1.
    9900012    2    1    2    0    0 -0.11158293022E+02 -0.36086370255E+02  0.15047626340E+02  0.50528872122E+02  0.30000037301E+02 0.  0.
         12    1    1    2    0    0  0.11158293022E+02  0.36086370255E+02 -0.15047626340E+02  0.40659127878E+02  0.00000000000E+00 0. -1.
         11    1    3    3    0    0 -0.14462753594E+01 -0.27576250137E+01  0.89943432239E+01  0.95181100236E+01  0.51100000000E-03 0. -1.
        -11    1    3    3    0    0 -0.36333359480E+01 -0.20738350889E+02  0.13657135414E+02  0.25095770075E+02  0.51100000000E-03 0.  1.
         12    1    3    3    0    0 -0.60786817141E+01 -0.12590394352E+02 -0.76038522973E+01  0.15914992023E+02  0.00000000000E+00 0. -1.
</event>
<event>
 7    1  0.2746803E-013  0.5052885E+02  0.7816164E-02  0.1300439E+00
        -11   -1    0    0    0    0  0.00000000000E+00  0.00000000000E+00  0.45593999997E+02  0.45594000000E+02  0.51100000000E-03 0.  1.
         11   -1    0    0    0    0 -0.00000000000E+00 -0.00000000000E+00 -0.45593999997E+02  0.45594000000E+02  0.51100000000E-03 0. -1.
    9900012    2    1    2    0    0 -0.25557320498E+02 -0.20050988238E+02  0.24452964238E+02  0.50528853177E+02  0.29999979717E+02 0.  0.
         12    1    1    2    0    0  0.25557320498E+02  0.20050988238E+02 -0.24452964238E+02  0.40659146823E+02  0.00000000000E+00 0. -1.
         11    1    3    3    0    0 -0.33052634048E+01 -0.79949760221E+01  0.13615925492E+02  0.16131888762E+02  0.51100000000E-03 0.  1.
        -11    1    3    3    0    0 -0.24040527463E+02 -0.13806234161E+02  0.13420331946E+02  0.30800395650E+02  0.51100000000E-03 0. -1.
         12    1    3    3    0    0  0.17884703699E+01  0.17502219452E+01 -0.25832932001E+01  0.35965687647E+01  0.00000000000E+00 0. -1.
</event>
<event>
 7    1  0.2746803E-013  0.5052883E+02  0.7816164E-02  0.1300439E+00
        -11   -1    0    0    0    0  0.00000000000E+00  0.00000000000E+00  0.45593999997E+02  0.45594000000E+02  0.51100000000E-03 0. -1.
         11   -1    0    0    0    0 -0.00000000000E+00 -0.00000000000E+00 -0.45593999997E+02  0.45594000000E+02  0.51100000000E-03 0.  1.
    9900012    2    1    2    0    0 -0.10062300009E+02 -0.35178211302E+02  0.17731665363E+02  0.50528826515E+02  0.29999898676E+02 0.  0.
         12    1    1    2    0    0  0.10062300009E+02  0.35178211302E+02 -0.17731665363E+02  0.40659173485E+02  0.00000000000E+00 0. -1.
         11    1    3    3    0    0 -0.11442812947E+02 -0.14010126369E+02  0.14327319799E+02  0.23075825054E+02  0.51100000000E-03 0. -1.
        -11    1    3    3    0    0  0.22445814278E+01 -0.10498912685E+02  0.10171369633E+02  0.14789255351E+02  0.51100000000E-03 0.  1.
         12    1    3    3    0    0 -0.86406848911E+00 -0.10669172248E+02 -0.67670240686E+01  0.12663746111E+02  0.00000000000E+00 0. -1.
</event>
<event>
 7    1  0.2746803E-013  0.5052886E+02  0.7816164E-02  0.1300439E+00
        -11   -1    0    0    0    0  0.00000000000E+00  0.00000000000E+00  0.45593999997E+02  0.45594000000E+02  0.51100000000E-03 0.  1.
         11   -1    0    0    0    0 -0.00000000000E+00 -0.00000000000E+00 -0.45593999997E+02  0.45594000000E+02  0.51100000000E-03 0. -1.
    9900012    2    1    2    0    0  0.75785909766E+01 -0.12338516153E+02  0.37993309178E+02  0.50528861245E+02  0.30000004240E+02 0.  0.
         12    1    1    2    0    0 -0.75785909766E+01  0.12338516153E+02 -0.37993309178E+02  0.40659138755E+02  0.00000000000E+00 0. -1.
         11    1    3    3    0    0 -0.23826761508E+00 -0.98219811830E+01  0.51017256280E+01  0.11070487363E+02  0.51100000000E-03 0. -1.
        -11    1    3    3    0    0 -0.60561757519E+01  0.29691987938E+01  0.12340345728E+02  0.14063340256E+02  0.51100000000E-03 0.  1.
         12    1    3    3    0    0  0.13873034344E+02 -0.54857337633E+01  0.20551237822E+02  0.25395033626E+02  0.00000000000E+00 0. -1.
</event>
<event>
 7    1  0.2746803E-013  0.5052887E+02  0.7816164E-02  0.1300439E+00
        -11   -1    0    0    0    0  0.00000000000E+00  0.00000000000E+00  0.45593999997E+02  0.45594000000E+02  0.51100000000E-03 0.  1.
         11   -1    0    0    0    0 -0.00000000000E+00 -0.00000000000E+00 -0.45593999997E+02  0.45594000000E+02  0.51100000000E-03 0. -1.
    9900012    2    1    2    0    0  0.34299586995E+02  0.16882642620E+02  0.13844840048E+02  0.50528869588E+02  0.30000029600E+02 0.  0.
         12    1    1    2    0    0 -0.34299586995E+02 -0.16882642620E+02 -0.13844840048E+02  0.40659130412E+02  0.00000000000E+00 0. -1.
         11    1    3    3    0    0  0.75683894790E+01  0.11692325834E+02  0.25593410207E+01  0.14161258046E+02  0.51100000000E-03 0. -1.
        -11    1    3    3    0    0 -0.21107804367E+01  0.12126738486E+01 -0.30601213788E+01  0.39102832416E+01  0.51100000000E-03 0.  1.
        -12    1    3    3    0    0  0.28841977953E+02  0.39776429373E+01  0.14345620407E+02  0.32457328301E+02  0.00000000000E+00 0.  1.
</event>
<event>
 7    1  0.2746803E-013  0.5052886E+02  0.7816164E-02  0.1300439E+00
        -11   -1    0    0    0    0  0.00000000000E+00  0.00000000000E+00  0.45593999997E+02  0.45594000000E+02  0.51100000000E-03 0. -1.
         11   -1    0    0    0    0 -0.00000000000E+00 -0.00000000000E+00 -0.45593999997E+02  0.45594000000E+02  0.51100000000E-03 0.  1.
    9900012    2    1    2    0    0  0.32944433908E+02 -0.23751383721E+02  0.19239295781E+01  0.50528862538E+02  0.30000008169E+02 0.  0.
         12    1    1    2    0    0 -0.32944433908E+02  0.23751383721E+02 -0.19239295781E+01  0.40659137462E+02  0.00000000000E+00 0. -1.
         11    1    3    3    0    0  0.40341083290E+01 -0.15207139252E+02 -0.55540029283E+01  0.16684665505E+02  0.51100000000E-03 0. -1.
        -11    1    3    3    0    0  0.11913449453E+02 -0.10174897847E+02  0.14399898426E+01  0.15733162272E+02  0.51100000000E-03 0.  1.
        -12    1    3    3    0    0  0.16996876126E+02  0.16306533778E+01  0.60379426638E+01  0.18111034760E+02  0.00000000000E+00 0.  1.
</event>
<event>
 7    1  0.2746803E-013  0.5052886E+02  0.7816164E-02  0.1300439E+00
        -11   -1    0    0    0    0  0.00000000000E+00  0.00000000000E+00  0.45593999997E+02  0.45594000000E+02  0.51100000000E-03 0.  1.
         11   -1    0    0    0    0 -0.00000000000E+00 -0.00000000000E+00 -0.45593999997E+02  0.45594000000E+02  0.51100000000E-03 0. -1.
    9900012    2    1    2    0    0 -0.39460829642E+02  0.84963561693E+01  0.48806320677E+01  0.50528859410E+02  0.29999998662E+02 0.  0.
         12    1    1    2    0    0  0.39460829642E+02 -0.84963561693E+01 -0.48806320677E+01  0.40659140590E+02  0.00000000000E+00 0. -1.
         11    1    3    3    0    0  0.41706230616E+00  0.67965942960E+01  0.14366749868E+01  0.69592866208E+01  0.51100000000E-03 0. -1.
        -11    1    3    3    0    0 -0.13418425187E+02  0.13920632894E+01  0.94049348676E+01  0.16445205223E+02  0.51100000000E-03 0.  1.
         12    1    3    3    0    0 -0.26459466761E+02  0.30769858394E+00 -0.59609777868E+01  0.27124367566E+02  0.00000000000E+00 0. -1.
</event>
<event>
 7    1  0.2746803E-013  0.5052886E+02  0.7816164E-02  0.1300439E+00
        -11   -1    0    0    0    0  0.00000000000E+00  0.00000000000E+00  0.45593999997E+02  0.45594000000E+02  0.51100000000E-03 0.  1.
         11   -1    0    0    0    0 -0.00000000000E+00 -0.00000000000E+00 -0.45593999997E+02  0.45594000000E+02  0.51100000000E-03 0. -1.
    9900012    2    1    2    0    0 -0.13479800797E+02  0.81700501731E+01  0.37479474402E+02  0.50528858951E+02  0.29999997269E+02 0.  0.
         12    1    1    2    0    0  0.13479800797E+02 -0.81700501731E+01 -0.37479474402E+02  0.40659141049E+02  0.00000000000E+00 0. -1.
         11    1    3    3    0    0  0.16272117826E+01 -0.36505261695E+01  0.34766631828E+01  0.52972961638E+01  0.51100000000E-03 0. -1.
        -11    1    3    3    0    0 -0.13240526628E+02 -0.13440086905E+01  0.27233303280E+02  0.30311230799E+02  0.51100000000E-03 0.  1.
         12    1    3    3    0    0 -0.18664859518E+01  0.13164585033E+02  0.67695079390E+01  0.14920331988E+02  0.00000000000E+00 0. -1.
</event>
<event>
 7    1  0.2746803E-013  0.5052886E+02  0.7816164E-02  0.1300439E+00
        -11   -1    0    0    0    0  0.00000000000E+00  0.00000000000E+00  0.45593999997E+02  0.45594000000E+02  0.51100000000E-03 0.  1.
         11   -1    0    0    0    0 -0.00000000000E+00 -0.00000000000E+00 -0.45593999997E+02  0.45594000000E+02  0.51100000000E-03 0. -1.
    9900012    2    1    2    0    0  0.24566556349E+02  0.20550837743E+02  0.25046222192E+02  0.50528857500E+02  0.29999992857E+02 0.  0.
         12    1    1    2    0    0 -0.24566556349E+02 -0.20550837743E+02 -0.25046222192E+02  0.40659142500E+02  0.00000000000E+00 0. -1.
         11    1    3    3    0    0  0.13861874665E+02  0.62234517365E+01  0.44640922784E+01  0.15837014898E+02  0.51100000000E-03 0. -1.
        -11    1    3    3    0    0  0.10730226721E+02  0.11654895621E+02  0.24959744894E+02  0.29562868988E+02  0.51100000000E-03 0.  1.
         12    1    3    3    0    0 -0.25545037451E-01  0.26724903856E+01 -0.43776149803E+01  0.51289736133E+01  0.00000000000E+00 0. -1.
</event>
<event>
 7    1  0.2746803E-013  0.5052886E+02  0.7816164E-02  0.1300439E+00
        -11   -1    0    0    0    0  0.00000000000E+00  0.00000000000E+00  0.45593999997E+02  0.45594000000E+02  0.51100000000E-03 0. -1.
         11   -1    0    0    0    0 -0.00000000000E+00 -0.00000000000E+00 -0.45593999997E+02  0.45594000000E+02  0.51100000000E-03 0.  1.
    9900012    2    1    2    0    0  0.33616348112E+02  0.21335089257E+02  0.82414188437E+01  0.50528857381E+02  0.29999992494E+02 0.  0.
         12    1    1    2    0    0 -0.33616348112E+02 -0.21335089257E+02 -0.82414188437E+01  0.40659142619E+02  0.00000000000E+00 0. -1.
         11    1    3    3    0    0  0.13735462263E+02  0.63019404318E+01  0.12164976929E+02  0.19400104142E+02  0.51100000000E-03 0. -1.
        -11    1    3    3    0    0  0.64327161774E+01  0.16147891231E+02 -0.19542512090E+01  0.17491521565E+02  0.51100000000E-03 0.  1.
         12    1    3    3    0    0  0.13448169672E+02 -0.11147424054E+01 -0.19693068759E+01  0.13637231674E+02  0.00000000000E+00 0. -1.
</event>
<event>
 7    1  0.2746803E-013  0.5052888E+02  0.7816164E-02  0.1300439E+00
        -11   -1    0    0    0    0  0.00000000000E+00  0.00000000000E+00  0.45593999997E+02  0.45594000000E+02  0.51100000000E-03 0. -1.
         11   -1    0    0    0    0 -0.00000000000E+00 -0.00000000000E+00 -0.45593999997E+02  0.45594000000E+02  0.51100000000E-03 0.  1.
    9900012    2    1    2    0    0  0.32975260065E+02  0.22987963521E+02  0.61114763794E+01  0.50528875726E+02  0.30000048257E+02 0.  0.
         12    1    1    2    0    0 -0.32975260065E+02 -0.22987963521E+02 -0.61114763794E+01  0.40659124274E+02  0.00000000000E+00 0. -1.
         11    1    3    3    0    0  0.68752960422E+01  0.10031596029E+02  0.45235168121E+01  0.12975546970E+02  0.51100000000E-03 0. -1.
        -11    1    3    3    0    0  0.63701808239E+01  0.24854797105E+01 -0.10213489868E+02  0.12291142691E+02  0.51100000000E-03 0.  1.
         12    1    3    3    0    0  0.19729783199E+02  0.10470887781E+02  0.11801449435E+02  0.25262186065E+02  0.00000000000E+00 0. -1.
</event>
<event>
 7    1  0.2746803E-013  0.5052888E+02  0.7816164E-02  0.1300439E+00
        -11   -1    0    0    0    0  0.00000000000E+00  0.00000000000E+00  0.45593999997E+02  0.45594000000E+02  0.51100000000E-03 0. -1.
         11   -1    0    0    0    0 -0.00000000000E+00 -0.00000000000E+00 -0.45593999997E+02  0.45594000000E+02  0.51100000000E-03 0.  1.
    9900012    2    1    2    0    0  0.13947781188E+02 -0.28350158283E+02 -0.25590858478E+02  0.50528879100E+02  0.30000058512E+02 0.  0.
         12    1    1    2    0    0 -0.13947781188E+02  0.28350158283E+02  0.25590858478E+02  0.40659120900E+02  0.00000000000E+00 0. -1.
         11    1    3    3    0    0  0.95373913273E+00 -0.34840277697E-01  0.14014274816E+01  0.16955327852E+01  0.51100000000E-03 0. -1.
        -11    1    3    3    0    0  0.74171068965E+01 -0.32208210306E+02 -0.18243514216E+02  0.37751928388E+02  0.51100000000E-03 0.  1.
         12    1    3    3    0    0  0.55769351586E+01  0.38928923012E+01 -0.87487717439E+01  0.11081417926E+02  0.00000000000E+00 0. -1.
</event>
<event>
 7    1  0.2746803E-013  0.5052887E+02  0.7816164E-02  0.1300439E+00
        -11   -1    0    0    0    0  0.00000000000E+00  0.00000000000E+00  0.45593999997E+02  0.45594000000E+02  0.51100000000E-03 0.  1.
         11   -1    0    0    0    0 -0.00000000000E+00 -0.00000000000E+00 -0.45593999997E+02  0.45594000000E+02  0.51100000000E-03 0. -1.
    9900012    2    1    2    0    0  0.27035853629E+02  0.26915454226E+02  0.14063646900E+02  0.50528865458E+02  0.30000017045E+02 0.  0.
         12    1    1    2    0    0 -0.27035853629E+02 -0.26915454226E+02 -0.14063646900E+02  0.40659134542E+02  0.00000000000E+00 0. -1.
         11    1    3    3    0    0  0.12290627974E+01  0.74239929371E+01  0.97397653410E+01  0.12308098783E+02  0.51100000000E-03 0. -1.
        -11    1    3    3    0    0  0.13178038838E+02  0.58129256679E+00  0.76356966917E+01  0.15241472137E+02  0.51100000000E-03 0.  1.
         12    1    3    3    0    0  0.12628751993E+02  0.18910168722E+02 -0.33118151323E+01  0.22979294538E+02  0.00000000000E+00 0. -1.
</event>
<event>
 7    1  0.2746803E-013  0.5052886E+02  0.7816164E-02  0.1300439E+00
        -11   -1    0    0    0    0  0.00000000000E+00  0.00000000000E+00  0.45593999997E+02  0.45594000000E+02  0.51100000000E-03 0. -1.
         11   -1    0    0    0    0 -0.00000000000E+00 -0.00000000000E+00 -0.45593999997E+02  0.45594000000E+02  0.51100000000E-03 0.  1.
    9900012    2    1    2    0    0 -0.19996611494E+02  0.35367341555E+02 -0.15659952908E+01  0.50528860054E+02  0.30000000619E+02 0.  0.
         12    1    1    2    0    0  0.19996611494E+02 -0.35367341555E+02  0.15659952908E+01  0.40659139946E+02  0.00000000000E+00 0. -1.
         11    1    3    3    0    0 -0.72722470500E+00 -0.25649539779E+01 -0.31512915186E+01  0.41277697582E+01  0.51100000000E-03 0. -1.
        -11    1    3    3    0    0 -0.17041948035E+02  0.34647216119E+02 -0.47731707964E+01  0.38905536076E+02  0.51100000000E-03 0.  1.
         12    1    3    3    0    0 -0.22274387542E+01  0.32850794138E+01  0.63584670242E+01  0.74955542195E+01  0.00000000000E+00 0. -1.
</event>
<event>
 7    1  0.2746803E-013  0.5052886E+02  0.7816164E-02  0.1300439E+00
        -11   -1    0    0    0    0  0.00000000000E+00  0.00000000000E+00  0.45593999997E+02  0.45594000000E+02  0.51100000000E-03 0. -1.
         11   -1    0    0    0    0 -0.00000000000E+00 -0.00000000000E+00 -0.45593999997E+02  0.45594000000E+02  0.51100000000E-03 0.  1.
    9900012    2    1    2    0    0  0.24401105535E+02 -0.27477784876E+02 -0.17398930862E+02  0.50528863165E+02  0.30000010077E+02 0.  0.
         12    1    1    2    0    0 -0.24401105535E+02  0.27477784876E+02  0.17398930862E+02  0.40659136835E+02  0.00000000000E+00 0. -1.
         11    1    3    3    0    0  0.25941451300E+01  0.19018638131E+01 -0.17387084258E+01  0.36564712730E+01  0.51100000000E-03 0.  1.
        -11    1    3    3    0    0  0.16254454857E+02 -0.33320411181E+02 -0.15132705417E+02  0.40043175167E+02  0.51100000000E-03 0. -1.
         12    1    3    3    0    0  0.55525055476E+01  0.39407624916E+01 -0.52751701843E+00  0.68292167249E+01  0.00000000000E+00 0. -1.
</event>
<event>
 7    1  0.2746803E-013  0.5052883E+02  0.7816164E-02  0.1300439E+00
        -11   -1    0    0    0    0  0.00000000000E+00  0.00000000000E+00  0.45593999997E+02  0.45594000000E+02  0.51100000000E-03 0.  1.
         11   -1    0    0    0    0 -0.00000000000E+00 -0.00000000000E+00 -0.45593999997E+02  0.45594000000E+02  0.51100000000E-03 0. -1.
    9900012    2    1    2    0    0  0.29872269712E+01 -0.29124686222E+02  0.28213426511E+02  0.50528827505E+02  0.29999901683E+02 0.  0.
         12    1    1    2    0    0 -0.29872269712E+01  0.29124686222E+02 -0.28213426511E+02  0.40659172495E+02  0.00000000000E+00 0. -1.
         11    1    3    3    0    0 -0.45826272975E+01 -0.14477465123E+01  0.12238839203E+02  0.13148597956E+02  0.51100000000E-03 0. -1.
        -11    1    3    3    0    0 -0.56879518657E+01 -0.11306110760E+02  0.48173128751E+01  0.13542061901E+02  0.51100000000E-03 0.  1.
         12    1    3    3    0    0  0.13257806134E+02 -0.16370828950E+02  0.11157274433E+02  0.23838167647E+02  0.00000000000E+00 0. -1.
</event>
<event>
 7    1  0.2746803E-013  0.5052888E+02  0.7816164E-02  0.1300439E+00
        -11   -1    0    0    0    0  0.00000000000E+00  0.00000000000E+00  0.45593999997E+02  0.45594000000E+02  0.51100000000E-03 0. -1.
         11   -1    0    0    0    0 -0.00000000000E+00 -0.00000000000E+00 -0.45593999997E+02  0.45594000000E+02  0.51100000000E-03 0.  1.
    9900012    2    1    2    0    0 -0.25968085249E+02  0.23599485764E+02 -0.20539890616E+02  0.50528876960E+02  0.30000052009E+02 0.  0.
         12    1    1    2    0    0  0.25968085249E+02 -0.23599485764E+02  0.20539890616E+02  0.40659123040E+02  0.00000000000E+00 0. -1.
         11    1    3    3    0    0 -0.47810330869E+01 -0.25227234330E+01 -0.13581745209E+02  0.14618009922E+02  0.51100000000E-03 0. -1.
        -11    1    3    3    0    0 -0.47829489880E+01  0.24968141658E+01  0.20491213106E+01  0.57714452615E+01  0.51100000000E-03 0.  1.
        -12    1    3    3    0    0 -0.16404103174E+02  0.23625395031E+02 -0.90072667177E+01  0.30139421777E+02  0.00000000000E+00 0.  1.
</event>
<event>
 7    1  0.2746803E-013  0.5052885E+02  0.7816164E-02  0.1300439E+00
        -11   -1    0    0    0    0  0.00000000000E+00  0.00000000000E+00  0.45593999997E+02  0.45594000000E+02  0.51100000000E-03 0.  1.
         11   -1    0    0    0    0 -0.00000000000E+00 -0.00000000000E+00 -0.45593999997E+02  0.45594000000E+02  0.51100000000E-03 0. -1.
    9900012    2    1    2    0    0 -0.82152437527E+01 -0.35472800046E+02  0.18092995377E+02  0.50528852755E+02  0.29999978433E+02 0.  0.
         12    1    1    2    0    0  0.82152437527E+01  0.35472800046E+02 -0.18092995377E+02  0.40659147245E+02  0.00000000000E+00 0. -1.
         11    1    3    3    0    0  0.73551795965E+01 -0.38445715116E+01  0.21833500940E+01  0.85817489417E+01  0.51100000000E-03 0. -1.
        -11    1    3    3    0    0 -0.73397678180E+01 -0.24321280392E+02  0.39776273601E+01  0.25714167130E+02  0.51100000000E-03 0.  1.
         12    1    3    3    0    0 -0.82306555312E+01 -0.73069481424E+01  0.11932017923E+02  0.16232936683E+02  0.00000000000E+00 0. -1.
</event>
<event>
 7    1  0.2746803E-013  0.5052885E+02  0.7816164E-02  0.1300439E+00
        -11   -1    0    0    0    0  0.00000000000E+00  0.00000000000E+00  0.45593999997E+02  0.45594000000E+02  0.51100000000E-03 0.  1.
         11   -1    0    0    0    0 -0.00000000000E+00 -0.00000000000E+00 -0.45593999997E+02  0.45594000000E+02  0.51100000000E-03 0. -1.
    9900012    2    1    2    0    0  0.10318826068E+02  0.11808353994E+00  0.39327777108E+02  0.50528853828E+02  0.29999981697E+02 0.  0.
         12    1    1    2    0    0 -0.10318826068E+02 -0.11808353994E+00 -0.39327777108E+02  0.40659146172E+02  0.00000000000E+00 0. -1.
         11    1    3    3    0    0  0.76635002744E+01 -0.13098736097E+01  0.42491832115E+01  0.88600543766E+01  0.51100000000E-03 0. -1.
        -11    1    3    3    0    0 -0.68122310151E+00 -0.85561621582E+01  0.53081562464E+01  0.10092001724E+02  0.51100000000E-03 0.  1.
        -12    1    3    3    0    0  0.33365488953E+01  0.99841193079E+01  0.29770437650E+02  0.31576797728E+02  0.00000000000E+00 0.  1.
</event>
<event>
 7    1  0.2746803E-013  0.5052885E+02  0.7816164E-02  0.1300439E+00
        -11   -1    0    0    0    0  0.00000000000E+00  0.00000000000E+00  0.45593999997E+02  0.45594000000E+02  0.51100000000E-03 0. -1.
         11   -1    0    0    0    0 -0.00000000000E+00 -0.00000000000E+00 -0.45593999997E+02  0.45594000000E+02  0.51100000000E-03 0.  1.
    9900012    2    1    2    0    0 -0.36008373721E+02 -0.10201443249E+02 -0.15890051201E+02  0.50528854047E+02  0.29999982363E+02 0.  0.
         12    1    1    2    0    0  0.36008373721E+02  0.10201443249E+02  0.15890051201E+02  0.40659145953E+02  0.00000000000E+00 0. -1.
         11    1    3    3    0    0 -0.10625139501E+02 -0.11108524211E+02 -0.11256082110E+02  0.19052356397E+02  0.51100000000E-03 0. -1.
        -11    1    3    3    0    0 -0.24252789514E+02 -0.52940199577E+01 -0.34393901082E+01  0.25061002595E+02  0.51100000000E-03 0.  1.
        -12    1    3    3    0    0 -0.11304447061E+01  0.62011009198E+01 -0.11945789837E+01  0.64154950549E+01  0.00000000000E+00 0.  1.
</event>
<event>
 7    1  0.2746803E-013  0.5052893E+02  0.7816164E-02  0.1300439E+00
        -11   -1    0    0    0    0  0.00000000000E+00  0.00000000000E+00  0.45593999997E+02  0.45594000000E+02  0.51100000000E-03 0.  1.
         11   -1    0    0    0    0 -0.00000000000E+00 -0.00000000000E+00 -0.45593999997E+02  0.45594000000E+02  0.51100000000E-03 0. -1.
    9900012    2    1    2    0    0 -0.17707153434E+02 -0.14003979034E+02  0.33815750764E+02  0.50528933222E+02  0.30000223020E+02 0.  0.
         12    1    1    2    0    0  0.17707153434E+02  0.14003979034E+02 -0.33815750764E+02  0.40659066778E+02  0.00000000000E+00 0. -1.
         11    1    3    3    0    0 -0.90971723191E+01  0.15171851709E+01  0.37879674161E+01  0.99704108467E+01  0.51100000000E-03 0. -1.
        -11    1    3    3    0    0 -0.65960953080E+01 -0.19195413219E+02  0.15786146914E+02  0.25713319440E+02  0.51100000000E-03 0.  1.
         12    1    3    3    0    0 -0.20138858074E+01  0.36742490142E+01  0.14241636434E+02  0.14845202935E+02  0.00000000000E+00 0. -1.
</event>
<event>
 7    1  0.2746803E-013  0.5052886E+02  0.7816164E-02  0.1300439E+00
        -11   -1    0    0    0    0  0.00000000000E+00  0.00000000000E+00  0.45593999997E+02  0.45594000000E+02  0.51100000000E-03 0.  1.
         11   -1    0    0    0    0 -0.00000000000E+00 -0.00000000000E+00 -0.45593999997E+02  0.45594000000E+02  0.51100000000E-03 0. -1.
    9900012    2    1    2    0    0 -0.10109209731E+02  0.38968442155E+02  0.56947063862E+01  0.50528864665E+02  0.30000014636E+02 0.  0.
         12    1    1    2    0    0  0.10109209731E+02 -0.38968442155E+02 -0.56947063862E+01  0.40659135335E+02  0.00000000000E+00 0. -1.
         11    1    3    3    0    0  0.31223404861E+01  0.19120827148E+01 -0.30775895249E+01  0.47829518045E+01  0.51100000000E-03 0. -1.
        -11    1    3    3    0    0 -0.80760565042E+01  0.22930448353E+02 -0.55968994577E+01  0.24947012529E+02  0.51100000000E-03 0.  1.
         12    1    3    3    0    0 -0.51554937129E+01  0.14125911087E+02  0.14369195369E+02  0.20798900332E+02  0.00000000000E+00 0. -1.
</event>
<event>
 7    1  0.2746803E-013  0.5052887E+02  0.7816164E-02  0.1300439E+00
        -11   -1    0    0    0    0  0.00000000000E+00  0.00000000000E+00  0.45593999997E+02  0.45594000000E+02  0.51100000000E-03 0.  1.
         11   -1    0    0    0    0 -0.00000000000E+00 -0.00000000000E+00 -0.45593999997E+02  0.45594000000E+02  0.51100000000E-03 0. -1.
    9900012    2    1    2    0    0 -0.17958068524E+02 -0.21062630455E+02  0.29783191849E+02  0.50528866419E+02  0.30000019967E+02 0.  0.
         12    1    1    2    0    0  0.17958068524E+02  0.21062630455E+02 -0.29783191849E+02  0.40659133581E+02  0.00000000000E+00 0. -1.
         11    1    3    3    0    0  0.94813721634E+00  0.27329712599E+01  0.76646116742E+01  0.81923359591E+01  0.51100000000E-03 0. -1.
        -11    1    3    3    0    0 -0.17454640862E+02 -0.20855764663E+02  0.25744049556E+02  0.37448411116E+02  0.51100000000E-03 0.  1.
         12    1    3    3    0    0 -0.14515648790E+01 -0.29398370521E+01 -0.36254693810E+01  0.48881193442E+01  0.00000000000E+00 0. -1.
</event>
<event>
 7    1  0.2746803E-013  0.5052886E+02  0.7816164E-02  0.1300439E+00
        -11   -1    0    0    0    0  0.00000000000E+00  0.00000000000E+00  0.45593999997E+02  0.45594000000E+02  0.51100000000E-03 0.  1.
         11   -1    0    0    0    0 -0.00000000000E+00 -0.00000000000E+00 -0.45593999997E+02  0.45594000000E+02  0.51100000000E-03 0. -1.
    9900012    2    1    2    0    0  0.39485701709E+02  0.96459770690E+01 -0.99991894123E+00  0.50528863869E+02  0.30000012215E+02 0.  0.
         12    1    1    2    0    0 -0.39485701709E+02 -0.96459770690E+01  0.99991894123E+00  0.40659136131E+02  0.00000000000E+00 0. -1.
         11    1    3    3    0    0  0.12379456119E+01 -0.17297418746E+01  0.28450921394E+01  0.35523324498E+01  0.51100000000E-03 0. -1.
        -11    1    3    3    0    0  0.14814322197E+02 -0.40834894060E+01 -0.98705559905E+01  0.18263814051E+02  0.51100000000E-03 0.  1.
        -12    1    3    3    0    0  0.23433433900E+02  0.15459208350E+02  0.60255449099E+01  0.28712717367E+02  0.00000000000E+00 0.  1.
</event>
<event>
 7    1  0.2746803E-013  0.5052885E+02  0.7816164E-02  0.1300439E+00
        -11   -1    0    0    0    0  0.00000000000E+00  0.00000000000E+00  0.45593999997E+02  0.45594000000E+02  0.51100000000E-03 0.  1.
         11   -1    0    0    0    0 -0.00000000000E+00 -0.00000000000E+00 -0.45593999997E+02  0.45594000000E+02  0.51100000000E-03 0. -1.
    9900012    2    1    2    0    0  0.24536370246E+01  0.16111312800E+02  0.37250118818E+02  0.50528854820E+02  0.29999984712E+02 0.  0.
         12    1    1    2    0    0 -0.24536370246E+01 -0.16111312800E+02 -0.37250118818E+02  0.40659145180E+02  0.00000000000E+00 0. -1.
         11    1    3    3    0    0 -0.77819553460E+01 -0.10090618968E+01  0.60519925770E+01  0.99097754430E+01  0.51100000000E-03 0. -1.
        -11    1    3    3    0    0 -0.24107680585E+01 -0.72971755022E+00  0.94199667274E+01  0.97509006631E+01  0.51100000000E-03 0.  1.
         12    1    3    3    0    0  0.12646360429E+02  0.17850092247E+02  0.21778159514E+02  0.30868178714E+02  0.00000000000E+00 0. -1.
</event>
<event>
 7    1  0.2746803E-013  0.5052885E+02  0.7816164E-02  0.1300439E+00
        -11   -1    0    0    0    0  0.00000000000E+00  0.00000000000E+00  0.45593999997E+02  0.45594000000E+02  0.51100000000E-03 0. -1.
         11   -1    0    0    0    0 -0.00000000000E+00 -0.00000000000E+00 -0.45593999997E+02  0.45594000000E+02  0.51100000000E-03 0.  1.
    9900012    2    1    2    0    0 -0.35707827132E+02  0.87027611559E+00 -0.19425751341E+02  0.50528854483E+02  0.29999983686E+02 0.  0.
         12    1    1    2    0    0  0.35707827132E+02 -0.87027611559E+00  0.19425751341E+02  0.40659145517E+02  0.00000000000E+00 0. -1.
         11    1    3    3    0    0 -0.12611496206E+02 -0.24609680844E+01  0.10457979644E+01  0.12891853789E+02  0.51100000000E-03 0. -1.
        -11    1    3    3    0    0  0.11066122326E+01  0.63558290404E+01 -0.12249157380E+01  0.65667017787E+01  0.51100000000E-03 0.  1.
        -12    1    3    3    0    0 -0.24202943159E+02 -0.30245848404E+01 -0.19246633567E+02  0.31070298915E+02  0.00000000000E+00 0.  1.
</event>
<event>
 7    1  0.2746803E-013  0.5052886E+02  0.7816164E-02  0.1300439E+00
        -11   -1    0    0    0    0  0.00000000000E+00  0.00000000000E+00  0.45593999997E+02  0.45594000000E+02  0.51100000000E-03 0.  1.
         11   -1    0    0    0    0 -0.00000000000E+00 -0.00000000000E+00 -0.45593999997E+02  0.45594000000E+02  0.51100000000E-03 0. -1.
    9900012    2    1    2    0    0 -0.32950307659E+02 -0.19713541074E+02  0.13372343014E+02  0.50528855467E+02  0.29999986677E+02 0.  0.
         12    1    1    2    0    0  0.32950307659E+02  0.19713541074E+02 -0.13372343014E+02  0.40659144533E+02  0.00000000000E+00 0. -1.
         11    1    3    3    0    0 -0.13620918326E+02 -0.32323441927E+01 -0.55243319576E+01  0.15049774379E+02  0.51100000000E-03 0. -1.
        -11    1    3    3    0    0 -0.15865073742E+02 -0.35746353090E+01  0.74696843673E+01  0.17896222150E+02  0.51100000000E-03 0.  1.
         12    1    3    3    0    0 -0.34643155903E+01 -0.12906561572E+02  0.11426990604E+02  0.17582858937E+02  0.00000000000E+00 0. -1.
</event>
<event>
 7    1  0.2746803E-013  0.5052887E+02  0.7816164E-02  0.1300439E+00
        -11   -1    0    0    0    0  0.00000000000E+00  0.00000000000E+00  0.45593999997E+02  0.45594000000E+02  0.51100000000E-03 0.  1.
         11   -1    0    0    0    0 -0.00000000000E+00 -0.00000000000E+00 -0.45593999997E+02  0.45594000000E+02  0.51100000000E-03 0. -1.
    9900012    2    1    2    0    0  0.32574886871E+02  0.13523057675E+02  0.20227923206E+02  0.50528865470E+02  0.30000017083E+02 0.  0.
         12    1    1    2    0    0 -0.32574886871E+02 -0.13523057675E+02 -0.20227923206E+02  0.40659134530E+02  0.00000000000E+00 0. -1.
         11    1    3    3    0    0  0.15018914661E+02 -0.50664753114E+01  0.79423704004E+01  0.17729021899E+02  0.51100000000E-03 0.  1.
        -11    1    3    3    0    0  0.77044342626E+01  0.15438548651E+01 -0.24249752297E+01  0.82232779521E+01  0.51100000000E-03 0. -1.
        -12    1    3    3    0    0  0.98515379470E+01  0.17045678121E+02  0.14710528035E+02  0.24576565618E+02  0.00000000000E+00 0.  1.
</event>
<event>
 7    1  0.2746803E-013  0.5052886E+02  0.7816164E-02  0.1300439E+00
        -11   -1    0    0    0    0  0.00000000000E+00  0.00000000000E+00  0.45593999997E+02  0.45594000000E+02  0.51100000000E-03 0. -1.
         11   -1    0    0    0    0 -0.00000000000E+00 -0.00000000000E+00 -0.45593999997E+02  0.45594000000E+02  0.51100000000E-03 0.  1.
    9900012    2    1    2    0    0 -0.11628599609E+02  0.19028895914E+02 -0.33997688630E+02  0.50528855386E+02  0.29999986431E+02 0.  0.
         12    1    1    2    0    0  0.11628599609E+02 -0.19028895914E+02  0.33997688630E+02  0.40659144614E+02  0.00000000000E+00 0. -1.
         11    1    3    3    0    0  0.42594575762E+01  0.93985429196E+01 -0.24242650588E+01  0.10599653258E+02  0.51100000000E-03 0. -1.
        -11    1    3    3    0    0 -0.13520877204E+01  0.45064341868E+01 -0.20288493080E+02  0.20826882676E+02  0.51100000000E-03 0.  1.
         12    1    3    3    0    0 -0.14535969465E+02  0.51239188075E+01 -0.11284930491E+02  0.19102319451E+02  0.00000000000E+00 0. -1.
</event>
<event>
 7    1  0.2746803E-013  0.5052886E+02  0.7816164E-02  0.1300439E+00
        -11   -1    0    0    0    0  0.00000000000E+00  0.00000000000E+00  0.45593999997E+02  0.45594000000E+02  0.51100000000E-03 0.  1.
         11   -1    0    0    0    0 -0.00000000000E+00 -0.00000000000E+00 -0.45593999997E+02  0.45594000000E+02  0.51100000000E-03 0. -1.
    9900012    2    1    2    0    0  0.18247084740E+02  0.14512246838E+02  0.33310727210E+02  0.50528856415E+02  0.29999989560E+02 0.  0.
         12    1    1    2    0    0 -0.18247084740E+02 -0.14512246838E+02 -0.33310727210E+02  0.40659143585E+02  0.00000000000E+00 0. -1.
         11    1    3    3    0    0  0.59364094004E+01 -0.42198984138E+01  0.55853290722E+01  0.91784748351E+01  0.51100000000E-03 0. -1.
        -11    1    3    3    0    0  0.78080781766E+01 -0.20324438268E+01  0.13675024343E+02  0.15877758147E+02  0.51100000000E-03 0.  1.
        -12    1    3    3    0    0  0.45025971628E+01  0.20764589079E+02  0.14050373794E+02  0.25472623433E+02  0.00000000000E+00 0.  1.
</event>
<event>
 7    1  0.2746803E-013  0.5052886E+02  0.7816164E-02  0.1300439E+00
        -11   -1    0    0    0    0  0.00000000000E+00  0.00000000000E+00  0.45593999997E+02  0.45594000000E+02  0.51100000000E-03 0.  1.
         11   -1    0    0    0    0 -0.00000000000E+00 -0.00000000000E+00 -0.45593999997E+02  0.45594000000E+02  0.51100000000E-03 0. -1.
    9900012    2    1    2    0    0 -0.61005845317E+01 -0.32755958090E+02  0.23302273883E+02  0.50528857238E+02  0.29999992060E+02 0.  0.
         12    1    1    2    0    0  0.61005845317E+01  0.32755958090E+02 -0.23302273883E+02  0.40659142762E+02  0.00000000000E+00 0. -1.
         11    1    3    3    0    0 -0.19563632554E+01 -0.10728580230E+02 -0.76195037200E-01  0.10905759803E+02  0.51100000000E-03 0. -1.
        -11    1    3    3    0    0  0.86004374867E+01 -0.15098453343E+02  0.11109612582E+02  0.20624119625E+02  0.51100000000E-03 0.  1.
        -12    1    3    3    0    0 -0.12744658763E+02 -0.69289245168E+01  0.12268856338E+02  0.18998977809E+02  0.00000000000E+00 0.  1.
</event>
<event>
 7    1  0.2746803E-013  0.5052886E+02  0.7816164E-02  0.1300439E+00
        -11   -1    0    0    0    0  0.00000000000E+00  0.00000000000E+00  0.45593999997E+02  0.45594000000E+02  0.51100000000E-03 0.  1.
         11   -1    0    0    0    0 -0.00000000000E+00 -0.00000000000E+00 -0.45593999997E+02  0.45594000000E+02  0.51100000000E-03 0. -1.
    9900012    2    1    2    0    0  0.52190591289E+01 -0.33293198175E+02  0.22748402832E+02  0.50528862598E+02  0.30000008353E+02 0.  0.
         12    1    1    2    0    0 -0.52190591289E+01  0.33293198175E+02 -0.22748402832E+02  0.40659137402E+02  0.00000000000E+00 0. -1.
         11    1    3    3    0    0  0.10970897958E+01 -0.27798652955E+00 -0.82454553249E+00  0.14002707335E+01  0.51100000000E-03 0. -1.
        -11    1    3    3    0    0  0.17721436734E+01 -0.36611286953E+02  0.15126881969E+02  0.39652860980E+02  0.51100000000E-03 0.  1.
        -12    1    3    3    0    0  0.23498256596E+01  0.35960753075E+01  0.84460663949E+01  0.94757308844E+01  0.00000000000E+00 0.  1.
</event>
<event>
 7    1  0.2746803E-013  0.5052886E+02  0.7816164E-02  0.1300439E+00
        -11   -1    0    0    0    0  0.00000000000E+00  0.00000000000E+00  0.45593999997E+02  0.45594000000E+02  0.51100000000E-03 0. -1.
         11   -1    0    0    0    0 -0.00000000000E+00 -0.00000000000E+00 -0.45593999997E+02  0.45594000000E+02  0.51100000000E-03 0.  1.
    9900012    2    1    2    0    0  0.25808014035E+02 -0.81244592252E+01 -0.30349710671E+02  0.50528863709E+02  0.30000011730E+02 0.  0.
         12    1    1    2    0    0 -0.25808014035E+02  0.81244592252E+01  0.30349710671E+02  0.40659136291E+02  0.00000000000E+00 0. -1.
         11    1    3    3    0    0  0.13955080583E+02 -0.87604212261E+01 -0.99195503410E+01  0.19232439610E+02  0.51100000000E-03 0. -1.
        -11    1    3    3    0    0  0.17763654585E+02  0.21746326083E+00 -0.15835003147E+02  0.23797941916E+02  0.51100000000E-03 0.  1.
         12    1    3    3    0    0 -0.59107211334E+01  0.41849874004E+00 -0.45951571829E+01  0.74984821829E+01  0.00000000000E+00 0. -1.
</event>
<event>
 7    1  0.2746803E-013  0.5052886E+02  0.7816164E-02  0.1300439E+00
        -11   -1    0    0    0    0  0.00000000000E+00  0.00000000000E+00  0.45593999997E+02  0.45594000000E+02  0.51100000000E-03 0.  1.
         11   -1    0    0    0    0 -0.00000000000E+00 -0.00000000000E+00 -0.45593999997E+02  0.45594000000E+02  0.51100000000E-03 0. -1.
    9900012    2    1    2    0    0 -0.13274295994E+02 -0.19663186226E+02  0.33019955685E+02  0.50528864494E+02  0.30000014115E+02 0.  0.
         12    1    1    2    0    0  0.13274295994E+02  0.19663186226E+02 -0.33019955685E+02  0.40659135506E+02  0.00000000000E+00 0. -1.
         11    1    3    3    0    0 -0.61876138287E+01  0.43111755056E+01  0.10969966451E+01  0.76207743067E+01  0.51100000000E-03 0. -1.
        -11    1    3    3    0    0  0.25167537835E+01 -0.51746670667E+01  0.14279964707E+02  0.15395733862E+02  0.51100000000E-03 0.  1.
        -12    1    3    3    0    0 -0.96034359492E+01 -0.18799694665E+02  0.17642994333E+02  0.27512356325E+02  0.00000000000E+00 0.  1.
</event>
<event>
 7    1  0.2746803E-013  0.5052885E+02  0.7816164E-02  0.1300439E+00
        -11   -1    0    0    0    0  0.00000000000E+00  0.00000000000E+00  0.45593999997E+02  0.45594000000E+02  0.51100000000E-03 0. -1.
         11   -1    0    0    0    0 -0.00000000000E+00 -0.00000000000E+00 -0.45593999997E+02  0.45594000000E+02  0.51100000000E-03 0.  1.
    9900012    2    1    2    0    0  0.34304948395E+02 -0.20549654564E+02 -0.73517926032E+01  0.50528847997E+02  0.29999963972E+02 0.  0.
         12    1    1    2    0    0 -0.34304948395E+02  0.20549654564E+02  0.73517926032E+01  0.40659152003E+02  0.00000000000E+00 0. -1.
         11    1    3    3    0    0  0.13447655858E+02 -0.11431383978E+02  0.94709012270E+01  0.20030325960E+02  0.51100000000E-03 0. -1.
        -11    1    3    3    0    0  0.60446126776E+01  0.15116384166E+01 -0.90613710208E+00  0.62963066820E+01  0.51100000000E-03 0.  1.
        -12    1    3    3    0    0  0.14812679860E+02 -0.10629909002E+02 -0.15916556728E+02  0.24202215355E+02  0.00000000000E+00 0.  1.
</event>
<event>
 7    1  0.2746803E-013  0.5052888E+02  0.7816164E-02  0.1300439E+00
        -11   -1    0    0    0    0  0.00000000000E+00  0.00000000000E+00  0.45593999997E+02  0.45594000000E+02  0.51100000000E-03 0.  1.
         11   -1    0    0    0    0 -0.00000000000E+00 -0.00000000000E+00 -0.45593999997E+02  0.45594000000E+02  0.51100000000E-03 0. -1.
    9900012    2    1    2    0    0  0.31825856567E+02  0.78066513781E+01 -0.24069389137E+02  0.50528875005E+02  0.30000046064E+02 0.  0.
         12    1    1    2    0    0 -0.31825856567E+02 -0.78066513781E+01  0.24069389137E+02  0.40659124995E+02  0.00000000000E+00 0. -1.
         11    1    3    3    0    0  0.67871192404E+01 -0.48910840625E+01 -0.15217919241E+02  0.17365850315E+02  0.51100000000E-03 0. -1.
        -11    1    3    3    0    0  0.17728031513E+02  0.11286376127E+02 -0.12928571194E+02  0.24674143162E+02  0.51100000000E-03 0.  1.
        -12    1    3    3    0    0  0.73107058130E+01  0.14113593134E+01  0.40771012973E+01  0.84888815273E+01  0.00000000000E+00 0.  1.
</event>
<event>
 7    1  0.2746803E-013  0.5052886E+02  0.7816164E-02  0.1300439E+00
        -11   -1    0    0    0    0  0.00000000000E+00  0.00000000000E+00  0.45593999997E+02  0.45594000000E+02  0.51100000000E-03 0.  1.
         11   -1    0    0    0    0 -0.00000000000E+00 -0.00000000000E+00 -0.45593999997E+02  0.45594000000E+02  0.51100000000E-03 0. -1.
    9900012    2    1    2    0    0  0.39411110135E+02 -0.56174832427E+01  0.82688513828E+01  0.50528860520E+02  0.30000002038E+02 0.  0.
         12    1    1    2    0    0 -0.39411110135E+02  0.56174832427E+01 -0.82688513828E+01  0.40659139480E+02  0.00000000000E+00 0. -1.
         11    1    3    3    0    0 -0.56826840949E-02  0.10689630862E+01  0.49019603893E+01  0.50171635704E+01  0.51100000000E-03 0. -1.
        -11    1    3    3    0    0  0.51273304288E+01 -0.54518432487E-01 -0.73658318447E+01  0.89748520105E+01  0.51100000000E-03 0.  1.
        -12    1    3    3    0    0  0.34289462390E+02 -0.66319278965E+01  0.10732722838E+02  0.36536844940E+02  0.00000000000E+00 0.  1.
</event>
<event>
 7    1  0.2746803E-013  0.5052886E+02  0.7816164E-02  0.1300439E+00
        -11   -1    0    0    0    0  0.00000000000E+00  0.00000000000E+00  0.45593999997E+02  0.45594000000E+02  0.51100000000E-03 0.  1.
         11   -1    0    0    0    0 -0.00000000000E+00 -0.00000000000E+00 -0.45593999997E+02  0.45594000000E+02  0.51100000000E-03 0. -1.
    9900012    2    1    2    0    0 -0.15636680793E+02  0.28518990351E+02  0.24399331876E+02  0.50528855975E+02  0.29999988222E+02 0.  0.
         12    1    1    2    0    0  0.15636680793E+02 -0.28518990351E+02 -0.24399331876E+02  0.40659144025E+02  0.00000000000E+00 0. -1.
         11    1    3    3    0    0  0.21134460109E+01  0.10853693154E+02  0.11644103145E+02  0.16057846912E+02  0.51100000000E-03 0.  1.
        -11    1    3    3    0    0 -0.25425103260E+01  0.15271046610E+02  0.18205864628E+01  0.15587936318E+02  0.51100000000E-03 0. -1.
         12    1    3    3    0    0 -0.15207616477E+02  0.23942505871E+01  0.10934642268E+02  0.18883072746E+02  0.00000000000E+00 0. -1.
</event>
<event>
 7    1  0.2746803E-013  0.5052886E+02  0.7816164E-02  0.1300439E+00
        -11   -1    0    0    0    0  0.00000000000E+00  0.00000000000E+00  0.45593999997E+02  0.45594000000E+02  0.51100000000E-03 0.  1.
         11   -1    0    0    0    0 -0.00000000000E+00 -0.00000000000E+00 -0.45593999997E+02  0.45594000000E+02  0.51100000000E-03 0. -1.
    9900012    2    1    2    0    0  0.57606011588E+01  0.25422384635E+02  0.31203901599E+02  0.50528860298E+02  0.30000001363E+02 0.  0.
         12    1    1    2    0    0 -0.57606011588E+01 -0.25422384635E+02 -0.31203901599E+02  0.40659139702E+02  0.00000000000E+00 0. -1.
         11    1    3    3    0    0 -0.21042386651E+01  0.21433147096E+01 -0.12275014596E+01  0.32447462765E+01  0.51100000000E-03 0. -1.
        -11    1    3    3    0    0 -0.73584242605E+01  0.13151367309E+02  0.20530861151E+02  0.25468041337E+02  0.51100000000E-03 0.  1.
         12    1    3    3    0    0  0.15223264084E+02  0.10127702616E+02  0.11900541908E+02  0.21816072685E+02  0.00000000000E+00 0. -1.
</event>
<event>
 7    1  0.2746803E-013  0.5052886E+02  0.7816164E-02  0.1300439E+00
        -11   -1    0    0    0    0  0.00000000000E+00  0.00000000000E+00  0.45593999997E+02  0.45594000000E+02  0.51100000000E-03 0. -1.
         11   -1    0    0    0    0 -0.00000000000E+00 -0.00000000000E+00 -0.45593999997E+02  0.45594000000E+02  0.51100000000E-03 0.  1.
    9900012    2    1    2    0    0 -0.68783849185E+01  0.57362063018E+01 -0.39660421493E+02  0.50528864805E+02  0.30000015062E+02 0.  0.
         12    1    1    2    0    0  0.68783849185E+01 -0.57362063018E+01  0.39660421493E+02  0.40659135195E+02  0.00000000000E+00 0. -1.
         11    1    3    3    0    0  0.49275166275E+01 -0.39646815440E+01 -0.23624772327E+02  0.24456675727E+02  0.51100000000E-03 0. -1.
        -11    1    3    3    0    0 -0.70218406890E+01 -0.16826599554E+01 -0.99828491562E+01  0.12320506025E+02  0.51100000000E-03 0.  1.
         12    1    3    3    0    0 -0.47840608570E+01  0.11383547801E+02 -0.60528000097E+01  0.13751683053E+02  0.00000000000E+00 0. -1.
</event>
<event>
 7    1  0.2746803E-013  0.5052886E+02  0.7816164E-02  0.1300439E+00
        -11   -1    0    0    0    0  0.00000000000E+00  0.00000000000E+00  0.45593999997E+02  0.45594000000E+02  0.51100000000E-03 0. -1.
         11   -1    0    0    0    0 -0.00000000000E+00 -0.00000000000E+00 -0.45593999997E+02  0.45594000000E+02  0.51100000000E-03 0.  1.
    9900012    2    1    2    0    0  0.10698549928E+02 -0.31913258342E+02 -0.22809004451E+02  0.50528859421E+02  0.29999998697E+02 0.  0.
         12    1    1    2    0    0 -0.10698549928E+02  0.31913258342E+02  0.22809004451E+02  0.40659140579E+02  0.00000000000E+00 0. -1.
         11    1    3    3    0    0  0.20333570483E+01 -0.22834899697E+02 -0.24812578852E+01  0.23059137582E+02  0.51100000000E-03 0. -1.
        -11    1    3    3    0    0  0.11812964488E+02 -0.91282766585E+01 -0.14317242455E+02  0.20684656065E+02  0.51100000000E-03 0.  1.
        -12    1    3    3    0    0 -0.31477716081E+01  0.49918013831E-01 -0.60105041104E+01  0.67850657747E+01  0.00000000000E+00 0.  1.
</event>
<event>
 7    1  0.2746803E-013  0.5052886E+02  0.7816164E-02  0.1300439E+00
        -11   -1    0    0    0    0  0.00000000000E+00  0.00000000000E+00  0.45593999997E+02  0.45594000000E+02  0.51100000000E-03 0.  1.
         11   -1    0    0    0    0 -0.00000000000E+00 -0.00000000000E+00 -0.45593999997E+02  0.45594000000E+02  0.51100000000E-03 0. -1.
    9900012    2    1    2    0    0  0.99427034847E+00 -0.34264084013E+02  0.21866628263E+02  0.50528862547E+02  0.30000008199E+02 0.  0.
         12    1    1    2    0    0 -0.99427034847E+00  0.34264084013E+02 -0.21866628263E+02  0.40659137453E+02  0.00000000000E+00 0. -1.
         11    1    3    3    0    0  0.88957905992E+01 -0.15880685169E+02  0.35635546023E+01  0.18548050396E+02  0.51100000000E-03 0. -1.
        -11    1    3    3    0    0  0.38655624777E+01 -0.65454392195E+01  0.11864177059E+02  0.14090565830E+02  0.51100000000E-03 0.  1.
        -12    1    3    3    0    0 -0.11767082728E+02 -0.11837959625E+02  0.64388966019E+01  0.17890246322E+02  0.00000000000E+00 0.  1.
</event>
<event>
 7    1  0.2746803E-013  0.5052887E+02  0.7816164E-02  0.1300439E+00
        -11   -1    0    0    0    0  0.00000000000E+00  0.00000000000E+00  0.45593999997E+02  0.45594000000E+02  0.51100000000E-03 0.  1.
         11   -1    0    0    0    0 -0.00000000000E+00 -0.00000000000E+00 -0.45593999997E+02  0.45594000000E+02  0.51100000000E-03 0. -1.
    9900012    2    1    2    0    0 -0.93536935750E+01 -0.13361677014E+02  0.37244317627E+02  0.50528865828E+02  0.30000018169E+02 0.  0.
         12    1    1    2    0    0  0.93536935750E+01  0.13361677014E+02 -0.37244317627E+02  0.40659134172E+02  0.00000000000E+00 0. -1.
         11    1    3    3    0    0 -0.29601733494E+00  0.35463867831E+01 -0.10113448979E+01  0.36996356904E+01  0.51100000000E-03 0. -1.
        -11    1    3    3    0    0 -0.13115084730E+02 -0.49849328322E+01  0.24058091254E+02  0.27850435506E+02  0.51100000000E-03 0.  1.
         12    1    3    3    0    0  0.40574084895E+01 -0.11923130965E+02  0.14197571271E+02  0.18978794631E+02  0.00000000000E+00 0. -1.
</event>
<event>
 7    1  0.2746803E-013  0.5052884E+02  0.7816164E-02  0.1300439E+00
        -11   -1    0    0    0    0  0.00000000000E+00  0.00000000000E+00  0.45593999997E+02  0.45594000000E+02  0.51100000000E-03 0.  1.
         11   -1    0    0    0    0 -0.00000000000E+00 -0.00000000000E+00 -0.45593999997E+02  0.45594000000E+02  0.51100000000E-03 0. -1.
    9900012    2    1    2    0    0 -0.20442331297E+02 -0.35146511533E+02 -0.26968290892E-01  0.50528844708E+02  0.29999953974E+02 0.  0.
         12    1    1    2    0    0  0.20442331297E+02  0.35146511533E+02  0.26968290892E-01  0.40659155292E+02  0.00000000000E+00 0. -1.
         11    1    3    3    0    0 -0.19938942353E+02 -0.22669279517E+02  0.10856229787E+02  0.32082945336E+02  0.51100000000E-03 0.  1.
        -11    1    3    3    0    0  0.12547477872E+01 -0.68962269474E+01 -0.11700726304E+01  0.71064342916E+01  0.51100000000E-03 0. -1.
        -12    1    3    3    0    0 -0.17581367307E+01 -0.55810050688E+01 -0.97131254476E+01  0.11339465080E+02  0.00000000000E+00 0.  1.
</event>
<event>
 7    1  0.2746803E-013  0.5052886E+02  0.7816164E-02  0.1300439E+00
        -11   -1    0    0    0    0  0.00000000000E+00  0.00000000000E+00  0.45593999997E+02  0.45594000000E+02  0.51100000000E-03 0.  1.
         11   -1    0    0    0    0 -0.00000000000E+00 -0.00000000000E+00 -0.45593999997E+02  0.45594000000E+02  0.51100000000E-03 0. -1.
    9900012    2    1    2    0    0 -0.12845072242E+02  0.19483175491E+02  0.33295280852E+02  0.50528859144E+02  0.29999997855E+02 0.  0.
         12    1    1    2    0    0  0.12845072242E+02 -0.19483175491E+02 -0.33295280852E+02  0.40659140856E+02  0.00000000000E+00 0. -1.
         11    1    3    3    0    0  0.49388313750E+01  0.13006697312E+02  0.18633071800E+02  0.23254195220E+02  0.51100000000E-03 0.  1.
        -11    1    3    3    0    0 -0.25199797923E+01 -0.38159021935E+01  0.33260683272E+01  0.56545679307E+01  0.51100000000E-03 0. -1.
        -12    1    3    3    0    0 -0.15263923825E+02  0.10292380372E+02  0.11336140724E+02  0.21620095994E+02  0.00000000000E+00 0.  1.
</event>
<event>
 7    1  0.2746803E-013  0.5052886E+02  0.7816164E-02  0.1300439E+00
        -11   -1    0    0    0    0  0.00000000000E+00  0.00000000000E+00  0.45593999997E+02  0.45594000000E+02  0.51100000000E-03 0. -1.
         11   -1    0    0    0    0 -0.00000000000E+00 -0.00000000000E+00 -0.45593999997E+02  0.45594000000E+02  0.51100000000E-03 0.  1.
    9900012    2    1    2    0    0 -0.16475874425E+02 -0.16743309970E+02 -0.33186942734E+02  0.50528855458E+02  0.29999986650E+02 0.  0.
         12    1    1    2    0    0  0.16475874425E+02  0.16743309970E+02  0.33186942734E+02  0.40659144542E+02  0.00000000000E+00 0. -1.
         11    1    3    3    0    0 -0.20279547668E+01 -0.34431833756E+01 -0.28863836991E+01  0.49294343909E+01  0.51100000000E-03 0. -1.
        -11    1    3    3    0    0  0.55722396129E+01 -0.10683167357E+02 -0.45554851977E+01  0.12881473702E+02  0.51100000000E-03 0.  1.
         12    1    3    3    0    0 -0.20020159271E+02 -0.26169592372E+01 -0.25745073838E+02  0.32717947365E+02  0.00000000000E+00 0. -1.
</event>
<event>
 7    1  0.2746803E-013  0.5052886E+02  0.7816164E-02  0.1300439E+00
        -11   -1    0    0    0    0  0.00000000000E+00  0.00000000000E+00  0.45593999997E+02  0.45594000000E+02  0.51100000000E-03 0. -1.
         11   -1    0    0    0    0 -0.00000000000E+00 -0.00000000000E+00 -0.45593999997E+02  0.45594000000E+02  0.51100000000E-03 0.  1.
    9900012    2    1    2    0    0 -0.37280469406E+02  0.13820780566E+02  0.85040094372E+01  0.50528861408E+02  0.30000004735E+02 0.  0.
         12    1    1    2    0    0  0.37280469406E+02 -0.13820780566E+02 -0.85040094372E+01  0.40659138592E+02  0.00000000000E+00 0. -1.
         11    1    3    3    0    0 -0.37630570600E+01 -0.21600012543E+01 -0.14486921005E+01  0.45743756862E+01  0.51100000000E-03 0.  1.
        -11    1    3    3    0    0 -0.53238340258E+00  0.10529338182E+02  0.64011435304E+01  0.12333897737E+02  0.51100000000E-03 0. -1.
         12    1    3    3    0    0 -0.32985028943E+02  0.54514436378E+01  0.35515580073E+01  0.33620587984E+02  0.00000000000E+00 0. -1.
</event>
<event>
 7    1  0.2746803E-013  0.5052885E+02  0.7816164E-02  0.1300439E+00
        -11   -1    0    0    0    0  0.00000000000E+00  0.00000000000E+00  0.45593999997E+02  0.45594000000E+02  0.51100000000E-03 0.  1.
         11   -1    0    0    0    0 -0.00000000000E+00 -0.00000000000E+00 -0.45593999997E+02  0.45594000000E+02  0.51100000000E-03 0. -1.
    9900012    2    1    2    0    0  0.35932104271E+02  0.52601096676E-01  0.19027541452E+02  0.50528853207E+02  0.29999979807E+02 0.  0.
         12    1    1    2    0    0 -0.35932104271E+02 -0.52601096676E-01 -0.19027541452E+02  0.40659146793E+02  0.00000000000E+00 0. -1.
         11    1    3    3    0    0  0.22509700437E+01 -0.28021792680E+01  0.90935397266E+01  0.97781153506E+01  0.51100000000E-03 0. -1.
        -11    1    3    3    0    0  0.16147156852E+02  0.73325088735E+01  0.13522795744E+02  0.22301622492E+02  0.51100000000E-03 0.  1.
        -12    1    3    3    0    0  0.17533977376E+02 -0.44777285088E+01 -0.35887940188E+01  0.18449115365E+02  0.00000000000E+00 0.  1.
</event>
<event>
 7    1  0.2746803E-013  0.5052885E+02  0.7816164E-02  0.1300439E+00
        -11   -1    0    0    0    0  0.00000000000E+00  0.00000000000E+00  0.45593999997E+02  0.45594000000E+02  0.51100000000E-03 0. -1.
         11   -1    0    0    0    0 -0.00000000000E+00 -0.00000000000E+00 -0.45593999997E+02  0.45594000000E+02  0.51100000000E-03 0.  1.
    9900012    2    1    2    0    0  0.33109113513E+02 -0.21610575181E+02 -0.94834590895E+01  0.50528851539E+02  0.29999974737E+02 0.  0.
         12    1    1    2    0    0 -0.33109113513E+02  0.21610575181E+02  0.94834590895E+01  0.40659148461E+02  0.00000000000E+00 0. -1.
         11    1    3    3    0    0  0.16838517399E+02  0.16353679247E+01 -0.30190117600E+01  0.17185008836E+02  0.51100000000E-03 0. -1.
        -11    1    3    3    0    0  0.44028192977E+01 -0.43725999726E+01 -0.89719408762E+01  0.10908719982E+02  0.51100000000E-03 0.  1.
         12    1    3    3    0    0  0.11867776817E+02 -0.18873343133E+02  0.25074935467E+01  0.22435122721E+02  0.00000000000E+00 0. -1.
</event>
<event>
 7    1  0.2746803E-013  0.5052886E+02  0.7816164E-02  0.1300439E+00
        -11   -1    0    0    0    0  0.00000000000E+00  0.00000000000E+00  0.45593999997E+02  0.45594000000E+02  0.51100000000E-03 0. -1.
         11   -1    0    0    0    0 -0.00000000000E+00 -0.00000000000E+00 -0.45593999997E+02  0.45594000000E+02  0.51100000000E-03 0.  1.
    9900012    2    1    2    0    0  0.31817516291E+02  0.24522503653E+02 -0.62815790167E+01  0.50528858798E+02  0.29999996802E+02 0.  0.
         12    1    1    2    0    0 -0.31817516291E+02 -0.24522503653E+02  0.62815790167E+01  0.40659141202E+02  0.00000000000E+00 0. -1.
         11    1    3    3    0    0  0.99558194459E+00  0.13325291763E+02 -0.91110045887E+00  0.13393456921E+02  0.51100000000E-03 0. -1.
        -11    1    3    3    0    0  0.20708891685E+02  0.15142298638E+02 -0.18393923613E+01  0.25720240422E+02  0.51100000000E-03 0.  1.
        -12    1    3    3    0    0  0.10113042661E+02 -0.39450867476E+01 -0.35310861966E+01  0.11415161455E+02  0.00000000000E+00 0.  1.
</event>
<event>
 7    1  0.2746803E-013  0.5052884E+02  0.7816164E-02  0.1300439E+00
        -11   -1    0    0    0    0  0.00000000000E+00  0.00000000000E+00  0.45593999997E+02  0.45594000000E+02  0.51100000000E-03 0.  1.
         11   -1    0    0    0    0 -0.00000000000E+00 -0.00000000000E+00 -0.45593999997E+02  0.45594000000E+02  0.51100000000E-03 0. -1.
    9900012    2    1    2    0    0 -0.13479982133E+02 -0.20726995502E+02  0.32277681878E+02  0.50528843488E+02  0.29999950265E+02 0.  0.
         12    1    1    2    0    0  0.13479982133E+02  0.20726995502E+02 -0.32277681878E+02  0.40659156512E+02  0.00000000000E+00 0. -1.
         11    1    3    3    0    0 -0.20986627351E+01 -0.18604778762E+02  0.11881243208E+02  0.22174447422E+02  0.51100000000E-03 0. -1.
        -11    1    3    3    0    0 -0.12538668504E+02 -0.68408647350E+01  0.17874271610E+02  0.22880236538E+02  0.51100000000E-03 0.  1.
         12    1    3    3    0    0  0.11573491067E+01  0.47186479946E+01  0.25221670603E+01  0.54741595274E+01  0.00000000000E+00 0. -1.
</event>
<event>
 7    1  0.2746803E-013  0.5052888E+02  0.7816164E-02  0.1300439E+00
        -11   -1    0    0    0    0  0.00000000000E+00  0.00000000000E+00  0.45593999997E+02  0.45594000000E+02  0.51100000000E-03 0. -1.
         11   -1    0    0    0    0 -0.00000000000E+00 -0.00000000000E+00 -0.45593999997E+02  0.45594000000E+02  0.51100000000E-03 0.  1.
    9900012    2    1    2    0    0 -0.38037355799E+02  0.11776697497E+02 -0.82239242993E+01  0.50528880839E+02  0.30000063797E+02 0.  0.
         12    1    1    2    0    0  0.38037355799E+02 -0.11776697497E+02  0.82239242993E+01  0.40659119161E+02  0.00000000000E+00 0. -1.
         11    1    3    3    0    0 -0.10551545676E+02  0.52552931399E+01 -0.10467169722E+02  0.15764354233E+02  0.51100000000E-03 0. -1.
        -11    1    3    3    0    0 -0.30803046744E+01  0.24123285021E+01 -0.72652859653E+01  0.82517868434E+01  0.51100000000E-03 0.  1.
        -12    1    3    3    0    0 -0.24405505448E+02  0.41090758552E+01  0.95085313876E+01  0.26512739762E+02  0.00000000000E+00 0.  1.
</event>
<event>
 7    1  0.2746803E-013  0.5052887E+02  0.7816164E-02  0.1300439E+00
        -11   -1    0    0    0    0  0.00000000000E+00  0.00000000000E+00  0.45593999997E+02  0.45594000000E+02  0.51100000000E-03 0. -1.
         11   -1    0    0    0    0 -0.00000000000E+00 -0.00000000000E+00 -0.45593999997E+02  0.45594000000E+02  0.51100000000E-03 0.  1.
    9900012    2    1    2    0    0 -0.33749178197E+02 -0.21576402198E+02  0.69725583061E+01  0.50528871503E+02  0.30000035420E+02 0.  0.
         12    1    1    2    0    0  0.33749178197E+02  0.21576402198E+02 -0.69725583061E+01  0.40659128497E+02  0.00000000000E+00 0. -1.
         11    1    3    3    0    0 -0.19844352378E+00 -0.53363549057E+00 -0.20549709855E+01  0.21323819267E+01  0.51100000000E-03 0. -1.
        -11    1    3    3    0    0  0.41953164556E+01 -0.45813626147E+01  0.25306684659E+01  0.67077452781E+01  0.51100000000E-03 0.  1.
        -12    1    3    3    0    0 -0.37746051129E+02 -0.16461404093E+02  0.64968608257E+01  0.41688744298E+02  0.00000000000E+00 0.  1.
</event>
<event>
 7    1  0.2746803E-013  0.5052886E+02  0.7816164E-02  0.1300439E+00
        -11   -1    0    0    0    0  0.00000000000E+00  0.00000000000E+00  0.45593999997E+02  0.45594000000E+02  0.51100000000E-03 0. -1.
         11   -1    0    0    0    0 -0.00000000000E+00 -0.00000000000E+00 -0.45593999997E+02  0.45594000000E+02  0.51100000000E-03 0.  1.
    9900012    2    1    2    0    0 -0.13851279473E+02 -0.32079090963E+02 -0.20790375615E+02  0.50528859106E+02  0.29999997738E+02 0.  0.
         12    1    1    2    0    0  0.13851279473E+02  0.32079090963E+02  0.20790375615E+02  0.40659140894E+02  0.00000000000E+00 0. -1.
         11    1    3    3    0    0 -0.11292648291E+02 -0.48982682858E+01 -0.70221034405E+01  0.14171339902E+02  0.51100000000E-03 0. -1.
        -11    1    3    3    0    0 -0.55481128992E+01 -0.12316951927E+02  0.29090933098E+01  0.13818526899E+02  0.51100000000E-03 0.  1.
         12    1    3    3    0    0  0.29894817175E+01 -0.14863870750E+02 -0.16677365484E+02  0.22538992305E+02  0.00000000000E+00 0. -1.
</event>
<event>
 7    1  0.2746803E-013  0.5052886E+02  0.7816164E-02  0.1300439E+00
        -11   -1    0    0    0    0  0.00000000000E+00  0.00000000000E+00  0.45593999997E+02  0.45594000000E+02  0.51100000000E-03 0.  1.
         11   -1    0    0    0    0 -0.00000000000E+00 -0.00000000000E+00 -0.45593999997E+02  0.45594000000E+02  0.51100000000E-03 0. -1.
    9900012    2    1    2    0    0  0.16420441402E+02  0.65578765562E+01  0.36613238396E+02  0.50528857527E+02  0.29999992940E+02 0.  0.
         12    1    1    2    0    0 -0.16420441402E+02 -0.65578765562E+01 -0.36613238396E+02  0.40659142473E+02  0.00000000000E+00 0. -1.
         11    1    3    3    0    0 -0.22355123469E+00  0.43460504587E+00  0.58508652876E+01  0.58712419108E+01  0.51100000000E-03 0. -1.
        -11    1    3    3    0    0  0.23439414834E+02  0.87392590312E+01  0.22513950360E+02  0.33654996319E+02  0.51100000000E-03 0.  1.
        -12    1    3    3    0    0 -0.67954221979E+01 -0.26159875209E+01  0.82484227487E+01  0.11002619297E+02  0.00000000000E+00 0.  1.
</event>
<event>
 7    1  0.2746803E-013  0.5052887E+02  0.7816164E-02  0.1300439E+00
        -11   -1    0    0    0    0  0.00000000000E+00  0.00000000000E+00  0.45593999997E+02  0.45594000000E+02  0.51100000000E-03 0.  1.
         11   -1    0    0    0    0 -0.00000000000E+00 -0.00000000000E+00 -0.45593999997E+02  0.45594000000E+02  0.51100000000E-03 0. -1.
    9900012    2    1    2    0    0 -0.12742926463E+02  0.35913666303E+02  0.14177142367E+02  0.50528868580E+02  0.30000026534E+02 0.  0.
         12    1    1    2    0    0  0.12742926463E+02 -0.35913666303E+02 -0.14177142367E+02  0.40659131420E+02  0.00000000000E+00 0. -1.
         11    1    3    3    0    0 -0.14610696100E+01 -0.28739998657E+01  0.32809990303E+01  0.45999515792E+01  0.51100000000E-03 0. -1.
        -11    1    3    3    0    0 -0.21261947591E+01  0.21957416695E+02  0.14547097435E+02  0.26424740228E+02  0.51100000000E-03 0.  1.
        -12    1    3    3    0    0 -0.91556620935E+01  0.16830249474E+02 -0.36509540986E+01  0.19504176772E+02  0.00000000000E+00 0.  1.
</event>
<event>
 7    1  0.2746803E-013  0.5052887E+02  0.7816164E-02  0.1300439E+00
        -11   -1    0    0    0    0  0.00000000000E+00  0.00000000000E+00  0.45593999997E+02  0.45594000000E+02  0.51100000000E-03 0.  1.
         11   -1    0    0    0    0 -0.00000000000E+00 -0.00000000000E+00 -0.45593999997E+02  0.45594000000E+02  0.51100000000E-03 0. -1.
    9900012    2    1    2    0    0  0.21159641144E+02 -0.49184082852E+01  0.34369231343E+02  0.50528865521E+02  0.30000017239E+02 0.  0.
         12    1    1    2    0    0 -0.21159641144E+02  0.49184082852E+01 -0.34369231343E+02  0.40659134479E+02  0.00000000000E+00 0. -1.
         11    1    3    3    0    0  0.34643080711E+01 -0.67383091248E+01 -0.43191379676E+00  0.75889913732E+01  0.51100000000E-03 0. -1.
        -11    1    3    3    0    0 -0.13441983398E+01 -0.45134348095E+01  0.98794362082E+01  0.10944460837E+02  0.51100000000E-03 0.  1.
        -12    1    3    3    0    0  0.19039531413E+02  0.63333356490E+01  0.24921708932E+02  0.31995413311E+02  0.00000000000E+00 0.  1.
</event>
<event>
 7    1  0.2746803E-013  0.5052885E+02  0.7816164E-02  0.1300439E+00
        -11   -1    0    0    0    0  0.00000000000E+00  0.00000000000E+00  0.45593999997E+02  0.45594000000E+02  0.51100000000E-03 0. -1.
         11   -1    0    0    0    0 -0.00000000000E+00 -0.00000000000E+00 -0.45593999997E+02  0.45594000000E+02  0.51100000000E-03 0.  1.
    9900012    2    1    2    0    0 -0.31899464480E+02  0.57376014043E+01 -0.24549341633E+02  0.50528854920E+02  0.29999985015E+02 0.  0.
         12    1    1    2    0    0  0.31899464480E+02 -0.57376014043E+01  0.24549341633E+02  0.40659145080E+02  0.00000000000E+00 0. -1.
         11    1    3    3    0    0 -0.27700733881E+02  0.64555526505E+00 -0.18067773077E+02  0.33078570455E+02  0.51100000000E-03 0. -1.
        -11    1    3    3    0    0 -0.39512474255E+01 -0.13180782438E+01 -0.94908253649E+01  0.10364625070E+02  0.51100000000E-03 0.  1.
         12    1    3    3    0    0 -0.24748317381E+00  0.64101243830E+01  0.30092568083E+01  0.70856593952E+01  0.00000000000E+00 0. -1.
</event>
<event>
 7    1  0.2746803E-013  0.5052893E+02  0.7816164E-02  0.1300439E+00
        -11   -1    0    0    0    0  0.00000000000E+00  0.00000000000E+00  0.45593999997E+02  0.45594000000E+02  0.51100000000E-03 0. -1.
         11   -1    0    0    0    0 -0.00000000000E+00 -0.00000000000E+00 -0.45593999997E+02  0.45594000000E+02  0.51100000000E-03 0.  1.
    9900012    2    1    2    0    0 -0.22316626714E+02  0.19608978284E+02 -0.27759973178E+02  0.50528930064E+02  0.30000213421E+02 0.  0.
         12    1    1    2    0    0  0.22316626714E+02 -0.19608978284E+02  0.27759973178E+02  0.40659069936E+02  0.00000000000E+00 0. -1.
         11    1    3    3    0    0 -0.19875880981E+02  0.12254587574E+02 -0.12285852339E+02  0.26384990607E+02  0.51100000000E-03 0. -1.
        -11    1    3    3    0    0  0.10962349056E+01  0.32113466234E+01  0.32165868263E+01  0.46755651183E+01  0.51100000000E-03 0.  1.
        -12    1    3    3    0    0 -0.35369806386E+01  0.41430440873E+01 -0.18690707665E+02  0.19468374338E+02  0.00000000000E+00 0.  1.
</event>
<event>
 7    1  0.2746803E-013  0.5052886E+02  0.7816164E-02  0.1300439E+00
        -11   -1    0    0    0    0  0.00000000000E+00  0.00000000000E+00  0.45593999997E+02  0.45594000000E+02  0.51100000000E-03 0.  1.
         11   -1    0    0    0    0 -0.00000000000E+00 -0.00000000000E+00 -0.45593999997E+02  0.45594000000E+02  0.51100000000E-03 0. -1.
    9900012    2    1    2    0    0 -0.29018630193E+02  0.16990841971E+01  0.28428824967E+02  0.50528857432E+02  0.29999992650E+02 0.  0.
         12    1    1    2    0    0  0.29018630193E+02 -0.16990841971E+01 -0.28428824967E+02  0.40659142568E+02  0.00000000000E+00 0. -1.
         11    1    3    3    0    0 -0.14438475827E+02  0.12876487338E+01  0.18171324717E+02  0.23244884721E+02  0.51100000000E-03 0. -1.
        -11    1    3    3    0    0 -0.12440546108E+02 -0.86310269188E+01  0.96856378847E+01  0.17974242533E+02  0.51100000000E-03 0.  1.
         12    1    3    3    0    0 -0.21396082588E+01  0.90424623820E+01  0.57186236543E+00  0.93097301785E+01  0.00000000000E+00 0. -1.
</event>
<event>
 7    1  0.2746803E-013  0.5052885E+02  0.7816164E-02  0.1300439E+00
        -11   -1    0    0    0    0  0.00000000000E+00  0.00000000000E+00  0.45593999997E+02  0.45594000000E+02  0.51100000000E-03 0.  1.
         11   -1    0    0    0    0 -0.00000000000E+00 -0.00000000000E+00 -0.45593999997E+02  0.45594000000E+02  0.51100000000E-03 0. -1.
    9900012    2    1    2    0    0  0.22391245142E+01 -0.12289949276E+02  0.38692500867E+02  0.50528853979E+02  0.29999982154E+02 0.  0.
         12    1    1    2    0    0 -0.22391245142E+01  0.12289949276E+02 -0.38692500867E+02  0.40659146021E+02  0.00000000000E+00 0. -1.
         11    1    3    3    0    0  0.90515239390E+01 -0.38503234244E+01  0.50743320114E+01  0.11068148974E+02  0.51100000000E-03 0. -1.
        -11    1    3    3    0    0 -0.44928132732E+01 -0.13636220615E+02  0.27986823899E+02  0.31454637114E+02  0.51100000000E-03 0.  1.
         12    1    3    3    0    0 -0.23195861516E+01  0.51965947630E+01  0.56313449572E+01  0.80060678908E+01  0.00000000000E+00 0. -1.
</event>
<event>
 7    1  0.2746803E-013  0.5052886E+02  0.7816164E-02  0.1300439E+00
        -11   -1    0    0    0    0  0.00000000000E+00  0.00000000000E+00  0.45593999997E+02  0.45594000000E+02  0.51100000000E-03 0. -1.
         11   -1    0    0    0    0 -0.00000000000E+00 -0.00000000000E+00 -0.45593999997E+02  0.45594000000E+02  0.51100000000E-03 0.  1.
    9900012    2    1    2    0    0 -0.24359712942E+02  0.24747450282E+02 -0.21150260676E+02  0.50528862813E+02  0.30000009008E+02 0.  0.
         12    1    1    2    0    0  0.24359712942E+02 -0.24747450282E+02  0.21150260676E+02  0.40659137187E+02  0.00000000000E+00 0. -1.
         11    1    3    3    0    0 -0.84984911210E+01  0.63970408028E+01 -0.15332180583E+02  0.18660713921E+02  0.51100000000E-03 0.  1.
        -11    1    3    3    0    0 -0.16426552150E+02  0.21065254718E+02 -0.15237531187E+01  0.26756277688E+02  0.51100000000E-03 0. -1.
         12    1    3    3    0    0  0.56533032842E+00 -0.27148452387E+01 -0.42943269743E+01  0.51118712046E+01  0.00000000000E+00 0. -1.
</event>
<event>
 7    1  0.2746803E-013  0.5052886E+02  0.7816164E-02  0.1300439E+00
        -11   -1    0    0    0    0  0.00000000000E+00  0.00000000000E+00  0.45593999997E+02  0.45594000000E+02  0.51100000000E-03 0.  1.
         11   -1    0    0    0    0 -0.00000000000E+00 -0.00000000000E+00 -0.45593999997E+02  0.45594000000E+02  0.51100000000E-03 0. -1.
    9900012    2    1    2    0    0 -0.89316466117E+01 -0.22703458202E+02  0.32526060470E+02  0.50528856684E+02  0.29999990375E+02 0.  0.
         12    1    1    2    0    0  0.89316466117E+01  0.22703458202E+02 -0.32526060470E+02  0.40659143316E+02  0.00000000000E+00 0. -1.
         11    1    3    3    0    0 -0.20687238649E+01 -0.75989126804E+01 -0.25105022426E+01  0.82659369781E+01  0.51100000000E-03 0. -1.
        -11    1    3    3    0    0  0.46126236715E+01 -0.63824311927E+01  0.61927012105E+01  0.10018047395E+02  0.51100000000E-03 0.  1.
        -12    1    3    3    0    0 -0.11475546418E+02 -0.87221143284E+01  0.28843861502E+02  0.32244872311E+02  0.00000000000E+00 0.  1.
</event>
<event>
 7    1  0.2746803E-013  0.5052888E+02  0.7816164E-02  0.1300439E+00
        -11   -1    0    0    0    0  0.00000000000E+00  0.00000000000E+00  0.45593999997E+02  0.45594000000E+02  0.51100000000E-03 0.  1.
         11   -1    0    0    0    0 -0.00000000000E+00 -0.00000000000E+00 -0.45593999997E+02  0.45594000000E+02  0.51100000000E-03 0. -1.
    9900012    2    1    2    0    0 -0.30739129699E+02 -0.19669792740E+02  0.17926776493E+02  0.50528878557E+02  0.30000056862E+02 0.  0.
         12    1    1    2    0    0  0.30739129699E+02  0.19669792740E+02 -0.17926776493E+02  0.40659121443E+02  0.00000000000E+00 0. -1.
         11    1    3    3    0    0 -0.47925482624E+01  0.37126487410E+01  0.43573376503E+01  0.74658335892E+01  0.51100000000E-03 0. -1.
        -11    1    3    3    0    0 -0.15621991945E+01 -0.91529672246E+01  0.11463240145E+02  0.14752055796E+02  0.51100000000E-03 0.  1.
        -12    1    3    3    0    0 -0.24384382242E+02 -0.14229474256E+02  0.21061986978E+01  0.28310989172E+02  0.00000000000E+00 0.  1.
</event>
<event>
 7    1  0.2746803E-013  0.5052886E+02  0.7816164E-02  0.1300439E+00
        -11   -1    0    0    0    0  0.00000000000E+00  0.00000000000E+00  0.45593999997E+02  0.45594000000E+02  0.51100000000E-03 0.  1.
         11   -1    0    0    0    0 -0.00000000000E+00 -0.00000000000E+00 -0.45593999997E+02  0.45594000000E+02  0.51100000000E-03 0. -1.
    9900012    2    1    2    0    0 -0.16104538899E+02  0.36117631396E+02  0.94512387010E+01  0.50528863465E+02  0.30000010987E+02 0.  0.
         12    1    1    2    0    0  0.16104538899E+02 -0.36117631396E+02 -0.94512387010E+01  0.40659136535E+02  0.00000000000E+00 0. -1.
         11    1    3    3    0    0 -0.87031861069E+01  0.11883148144E+02  0.99851876195E+00  0.14763187265E+02  0.51100000000E-03 0. -1.
        -11    1    3    3    0    0 -0.55216018648E+01  0.27127921156E+02  0.12561127535E+02  0.30400561157E+02  0.51100000000E-03 0.  1.
         12    1    3    3    0    0 -0.18797509272E+01 -0.28934379048E+01 -0.41084075957E+01  0.53651150435E+01  0.00000000000E+00 0. -1.
</event>
<event>
 7    1  0.2746803E-013  0.5052886E+02  0.7816164E-02  0.1300439E+00
        -11   -1    0    0    0    0  0.00000000000E+00  0.00000000000E+00  0.45593999997E+02  0.45594000000E+02  0.51100000000E-03 0. -1.
         11   -1    0    0    0    0 -0.00000000000E+00 -0.00000000000E+00 -0.45593999997E+02  0.45594000000E+02  0.51100000000E-03 0.  1.
    9900012    2    1    2    0    0  0.13343800385E+02 -0.35500926722E+02 -0.14655815753E+02  0.50528859057E+02  0.29999997590E+02 0.  0.
         12    1    1    2    0    0 -0.13343800385E+02  0.35500926722E+02  0.14655815753E+02  0.40659140943E+02  0.00000000000E+00 0. -1.
         11    1    3    3    0    0  0.33108106347E+01  0.14696009953E+01  0.35721557307E+01  0.50873854748E+01  0.51100000000E-03 0. -1.
        -11    1    3    3    0    0 -0.19833013019E+01 -0.22866679329E+02 -0.82004620725E+01  0.24373470948E+02  0.51100000000E-03 0.  1.
        -12    1    3    3    0    0  0.12016291052E+02 -0.14103848389E+02 -0.10027509411E+02  0.21068002635E+02  0.00000000000E+00 0.  1.
</event>
<event>
 7    1  0.2746803E-013  0.5052883E+02  0.7816164E-02  0.1300439E+00
        -11   -1    0    0    0    0  0.00000000000E+00  0.00000000000E+00  0.45593999997E+02  0.45594000000E+02  0.51100000000E-03 0.  1.
         11   -1    0    0    0    0 -0.00000000000E+00 -0.00000000000E+00 -0.45593999997E+02  0.45594000000E+02  0.51100000000E-03 0. -1.
    9900012    2    1    2    0    0 -0.16657198034E-01 -0.21435373270E+02  0.34549852436E+02  0.50528833653E+02  0.29999920370E+02 0.  0.
         12    1    1    2    0    0  0.16657198034E-01  0.21435373270E+02 -0.34549852436E+02  0.40659166347E+02  0.00000000000E+00 0. -1.
         11    1    3    3    0    0  0.80420911899E+01 -0.15710837130E+02  0.26617293263E+02  0.31937218647E+02  0.51100000000E-03 0.  1.
        -11    1    3    3    0    0 -0.12186994877E+01 -0.82214318226E+01  0.71962670378E+00  0.83423637244E+01  0.51100000000E-03 0. -1.
        -12    1    3    3    0    0 -0.68400489002E+01  0.24968956823E+01  0.72129324698E+01  0.10249251281E+02  0.00000000000E+00 0.  1.
</event>
<event>
 7    1  0.2746803E-013  0.5052886E+02  0.7816164E-02  0.1300439E+00
        -11   -1    0    0    0    0  0.00000000000E+00  0.00000000000E+00  0.45593999997E+02  0.45594000000E+02  0.51100000000E-03 0. -1.
         11   -1    0    0    0    0 -0.00000000000E+00 -0.00000000000E+00 -0.45593999997E+02  0.45594000000E+02  0.51100000000E-03 0.  1.
    9900012    2    1    2    0    0  0.14824592233E+02 -0.31696087775E+02 -0.20706408526E+02  0.50528857496E+02  0.29999992845E+02 0.  0.
         12    1    1    2    0    0 -0.14824592233E+02  0.31696087775E+02  0.20706408526E+02  0.40659142504E+02  0.00000000000E+00 0. -1.
         11    1    3    3    0    0 -0.14779959437E+01 -0.11842382549E+02 -0.45381536237E+01  0.12767980851E+02  0.51100000000E-03 0. -1.
        -11    1    3    3    0    0  0.30780417925E+01 -0.19158222942E+02 -0.40751206549E+01  0.19827215039E+02  0.51100000000E-03 0.  1.
         12    1    3    3    0    0  0.13224546385E+02 -0.69548228362E+00 -0.12093134247E+02  0.17933661606E+02  0.00000000000E+00 0. -1.
</event>
<event>
 7    1  0.2746803E-013  0.5052887E+02  0.7816164E-02  0.1300439E+00
        -11   -1    0    0    0    0  0.00000000000E+00  0.00000000000E+00  0.45593999997E+02  0.45594000000E+02  0.51100000000E-03 0. -1.
         11   -1    0    0    0    0 -0.00000000000E+00 -0.00000000000E+00 -0.45593999997E+02  0.45594000000E+02  0.51100000000E-03 0.  1.
    9900012    2    1    2    0    0 -0.28388609194E+02 -0.16062502494E+02 -0.24274430416E+02  0.50528867073E+02  0.30000021954E+02 0.  0.
         12    1    1    2    0    0  0.28388609194E+02  0.16062502494E+02  0.24274430416E+02  0.40659132927E+02  0.00000000000E+00 0. -1.
         11    1    3    3    0    0 -0.16912517052E+02 -0.98141436706E+01  0.43435672983E+00  0.19558612299E+02  0.51100000000E-03 0. -1.
        -11    1    3    3    0    0 -0.94495390397E+01 -0.34776045881E+00 -0.58806868903E+01  0.11135403179E+02  0.51100000000E-03 0.  1.
        -12    1    3    3    0    0 -0.20265531023E+01 -0.59005983647E+01 -0.18828100256E+02  0.19834851595E+02  0.00000000000E+00 0.  1.
</event>
<event>
 7    1  0.2746803E-013  0.5052888E+02  0.7816164E-02  0.1300439E+00
        -11   -1    0    0    0    0  0.00000000000E+00  0.00000000000E+00  0.45593999997E+02  0.45594000000E+02  0.51100000000E-03 0. -1.
         11   -1    0    0    0    0 -0.00000000000E+00 -0.00000000000E+00 -0.45593999997E+02  0.45594000000E+02  0.51100000000E-03 0.  1.
    9900012    2    1    2    0    0  0.30168376418E+02 -0.27201911659E+02  0.17575017001E+01  0.50528883607E+02  0.30000072212E+02 0.  0.
         12    1    1    2    0    0 -0.30168376418E+02  0.27201911659E+02 -0.17575017001E+01  0.40659116393E+02  0.00000000000E+00 0. -1.
         11    1    3    3    0    0  0.81512149959E+01 -0.10574457168E+02 -0.46824193071E+01  0.14148727898E+02  0.51100000000E-03 0.  1.
        -11    1    3    3    0    0  0.13311662739E+00  0.50201685954E+01  0.78019113073E+00  0.50821758356E+01  0.51100000000E-03 0. -1.
         12    1    3    3    0    0  0.21884044795E+02 -0.21647623087E+02  0.56597298765E+01  0.31297979873E+02  0.00000000000E+00 0. -1.
</event>
<event>
 7    1  0.2746803E-013  0.5052887E+02  0.7816164E-02  0.1300439E+00
        -11   -1    0    0    0    0  0.00000000000E+00  0.00000000000E+00  0.45593999997E+02  0.45594000000E+02  0.51100000000E-03 0.  1.
         11   -1    0    0    0    0 -0.00000000000E+00 -0.00000000000E+00 -0.45593999997E+02  0.45594000000E+02  0.51100000000E-03 0. -1.
    9900012    2    1    2    0    0  0.27909424857E+02  0.55789330735E+01  0.29036264293E+02  0.50528866535E+02  0.30000020319E+02 0.  0.
         12    1    1    2    0    0 -0.27909424857E+02 -0.55789330735E+01 -0.29036264293E+02  0.40659133465E+02  0.00000000000E+00 0. -1.
         11    1    3    3    0    0 -0.27373769299E+01 -0.59839404273E+01  0.29290695659E+01  0.72027928109E+01  0.51100000000E-03 0. -1.
        -11    1    3    3    0    0  0.15627034703E+02  0.56481015403E+01  0.20154528265E+02  0.26121069550E+02  0.51100000000E-03 0.  1.
        -12    1    3    3    0    0  0.15019767084E+02  0.59147719605E+01  0.59526664617E+01  0.17205004173E+02  0.00000000000E+00 0.  1.
</event>
<event>
 7    1  0.2746803E-013  0.5052885E+02  0.7816164E-02  0.1300439E+00
        -11   -1    0    0    0    0  0.00000000000E+00  0.00000000000E+00  0.45593999997E+02  0.45594000000E+02  0.51100000000E-03 0. -1.
         11   -1    0    0    0    0 -0.00000000000E+00 -0.00000000000E+00 -0.45593999997E+02  0.45594000000E+02  0.51100000000E-03 0.  1.
    9900012    2    1    2    0    0  0.10538785662E+01 -0.39376086586E+02 -0.10078689280E+02  0.50528845650E+02  0.29999956836E+02 0.  0.
         12    1    1    2    0    0 -0.10538785662E+01  0.39376086586E+02  0.10078689280E+02  0.40659154350E+02  0.00000000000E+00 0. -1.
         11    1    3    3    0    0 -0.79225932033E+01 -0.11887187856E+02 -0.49428334834E+00  0.14293950975E+02  0.51100000000E-03 0. -1.
        -11    1    3    3    0    0 -0.29508892732E+01 -0.16794274346E+02 -0.10775245191E+02  0.20170803343E+02  0.51100000000E-03 0.  1.
         12    1    3    3    0    0  0.11927361043E+02 -0.10694624385E+02  0.11908392593E+01  0.16064091332E+02  0.00000000000E+00 0. -1.
</event>
<event>
 7    1  0.2746803E-013  0.5052878E+02  0.7816164E-02  0.1300439E+00
        -11   -1    0    0    0    0  0.00000000000E+00  0.00000000000E+00  0.45593999997E+02  0.45594000000E+02  0.51100000000E-03 0.  1.
         11   -1    0    0    0    0 -0.00000000000E+00 -0.00000000000E+00 -0.45593999997E+02  0.45594000000E+02  0.51100000000E-03 0. -1.
    9900012    2    1    2    0    0  0.28082383158E+01  0.14234193220E+02  0.37982540506E+02  0.50528784041E+02  0.29999769571E+02 0.  0.
         12    1    1    2    0    0 -0.28082383158E+01 -0.14234193220E+02 -0.37982540506E+02  0.40659215959E+02  0.00000000000E+00 0. -1.
         11    1    3    3    0    0  0.28489367028E+01  0.49245339948E+00 -0.26800976987E+01  0.39423184325E+01  0.51100000000E-03 0. -1.
        -11    1    3    3    0    0 -0.16451415641E+01  0.11419172931E+02  0.85747328481E+01  0.14374631990E+02  0.51100000000E-03 0.  1.
        -12    1    3    3    0    0  0.16044431771E+01  0.23225668897E+01  0.32087905357E+02  0.32211833618E+02  0.00000000000E+00 0.  1.
</event>
<event>
 7    1  0.2746803E-013  0.5052887E+02  0.7816164E-02  0.1300439E+00
        -11   -1    0    0    0    0  0.00000000000E+00  0.00000000000E+00  0.45593999997E+02  0.45594000000E+02  0.51100000000E-03 0.  1.
         11   -1    0    0    0    0 -0.00000000000E+00 -0.00000000000E+00 -0.45593999997E+02  0.45594000000E+02  0.51100000000E-03 0. -1.
    9900012    2    1    2    0    0  0.19510701045E+02 -0.24216829799E+02  0.26192414581E+02  0.50528869631E+02  0.30000029730E+02 0.  0.
         12    1    1    2    0    0 -0.19510701045E+02  0.24216829799E+02 -0.26192414581E+02  0.40659130369E+02  0.00000000000E+00 0. -1.
         11    1    3    3    0    0  0.23917925134E+01 -0.13034836781E+02  0.29105785698E+01  0.13568312688E+02  0.51100000000E-03 0. -1.
        -11    1    3    3    0    0  0.11752980773E+02 -0.16924649469E+02  0.18908884998E+02  0.27966448628E+02  0.51100000000E-03 0.  1.
         12    1    3    3    0    0  0.53659277581E+01  0.57426564510E+01  0.43729510137E+01  0.89941083153E+01  0.00000000000E+00 0. -1.
</event>
<event>
 7    1  0.2746803E-013  0.5052886E+02  0.7816164E-02  0.1300439E+00
        -11   -1    0    0    0    0  0.00000000000E+00  0.00000000000E+00  0.45593999997E+02  0.45594000000E+02  0.51100000000E-03 0. -1.
         11   -1    0    0    0    0 -0.00000000000E+00 -0.00000000000E+00 -0.45593999997E+02  0.45594000000E+02  0.51100000000E-03 0.  1.
    9900012    2    1    2    0    0 -0.33978251670E+02  0.16798421889E+02  0.14712492190E+02  0.50528855998E+02  0.29999988291E+02 0.  0.
         12    1    1    2    0    0  0.33978251670E+02 -0.16798421889E+02 -0.14712492190E+02  0.40659144002E+02  0.00000000000E+00 0. -1.
         11    1    3    3    0    0 -0.62730954389E+01  0.14088206009E+01  0.11874468499E+02  0.13503314566E+02  0.51100000000E-03 0. -1.
        -11    1    3    3    0    0 -0.23998293758E+02  0.36399546939E+01  0.41875447937E+01  0.24631339897E+02  0.51100000000E-03 0.  1.
         12    1    3    3    0    0 -0.37068624732E+01  0.11749646594E+02 -0.13495211022E+01  0.12394201535E+02  0.00000000000E+00 0. -1.
</event>
<event>
 7    1  0.2746803E-013  0.5052887E+02  0.7816164E-02  0.1300439E+00
        -11   -1    0    0    0    0  0.00000000000E+00  0.00000000000E+00  0.45593999997E+02  0.45594000000E+02  0.51100000000E-03 0.  1.
         11   -1    0    0    0    0 -0.00000000000E+00 -0.00000000000E+00 -0.45593999997E+02  0.45594000000E+02  0.51100000000E-03 0. -1.
    9900012    2    1    2    0    0 -0.15792556148E+02  0.23566862039E+02  0.29126669874E+02  0.50528871702E+02  0.30000036024E+02 0.  0.
         12    1    1    2    0    0  0.15792556148E+02 -0.23566862039E+02 -0.29126669874E+02  0.40659128298E+02  0.00000000000E+00 0. -1.
         11    1    3    3    0    0 -0.32039044811E+01 -0.20274927863E+01  0.72456474653E+01  0.81777220774E+01  0.51100000000E-03 0. -1.
        -11    1    3    3    0    0 -0.14924979780E+02  0.14300684892E+02  0.22808202537E+02  0.30781142166E+02  0.51100000000E-03 0.  1.
         12    1    3    3    0    0  0.23363281125E+01  0.11293669933E+02 -0.92718012814E+00  0.11570007458E+02  0.00000000000E+00 0. -1.
</event>
<event>
 7    1  0.2746803E-013  0.5052886E+02  0.7816164E-02  0.1300439E+00
        -11   -1    0    0    0    0  0.00000000000E+00  0.00000000000E+00  0.45593999997E+02  0.45594000000E+02  0.51100000000E-03 0.  1.
         11   -1    0    0    0    0 -0.00000000000E+00 -0.00000000000E+00 -0.45593999997E+02  0.45594000000E+02  0.51100000000E-03 0. -1.
    9900012    2    1    2    0    0  0.39988841468E+02 -0.42091384679E+01  0.60283634864E+01  0.50528862590E+02  0.30000008327E+02 0.  0.
         12    1    1    2    0    0 -0.39988841468E+02  0.42091384679E+01 -0.60283634864E+01  0.40659137410E+02  0.00000000000E+00 0. -1.
         11    1    3    3    0    0  0.12890095016E+02  0.21893891244E+01  0.11716562364E+01  0.13127099941E+02  0.51100000000E-03 0. -1.
        -11    1    3    3    0    0  0.11622055412E+02 -0.97108329668E+01  0.12674750896E+02  0.19748968567E+02  0.51100000000E-03 0.  1.
         12    1    3    3    0    0  0.15476691040E+02  0.33123053746E+01 -0.78180436461E+01  0.17652794081E+02  0.00000000000E+00 0. -1.
</event>
<event>
 7    1  0.2746803E-013  0.5052890E+02  0.7816164E-02  0.1300439E+00
        -11   -1    0    0    0    0  0.00000000000E+00  0.00000000000E+00  0.45593999997E+02  0.45594000000E+02  0.51100000000E-03 0.  1.
         11   -1    0    0    0    0 -0.00000000000E+00 -0.00000000000E+00 -0.45593999997E+02  0.45594000000E+02  0.51100000000E-03 0. -1.
    9900012    2    1    2    0    0 -0.14389376342E+02  0.15072701973E+02  0.34913063633E+02  0.50528898823E+02  0.30000118462E+02 0.  0.
         12    1    1    2    0    0  0.14389376342E+02 -0.15072701973E+02 -0.34913063633E+02  0.40659101177E+02  0.00000000000E+00 0. -1.
         11    1    3    3    0    0 -0.17010140632E+00  0.77200978544E+01  0.22555058299E+02  0.23840291536E+02  0.51100000000E-03 0.  1.
        -11    1    3    3    0    0 -0.85025871357E+01  0.12951793192E+02  0.95912442528E+01  0.18221824866E+02  0.51100000000E-03 0. -1.
         12    1    3    3    0    0 -0.57166878003E+01 -0.55991890732E+01  0.27667610811E+01  0.84667824209E+01  0.00000000000E+00 0. -1.
</event>
<event>
 7    1  0.2746803E-013  0.5052886E+02  0.7816164E-02  0.1300439E+00
        -11   -1    0    0    0    0  0.00000000000E+00  0.00000000000E+00  0.45593999997E+02  0.45594000000E+02  0.51100000000E-03 0.  1.
         11   -1    0    0    0    0 -0.00000000000E+00 -0.00000000000E+00 -0.45593999997E+02  0.45594000000E+02  0.51100000000E-03 0. -1.
    9900012    2    1    2    0    0 -0.52329343797E+01 -0.15825003851E+02  0.37085729360E+02  0.50528859930E+02  0.30000000242E+02 0.  0.
         12    1    1    2    0    0  0.52329343797E+01  0.15825003851E+02 -0.37085729360E+02  0.40659140070E+02  0.00000000000E+00 0. -1.
         11    1    3    3    0    0  0.48869673349E+01 -0.49915921028E+01 -0.12979088396E+01  0.71051396236E+01  0.51100000000E-03 0. -1.
        -11    1    3    3    0    0 -0.58183987743E+01 -0.99298933465E+01  0.11814993706E+02  0.16493957157E+02  0.51100000000E-03 0.  1.
        -12    1    3    3    0    0 -0.43015029403E+01 -0.90351840164E+00  0.26568644493E+02  0.26929763149E+02  0.00000000000E+00 0.  1.
</event>
<event>
 7    1  0.2746803E-013  0.5052892E+02  0.7816164E-02  0.1300439E+00
        -11   -1    0    0    0    0  0.00000000000E+00  0.00000000000E+00  0.45593999997E+02  0.45594000000E+02  0.51100000000E-03 0.  1.
         11   -1    0    0    0    0 -0.00000000000E+00 -0.00000000000E+00 -0.45593999997E+02  0.45594000000E+02  0.51100000000E-03 0. -1.
    9900012    2    1    2    0    0  0.26960228787E+02  0.29136831425E+02  0.87949736555E+01  0.50528924220E+02  0.30000195658E+02 0.  0.
         12    1    1    2    0    0 -0.26960228787E+02 -0.29136831425E+02 -0.87949736555E+01  0.40659075780E+02  0.00000000000E+00 0. -1.
         11    1    3    3    0    0  0.63859626077E+00  0.38047054835E+00 -0.15150912994E+01  0.16876210858E+01  0.51100000000E-03 0. -1.
        -11    1    3    3    0    0  0.15691456528E+02  0.28640548485E+02  0.16448248126E+02  0.36565662747E+02  0.51100000000E-03 0.  1.
        -12    1    3    3    0    0  0.10630175998E+02  0.11581239105E+00 -0.61381831706E+01  0.12275640387E+02  0.00000000000E+00 0.  1.
</event>
<event>
 7    1  0.2746803E-013  0.5052874E+02  0.7816164E-02  0.1300439E+00
        -11   -1    0    0    0    0  0.00000000000E+00  0.00000000000E+00  0.45593999997E+02  0.45594000000E+02  0.51100000000E-03 0.  1.
         11   -1    0    0    0    0 -0.00000000000E+00 -0.00000000000E+00 -0.45593999997E+02  0.45594000000E+02  0.51100000000E-03 0. -1.
    9900012    2    1    2    0    0  0.11370335159E+02 -0.24004748699E+02  0.30784131826E+02  0.50528742087E+02  0.29999642046E+02 0.  0.
         12    1    1    2    0    0 -0.11370335159E+02  0.24004748699E+02 -0.30784131826E+02  0.40659257913E+02  0.00000000000E+00 0. -1.
         11    1    3    3    0    0  0.39441838806E+00 -0.95747978245E+01  0.11610501920E+02  0.15054437032E+02  0.51100000000E-03 0. -1.
        -11    1    3    3    0    0  0.16557200869E+02 -0.16915660833E+02  0.16169644489E+02  0.28665970857E+02  0.51100000000E-03 0.  1.
         12    1    3    3    0    0 -0.55812840978E+01  0.24857099577E+01  0.30039854166E+01  0.68083341984E+01  0.00000000000E+00 0. -1.
</event>
<event>
 7    1  0.2746803E-013  0.5052886E+02  0.7816164E-02  0.1300439E+00
        -11   -1    0    0    0    0  0.00000000000E+00  0.00000000000E+00  0.45593999997E+02  0.45594000000E+02  0.51100000000E-03 0.  1.
         11   -1    0    0    0    0 -0.00000000000E+00 -0.00000000000E+00 -0.45593999997E+02  0.45594000000E+02  0.51100000000E-03 0. -1.
    9900012    2    1    2    0    0  0.25174847100E+01 -0.36546821471E+02  0.17639663446E+02  0.50528860617E+02  0.30000002331E+02 0.  0.
         12    1    1    2    0    0 -0.25174847100E+01  0.36546821471E+02 -0.17639663446E+02  0.40659139383E+02  0.00000000000E+00 0. -1.
         11    1    3    3    0    0  0.42754402642E+01 -0.50624390712E+00  0.89288334913E+00  0.43969208865E+01  0.51100000000E-03 0. -1.
        -11    1    3    3    0    0 -0.33432675528E+01 -0.23206597136E+02  0.22021247387E+02  0.32166114550E+02  0.51100000000E-03 0.  1.
         12    1    3    3    0    0  0.15853119986E+01 -0.12833980428E+02 -0.52744672900E+01  0.13965825180E+02  0.00000000000E+00 0. -1.
</event>
<event>
 7    1  0.2746803E-013  0.5052889E+02  0.7816164E-02  0.1300439E+00
        -11   -1    0    0    0    0  0.00000000000E+00  0.00000000000E+00  0.45593999997E+02  0.45594000000E+02  0.51100000000E-03 0.  1.
         11   -1    0    0    0    0 -0.00000000000E+00 -0.00000000000E+00 -0.45593999997E+02  0.45594000000E+02  0.51100000000E-03 0. -1.
    9900012    2    1    2    0    0  0.18533957123E+02  0.27672235666E+02  0.23321723070E+02  0.50528893267E+02  0.30000101573E+02 0.  0.
         12    1    1    2    0    0 -0.18533957123E+02 -0.27672235666E+02 -0.23321723070E+02  0.40659106733E+02  0.00000000000E+00 0. -1.
         11    1    3    3    0    0  0.72181912418E+01 -0.35638587415E+00  0.37789904296E+01  0.81553702934E+01  0.51100000000E-03 0. -1.
        -11    1    3    3    0    0  0.17162894528E+02  0.22071452868E+02  0.19390141724E+02  0.34024867034E+02  0.51100000000E-03 0.  1.
        -12    1    3    3    0    0 -0.58471286473E+01  0.59571686725E+01  0.15259091596E+00  0.83486559397E+01  0.00000000000E+00 0.  1.
</event>
<event>
 7    1  0.2746803E-013  0.5052886E+02  0.7816164E-02  0.1300439E+00
        -11   -1    0    0    0    0  0.00000000000E+00  0.00000000000E+00  0.45593999997E+02  0.45594000000E+02  0.51100000000E-03 0.  1.
         11   -1    0    0    0    0 -0.00000000000E+00 -0.00000000000E+00 -0.45593999997E+02  0.45594000000E+02  0.51100000000E-03 0. -1.
    9900012    2    1    2    0    0 -0.22461676889E+02  0.29928481019E+02  0.15903606341E+02  0.50528860813E+02  0.30000002927E+02 0.  0.
         12    1    1    2    0    0  0.22461676889E+02 -0.29928481019E+02 -0.15903606341E+02  0.40659139187E+02  0.00000000000E+00 0. -1.
         11    1    3    3    0    0 -0.62020435184E+01  0.12062162795E+02 -0.43094900195E+01  0.14231402587E+02  0.51100000000E-03 0. -1.
        -11    1    3    3    0    0 -0.71195379698E+00 -0.30042748254E+01  0.57422420631E+01  0.65196541018E+01  0.51100000000E-03 0.  1.
        -12    1    3    3    0    0 -0.15547679573E+02  0.20870593049E+02  0.14470854297E+02  0.29777804124E+02  0.00000000000E+00 0.  1.
</event>
<event>
 7    1  0.2746803E-013  0.5052884E+02  0.7816164E-02  0.1300439E+00
        -11   -1    0    0    0    0  0.00000000000E+00  0.00000000000E+00  0.45593999997E+02  0.45594000000E+02  0.51100000000E-03 0.  1.
         11   -1    0    0    0    0 -0.00000000000E+00 -0.00000000000E+00 -0.45593999997E+02  0.45594000000E+02  0.51100000000E-03 0. -1.
    9900012    2    1    2    0    0  0.18335926279E+02 -0.27332646142E+02  0.23872317070E+02  0.50528840393E+02  0.29999940858E+02 0.  0.
         12    1    1    2    0    0 -0.18335926279E+02  0.27332646142E+02 -0.23872317070E+02  0.40659159607E+02  0.00000000000E+00 0. -1.
         11    1    3    3    0    0 -0.11773758495E+01 -0.24686192443E+01  0.80135727862E+00  0.28499944936E+01  0.51100000000E-03 0. -1.
        -11    1    3    3    0    0  0.19045871906E+02 -0.30559916888E+02  0.19785363193E+02  0.41086668809E+02  0.51100000000E-03 0.  1.
        -12    1    3    3    0    0  0.46743022300E+00  0.56958899899E+01  0.32855965984E+01  0.65921770908E+01  0.00000000000E+00 0.  1.
</event>
<event>
 7    1  0.2746803E-013  0.5052886E+02  0.7816164E-02  0.1300439E+00
        -11   -1    0    0    0    0  0.00000000000E+00  0.00000000000E+00  0.45593999997E+02  0.45594000000E+02  0.51100000000E-03 0.  1.
         11   -1    0    0    0    0 -0.00000000000E+00 -0.00000000000E+00 -0.45593999997E+02  0.45594000000E+02  0.51100000000E-03 0. -1.
    9900012    2    1    2    0    0 -0.28073707743E+02  0.29366393120E+02  0.16271757968E+01  0.50528858194E+02  0.29999994965E+02 0.  0.
         12    1    1    2    0    0  0.28073707743E+02 -0.29366393120E+02 -0.16271757968E+01  0.40659141806E+02  0.00000000000E+00 0. -1.
         11    1    3    3    0    0 -0.28181554800E+02  0.94017874254E+01 -0.75431373517E-01  0.29708573306E+02  0.51100000000E-03 0.  1.
        -11    1    3    3    0    0 -0.16834473861E+01  0.42848111000E+01 -0.12372615473E+01  0.47670134951E+01  0.51100000000E-03 0. -1.
        -12    1    3    3    0    0  0.17912944426E+01  0.15679794595E+02  0.29398687176E+01  0.16053271392E+02  0.00000000000E+00 0.  1.
</event>
<event>
 7    1  0.2746803E-013  0.5052886E+02  0.7816164E-02  0.1300439E+00
        -11   -1    0    0    0    0  0.00000000000E+00  0.00000000000E+00  0.45593999997E+02  0.45594000000E+02  0.51100000000E-03 0.  1.
         11   -1    0    0    0    0 -0.00000000000E+00 -0.00000000000E+00 -0.45593999997E+02  0.45594000000E+02  0.51100000000E-03 0. -1.
    9900012    2    1    2    0    0  0.55258665867E+01  0.22159191669E+02  0.33639279042E+02  0.50528855009E+02  0.29999985285E+02 0.  0.
         12    1    1    2    0    0 -0.55258665867E+01 -0.22159191669E+02 -0.33639279042E+02  0.40659144991E+02  0.00000000000E+00 0. -1.
         11    1    3    3    0    0  0.10834668612E+02  0.11840693553E+02  0.95461105745E+01  0.18674054062E+02  0.51100000000E-03 0. -1.
        -11    1    3    3    0    0  0.27518504890E+01  0.11729483499E+02  0.17966955651E+02  0.21632497773E+02  0.51100000000E-03 0.  1.
         12    1    3    3    0    0 -0.80606525148E+01 -0.14109853829E+01  0.61262128166E+01  0.10222303174E+02  0.00000000000E+00 0. -1.
</event>
<event>
 7    1  0.2746803E-013  0.5052888E+02  0.7816164E-02  0.1300439E+00
        -11   -1    0    0    0    0  0.00000000000E+00  0.00000000000E+00  0.45593999997E+02  0.45594000000E+02  0.51100000000E-03 0.  1.
         11   -1    0    0    0    0 -0.00000000000E+00 -0.00000000000E+00 -0.45593999997E+02  0.45594000000E+02  0.51100000000E-03 0. -1.
    9900012    2    1    2    0    0  0.24606383227E+02 -0.59071499342E+01  0.31824449581E+02  0.50528879166E+02  0.30000058712E+02 0.  0.
         12    1    1    2    0    0 -0.24606383227E+02  0.59071499342E+01 -0.31824449581E+02  0.40659120834E+02  0.00000000000E+00 0. -1.
         11    1    3    3    0    0 -0.34281364982E+01 -0.63267738815E+01  0.27945364457E+01  0.77194314432E+01  0.51100000000E-03 0. -1.
        -11    1    3    3    0    0  0.10900874103E+02 -0.16543674431E+01  0.21119295576E+02  0.23824160714E+02  0.51100000000E-03 0.  1.
        -12    1    3    3    0    0  0.17133645623E+02  0.20739913903E+01  0.79106175597E+01  0.18985287009E+02  0.00000000000E+00 0.  1.
</event>
<event>
 7    1  0.2746803E-013  0.5052885E+02  0.7816164E-02  0.1300439E+00
        -11   -1    0    0    0    0  0.00000000000E+00  0.00000000000E+00  0.45593999997E+02  0.45594000000E+02  0.51100000000E-03 0.  1.
         11   -1    0    0    0    0 -0.00000000000E+00 -0.00000000000E+00 -0.45593999997E+02  0.45594000000E+02  0.51100000000E-03 0. -1.
    9900012    2    1    2    0    0  0.15430013212E+02 -0.11216459255E+02  0.35906432256E+02  0.50528854125E+02  0.29999982598E+02 0.  0.
         12    1    1    2    0    0 -0.15430013212E+02  0.11216459255E+02 -0.35906432256E+02  0.40659145875E+02  0.00000000000E+00 0. -1.
         11    1    3    3    0    0  0.11759771829E+02 -0.16203315043E+02  0.13907448012E+02  0.24377382188E+02  0.51100000000E-03 0. -1.
        -11    1    3    3    0    0  0.38475208990E+00  0.47339193093E+01  0.94683126210E+00  0.48429862583E+01  0.51100000000E-03 0.  1.
        -12    1    3    3    0    0  0.32854892928E+01  0.25293647923E+00  0.21052152982E+02  0.21308485679E+02  0.00000000000E+00 0.  1.
</event>
<event>
 7    1  0.2746803E-013  0.5052887E+02  0.7816164E-02  0.1300439E+00
        -11   -1    0    0    0    0  0.00000000000E+00  0.00000000000E+00  0.45593999997E+02  0.45594000000E+02  0.51100000000E-03 0.  1.
         11   -1    0    0    0    0 -0.00000000000E+00 -0.00000000000E+00 -0.45593999997E+02  0.45594000000E+02  0.51100000000E-03 0. -1.
    9900012    2    1    2    0    0 -0.97688986701E+01  0.29267661295E+02  0.26479004284E+02  0.50528867610E+02  0.30000023586E+02 0.  0.
         12    1    1    2    0    0  0.97688986701E+01 -0.29267661295E+02 -0.26479004284E+02  0.40659132390E+02  0.00000000000E+00 0. -1.
         11    1    3    3    0    0 -0.13933772239E+02  0.98852857281E+01  0.61425273563E+01  0.18154876075E+02  0.51100000000E-03 0. -1.
        -11    1    3    3    0    0  0.60701226107E+00  0.41001462113E+01 -0.23691595272E+01  0.47741575137E+01  0.51100000000E-03 0.  1.
        -12    1    3    3    0    0  0.35578613075E+01  0.15282229355E+02  0.22705636455E+02  0.27599834021E+02  0.00000000000E+00 0.  1.
</event>
<event>
 7    1  0.2746803E-013  0.5052885E+02  0.7816164E-02  0.1300439E+00
        -11   -1    0    0    0    0  0.00000000000E+00  0.00000000000E+00  0.45593999997E+02  0.45594000000E+02  0.51100000000E-03 0.  1.
         11   -1    0    0    0    0 -0.00000000000E+00 -0.00000000000E+00 -0.45593999997E+02  0.45594000000E+02  0.51100000000E-03 0. -1.
    9900012    2    1    2    0    0  0.34762692070E+02  0.21041943137E+02 -0.13993211624E+01  0.50528853051E+02  0.29999979333E+02 0.  0.
         12    1    1    2    0    0 -0.34762692070E+02 -0.21041943137E+02  0.13993211624E+01  0.40659146949E+02  0.00000000000E+00 0. -1.
         11    1    3    3    0    0  0.19057243151E+02  0.18856854030E+02  0.31107907821E+01  0.26989562426E+02  0.51100000000E-03 0. -1.
        -11    1    3    3    0    0  0.12161733276E+02  0.72622862294E+01 -0.81646408246E+01  0.16349615213E+02  0.51100000000E-03 0.  1.
         12    1    3    3    0    0  0.35437156435E+01 -0.50771971230E+01  0.36545288801E+01  0.71896754115E+01  0.00000000000E+00 0. -1.
</event>
<event>
 7    1  0.2746803E-013  0.5052886E+02  0.7816164E-02  0.1300439E+00
        -11   -1    0    0    0    0  0.00000000000E+00  0.00000000000E+00  0.45593999997E+02  0.45594000000E+02  0.51100000000E-03 0.  1.
         11   -1    0    0    0    0 -0.00000000000E+00 -0.00000000000E+00 -0.45593999997E+02  0.45594000000E+02  0.51100000000E-03 0. -1.
    9900012    2    1    2    0    0 -0.25456921912E+02  0.12690629433E+02  0.29052683553E+02  0.50528863631E+02  0.30000011493E+02 0.  0.
         12    1    1    2    0    0  0.25456921912E+02 -0.12690629433E+02 -0.29052683553E+02  0.40659136369E+02  0.00000000000E+00 0. -1.
         11    1    3    3    0    0  0.21410110944E+01  0.16833080046E+01  0.51741035195E+01  0.58471191057E+01  0.51100000000E-03 0. -1.
        -11    1    3    3    0    0 -0.37865080456E+01 -0.43616621495E+01 -0.21879757096E+01  0.61764858822E+01  0.51100000000E-03 0.  1.
        -12    1    3    3    0    0 -0.23811424961E+02  0.15368983578E+02  0.26066555743E+02  0.38505258643E+02  0.00000000000E+00 0.  1.
</event>
<event>
 7    1  0.2746803E-013  0.5052886E+02  0.7816164E-02  0.1300439E+00
        -11   -1    0    0    0    0  0.00000000000E+00  0.00000000000E+00  0.45593999997E+02  0.45594000000E+02  0.51100000000E-03 0.  1.
         11   -1    0    0    0    0 -0.00000000000E+00 -0.00000000000E+00 -0.45593999997E+02  0.45594000000E+02  0.51100000000E-03 0. -1.
    9900012    2    1    2    0    0  0.22729321891E+02  0.26902810706E+02  0.20317043031E+02  0.50528861605E+02  0.30000005335E+02 0.  0.
         12    1    1    2    0    0 -0.22729321891E+02 -0.26902810706E+02 -0.20317043031E+02  0.40659138395E+02  0.00000000000E+00 0. -1.
         11    1    3    3    0    0 -0.14898349093E+01 -0.13667640624E+01  0.43424311402E+01  0.47900271949E+01  0.51100000000E-03 0. -1.
        -11    1    3    3    0    0  0.31959753272E+01  0.30001188537E+01 -0.50745602207E+01  0.67056791694E+01  0.51100000000E-03 0.  1.
        -12    1    3    3    0    0  0.21023181473E+02  0.25269455915E+02  0.21049172111E+02  0.39033155241E+02  0.00000000000E+00 0.  1.
</event>
<event>
 7    1  0.2746803E-013  0.5052887E+02  0.7816164E-02  0.1300439E+00
        -11   -1    0    0    0    0  0.00000000000E+00  0.00000000000E+00  0.45593999997E+02  0.45594000000E+02  0.51100000000E-03 0.  1.
         11   -1    0    0    0    0 -0.00000000000E+00 -0.00000000000E+00 -0.45593999997E+02  0.45594000000E+02  0.51100000000E-03 0. -1.
    9900012    2    1    2    0    0  0.23989322738E+02 -0.73717678516E+01  0.31989600908E+02  0.50528866549E+02  0.30000020364E+02 0.  0.
         12    1    1    2    0    0 -0.23989322738E+02  0.73717678516E+01 -0.31989600908E+02  0.40659133451E+02  0.00000000000E+00 0. -1.
         11    1    3    3    0    0  0.18365135143E+02 -0.35582941483E+00  0.13371608363E+02  0.22720138949E+02  0.51100000000E-03 0. -1.
        -11    1    3    3    0    0  0.70339573945E+01 -0.73135168951E+01  0.21948132219E+02  0.24180252153E+02  0.51100000000E-03 0.  1.
         12    1    3    3    0    0 -0.14097697993E+01  0.29757845833E+00 -0.33301396738E+01  0.36284754475E+01  0.00000000000E+00 0. -1.
</event>
<event>
 7    1  0.2746803E-013  0.5052886E+02  0.7816164E-02  0.1300439E+00
        -11   -1    0    0    0    0  0.00000000000E+00  0.00000000000E+00  0.45593999997E+02  0.45594000000E+02  0.51100000000E-03 0. -1.
         11   -1    0    0    0    0 -0.00000000000E+00 -0.00000000000E+00 -0.45593999997E+02  0.45594000000E+02  0.51100000000E-03 0.  1.
    9900012    2    1    2    0    0 -0.21379742327E+02  0.11759019362E+02 -0.32523798645E+02  0.50528863307E+02  0.30000010508E+02 0.  0.
         12    1    1    2    0    0  0.21379742327E+02 -0.11759019362E+02  0.32523798645E+02  0.40659136693E+02  0.00000000000E+00 0. -1.
         11    1    3    3    0    0 -0.11543399784E+01  0.13867767491E+02 -0.20734729327E+02  0.24971513300E+02  0.51100000000E-03 0. -1.
        -11    1    3    3    0    0 -0.13707659160E+01  0.11608463239E+01  0.14328969957E+01  0.22977722789E+01  0.51100000000E-03 0.  1.
        -12    1    3    3    0    0 -0.18854636433E+02 -0.32695944530E+01 -0.13221966313E+02  0.23259577728E+02  0.00000000000E+00 0.  1.
</event>
<event>
 7    1  0.2746803E-013  0.5052891E+02  0.7816164E-02  0.1300439E+00
        -11   -1    0    0    0    0  0.00000000000E+00  0.00000000000E+00  0.45593999997E+02  0.45594000000E+02  0.51100000000E-03 0.  1.
         11   -1    0    0    0    0 -0.00000000000E+00 -0.00000000000E+00 -0.45593999997E+02  0.45594000000E+02  0.51100000000E-03 0. -1.
    9900012    2    1    2    0    0  0.29149322657E+02 -0.14172912930E+01  0.28310242911E+02  0.50528910246E+02  0.30000153182E+02 0.  0.
         12    1    1    2    0    0 -0.29149322657E+02  0.14172912930E+01 -0.28310242911E+02  0.40659089754E+02  0.00000000000E+00 0. -1.
         11    1    3    3    0    0  0.37771928823E+01  0.71786173294E+01 -0.15658598824E+01  0.82614556988E+01  0.51100000000E-03 0. -1.
        -11    1    3    3    0    0  0.13255782973E+02 -0.16741456615E+00  0.68630665139E+01  0.14928010319E+02  0.51100000000E-03 0.  1.
         12    1    3    3    0    0  0.12116346802E+02 -0.84284940562E+01  0.23013036279E+02  0.27339444228E+02  0.00000000000E+00 0. -1.
</event>
<event>
 7    1  0.2746803E-013  0.5052886E+02  0.7816164E-02  0.1300439E+00
        -11   -1    0    0    0    0  0.00000000000E+00  0.00000000000E+00  0.45593999997E+02  0.45594000000E+02  0.51100000000E-03 0.  1.
         11   -1    0    0    0    0 -0.00000000000E+00 -0.00000000000E+00 -0.45593999997E+02  0.45594000000E+02  0.51100000000E-03 0. -1.
    9900012    2    1    2    0    0  0.32870983598E+02 -0.11782884965E+02  0.20828528435E+02  0.50528861574E+02  0.30000005239E+02 0.  0.
         12    1    1    2    0    0 -0.32870983598E+02  0.11782884965E+02 -0.20828528435E+02  0.40659138426E+02  0.00000000000E+00 0. -1.
         11    1    3    3    0    0  0.12282245508E+02  0.25132899161E+01  0.22203064477E+01  0.12731847544E+02  0.51100000000E-03 0. -1.
        -11    1    3    3    0    0  0.25075762514E+02 -0.11584354360E+02  0.16255631155E+02  0.32050533164E+02  0.51100000000E-03 0.  1.
         12    1    3    3    0    0 -0.44870244229E+01 -0.27118205214E+01  0.23525908325E+01  0.57464808655E+01  0.00000000000E+00 0. -1.
</event>
<event>
 7    1  0.2746803E-013  0.5052886E+02  0.7816164E-02  0.1300439E+00
        -11   -1    0    0    0    0  0.00000000000E+00  0.00000000000E+00  0.45593999997E+02  0.45594000000E+02  0.51100000000E-03 0.  1.
         11   -1    0    0    0    0 -0.00000000000E+00 -0.00000000000E+00 -0.45593999997E+02  0.45594000000E+02  0.51100000000E-03 0. -1.
    9900012    2    1    2    0    0 -0.41249407840E+01 -0.20811995742E+02  0.34684452228E+02  0.50528861672E+02  0.30000005538E+02 0.  0.
         12    1    1    2    0    0  0.41249407840E+01  0.20811995742E+02 -0.34684452228E+02  0.40659138328E+02  0.00000000000E+00 0. -1.
         11    1    3    3    0    0  0.22005746466E+00 -0.14587189615E+02  0.16165847231E+02  0.21775425211E+02  0.51100000000E-03 0.  1.
        -11    1    3    3    0    0 -0.45204928115E+01 -0.54977387105E+01 -0.26327233854E+01  0.75888878548E+01  0.51100000000E-03 0. -1.
         12    1    3    3    0    0  0.17549456285E+00 -0.72706741641E+00  0.21151328382E+02  0.21164548606E+02  0.00000000000E+00 0. -1.
</event>
<event>
 7    1  0.2746803E-013  0.5052886E+02  0.7816164E-02  0.1300439E+00
        -11   -1    0    0    0    0  0.00000000000E+00  0.00000000000E+00  0.45593999997E+02  0.45594000000E+02  0.51100000000E-03 0.  1.
         11   -1    0    0    0    0 -0.00000000000E+00 -0.00000000000E+00 -0.45593999997E+02  0.45594000000E+02  0.51100000000E-03 0. -1.
    9900012    2    1    2    0    0 -0.12743496909E+02 -0.29385140331E+02  0.25045609951E+02  0.50528858795E+02  0.29999996793E+02 0.  0.
         12    1    1    2    0    0  0.12743496909E+02  0.29385140331E+02 -0.25045609951E+02  0.40659141205E+02  0.00000000000E+00 0. -1.
         11    1    3    3    0    0 -0.12388523581E+02 -0.11910798781E+02  0.11482239041E+02  0.20668441106E+02  0.51100000000E-03 0. -1.
        -11    1    3    3    0    0 -0.23827297442E+01 -0.18489607612E+02  0.27889866029E+01  0.18849971809E+02  0.51100000000E-03 0.  1.
         12    1    3    3    0    0  0.20277564164E+01  0.10152660626E+01  0.10774384307E+02  0.11010445880E+02  0.00000000000E+00 0. -1.
</event>
<event>
 7    1  0.2746803E-013  0.5052886E+02  0.7816164E-02  0.1300439E+00
        -11   -1    0    0    0    0  0.00000000000E+00  0.00000000000E+00  0.45593999997E+02  0.45594000000E+02  0.51100000000E-03 0.  1.
         11   -1    0    0    0    0 -0.00000000000E+00 -0.00000000000E+00 -0.45593999997E+02  0.45594000000E+02  0.51100000000E-03 0. -1.
    9900012    2    1    2    0    0  0.25686437058E+02 -0.30559466360E+02  0.77130916434E+01  0.50528858154E+02  0.29999994844E+02 0.  0.
         12    1    1    2    0    0 -0.25686437058E+02  0.30559466360E+02 -0.77130916434E+01  0.40659141846E+02  0.00000000000E+00 0. -1.
         11    1    3    3    0    0  0.11405037530E+02 -0.16250689812E+02  0.76289874231E+01  0.21268785809E+02  0.51100000000E-03 0. -1.
        -11    1    3    3    0    0 -0.39851568831E+01 -0.79363258478E+01  0.36258228319E+01  0.95923581467E+01  0.51100000000E-03 0.  1.
         12    1    3    3    0    0  0.18266556411E+02 -0.63724507002E+01 -0.35417186115E+01  0.19667714198E+02  0.00000000000E+00 0. -1.
</event>
<event>
 7    1  0.2746803E-013  0.5052884E+02  0.7816164E-02  0.1300439E+00
        -11   -1    0    0    0    0  0.00000000000E+00  0.00000000000E+00  0.45593999997E+02  0.45594000000E+02  0.51100000000E-03 0.  1.
         11   -1    0    0    0    0 -0.00000000000E+00 -0.00000000000E+00 -0.45593999997E+02  0.45594000000E+02  0.51100000000E-03 0. -1.
    9900012    2    1    2    0    0 -0.17360548402E+01  0.19994740743E+02  0.35360478712E+02  0.50528843608E+02  0.29999950630E+02 0.  0.
         12    1    1    2    0    0  0.17360548402E+01 -0.19994740743E+02 -0.35360478712E+02  0.40659156392E+02  0.00000000000E+00 0. -1.
         11    1    3    3    0    0 -0.38043394604E+01  0.21379307488E+02  0.11054129055E+02  0.24366812611E+02  0.51100000000E-03 0. -1.
        -11    1    3    3    0    0 -0.14907584521E+01 -0.35290229898E+01  0.44332596753E+01  0.58591941113E+01  0.51100000000E-03 0.  1.
        -12    1    3    3    0    0  0.35590430723E+01  0.21444562450E+01  0.19873089982E+02  0.20302836885E+02  0.00000000000E+00 0.  1.
</event>
<event>
 7    1  0.2746803E-013  0.5052887E+02  0.7816164E-02  0.1300439E+00
        -11   -1    0    0    0    0  0.00000000000E+00  0.00000000000E+00  0.45593999997E+02  0.45594000000E+02  0.51100000000E-03 0.  1.
         11   -1    0    0    0    0 -0.00000000000E+00 -0.00000000000E+00 -0.45593999997E+02  0.45594000000E+02  0.51100000000E-03 0. -1.
    9900012    2    1    2    0    0  0.29883761737E+01 -0.32779700220E+02  0.23868927956E+02  0.50528869900E+02  0.30000030549E+02 0.  0.
         12    1    1    2    0    0 -0.29883761737E+01  0.32779700220E+02 -0.23868927956E+02  0.40659130100E+02  0.00000000000E+00 0. -1.
         11    1    3    3    0    0  0.76537836808E+00  0.90522059303E+00 -0.24276373534E+01  0.27016017006E+01  0.51100000000E-03 0. -1.
        -11    1    3    3    0    0  0.11676719593E+02 -0.20136505345E+02  0.13313548663E+02  0.26815577678E+02  0.51100000000E-03 0.  1.
        -12    1    3    3    0    0 -0.94537217874E+01 -0.13548415469E+02  0.12983016646E+02  0.21011690521E+02  0.00000000000E+00 0.  1.
</event>
<event>
 7    1  0.2746803E-013  0.5052886E+02  0.7816164E-02  0.1300439E+00
        -11   -1    0    0    0    0  0.00000000000E+00  0.00000000000E+00  0.45593999997E+02  0.45594000000E+02  0.51100000000E-03 0.  1.
         11   -1    0    0    0    0 -0.00000000000E+00 -0.00000000000E+00 -0.45593999997E+02  0.45594000000E+02  0.51100000000E-03 0. -1.
    9900012    2    1    2    0    0  0.14998137977E+02 -0.12335028524E+01  0.37771684408E+02  0.50528858161E+02  0.29999994867E+02 0.  0.
         12    1    1    2    0    0 -0.14998137977E+02  0.12335028524E+01 -0.37771684408E+02  0.40659141839E+02  0.00000000000E+00 0. -1.
         11    1    3    3    0    0  0.44280441963E+01  0.27246341407E+01 -0.17372167969E+01  0.54817085900E+01  0.51100000000E-03 0. -1.
        -11    1    3    3    0    0  0.27553630050E+01 -0.97030258017E+01  0.10957175977E+02  0.14892966147E+02  0.51100000000E-03 0.  1.
        -12    1    3    3    0    0  0.78147307755E+01  0.57448888086E+01  0.28551725228E+02  0.30154183424E+02  0.00000000000E+00 0.  1.
</event>
<event>
 7    1  0.2746803E-013  0.5052881E+02  0.7816164E-02  0.1300439E+00
        -11   -1    0    0    0    0  0.00000000000E+00  0.00000000000E+00  0.45593999997E+02  0.45594000000E+02  0.51100000000E-03 0. -1.
         11   -1    0    0    0    0 -0.00000000000E+00 -0.00000000000E+00 -0.45593999997E+02  0.45594000000E+02  0.51100000000E-03 0.  1.
    9900012    2    1    2    0    0  0.44975970383E+01  0.98051065790E+01 -0.39202054928E+02  0.50528811559E+02  0.29999853214E+02 0.  0.
         12    1    1    2    0    0 -0.44975970383E+01 -0.98051065790E+01  0.39202054928E+02  0.40659188441E+02  0.00000000000E+00 0. -1.
         11    1    3    3    0    0 -0.16382157622E+01 -0.50610559047E+01 -0.41936015572E+01  0.67737974605E+01  0.51100000000E-03 0. -1.
        -11    1    3    3    0    0  0.10593325128E+02  0.55679209549E+01 -0.29984971873E+02  0.32284962745E+02  0.51100000000E-03 0.  1.
        -12    1    3    3    0    0 -0.44575123272E+01  0.92982415288E+01 -0.50234814980E+01  0.11470051353E+02  0.00000000000E+00 0.  1.
</event>
<event>
 7    1  0.2746803E-013  0.5052886E+02  0.7816164E-02  0.1300439E+00
        -11   -1    0    0    0    0  0.00000000000E+00  0.00000000000E+00  0.45593999997E+02  0.45594000000E+02  0.51100000000E-03 0. -1.
         11   -1    0    0    0    0 -0.00000000000E+00 -0.00000000000E+00 -0.45593999997E+02  0.45594000000E+02  0.51100000000E-03 0.  1.
    9900012    2    1    2    0    0 -0.25768183247E+02 -0.30692487602E+02 -0.68657065438E+01  0.50528856018E+02  0.29999988351E+02 0.  0.
         12    1    1    2    0    0  0.25768183247E+02  0.30692487602E+02  0.68657065438E+01  0.40659143982E+02  0.00000000000E+00 0. -1.
         11    1    3    3    0    0 -0.35821150593E+01 -0.11379170662E+02 -0.14224092064E+02  0.18564532544E+02  0.51100000000E-03 0. -1.
        -11    1    3    3    0    0 -0.16631837051E+02 -0.15173852786E+02  0.95956349953E+00  0.22534075850E+02  0.51100000000E-03 0.  1.
        -12    1    3    3    0    0 -0.55542311362E+01 -0.41394641539E+01  0.63988220205E+01  0.94302476238E+01  0.00000000000E+00 0.  1.
</event>
<event>
 7    1  0.2746803E-013  0.5052886E+02  0.7816164E-02  0.1300439E+00
        -11   -1    0    0    0    0  0.00000000000E+00  0.00000000000E+00  0.45593999997E+02  0.45594000000E+02  0.51100000000E-03 0. -1.
         11   -1    0    0    0    0 -0.00000000000E+00 -0.00000000000E+00 -0.45593999997E+02  0.45594000000E+02  0.51100000000E-03 0.  1.
    9900012    2    1    2    0    0  0.11823890875E+02  0.83670570479E+00 -0.38892944193E+02  0.50528861054E+02  0.30000003659E+02 0.  0.
         12    1    1    2    0    0 -0.11823890875E+02 -0.83670570479E+00  0.38892944193E+02  0.40659138946E+02  0.00000000000E+00 0. -1.
         11    1    3    3    0    0  0.33568162205E+01 -0.66904251555E+01 -0.20097476198E+02  0.21446178067E+02  0.51100000000E-03 0. -1.
        -11    1    3    3    0    0  0.64889371725E+01  0.13656836768E+02 -0.16139502280E+02  0.22115583426E+02  0.51100000000E-03 0.  1.
         12    1    3    3    0    0  0.19781374819E+01 -0.61297059081E+01 -0.26559657147E+01  0.69670995611E+01  0.00000000000E+00 0. -1.
</event>
<event>
 7    1  0.2746803E-013  0.5052885E+02  0.7816164E-02  0.1300439E+00
        -11   -1    0    0    0    0  0.00000000000E+00  0.00000000000E+00  0.45593999997E+02  0.45594000000E+02  0.51100000000E-03 0.  1.
         11   -1    0    0    0    0 -0.00000000000E+00 -0.00000000000E+00 -0.45593999997E+02  0.45594000000E+02  0.51100000000E-03 0. -1.
    9900012    2    1    2    0    0  0.29530591941E+02  0.11197528509E+02  0.25607144718E+02  0.50528851390E+02  0.29999974284E+02 0.  0.
         12    1    1    2    0    0 -0.29530591941E+02 -0.11197528509E+02 -0.25607144718E+02  0.40659148610E+02  0.00000000000E+00 0. -1.
         11    1    3    3    0    0 -0.23483148470E+01  0.48119202193E+01  0.84047216827E+01  0.99653653040E+01  0.51100000000E-03 0. -1.
        -11    1    3    3    0    0  0.28937895914E+01 -0.44015394881E+01  0.20159749239E+00  0.52714523496E+01  0.51100000000E-03 0.  1.
         12    1    3    3    0    0  0.28985117197E+02  0.10787147778E+02  0.17000825543E+02  0.35292033736E+02  0.00000000000E+00 0. -1.
</event>
<event>
 7    1  0.2746803E-013  0.5052876E+02  0.7816164E-02  0.1300439E+00
        -11   -1    0    0    0    0  0.00000000000E+00  0.00000000000E+00  0.45593999997E+02  0.45594000000E+02  0.51100000000E-03 0.  1.
         11   -1    0    0    0    0 -0.00000000000E+00 -0.00000000000E+00 -0.45593999997E+02  0.45594000000E+02  0.51100000000E-03 0. -1.
    9900012    2    1    2    0    0  0.99614956040E+01  0.72949927870E+01  0.38739200783E+02  0.50528757610E+02  0.29999689228E+02 0.  0.
         12    1    1    2    0    0 -0.99614956040E+01 -0.72949927870E+01 -0.38739200783E+02  0.40659242390E+02  0.00000000000E+00 0. -1.
         11    1    3    3    0    0 -0.63179620272E+00 -0.67591605128E+00  0.24570252939E+02  0.24587666801E+02  0.51100000000E-03 0. -1.
        -11    1    3    3    0    0 -0.30183982949E+01  0.22075804402E+01  0.98584491059E+01  0.10543868299E+02  0.51100000000E-03 0.  1.
         12    1    3    3    0    0  0.13611690102E+02  0.57633283981E+01  0.43104987381E+01  0.15397222510E+02  0.00000000000E+00 0. -1.
</event>
<event>
 7    1  0.2746803E-013  0.5052884E+02  0.7816164E-02  0.1300439E+00
        -11   -1    0    0    0    0  0.00000000000E+00  0.00000000000E+00  0.45593999997E+02  0.45594000000E+02  0.51100000000E-03 0.  1.
         11   -1    0    0    0    0 -0.00000000000E+00 -0.00000000000E+00 -0.45593999997E+02  0.45594000000E+02  0.51100000000E-03 0. -1.
    9900012    2    1    2    0    0 -0.12737082531E+02 -0.22918962155E+02  0.31074996803E+02  0.50528837146E+02  0.29999930988E+02 0.  0.
         12    1    1    2    0    0  0.12737082531E+02  0.22918962155E+02 -0.31074996803E+02  0.40659162854E+02  0.00000000000E+00 0. -1.
         11    1    3    3    0    0  0.31659017062E+01 -0.14112338509E+01  0.58856608903E+01  0.68304845342E+01  0.51100000000E-03 0. -1.
        -11    1    3    3    0    0 -0.13323737361E+02 -0.21224976967E+02  0.29474975567E+02  0.38688445426E+02  0.51100000000E-03 0.  1.
         12    1    3    3    0    0 -0.25792468761E+01 -0.28275133721E+00 -0.42856396537E+01  0.50099071855E+01  0.00000000000E+00 0. -1.
</event>
<event>
 7    1  0.2746803E-013  0.5052887E+02  0.7816164E-02  0.1300439E+00
        -11   -1    0    0    0    0  0.00000000000E+00  0.00000000000E+00  0.45593999997E+02  0.45594000000E+02  0.51100000000E-03 0.  1.
         11   -1    0    0    0    0 -0.00000000000E+00 -0.00000000000E+00 -0.45593999997E+02  0.45594000000E+02  0.51100000000E-03 0. -1.
    9900012    2    1    2    0    0 -0.20699651260E+01 -0.21544438946E+02 -0.34419723693E+02  0.50528868379E+02  0.30000025923E+02 0.  0.
         12    1    1    2    0    0  0.20699651260E+01  0.21544438946E+02  0.34419723693E+02  0.40659131621E+02  0.00000000000E+00 0. -1.
         11    1    3    3    0    0 -0.23092921148E+01 -0.35730304405E+01 -0.44179657292E+01  0.61333349855E+01  0.51100000000E-03 0. -1.
        -11    1    3    3    0    0 -0.12012805994E+02 -0.16458685111E+02 -0.18945250561E+02  0.27822982272E+02  0.51100000000E-03 0.  1.
         12    1    3    3    0    0  0.12252132983E+02 -0.15127233940E+01 -0.11056507403E+02  0.16572551121E+02  0.00000000000E+00 0. -1.
</event>
<event>
 7    1  0.2746803E-013  0.5052889E+02  0.7816164E-02  0.1300439E+00
        -11   -1    0    0    0    0  0.00000000000E+00  0.00000000000E+00  0.45593999997E+02  0.45594000000E+02  0.51100000000E-03 0. -1.
         11   -1    0    0    0    0 -0.00000000000E+00 -0.00000000000E+00 -0.45593999997E+02  0.45594000000E+02  0.51100000000E-03 0.  1.
    9900012    2    1    2    0    0 -0.33843552245E+02  0.19229479090E+02 -0.11747518726E+02  0.50528891663E+02  0.30000096697E+02 0.  0.
         12    1    1    2    0    0  0.33843552245E+02 -0.19229479090E+02  0.11747518726E+02  0.40659108337E+02  0.00000000000E+00 0. -1.
         11    1    3    3    0    0 -0.19327745501E+02 -0.30074870115E+01 -0.19900510107E+01  0.19661307881E+02  0.51100000000E-03 0. -1.
        -11    1    3    3    0    0  0.14858320071E+01  0.37149416287E+01 -0.41337919279E+01  0.57529752322E+01  0.51100000000E-03 0.  1.
        -12    1    3    3    0    0 -0.16001638750E+02  0.18522024472E+02 -0.56236757870E+01  0.25114608550E+02  0.00000000000E+00 0.  1.
</event>
<event>
 7    1  0.2746803E-013  0.5052886E+02  0.7816164E-02  0.1300439E+00
        -11   -1    0    0    0    0  0.00000000000E+00  0.00000000000E+00  0.45593999997E+02  0.45594000000E+02  0.51100000000E-03 0.  1.
         11   -1    0    0    0    0 -0.00000000000E+00 -0.00000000000E+00 -0.45593999997E+02  0.45594000000E+02  0.51100000000E-03 0. -1.
    9900012    2    1    2    0    0  0.29736475563E+02  0.27413591489E+02  0.41716520992E+01  0.50528860086E+02  0.30000000719E+02 0.  0.
         12    1    1    2    0    0 -0.29736475563E+02 -0.27413591489E+02 -0.41716520992E+01  0.40659139914E+02  0.00000000000E+00 0. -1.
         11    1    3    3    0    0  0.47782150367E+01  0.36481660990E+01 -0.40498329154E+01  0.72485585965E+01  0.51100000000E-03 0. -1.
        -11    1    3    3    0    0  0.13045458424E+02  0.36025217942E+01 -0.71112855551E+01  0.15288313552E+02  0.51100000000E-03 0.  1.
         12    1    3    3    0    0  0.11912802103E+02  0.20162903596E+02  0.15332770570E+02  0.27991987938E+02  0.00000000000E+00 0. -1.
</event>
<event>
 7    1  0.2746803E-013  0.5052886E+02  0.7816164E-02  0.1300439E+00
        -11   -1    0    0    0    0  0.00000000000E+00  0.00000000000E+00  0.45593999997E+02  0.45594000000E+02  0.51100000000E-03 0. -1.
         11   -1    0    0    0    0 -0.00000000000E+00 -0.00000000000E+00 -0.45593999997E+02  0.45594000000E+02  0.51100000000E-03 0.  1.
    9900012    2    1    2    0    0  0.24181865841E+01  0.19989324130E+02 -0.35323429508E+02  0.50528863539E+02  0.30000011214E+02 0.  0.
         12    1    1    2    0    0 -0.24181865841E+01 -0.19989324130E+02  0.35323429508E+02  0.40659136461E+02  0.00000000000E+00 0. -1.
         11    1    3    3    0    0 -0.59794097431E+01  0.57377002774E+00 -0.38877140014E+01  0.71551990425E+01  0.51100000000E-03 0. -1.
        -11    1    3    3    0    0 -0.50383683199E+01  0.14846321652E+02 -0.17177873717E+02  0.23256778960E+02  0.51100000000E-03 0.  1.
         12    1    3    3    0    0  0.13435964647E+02  0.45692324502E+01 -0.14257841790E+02  0.20116885536E+02  0.00000000000E+00 0. -1.
</event>
<event>
 7    1  0.2746803E-013  0.5052887E+02  0.7816164E-02  0.1300439E+00
        -11   -1    0    0    0    0  0.00000000000E+00  0.00000000000E+00  0.45593999997E+02  0.45594000000E+02  0.51100000000E-03 0. -1.
         11   -1    0    0    0    0 -0.00000000000E+00 -0.00000000000E+00 -0.45593999997E+02  0.45594000000E+02  0.51100000000E-03 0.  1.
    9900012    2    1    2    0    0  0.12514600403E+02 -0.29141640512E+02 -0.25442371410E+02  0.50528871899E+02  0.30000036625E+02 0.  0.
         12    1    1    2    0    0 -0.12514600403E+02  0.29141640512E+02  0.25442371410E+02  0.40659128101E+02  0.00000000000E+00 0. -1.
         11    1    3    3    0    0  0.52682981093E+00 -0.13748287957E+02 -0.21019926260E+02  0.25122306257E+02  0.51100000000E-03 0. -1.
        -11    1    3    3    0    0  0.98257456538E+01 -0.69896797478E+01 -0.95016933883E+01  0.15351973102E+02  0.51100000000E-03 0.  1.
         12    1    3    3    0    0  0.21620249383E+01 -0.84036728067E+01  0.50792482389E+01  0.10054592540E+02  0.00000000000E+00 0. -1.
</event>
<event>
 7    1  0.2746803E-013  0.5052887E+02  0.7816164E-02  0.1300439E+00
        -11   -1    0    0    0    0  0.00000000000E+00  0.00000000000E+00  0.45593999997E+02  0.45594000000E+02  0.51100000000E-03 0.  1.
         11   -1    0    0    0    0 -0.00000000000E+00 -0.00000000000E+00 -0.45593999997E+02  0.45594000000E+02  0.51100000000E-03 0. -1.
    9900012    2    1    2    0    0  0.76392730935E+01 -0.21126128886E+02  0.33889425261E+02  0.50528868681E+02  0.30000026842E+02 0.  0.
         12    1    1    2    0    0 -0.76392730935E+01  0.21126128886E+02 -0.33889425261E+02  0.40659131319E+02  0.00000000000E+00 0. -1.
         11    1    3    3    0    0 -0.61601196736E+00 -0.15411002325E+02  0.17724813486E+02  0.23495690600E+02  0.51100000000E-03 0. -1.
        -11    1    3    3    0    0  0.18889483927E+01 -0.83293592408E+01  0.17988751652E+02  0.19913350739E+02  0.51100000000E-03 0.  1.
         12    1    3    3    0    0  0.63663366682E+01  0.26142326800E+01 -0.18241398772E+01  0.71198273413E+01  0.00000000000E+00 0. -1.
</event>
<event>
 7    1  0.2746803E-013  0.5052887E+02  0.7816164E-02  0.1300439E+00
        -11   -1    0    0    0    0  0.00000000000E+00  0.00000000000E+00  0.45593999997E+02  0.45594000000E+02  0.51100000000E-03 0. -1.
         11   -1    0    0    0    0 -0.00000000000E+00 -0.00000000000E+00 -0.45593999997E+02  0.45594000000E+02  0.51100000000E-03 0.  1.
    9900012    2    1    2    0    0 -0.18837911780E+02 -0.23086484527E+02 -0.27664275295E+02  0.50528870451E+02  0.30000032224E+02 0.  0.
         12    1    1    2    0    0  0.18837911780E+02  0.23086484527E+02  0.27664275295E+02  0.40659129549E+02  0.00000000000E+00 0. -1.
         11    1    3    3    0    0 -0.32524306527E+01  0.24335912049E+01 -0.45272520987E+01  0.60824898792E+01  0.51100000000E-03 0. -1.
        -11    1    3    3    0    0 -0.15904091425E+02 -0.25940786511E+02 -0.26919877346E+02  0.40626891654E+02  0.51100000000E-03 0.  1.
         12    1    3    3    0    0  0.31861029775E+00  0.42071077837E+00  0.37828541500E+01  0.38194889188E+01  0.00000000000E+00 0. -1.
</event>
<event>
 7    1  0.2746803E-013  0.5052886E+02  0.7816164E-02  0.1300439E+00
        -11   -1    0    0    0    0  0.00000000000E+00  0.00000000000E+00  0.45593999997E+02  0.45594000000E+02  0.51100000000E-03 0.  1.
         11   -1    0    0    0    0 -0.00000000000E+00 -0.00000000000E+00 -0.45593999997E+02  0.45594000000E+02  0.51100000000E-03 0. -1.
    9900012    2    1    2    0    0 -0.14741502734E+02 -0.23850018005E+02 -0.29445379066E+02  0.50528860683E+02  0.30000002531E+02 0.  0.
         12    1    1    2    0    0  0.14741502734E+02  0.23850018005E+02  0.29445379066E+02  0.40659139317E+02  0.00000000000E+00 0. -1.
         11    1    3    3    0    0 -0.48368227036E+01 -0.38559593395E+01 -0.19497873799E+02  0.20455570372E+02  0.51100000000E-03 0. -1.
        -11    1    3    3    0    0 -0.13565419904E+02 -0.11072479572E+02 -0.10494132698E+02  0.20414388122E+02  0.51100000000E-03 0.  1.
        -12    1    3    3    0    0  0.36607398733E+01 -0.89215790939E+01  0.54662743118E+00  0.96589021890E+01  0.00000000000E+00 0.  1.
</event>
<event>
 7    1  0.2746803E-013  0.5052884E+02  0.7816164E-02  0.1300439E+00
        -11   -1    0    0    0    0  0.00000000000E+00  0.00000000000E+00  0.45593999997E+02  0.45594000000E+02  0.51100000000E-03 0.  1.
         11   -1    0    0    0    0 -0.00000000000E+00 -0.00000000000E+00 -0.45593999997E+02  0.45594000000E+02  0.51100000000E-03 0. -1.
    9900012    2    1    2    0    0 -0.47726224014E+00  0.28207971717E+02  0.29278823064E+02  0.50528844479E+02  0.29999953279E+02 0.  0.
         12    1    1    2    0    0  0.47726224014E+00 -0.28207971717E+02 -0.29278823064E+02  0.40659155521E+02  0.00000000000E+00 0. -1.
         11    1    3    3    0    0  0.36212517184E+01  0.88413014428E+01 -0.18958727023E+01  0.97404521854E+01  0.51100000000E-03 0. -1.
        -11    1    3    3    0    0 -0.42692820606E+01  0.18755143262E+02  0.14465799154E+02  0.24067436788E+02  0.51100000000E-03 0.  1.
         12    1    3    3    0    0  0.17076810204E+00  0.61152701210E+00  0.16708896612E+02  0.16720955506E+02  0.00000000000E+00 0. -1.
</event>
<event>
 7    1  0.2746803E-013  0.5052883E+02  0.7816164E-02  0.1300439E+00
        -11   -1    0    0    0    0  0.00000000000E+00  0.00000000000E+00  0.45593999997E+02  0.45594000000E+02  0.51100000000E-03 0. -1.
         11   -1    0    0    0    0 -0.00000000000E+00 -0.00000000000E+00 -0.45593999997E+02  0.45594000000E+02  0.51100000000E-03 0.  1.
    9900012    2    1    2    0    0  0.64766014334E+01 -0.83476064641E+01 -0.39262443491E+02  0.50528826758E+02  0.29999899414E+02 0.  0.
         12    1    1    2    0    0 -0.64766014334E+01  0.83476064641E+01  0.39262443491E+02  0.40659173242E+02  0.00000000000E+00 0. -1.
         11    1    3    3    0    0  0.65143733742E+00  0.40711307446E+01  0.10644095943E+00  0.41242946164E+01  0.51100000000E-03 0. -1.
        -11    1    3    3    0    0 -0.75666681010E+01 -0.27875111494E+01 -0.12433834089E+02  0.14819747467E+02  0.51100000000E-03 0.  1.
        -12    1    3    3    0    0  0.13391832197E+02 -0.96312260593E+01 -0.26935050362E+02  0.31584784675E+02  0.00000000000E+00 0.  1.
</event>
<event>
 7    1  0.2746803E-013  0.5052886E+02  0.7816164E-02  0.1300439E+00
        -11   -1    0    0    0    0  0.00000000000E+00  0.00000000000E+00  0.45593999997E+02  0.45594000000E+02  0.51100000000E-03 0.  1.
         11   -1    0    0    0    0 -0.00000000000E+00 -0.00000000000E+00 -0.45593999997E+02  0.45594000000E+02  0.51100000000E-03 0. -1.
    9900012    2    1    2    0    0 -0.22698423633E+02  0.33130273930E+02  0.63507701760E+01  0.50528858741E+02  0.29999996629E+02 0.  0.
         12    1    1    2    0    0  0.22698423633E+02 -0.33130273930E+02 -0.63507701760E+01  0.40659141259E+02  0.00000000000E+00 0. -1.
         11    1    3    3    0    0 -0.15082799933E+02  0.22535056570E+02  0.11914499172E+02  0.29618827107E+02  0.51100000000E-03 0.  1.
        -11    1    3    3    0    0 -0.58333168049E+01 -0.42340342706E+00 -0.75732444850E+01  0.95687453566E+01  0.51100000000E-03 0. -1.
         12    1    3    3    0    0 -0.17823068949E+01  0.11018620787E+02  0.20095154895E+01  0.11341286277E+02  0.00000000000E+00 0. -1.
</event>
<event>
 7    1  0.2746803E-013  0.5052885E+02  0.7816164E-02  0.1300439E+00
        -11   -1    0    0    0    0  0.00000000000E+00  0.00000000000E+00  0.45593999997E+02  0.45594000000E+02  0.51100000000E-03 0.  1.
         11   -1    0    0    0    0 -0.00000000000E+00 -0.00000000000E+00 -0.45593999997E+02  0.45594000000E+02  0.51100000000E-03 0. -1.
    9900012    2    1    2    0    0  0.38731614841E+02 -0.12346789941E+02 -0.76477994698E+00  0.50528854677E+02  0.29999984275E+02 0.  0.
         12    1    1    2    0    0 -0.38731614841E+02  0.12346789941E+02  0.76477994698E+00  0.40659145323E+02  0.00000000000E+00 0. -1.
         11    1    3    3    0    0  0.12497201778E+01 -0.60700817678E+01 -0.59140881342E+01  0.85664538703E+01  0.51100000000E-03 0. -1.
        -11    1    3    3    0    0  0.28336550483E+02 -0.74745998614E+01 -0.32527339967E+01  0.29485759530E+02  0.51100000000E-03 0.  1.
         12    1    3    3    0    0  0.91453441808E+01  0.11978916881E+01  0.84020421839E+01  0.12476641276E+02  0.00000000000E+00 0. -1.
</event>
<event>
 7    1  0.2746803E-013  0.5052885E+02  0.7816164E-02  0.1300439E+00
        -11   -1    0    0    0    0  0.00000000000E+00  0.00000000000E+00  0.45593999997E+02  0.45594000000E+02  0.51100000000E-03 0. -1.
         11   -1    0    0    0    0 -0.00000000000E+00 -0.00000000000E+00 -0.45593999997E+02  0.45594000000E+02  0.51100000000E-03 0.  1.
    9900012    2    1    2    0    0 -0.14890216371E+02  0.22581796165E+01 -0.37767030569E+02  0.50528849532E+02  0.29999968638E+02 0.  0.
         12    1    1    2    0    0  0.14890216371E+02 -0.22581796165E+01  0.37767030569E+02  0.40659150468E+02  0.00000000000E+00 0. -1.
         11    1    3    3    0    0 -0.64738058950E+01 -0.22458829036E+01 -0.54900231091E+01  0.87803477598E+01  0.51100000000E-03 0. -1.
        -11    1    3    3    0    0 -0.11570713254E+02  0.15483192502E+01 -0.34825796367E+02  0.36730297992E+02  0.51100000000E-03 0.  1.
        -12    1    3    3    0    0  0.31543027782E+01  0.29557432699E+01  0.25487889067E+01  0.50182037807E+01  0.00000000000E+00 0.  1.
</event>
<event>
 7    1  0.2746803E-013  0.5052886E+02  0.7816164E-02  0.1300439E+00
        -11   -1    0    0    0    0  0.00000000000E+00  0.00000000000E+00  0.45593999997E+02  0.45594000000E+02  0.51100000000E-03 0.  1.
         11   -1    0    0    0    0 -0.00000000000E+00 -0.00000000000E+00 -0.45593999997E+02  0.45594000000E+02  0.51100000000E-03 0. -1.
    9900012    2    1    2    0    0 -0.16988711464E+02  0.10719508186E+02  0.35350270962E+02  0.50528857978E+02  0.29999994309E+02 0.  0.
         12    1    1    2    0    0  0.16988711464E+02 -0.10719508186E+02 -0.35350270962E+02  0.40659142022E+02  0.00000000000E+00 0. -1.
         11    1    3    3    0    0 -0.13002369529E+01 -0.31555446469E+01 -0.47068072240E+00  0.34452313065E+01  0.51100000000E-03 0. -1.
        -11    1    3    3    0    0 -0.15202746418E+02 -0.78247470744E-01  0.25624174373E+02  0.29794763532E+02  0.51100000000E-03 0.  1.
        -12    1    3    3    0    0 -0.48572809259E+00  0.13953300303E+02  0.10196777311E+02  0.17288863139E+02  0.00000000000E+00 0.  1.
</event>
<event>
 7    1  0.2746803E-013  0.5052887E+02  0.7816164E-02  0.1300439E+00
        -11   -1    0    0    0    0  0.00000000000E+00  0.00000000000E+00  0.45593999997E+02  0.45594000000E+02  0.51100000000E-03 0. -1.
         11   -1    0    0    0    0 -0.00000000000E+00 -0.00000000000E+00 -0.45593999997E+02  0.45594000000E+02  0.51100000000E-03 0.  1.
    9900012    2    1    2    0    0 -0.29991126860E+02  0.26142994907E+02  0.83810046416E+01  0.50528866809E+02  0.30000021153E+02 0.  0.
         12    1    1    2    0    0  0.29991126860E+02 -0.26142994907E+02 -0.83810046416E+01  0.40659133191E+02  0.00000000000E+00 0. -1.
         11    1    3    3    0    0 -0.66634492263E+01  0.69338687109E+01 -0.16197962847E+01  0.97521193162E+01  0.51100000000E-03 0. -1.
        -11    1    3    3    0    0 -0.28483051644E+01  0.17090655704E+02  0.10355317661E+02  0.20185042948E+02  0.51100000000E-03 0.  1.
         12    1    3    3    0    0 -0.20479372469E+02  0.21184704921E+01 -0.35451673437E+00  0.20591704545E+02  0.00000000000E+00 0. -1.
</event>
<event>
 7    1  0.2746803E-013  0.5052886E+02  0.7816164E-02  0.1300439E+00
        -11   -1    0    0    0    0  0.00000000000E+00  0.00000000000E+00  0.45593999997E+02  0.45594000000E+02  0.51100000000E-03 0.  1.
         11   -1    0    0    0    0 -0.00000000000E+00 -0.00000000000E+00 -0.45593999997E+02  0.45594000000E+02  0.51100000000E-03 0. -1.
    9900012    2    1    2    0    0 -0.19556877758E+02  0.84266260177E+01  0.34636485655E+02  0.50528860410E+02  0.30000001703E+02 0.  0.
         12    1    1    2    0    0  0.19556877758E+02 -0.84266260177E+01 -0.34636485655E+02  0.40659139590E+02  0.00000000000E+00 0. -1.
         11    1    3    3    0    0  0.12551747655E+01  0.42125737302E+00 -0.26912717185E+01  0.29993107859E+01  0.51100000000E-03 0. -1.
        -11    1    3    3    0    0 -0.15751010369E+02  0.87804765017E+01  0.11932973433E+02  0.21623758934E+02  0.51100000000E-03 0.  1.
        -12    1    3    3    0    0 -0.50610421544E+01 -0.77510785700E+00  0.25394783940E+02  0.25905790690E+02  0.00000000000E+00 0.  1.
</event>
<event>
 7    1  0.2746803E-013  0.5052887E+02  0.7816164E-02  0.1300439E+00
        -11   -1    0    0    0    0  0.00000000000E+00  0.00000000000E+00  0.45593999997E+02  0.45594000000E+02  0.51100000000E-03 0.  1.
         11   -1    0    0    0    0 -0.00000000000E+00 -0.00000000000E+00 -0.45593999997E+02  0.45594000000E+02  0.51100000000E-03 0. -1.
    9900012    2    1    2    0    0 -0.71724471895E+01 -0.24225689179E+02  0.31856506616E+02  0.50528867832E+02  0.30000024262E+02 0.  0.
         12    1    1    2    0    0  0.71724471895E+01  0.24225689179E+02 -0.31856506616E+02  0.40659132168E+02  0.00000000000E+00 0. -1.
         11    1    3    3    0    0  0.74780103268E+00  0.26082851777E+01 -0.22821718208E+00  0.27229471710E+01  0.51100000000E-03 0. -1.
        -11    1    3    3    0    0 -0.73992095968E+00 -0.12244894985E+02  0.28679402817E+02  0.31192837037E+02  0.51100000000E-03 0.  1.
         12    1    3    3    0    0 -0.71803272625E+01 -0.14589079372E+02  0.34053209816E+01  0.16613083624E+02  0.00000000000E+00 0. -1.
</event>
<event>
 7    1  0.2746803E-013  0.5052887E+02  0.7816164E-02  0.1300439E+00
        -11   -1    0    0    0    0  0.00000000000E+00  0.00000000000E+00  0.45593999997E+02  0.45594000000E+02  0.51100000000E-03 0.  1.
         11   -1    0    0    0    0 -0.00000000000E+00 -0.00000000000E+00 -0.45593999997E+02  0.45594000000E+02  0.51100000000E-03 0. -1.
    9900012    2    1    2    0    0  0.25690055265E+02 -0.30810786055E+02  0.66243243672E+01  0.50528866338E+02  0.30000019720E+02 0.  0.
         12    1    1    2    0    0 -0.25690055265E+02  0.30810786055E+02 -0.66243243672E+01  0.40659133662E+02  0.00000000000E+00 0. -1.
         11    1    3    3    0    0 -0.38163376382E+01 -0.95003895959E-01 -0.36260281196E+01  0.52651247748E+01  0.51100000000E-03 0.  1.
        -11    1    3    3    0    0  0.15177505670E+02 -0.21536515867E+02  0.22008807586E+01  0.26439025520E+02  0.51100000000E-03 0. -1.
        -12    1    3    3    0    0  0.14328887233E+02 -0.91792662919E+01  0.80494717282E+01  0.18824716043E+02  0.00000000000E+00 0.  1.
</event>
<event>
 7    1  0.2746803E-013  0.5052886E+02  0.7816164E-02  0.1300439E+00
        -11   -1    0    0    0    0  0.00000000000E+00  0.00000000000E+00  0.45593999997E+02  0.45594000000E+02  0.51100000000E-03 0.  1.
         11   -1    0    0    0    0 -0.00000000000E+00 -0.00000000000E+00 -0.45593999997E+02  0.45594000000E+02  0.51100000000E-03 0. -1.
    9900012    2    1    2    0    0 -0.40620262281E+02  0.82662366821E+00  0.15736503887E+01  0.50528863389E+02  0.30000010756E+02 0.  0.
         12    1    1    2    0    0  0.40620262281E+02 -0.82662366821E+00 -0.15736503887E+01  0.40659136611E+02  0.00000000000E+00 0. -1.
         11    1    3    3    0    0  0.19187469587E+01 -0.57333055795E+01  0.31808539039E+01  0.68315601862E+01  0.51100000000E-03 0. -1.
        -11    1    3    3    0    0 -0.16362200703E+02  0.61094461014E+01  0.27792635636E-01  0.17465615254E+02  0.51100000000E-03 0.  1.
        -12    1    3    3    0    0 -0.26176808536E+02  0.45048314629E+00 -0.16349961509E+01  0.26231687948E+02  0.00000000000E+00 0.  1.
</event>
<event>
 7    1  0.2746803E-013  0.5052886E+02  0.7816164E-02  0.1300439E+00
        -11   -1    0    0    0    0  0.00000000000E+00  0.00000000000E+00  0.45593999997E+02  0.45594000000E+02  0.51100000000E-03 0. -1.
         11   -1    0    0    0    0 -0.00000000000E+00 -0.00000000000E+00 -0.45593999997E+02  0.45594000000E+02  0.51100000000E-03 0.  1.
    9900012    2    1    2    0    0 -0.31578931411E+02 -0.43697301734E+00 -0.25607541486E+02  0.50528855452E+02  0.29999986631E+02 0.  0.
         12    1    1    2    0    0  0.31578931411E+02  0.43697301734E+00  0.25607541486E+02  0.40659144548E+02  0.00000000000E+00 0. -1.
         11    1    3    3    0    0 -0.24162051778E+02 -0.85305328885E+01 -0.19141114208E+02  0.31983698830E+02  0.51100000000E-03 0. -1.
        -11    1    3    3    0    0 -0.10349874472E+02  0.27989161652E+01 -0.17318329014E+01  0.10860620551E+02  0.51100000000E-03 0.  1.
        -12    1    3    3    0    0  0.29329948400E+01  0.52946437059E+01 -0.47345943767E+01  0.76845360704E+01  0.00000000000E+00 0.  1.
</event>
<event>
 7    1  0.2746803E-013  0.5052886E+02  0.7816164E-02  0.1300439E+00
        -11   -1    0    0    0    0  0.00000000000E+00  0.00000000000E+00  0.45593999997E+02  0.45594000000E+02  0.51100000000E-03 0.  1.
         11   -1    0    0    0    0 -0.00000000000E+00 -0.00000000000E+00 -0.45593999997E+02  0.45594000000E+02  0.51100000000E-03 0. -1.
    9900012    2    1    2    0    0  0.14476749619E+02  0.57943137661E+01  0.37550173264E+02  0.50528857563E+02  0.29999993047E+02 0.  0.
         12    1    1    2    0    0 -0.14476749619E+02 -0.57943137661E+01 -0.37550173264E+02  0.40659142437E+02  0.00000000000E+00 0. -1.
         11    1    3    3    0    0 -0.46475172245E+01 -0.64834642422E+01  0.54468789289E+01  0.96593589466E+01  0.51100000000E-03 0. -1.
        -11    1    3    3    0    0  0.25760085462E+01  0.44138371400E+00  0.11948688370E+02  0.12231181204E+02  0.51100000000E-03 0.  1.
        -12    1    3    3    0    0  0.16548258298E+02  0.11836394294E+02  0.20154605966E+02  0.28638317412E+02  0.00000000000E+00 0.  1.
</event>
<event>
 7    1  0.2746803E-013  0.5052886E+02  0.7816164E-02  0.1300439E+00
        -11   -1    0    0    0    0  0.00000000000E+00  0.00000000000E+00  0.45593999997E+02  0.45594000000E+02  0.51100000000E-03 0.  1.
         11   -1    0    0    0    0 -0.00000000000E+00 -0.00000000000E+00 -0.45593999997E+02  0.45594000000E+02  0.51100000000E-03 0. -1.
    9900012    2    1    2    0    0  0.13321218507E+02 -0.25510872890E+01  0.38330180689E+02  0.50528860062E+02  0.30000000643E+02 0.  0.
         12    1    1    2    0    0 -0.13321218507E+02  0.25510872890E+01 -0.38330180689E+02  0.40659139938E+02  0.00000000000E+00 0. -1.
         11    1    3    3    0    0  0.12839560458E+02 -0.53736332463E+01  0.36228351779E+01  0.14382460917E+02  0.51100000000E-03 0. -1.
        -11    1    3    3    0    0 -0.32520752309E+01  0.33325149437E+01  0.87023284335E+01  0.98697603610E+01  0.51100000000E-03 0.  1.
        -12    1    3    3    0    0  0.37337332791E+01 -0.50996898643E+00  0.26005017078E+02  0.26276638784E+02  0.00000000000E+00 0.  1.
</event>
<event>
 7    1  0.2746803E-013  0.5052883E+02  0.7816164E-02  0.1300439E+00
        -11   -1    0    0    0    0  0.00000000000E+00  0.00000000000E+00  0.45593999997E+02  0.45594000000E+02  0.51100000000E-03 0.  1.
         11   -1    0    0    0    0 -0.00000000000E+00 -0.00000000000E+00 -0.45593999997E+02  0.45594000000E+02  0.51100000000E-03 0. -1.
    9900012    2    1    2    0    0  0.53793024287E+01 -0.40084132925E+02  0.41825490202E+01  0.50528827317E+02  0.29999901113E+02 0.  0.
         12    1    1    2    0    0 -0.53793024287E+01  0.40084132925E+02 -0.41825490202E+01  0.40659172683E+02  0.00000000000E+00 0. -1.
         11    1    3    3    0    0  0.95966774469E+01 -0.28921996820E+01  0.28812096471E+01  0.10428921627E+02  0.51100000000E-03 0. -1.
        -11    1    3    3    0    0 -0.14523363027E+01 -0.11691705138E+02 -0.62832551872E+01  0.13352323610E+02  0.51100000000E-03 0.  1.
        -12    1    3    3    0    0 -0.27650387154E+01 -0.25500228105E+02  0.75845945604E+01  0.26747582080E+02  0.00000000000E+00 0.  1.
</event>
<event>
 7    1  0.2746803E-013  0.5052886E+02  0.7816164E-02  0.1300439E+00
        -11   -1    0    0    0    0  0.00000000000E+00  0.00000000000E+00  0.45593999997E+02  0.45594000000E+02  0.51100000000E-03 0. -1.
         11   -1    0    0    0    0 -0.00000000000E+00 -0.00000000000E+00 -0.45593999997E+02  0.45594000000E+02  0.51100000000E-03 0.  1.
    9900012    2    1    2    0    0 -0.13677449734E+02 -0.33525679990E+02 -0.18496535849E+02  0.50528859719E+02  0.29999999601E+02 0.  0.
         12    1    1    2    0    0  0.13677449734E+02  0.33525679990E+02  0.18496535849E+02  0.40659140281E+02  0.00000000000E+00 0. -1.
         11    1    3    3    0    0 -0.66381107443E+01 -0.11250766904E+02 -0.12643836115E+02  0.18179957705E+02  0.51100000000E-03 0.  1.
        -11    1    3    3    0    0 -0.62172314753E+01 -0.21960729360E+02  0.33813970018E+01  0.23072959220E+02  0.51100000000E-03 0. -1.
         12    1    3    3    0    0 -0.82210751416E+00 -0.31418372546E+00 -0.92340967357E+01  0.92759427931E+01  0.00000000000E+00 0. -1.
</event>
<event>
 7    1  0.2746803E-013  0.5052886E+02  0.7816164E-02  0.1300439E+00
        -11   -1    0    0    0    0  0.00000000000E+00  0.00000000000E+00  0.45593999997E+02  0.45594000000E+02  0.51100000000E-03 0. -1.
         11   -1    0    0    0    0 -0.00000000000E+00 -0.00000000000E+00 -0.45593999997E+02  0.45594000000E+02  0.51100000000E-03 0.  1.
    9900012    2    1    2    0    0 -0.36874414370E+02  0.16537511681E+02  0.44669819058E+01  0.50528860129E+02  0.30000000848E+02 0.  0.
         12    1    1    2    0    0  0.36874414370E+02 -0.16537511681E+02 -0.44669819058E+01  0.40659139871E+02  0.00000000000E+00 0. -1.
         11    1    3    3    0    0 -0.73010751472E+01 -0.44915330371E+00  0.83581807912E+01  0.11107052867E+02  0.51100000000E-03 0. -1.
        -11    1    3    3    0    0 -0.97820301009E+01  0.12599241324E+02  0.57741111230E+01  0.16963765925E+02  0.51100000000E-03 0.  1.
        -12    1    3    3    0    0 -0.19791309121E+02  0.43874236603E+01 -0.96653100085E+01  0.22458041337E+02  0.00000000000E+00 0.  1.
</event>
<event>
 7    1  0.2746803E-013  0.5052889E+02  0.7816164E-02  0.1300439E+00
        -11   -1    0    0    0    0  0.00000000000E+00  0.00000000000E+00  0.45593999997E+02  0.45594000000E+02  0.51100000000E-03 0.  1.
         11   -1    0    0    0    0 -0.00000000000E+00 -0.00000000000E+00 -0.45593999997E+02  0.45594000000E+02  0.51100000000E-03 0. -1.
    9900012    2    1    2    0    0 -0.31388548046E+02  0.25402573514E+02  0.47572813316E+01  0.50528887673E+02  0.30000084571E+02 0.  0.
         12    1    1    2    0    0  0.31388548046E+02 -0.25402573514E+02 -0.47572813316E+01  0.40659112327E+02  0.00000000000E+00 0. -1.
         11    1    3    3    0    0 -0.79735708336E+01  0.86503751245E-01 -0.37924053272E+01  0.88299293975E+01  0.51100000000E-03 0. -1.
        -11    1    3    3    0    0 -0.13641377495E+02  0.22611293342E+02 -0.27094466102E+01  0.26546164840E+02  0.51100000000E-03 0.  1.
         12    1    3    3    0    0 -0.97735997170E+01  0.27047764212E+01  0.11259133269E+02  0.15152793435E+02  0.00000000000E+00 0. -1.
</event>
<event>
 7    1  0.2746803E-013  0.5052886E+02  0.7816164E-02  0.1300439E+00
        -11   -1    0    0    0    0  0.00000000000E+00  0.00000000000E+00  0.45593999997E+02  0.45594000000E+02  0.51100000000E-03 0. -1.
         11   -1    0    0    0    0 -0.00000000000E+00 -0.00000000000E+00 -0.45593999997E+02  0.45594000000E+02  0.51100000000E-03 0.  1.
    9900012    2    1    2    0    0  0.39954415618E+02  0.29184077488E+01 -0.69493508568E+01  0.50528857012E+02  0.29999991374E+02 0.  0.
         12    1    1    2    0    0 -0.39954415618E+02 -0.29184077488E+01  0.69493508568E+01  0.40659142988E+02  0.00000000000E+00 0. -1.
         11    1    3    3    0    0  0.97528145931E+01  0.42860995601E+01  0.35856414472E+01  0.11240323250E+02  0.51100000000E-03 0. -1.
        -11    1    3    3    0    0  0.31593752082E+02  0.10942575561E+01 -0.14203018030E+02  0.34656720728E+02  0.51100000000E-03 0.  1.
         12    1    3    3    0    0 -0.13921510565E+01 -0.24619493674E+01  0.36680257259E+01  0.46318130336E+01  0.00000000000E+00 0. -1.
</event>
<event>
 7    1  0.2746803E-013  0.5052886E+02  0.7816164E-02  0.1300439E+00
        -11   -1    0    0    0    0  0.00000000000E+00  0.00000000000E+00  0.45593999997E+02  0.45594000000E+02  0.51100000000E-03 0. -1.
         11   -1    0    0    0    0 -0.00000000000E+00 -0.00000000000E+00 -0.45593999997E+02  0.45594000000E+02  0.51100000000E-03 0.  1.
    9900012    2    1    2    0    0  0.12917153847E+02 -0.35807619485E+02 -0.14287321288E+02  0.50528855564E+02  0.29999986972E+02 0.  0.
         12    1    1    2    0    0 -0.12917153847E+02  0.35807619485E+02  0.14287321288E+02  0.40659144436E+02  0.00000000000E+00 0. -1.
         11    1    3    3    0    0  0.65491735923E+01 -0.61825526731E+00  0.27072662497E+01  0.71135929828E+01  0.51100000000E-03 0. -1.
        -11    1    3    3    0    0 -0.76309206497E+00  0.58033377430E+00 -0.48936563033E+01  0.49866791621E+01  0.51100000000E-03 0.  1.
         12    1    3    3    0    0  0.71310723192E+01 -0.35769697992E+02 -0.12100931234E+02  0.38428583419E+02  0.00000000000E+00 0. -1.
</event>
<event>
 7    1  0.2746803E-013  0.5052884E+02  0.7816164E-02  0.1300439E+00
        -11   -1    0    0    0    0  0.00000000000E+00  0.00000000000E+00  0.45593999997E+02  0.45594000000E+02  0.51100000000E-03 0.  1.
         11   -1    0    0    0    0 -0.00000000000E+00 -0.00000000000E+00 -0.45593999997E+02  0.45594000000E+02  0.51100000000E-03 0. -1.
    9900012    2    1    2    0    0 -0.11244441235E+02 -0.24270599284E+02  0.30621363455E+02  0.50528839308E+02  0.29999937562E+02 0.  0.
         12    1    1    2    0    0  0.11244441235E+02  0.24270599284E+02 -0.30621363455E+02  0.40659160692E+02  0.00000000000E+00 0. -1.
         11    1    3    3    0    0 -0.11092483025E+02 -0.13818433844E+01  0.52944152026E+01  0.12368650023E+02  0.51100000000E-03 0. -1.
        -11    1    3    3    0    0 -0.23458451661E+01  0.22848613756E+01  0.28886278897E+01  0.43666637603E+01  0.51100000000E-03 0.  1.
        -12    1    3    3    0    0  0.21938869562E+01 -0.25173617275E+02  0.22438320363E+02  0.33793525525E+02  0.00000000000E+00 0.  1.
</event>
<event>
 7    1  0.2746803E-013  0.5052886E+02  0.7816164E-02  0.1300439E+00
        -11   -1    0    0    0    0  0.00000000000E+00  0.00000000000E+00  0.45593999997E+02  0.45594000000E+02  0.51100000000E-03 0.  1.
         11   -1    0    0    0    0 -0.00000000000E+00 -0.00000000000E+00 -0.45593999997E+02  0.45594000000E+02  0.51100000000E-03 0. -1.
    9900012    2    1    2    0    0  0.49770690486E+01 -0.40353090799E+02 -0.14984994303E+00  0.50528860704E+02  0.30000002595E+02 0.  0.
         12    1    1    2    0    0 -0.49770690486E+01  0.40353090799E+02  0.14984994303E+00  0.40659139296E+02  0.00000000000E+00 0. -1.
         11    1    3    3    0    0  0.43741629213E+01  0.26012701277E+01 -0.97886669567E+00  0.51824789250E+01  0.51100000000E-03 0. -1.
        -11    1    3    3    0    0  0.70448742608E+01 -0.25621293877E+02 -0.19662819604E+01  0.26644834740E+02  0.51100000000E-03 0.  1.
        -12    1    3    3    0    0 -0.64419681335E+01 -0.17333067049E+02  0.27952987130E+01  0.18701547039E+02  0.00000000000E+00 0.  1.
</event>
<event>
 7    1  0.2746803E-013  0.5052886E+02  0.7816164E-02  0.1300439E+00
        -11   -1    0    0    0    0  0.00000000000E+00  0.00000000000E+00  0.45593999997E+02  0.45594000000E+02  0.51100000000E-03 0.  1.
         11   -1    0    0    0    0 -0.00000000000E+00 -0.00000000000E+00 -0.45593999997E+02  0.45594000000E+02  0.51100000000E-03 0. -1.
    9900012    2    1    2    0    0 -0.12929198124E+02  0.33819540835E+02  0.18499732673E+02  0.50528860617E+02  0.30000002330E+02 0.  0.
         12    1    1    2    0    0  0.12929198124E+02 -0.33819540835E+02 -0.18499732673E+02  0.40659139383E+02  0.00000000000E+00 0. -1.
         11    1    3    3    0    0 -0.60690485515E+01  0.14095196749E+02  0.12475768617E+01  0.15396894817E+02  0.51100000000E-03 0.  1.
        -11    1    3    3    0    0 -0.86440219495E+01 -0.59664052153E+00  0.10567395750E+02  0.13665465546E+02  0.51100000000E-03 0. -1.
         12    1    3    3    0    0  0.17838723767E+01  0.20320984608E+02  0.66847600605E+01  0.21466500254E+02  0.00000000000E+00 0. -1.
</event>
<event>
 7    1  0.2746803E-013  0.5052887E+02  0.7816164E-02  0.1300439E+00
        -11   -1    0    0    0    0  0.00000000000E+00  0.00000000000E+00  0.45593999997E+02  0.45594000000E+02  0.51100000000E-03 0.  1.
         11   -1    0    0    0    0 -0.00000000000E+00 -0.00000000000E+00 -0.45593999997E+02  0.45594000000E+02  0.51100000000E-03 0. -1.
    9900012    2    1    2    0    0 -0.13013671655E+02 -0.97774400705E+01  0.37258697664E+02  0.50528873891E+02  0.30000042680E+02 0.  0.
         12    1    1    2    0    0  0.13013671655E+02  0.97774400705E+01 -0.37258697664E+02  0.40659126109E+02  0.00000000000E+00 0. -1.
         11    1    3    3    0    0 -0.87824510490E+01  0.61685584955E+01  0.80485786102E+01  0.13414998257E+02  0.51100000000E-03 0. -1.
        -11    1    3    3    0    0  0.51263138466E+01 -0.19552945436E+01  0.39534108935E+01  0.67625238159E+01  0.51100000000E-03 0.  1.
        -12    1    3    3    0    0 -0.93575344527E+01 -0.13990704022E+02  0.25256708161E+02  0.30351351818E+02  0.00000000000E+00 0.  1.
</event>
<event>
 7    1  0.2746803E-013  0.5052886E+02  0.7816164E-02  0.1300439E+00
        -11   -1    0    0    0    0  0.00000000000E+00  0.00000000000E+00  0.45593999997E+02  0.45594000000E+02  0.51100000000E-03 0. -1.
         11   -1    0    0    0    0 -0.00000000000E+00 -0.00000000000E+00 -0.45593999997E+02  0.45594000000E+02  0.51100000000E-03 0.  1.
    9900012    2    1    2    0    0 -0.13045612294E+02  0.33142801844E+02 -0.19609503832E+02  0.50528856444E+02  0.29999989647E+02 0.  0.
         12    1    1    2    0    0  0.13045612294E+02 -0.33142801844E+02  0.19609503832E+02  0.40659143556E+02  0.00000000000E+00 0. -1.
         11    1    3    3    0    0 -0.69070870146E+01  0.20566133997E+02 -0.19687592116E+02  0.29296330866E+02  0.51100000000E-03 0. -1.
        -11    1    3    3    0    0 -0.43286876613E+01  0.16026558969E+02 -0.21581314101E+01  0.16740539439E+02  0.51100000000E-03 0.  1.
         12    1    3    3    0    0 -0.18098376181E+01 -0.34498911215E+01  0.22362196948E+01  0.44919861395E+01  0.00000000000E+00 0. -1.
</event>
<event>
 7    1  0.2746803E-013  0.5052886E+02  0.7816164E-02  0.1300439E+00
        -11   -1    0    0    0    0  0.00000000000E+00  0.00000000000E+00  0.45593999997E+02  0.45594000000E+02  0.51100000000E-03 0.  1.
         11   -1    0    0    0    0 -0.00000000000E+00 -0.00000000000E+00 -0.45593999997E+02  0.45594000000E+02  0.51100000000E-03 0. -1.
    9900012    2    1    2    0    0  0.31994485121E+02 -0.34444041913E+01  0.24852665476E+02  0.50528856138E+02  0.29999988717E+02 0.  0.
         12    1    1    2    0    0 -0.31994485121E+02  0.34444041913E+01 -0.24852665476E+02  0.40659143862E+02  0.00000000000E+00 0. -1.
         11    1    3    3    0    0  0.89202357776E+01 -0.21432958424E+01  0.63139791593E+00  0.91958135576E+01  0.51100000000E-03 0. -1.
        -11    1    3    3    0    0  0.25530308221E+02 -0.73414571487E+01  0.21843924016E+02  0.34392595825E+02  0.51100000000E-03 0.  1.
        -12    1    3    3    0    0 -0.24560588778E+01  0.60403487999E+01  0.23773435434E+01  0.69404467550E+01  0.00000000000E+00 0.  1.
</event>
<event>
 7    1  0.2746803E-013  0.5052887E+02  0.7816164E-02  0.1300439E+00
        -11   -1    0    0    0    0  0.00000000000E+00  0.00000000000E+00  0.45593999997E+02  0.45594000000E+02  0.51100000000E-03 0. -1.
         11   -1    0    0    0    0 -0.00000000000E+00 -0.00000000000E+00 -0.45593999997E+02  0.45594000000E+02  0.51100000000E-03 0.  1.
    9900012    2    1    2    0    0  0.15154942766E+02  0.29089845840E+01 -0.37616888871E+02  0.50528870522E+02  0.30000032439E+02 0.  0.
         12    1    1    2    0    0 -0.15154942766E+02 -0.29089845840E+01  0.37616888871E+02  0.40659129478E+02  0.00000000000E+00 0. -1.
         11    1    3    3    0    0  0.28910507012E+01 -0.37124259124E+01 -0.29692093749E+01  0.55638552178E+01  0.51100000000E-03 0. -1.
        -11    1    3    3    0    0  0.13730572677E+02 -0.49078431197E+01 -0.28017273087E+02  0.31584539598E+02  0.51100000000E-03 0.  1.
         12    1    3    3    0    0 -0.14666806126E+01  0.11529253616E+02 -0.66304064090E+01  0.13380475706E+02  0.00000000000E+00 0. -1.
</event>
<event>
 7    1  0.2746803E-013  0.5052885E+02  0.7816164E-02  0.1300439E+00
        -11   -1    0    0    0    0  0.00000000000E+00  0.00000000000E+00  0.45593999997E+02  0.45594000000E+02  0.51100000000E-03 0.  1.
         11   -1    0    0    0    0 -0.00000000000E+00 -0.00000000000E+00 -0.45593999997E+02  0.45594000000E+02  0.51100000000E-03 0. -1.
    9900012    2    1    2    0    0  0.39370531442E+02 -0.98563123169E+01  0.24456039831E+01  0.50528848295E+02  0.29999964878E+02 0.  0.
         12    1    1    2    0    0 -0.39370531442E+02  0.98563123169E+01 -0.24456039831E+01  0.40659151705E+02  0.00000000000E+00 0. -1.
         11    1    3    3    0    0  0.23463720470E+02  0.16465912536E+01 -0.76732351668E+01  0.24741381918E+02  0.51100000000E-03 0. -1.
        -11    1    3    3    0    0 -0.20720075482E+01 -0.19852491364E+01 -0.38122480299E+00  0.28947818614E+01  0.51100000000E-03 0.  1.
        -12    1    3    3    0    0  0.17978818520E+02 -0.95176544340E+01  0.10500063953E+02  0.22892684516E+02  0.00000000000E+00 0.  1.
</event>
<event>
 7    1  0.2746803E-013  0.5052886E+02  0.7816164E-02  0.1300439E+00
        -11   -1    0    0    0    0  0.00000000000E+00  0.00000000000E+00  0.45593999997E+02  0.45594000000E+02  0.51100000000E-03 0.  1.
         11   -1    0    0    0    0 -0.00000000000E+00 -0.00000000000E+00 -0.45593999997E+02  0.45594000000E+02  0.51100000000E-03 0. -1.
    9900012    2    1    2    0    0  0.10303924202E+01 -0.10541583122E+02  0.39255306848E+02  0.50528858359E+02  0.29999995469E+02 0.  0.
         12    1    1    2    0    0 -0.10303924202E+01  0.10541583122E+02 -0.39255306848E+02  0.40659141641E+02  0.00000000000E+00 0. -1.
         11    1    3    3    0    0  0.35173587874E+01 -0.10722820066E+02  0.40266895417E+02  0.41818339874E+02  0.51100000000E-03 0.  1.
        -11    1    3    3    0    0  0.28280701416E+01  0.12685983726E+01  0.34399412214E+00  0.31185982065E+01  0.51100000000E-03 0. -1.
        -12    1    3    3    0    0 -0.53150365087E+01 -0.10873614293E+01 -0.13555826920E+01  0.55919202786E+01  0.00000000000E+00 0.  1.
</event>
<event>
 7    1  0.2746803E-013  0.5052886E+02  0.7816164E-02  0.1300439E+00
        -11   -1    0    0    0    0  0.00000000000E+00  0.00000000000E+00  0.45593999997E+02  0.45594000000E+02  0.51100000000E-03 0.  1.
         11   -1    0    0    0    0 -0.00000000000E+00 -0.00000000000E+00 -0.45593999997E+02  0.45594000000E+02  0.51100000000E-03 0. -1.
    9900012    2    1    2    0    0  0.26269945777E+02  0.12609572131E+02  0.28355850993E+02  0.50528860241E+02  0.30000001188E+02 0.  0.
         12    1    1    2    0    0 -0.26269945777E+02 -0.12609572131E+02 -0.28355850993E+02  0.40659139759E+02  0.00000000000E+00 0. -1.
         11    1    3    3    0    0  0.44659451465E+01  0.35584100512E+01 -0.62143551313E-01  0.57105875552E+01  0.51100000000E-03 0. -1.
        -11    1    3    3    0    0  0.17455437410E+02  0.10532104801E+01  0.29012985906E+01  0.17726225804E+02  0.51100000000E-03 0.  1.
         12    1    3    3    0    0  0.43485632207E+01  0.79979515995E+01  0.25516695953E+02  0.27092046882E+02  0.00000000000E+00 0. -1.
</event>
<event>
 7    1  0.2746803E-013  0.5052886E+02  0.7816164E-02  0.1300439E+00
        -11   -1    0    0    0    0  0.00000000000E+00  0.00000000000E+00  0.45593999997E+02  0.45594000000E+02  0.51100000000E-03 0.  1.
         11   -1    0    0    0    0 -0.00000000000E+00 -0.00000000000E+00 -0.45593999997E+02  0.45594000000E+02  0.51100000000E-03 0. -1.
    9900012    2    1    2    0    0 -0.16198341568E+02 -0.34028491858E+02  0.15259132391E+02  0.50528860203E+02  0.30000001073E+02 0.  0.
         12    1    1    2    0    0  0.16198341568E+02  0.34028491858E+02 -0.15259132391E+02  0.40659139797E+02  0.00000000000E+00 0. -1.
         11    1    3    3    0    0 -0.28543708271E+01 -0.10856486075E+02 -0.41428656601E+01  0.11965536296E+02  0.51100000000E-03 0. -1.
        -11    1    3    3    0    0 -0.11478508031E+01 -0.19516520388E+02  0.69349602217E+01  0.20743813609E+02  0.51100000000E-03 0.  1.
        -12    1    3    3    0    0 -0.12196119937E+02 -0.36554853954E+01  0.12467037830E+02  0.17819510298E+02  0.00000000000E+00 0.  1.
</event>
<event>
 7    1  0.2746803E-013  0.5052886E+02  0.7816164E-02  0.1300439E+00
        -11   -1    0    0    0    0  0.00000000000E+00  0.00000000000E+00  0.45593999997E+02  0.45594000000E+02  0.51100000000E-03 0.  1.
         11   -1    0    0    0    0 -0.00000000000E+00 -0.00000000000E+00 -0.45593999997E+02  0.45594000000E+02  0.51100000000E-03 0. -1.
    9900012    2    1    2    0    0  0.39113397127E+02 -0.10760287668E+02 -0.27429939485E+01  0.50528860298E+02  0.30000001361E+02 0.  0.
         12    1    1    2    0    0 -0.39113397127E+02  0.10760287668E+02  0.27429939485E+01  0.40659139702E+02  0.00000000000E+00 0. -1.
         11    1    3    3    0    0 -0.24494021957E+01 -0.15207778802E+01  0.30281457453E+01  0.41811485734E+01  0.51100000000E-03 0. -1.
        -11    1    3    3    0    0  0.10751165377E+02  0.17234248916E+01  0.49093266496E+01  0.11944004301E+02  0.51100000000E-03 0.  1.
         12    1    3    3    0    0  0.30811633946E+02 -0.10962934679E+02 -0.10680466343E+02  0.34403707424E+02  0.00000000000E+00 0. -1.
</event>
<event>
 7    1  0.2746803E-013  0.5052885E+02  0.7816164E-02  0.1300439E+00
        -11   -1    0    0    0    0  0.00000000000E+00  0.00000000000E+00  0.45593999997E+02  0.45594000000E+02  0.51100000000E-03 0.  1.
         11   -1    0    0    0    0 -0.00000000000E+00 -0.00000000000E+00 -0.45593999997E+02  0.45594000000E+02  0.51100000000E-03 0. -1.
    9900012    2    1    2    0    0 -0.54695032614E+00  0.18187171541E+01  0.40614765808E+02  0.50528854800E+02  0.29999984651E+02 0.  0.
         12    1    1    2    0    0  0.54695032614E+00 -0.18187171541E+01 -0.40614765808E+02  0.40659145200E+02  0.00000000000E+00 0. -1.
         11    1    3    3    0    0 -0.40149311679E+01  0.53320251057E+01  0.36072921554E+01  0.75870100149E+01  0.51100000000E-03 0. -1.
        -11    1    3    3    0    0 -0.80428571153E+01 -0.57895255728E+01  0.19370636217E+02  0.21758393889E+02  0.51100000000E-03 0.  1.
        -12    1    3    3    0    0  0.11510837957E+02  0.22762176212E+01  0.17636837436E+02  0.21183450896E+02  0.00000000000E+00 0.  1.
</event>
<event>
 7    1  0.2746803E-013  0.5052886E+02  0.7816164E-02  0.1300439E+00
        -11   -1    0    0    0    0  0.00000000000E+00  0.00000000000E+00  0.45593999997E+02  0.45594000000E+02  0.51100000000E-03 0. -1.
         11   -1    0    0    0    0 -0.00000000000E+00 -0.00000000000E+00 -0.45593999997E+02  0.45594000000E+02  0.51100000000E-03 0.  1.
    9900012    2    1    2    0    0  0.35560579197E+02  0.17681249738E+02 -0.87168957965E+01  0.50528860099E+02  0.30000000758E+02 0.  0.
         12    1    1    2    0    0 -0.35560579197E+02 -0.17681249738E+02  0.87168957965E+01  0.40659139901E+02  0.00000000000E+00 0. -1.
         11    1    3    3    0    0  0.63134483764E+01 -0.62311103284E+00  0.76633258603E+01  0.99485909184E+01  0.51100000000E-03 0. -1.
        -11    1    3    3    0    0  0.10763801809E+02 -0.54850883842E-01 -0.72370736130E+01  0.12970646581E+02  0.51100000000E-03 0.  1.
        -12    1    3    3    0    0  0.18483329012E+02  0.18359211655E+02 -0.91431480438E+01  0.27609622600E+02  0.00000000000E+00 0.  1.
</event>
<event>
 7    1  0.2746803E-013  0.5052885E+02  0.7816164E-02  0.1300439E+00
        -11   -1    0    0    0    0  0.00000000000E+00  0.00000000000E+00  0.45593999997E+02  0.45594000000E+02  0.51100000000E-03 0.  1.
         11   -1    0    0    0    0 -0.00000000000E+00 -0.00000000000E+00 -0.45593999997E+02  0.45594000000E+02  0.51100000000E-03 0. -1.
    9900012    2    1    2    0    0 -0.29266436430E+02  0.18886641711E+02  0.20974682863E+02  0.50528845341E+02  0.29999955897E+02 0.  0.
         12    1    1    2    0    0  0.29266436430E+02 -0.18886641711E+02 -0.20974682863E+02  0.40659154659E+02  0.00000000000E+00 0. -1.
         11    1    3    3    0    0 -0.65385628183E+01 -0.35444989553E+01  0.12491347659E+02  0.14537883036E+02  0.51100000000E-03 0. -1.
        -11    1    3    3    0    0 -0.19128074866E+02  0.17218606247E+02  0.12374237094E+02  0.28556704871E+02  0.51100000000E-03 0.  1.
        -12    1    3    3    0    0 -0.35997987455E+01  0.52125344184E+01 -0.38909018895E+01  0.74342574333E+01  0.00000000000E+00 0.  1.
</event>
<event>
 7    1  0.2746803E-013  0.5052886E+02  0.7816164E-02  0.1300439E+00
        -11   -1    0    0    0    0  0.00000000000E+00  0.00000000000E+00  0.45593999997E+02  0.45594000000E+02  0.51100000000E-03 0. -1.
         11   -1    0    0    0    0 -0.00000000000E+00 -0.00000000000E+00 -0.45593999997E+02  0.45594000000E+02  0.51100000000E-03 0.  1.
    9900012    2    1    2    0    0  0.20369446864E+02 -0.27462859747E+02  0.22000960225E+02  0.50528864718E+02  0.30000014797E+02 0.  0.
         12    1    1    2    0    0 -0.20369446864E+02  0.27462859747E+02 -0.22000960225E+02  0.40659135282E+02  0.00000000000E+00 0. -1.
         11    1    3    3    0    0  0.42395235270E+01 -0.18750065611E+02  0.99680872643E+01  0.21654128570E+02  0.51100000000E-03 0. -1.
        -11    1    3    3    0    0  0.29621044244E+01  0.14045951049E+01  0.11821442558E+02  0.12267577367E+02  0.51100000000E-03 0.  1.
        -12    1    3    3    0    0  0.13167818912E+02 -0.10117389242E+02  0.21143040228E+00  0.16607158782E+02  0.00000000000E+00 0.  1.
</event>
<event>
 7    1  0.2746803E-013  0.5052893E+02  0.7816164E-02  0.1300439E+00
        -11   -1    0    0    0    0  0.00000000000E+00  0.00000000000E+00  0.45593999997E+02  0.45594000000E+02  0.51100000000E-03 0.  1.
         11   -1    0    0    0    0 -0.00000000000E+00 -0.00000000000E+00 -0.45593999997E+02  0.45594000000E+02  0.51100000000E-03 0. -1.
    9900012    2    1    2    0    0  0.41931199944E+01  0.20519546143E+02  0.34850049270E+02  0.50528930122E+02  0.30000213599E+02 0.  0.
         12    1    1    2    0    0 -0.41931199944E+01 -0.20519546143E+02 -0.34850049270E+02  0.40659069878E+02  0.00000000000E+00 0. -1.
         11    1    3    3    0    0  0.11229510853E+02  0.13606450012E+02  0.22107265482E+02  0.28283715868E+02  0.51100000000E-03 0.  1.
        -11    1    3    3    0    0  0.34030754121E+01  0.27013037403E+01 -0.10219990769E+01  0.44634567918E+01  0.51100000000E-03 0. -1.
        -12    1    3    3    0    0 -0.10439466271E+02  0.42117923907E+01  0.13764782864E+02  0.17781757463E+02  0.00000000000E+00 0.  1.
</event>
<event>
 7    1  0.2746803E-013  0.5052886E+02  0.7816164E-02  0.1300439E+00
        -11   -1    0    0    0    0  0.00000000000E+00  0.00000000000E+00  0.45593999997E+02  0.45594000000E+02  0.51100000000E-03 0.  1.
         11   -1    0    0    0    0 -0.00000000000E+00 -0.00000000000E+00 -0.45593999997E+02  0.45594000000E+02  0.51100000000E-03 0. -1.
    9900012    2    1    2    0    0 -0.29081561202E+00  0.39733532810E+02 -0.86213256758E+01  0.50528862531E+02  0.30000008150E+02 0.  0.
         12    1    1    2    0    0  0.29081561202E+00 -0.39733532810E+02  0.86213256758E+01  0.40659137469E+02  0.00000000000E+00 0. -1.
         11    1    3    3    0    0  0.62983093188E+01  0.14189800168E+01 -0.23537928850E+01  0.68718662509E+01  0.51100000000E-03 0.  1.
        -11    1    3    3    0    0  0.74164717343E+00  0.24264604895E+02 -0.11641789113E+02  0.26923082016E+02  0.51100000000E-03 0. -1.
        -12    1    3    3    0    0 -0.73307721043E+01  0.14049947898E+02  0.53742563222E+01  0.16733914264E+02  0.00000000000E+00 0.  1.
</event>
<event>
 7    1  0.2746803E-013  0.5052886E+02  0.7816164E-02  0.1300439E+00
        -11   -1    0    0    0    0  0.00000000000E+00  0.00000000000E+00  0.45593999997E+02  0.45594000000E+02  0.51100000000E-03 0. -1.
         11   -1    0    0    0    0 -0.00000000000E+00 -0.00000000000E+00 -0.45593999997E+02  0.45594000000E+02  0.51100000000E-03 0.  1.
    9900012    2    1    2    0    0 -0.85549853451E+01 -0.35822681044E+02 -0.17225365632E+02  0.50528862373E+02  0.30000007668E+02 0.  0.
         12    1    1    2    0    0  0.85549853451E+01  0.35822681044E+02  0.17225365632E+02  0.40659137627E+02  0.00000000000E+00 0. -1.
         11    1    3    3    0    0  0.15979393201E+01  0.29987040020E+01 -0.87479600794E+01  0.93846918743E+01  0.51100000000E-03 0. -1.
        -11    1    3    3    0    0 -0.62331335481E+01 -0.18109064215E+02 -0.32478183038E+01  0.19425202304E+02  0.51100000000E-03 0.  1.
        -12    1    3    3    0    0 -0.39197911171E+01 -0.20712320832E+02 -0.52295872487E+01  0.21718968194E+02  0.00000000000E+00 0.  1.
</event>
<event>
 7    1  0.2746803E-013  0.5052883E+02  0.7816164E-02  0.1300439E+00
        -11   -1    0    0    0    0  0.00000000000E+00  0.00000000000E+00  0.45593999997E+02  0.45594000000E+02  0.51100000000E-03 0.  1.
         11   -1    0    0    0    0 -0.00000000000E+00 -0.00000000000E+00 -0.45593999997E+02  0.45594000000E+02  0.51100000000E-03 0. -1.
    9900012    2    1    2    0    0 -0.69980192411E+01 -0.18004102853E+02  0.35777765423E+02  0.50528825248E+02  0.29999894824E+02 0.  0.
         12    1    1    2    0    0  0.69980192411E+01  0.18004102853E+02 -0.35777765423E+02  0.40659174752E+02  0.00000000000E+00 0. -1.
         11    1    3    3    0    0 -0.12494051092E+02 -0.99263879428E+01  0.10286797263E+02  0.18985591602E+02  0.51100000000E-03 0. -1.
        -11    1    3    3    0    0 -0.19799581964E+00  0.41030795605E+01  0.11159996178E+02  0.11892013252E+02  0.51100000000E-03 0.  1.
         12    1    3    3    0    0  0.56940276705E+01 -0.12180794471E+02  0.14330971982E+02  0.19651220395E+02  0.00000000000E+00 0. -1.
</event>
<event>
 7    1  0.2746803E-013  0.5052887E+02  0.7816164E-02  0.1300439E+00
        -11   -1    0    0    0    0  0.00000000000E+00  0.00000000000E+00  0.45593999997E+02  0.45594000000E+02  0.51100000000E-03 0.  1.
         11   -1    0    0    0    0 -0.00000000000E+00 -0.00000000000E+00 -0.45593999997E+02  0.45594000000E+02  0.51100000000E-03 0. -1.
    9900012    2    1    2    0    0  0.71351233525E+01  0.38626526635E+02 -0.10499820789E+02  0.50528870869E+02  0.30000033493E+02 0.  0.
         12    1    1    2    0    0 -0.71351233525E+01 -0.38626526635E+02  0.10499820789E+02  0.40659129131E+02  0.00000000000E+00 0. -1.
         11    1    3    3    0    0  0.14350274625E+02  0.21861610921E+02 -0.13272348505E+02  0.29326023409E+02  0.51100000000E-03 0. -1.
        -11    1    3    3    0    0  0.61661175796E+00  0.10460279974E+02 -0.85759155064E+00  0.10513473771E+02  0.51100000000E-03 0.  1.
         12    1    3    3    0    0 -0.78317630308E+01  0.63046357400E+01  0.36301192667E+01  0.10689373690E+02  0.00000000000E+00 0. -1.
</event>
<event>
 7    1  0.2746803E-013  0.5052888E+02  0.7816164E-02  0.1300439E+00
        -11   -1    0    0    0    0  0.00000000000E+00  0.00000000000E+00  0.45593999997E+02  0.45594000000E+02  0.51100000000E-03 0.  1.
         11   -1    0    0    0    0 -0.00000000000E+00 -0.00000000000E+00 -0.45593999997E+02  0.45594000000E+02  0.51100000000E-03 0. -1.
    9900012    2    1    2    0    0  0.20449535668E+02 -0.96289387509E+01  0.33797393778E+02  0.50528882982E+02  0.30000070311E+02 0.  0.
         12    1    1    2    0    0 -0.20449535668E+02  0.96289387509E+01 -0.33797393778E+02  0.40659117018E+02  0.00000000000E+00 0. -1.
         11    1    3    3    0    0 -0.16881096746E+01 -0.24595747875E+01 -0.23292353228E+01  0.37847800278E+01  0.51100000000E-03 0. -1.
        -11    1    3    3    0    0  0.16350531416E+02 -0.34647985815E+01  0.94572355446E+01  0.19203749926E+02  0.51100000000E-03 0.  1.
         12    1    3    3    0    0  0.57871139268E+01 -0.37045653819E+01  0.26669393556E+02  0.27540353028E+02  0.00000000000E+00 0. -1.
</event>
<event>
 7    1  0.2746803E-013  0.5052893E+02  0.7816164E-02  0.1300439E+00
        -11   -1    0    0    0    0  0.00000000000E+00  0.00000000000E+00  0.45593999997E+02  0.45594000000E+02  0.51100000000E-03 0. -1.
         11   -1    0    0    0    0 -0.00000000000E+00 -0.00000000000E+00 -0.45593999997E+02  0.45594000000E+02  0.51100000000E-03 0.  1.
    9900012    2    1    2    0    0  0.36737753120E+02 -0.65365861687E+01 -0.16148397971E+02  0.50528926965E+02  0.30000204001E+02 0.  0.
         12    1    1    2    0    0 -0.36737753120E+02  0.65365861687E+01  0.16148397971E+02  0.40659073035E+02  0.00000000000E+00 0. -1.
         11    1    3    3    0    0 -0.45163169462E+00  0.23460482344E+01  0.40133165958E+01  0.46706127933E+01  0.51100000000E-03 0. -1.
        -11    1    3    3    0    0  0.22547494171E+02 -0.79274878174E-01 -0.51793339234E+01  0.23134849860E+02  0.51100000000E-03 0.  1.
        -12    1    3    3    0    0  0.14641890643E+02 -0.88033595249E+01 -0.14982380644E+02  0.22723464311E+02  0.00000000000E+00 0.  1.
</event>
<event>
 7    1  0.2746803E-013  0.5052887E+02  0.7816164E-02  0.1300439E+00
        -11   -1    0    0    0    0  0.00000000000E+00  0.00000000000E+00  0.45593999997E+02  0.45594000000E+02  0.51100000000E-03 0. -1.
         11   -1    0    0    0    0 -0.00000000000E+00 -0.00000000000E+00 -0.45593999997E+02  0.45594000000E+02  0.51100000000E-03 0.  1.
    9900012    2    1    2    0    0  0.29046978935E+02  0.26677866092E+02  0.98858324149E+01  0.50528865638E+02  0.30000017594E+02 0.  0.
         12    1    1    2    0    0 -0.29046978935E+02 -0.26677866092E+02 -0.98858324149E+01  0.40659134362E+02  0.00000000000E+00 0. -1.
         11    1    3    3    0    0  0.48297286895E+01 -0.94209748020E+00  0.29205508231E+01  0.57221887637E+01  0.51100000000E-03 0. -1.
        -11    1    3    3    0    0  0.80625640611E+01  0.17995045742E+02  0.14575160498E+02  0.24520642616E+02  0.51100000000E-03 0.  1.
         12    1    3    3    0    0  0.16154686185E+02  0.96249178305E+01 -0.76098789065E+01  0.20286034259E+02  0.00000000000E+00 0. -1.
</event>
<event>
 7    1  0.2746803E-013  0.5052886E+02  0.7816164E-02  0.1300439E+00
        -11   -1    0    0    0    0  0.00000000000E+00  0.00000000000E+00  0.45593999997E+02  0.45594000000E+02  0.51100000000E-03 0. -1.
         11   -1    0    0    0    0 -0.00000000000E+00 -0.00000000000E+00 -0.45593999997E+02  0.45594000000E+02  0.51100000000E-03 0.  1.
    9900012    2    1    2    0    0 -0.27981321186E+02 -0.35672817689E+01 -0.29282862808E+02  0.50528857256E+02  0.29999992114E+02 0.  0.
         12    1    1    2    0    0  0.27981321186E+02  0.35672817689E+01  0.29282862808E+02  0.40659142744E+02  0.00000000000E+00 0. -1.
         11    1    3    3    0    0 -0.71584081717E+01  0.76853569433E+01  0.10691610898E+01  0.10557017789E+02  0.51100000000E-03 0. -1.
        -11    1    3    3    0    0 -0.77299044302E+01 -0.26790132936E+01 -0.35135594123E+01  0.89035742672E+01  0.51100000000E-03 0.  1.
        -12    1    3    3    0    0 -0.13093008584E+02 -0.85736254186E+01 -0.26838464485E+02  0.31068265199E+02  0.00000000000E+00 0.  1.
</event>
<event>
 7    1  0.2746803E-013  0.5052887E+02  0.7816164E-02  0.1300439E+00
        -11   -1    0    0    0    0  0.00000000000E+00  0.00000000000E+00  0.45593999997E+02  0.45594000000E+02  0.51100000000E-03 0.  1.
         11   -1    0    0    0    0 -0.00000000000E+00 -0.00000000000E+00 -0.45593999997E+02  0.45594000000E+02  0.51100000000E-03 0. -1.
    9900012    2    1    2    0    0 -0.10306164931E+02 -0.34156827339E+02  0.19500229856E+02  0.50528869982E+02  0.30000030796E+02 0.  0.
         12    1    1    2    0    0  0.10306164931E+02  0.34156827339E+02 -0.19500229856E+02  0.40659130018E+02  0.00000000000E+00 0. -1.
         11    1    3    3    0    0  0.34026775884E+01 -0.15163483654E+02  0.91339150454E+01  0.18026032719E+02  0.51100000000E-03 0. -1.
        -11    1    3    3    0    0 -0.84890215117E+01 -0.22804546520E+02  0.78693763316E+01  0.25574164939E+02  0.51100000000E-03 0.  1.
         12    1    3    3    0    0 -0.52198210079E+01  0.38112028347E+01  0.24969384786E+01  0.69286723236E+01  0.00000000000E+00 0. -1.
</event>
<event>
 7    1  0.2746803E-013  0.5052885E+02  0.7816164E-02  0.1300439E+00
        -11   -1    0    0    0    0  0.00000000000E+00  0.00000000000E+00  0.45593999997E+02  0.45594000000E+02  0.51100000000E-03 0. -1.
         11   -1    0    0    0    0 -0.00000000000E+00 -0.00000000000E+00 -0.45593999997E+02  0.45594000000E+02  0.51100000000E-03 0.  1.
    9900012    2    1    2    0    0  0.20010922406E+02  0.23689750461E+02 -0.26296860286E+02  0.50528854001E+02  0.29999982221E+02 0.  0.
         12    1    1    2    0    0 -0.20010922406E+02 -0.23689750461E+02  0.26296860286E+02  0.40659145999E+02  0.00000000000E+00 0. -1.
         11    1    3    3    0    0  0.11907240950E+02  0.22809995504E+02 -0.15071403005E+02  0.29819883814E+02  0.51100000000E-03 0. -1.
        -11    1    3    3    0    0  0.46134948901E+01  0.69485071936E+01 -0.10867240571E+02  0.13699014753E+02  0.51100000000E-03 0.  1.
         12    1    3    3    0    0  0.34901865661E+01 -0.60687522360E+01 -0.35821671097E+00  0.70099554336E+01  0.00000000000E+00 0. -1.
</event>
<event>
 7    1  0.2746803E-013  0.5052886E+02  0.7816164E-02  0.1300439E+00
        -11   -1    0    0    0    0  0.00000000000E+00  0.00000000000E+00  0.45593999997E+02  0.45594000000E+02  0.51100000000E-03 0.  1.
         11   -1    0    0    0    0 -0.00000000000E+00 -0.00000000000E+00 -0.45593999997E+02  0.45594000000E+02  0.51100000000E-03 0. -1.
    9900012    2    1    2    0    0 -0.33358583570E+02 -0.22901909184E+02  0.39841108873E+01  0.50528859802E+02  0.29999999854E+02 0.  0.
         12    1    1    2    0    0  0.33358583570E+02  0.22901909184E+02 -0.39841108873E+01  0.40659140198E+02  0.00000000000E+00 0. -1.
         11    1    3    3    0    0  0.96668733108E+00 -0.47437893262E+01 -0.57470879722E+01  0.75144555351E+01  0.51100000000E-03 0. -1.
        -11    1    3    3    0    0 -0.14218950147E+02 -0.15062961093E+02  0.91976546520E+01  0.22664249194E+02  0.51100000000E-03 0.  1.
         12    1    3    3    0    0 -0.20106320754E+02 -0.30951587646E+01  0.53354420750E+00  0.20350155072E+02  0.00000000000E+00 0. -1.
</event>
<event>
 7    1  0.2746803E-013  0.5052887E+02  0.7816164E-02  0.1300439E+00
        -11   -1    0    0    0    0  0.00000000000E+00  0.00000000000E+00  0.45593999997E+02  0.45594000000E+02  0.51100000000E-03 0.  1.
         11   -1    0    0    0    0 -0.00000000000E+00 -0.00000000000E+00 -0.45593999997E+02  0.45594000000E+02  0.51100000000E-03 0. -1.
    9900012    2    1    2    0    0  0.25487060508E+02  0.59913646001E+01  0.31107528616E+02  0.50528867696E+02  0.30000023849E+02 0.  0.
         12    1    1    2    0    0 -0.25487060508E+02 -0.59913646001E+01 -0.31107528616E+02  0.40659132304E+02  0.00000000000E+00 0. -1.
         11    1    3    3    0    0  0.17910719000E+02  0.57281743611E+01  0.29914365748E+02  0.35333767348E+02  0.51100000000E-03 0. -1.
        -11    1    3    3    0    0  0.58722712362E+01 -0.47883214317E+00  0.69700534529E+01  0.91265817857E+01  0.51100000000E-03 0.  1.
         12    1    3    3    0    0  0.17040702718E+01  0.74202238211E+00 -0.57768905856E+01  0.60685185626E+01  0.00000000000E+00 0. -1.
</event>
<event>
 7    1  0.2746803E-013  0.5052883E+02  0.7816164E-02  0.1300439E+00
        -11   -1    0    0    0    0  0.00000000000E+00  0.00000000000E+00  0.45593999997E+02  0.45594000000E+02  0.51100000000E-03 0.  1.
         11   -1    0    0    0    0 -0.00000000000E+00 -0.00000000000E+00 -0.45593999997E+02  0.45594000000E+02  0.51100000000E-03 0. -1.
    9900012    2    1    2    0    0  0.12115584963E+02 -0.38411751870E+02  0.55604158481E+01  0.50528827540E+02  0.29999901791E+02 0.  0.
         12    1    1    2    0    0 -0.12115584963E+02  0.38411751870E+02 -0.55604158481E+01  0.40659172460E+02  0.00000000000E+00 0. -1.
         11    1    3    3    0    0 -0.63922509512E+01 -0.10198195072E+02 -0.58519458648E+01  0.13383173227E+02  0.51100000000E-03 0. -1.
        -11    1    3    3    0    0  0.47746464491E+01 -0.77182553352E+01 -0.16585278434E+01  0.92260191308E+01  0.51100000000E-03 0.  1.
        -12    1    3    3    0    0  0.13733189466E+02 -0.20495301462E+02  0.13070889556E+02  0.27919635183E+02  0.00000000000E+00 0.  1.
</event>
<event>
 7    1  0.2746803E-013  0.5052886E+02  0.7816164E-02  0.1300439E+00
        -11   -1    0    0    0    0  0.00000000000E+00  0.00000000000E+00  0.45593999997E+02  0.45594000000E+02  0.51100000000E-03 0.  1.
         11   -1    0    0    0    0 -0.00000000000E+00 -0.00000000000E+00 -0.45593999997E+02  0.45594000000E+02  0.51100000000E-03 0. -1.
    9900012    2    1    2    0    0 -0.18895544233E+02  0.73038800056E+01  0.35253052757E+02  0.50528856088E+02  0.29999988565E+02 0.  0.
         12    1    1    2    0    0  0.18895544233E+02 -0.73038800056E+01 -0.35253052757E+02  0.40659143912E+02  0.00000000000E+00 0. -1.
         11    1    3    3    0    0 -0.77562128482E+01 -0.20688956587E+01  0.28031573729E+02  0.29158331450E+02  0.51100000000E-03 0.  1.
        -11    1    3    3    0    0  0.15010408262E+01 -0.21905951439E+01  0.23850531295E+01  0.35693569922E+01  0.51100000000E-03 0. -1.
        -12    1    3    3    0    0 -0.12640372211E+02  0.11563370808E+02  0.48364258990E+01  0.17801167646E+02  0.00000000000E+00 0.  1.
</event>
<event>
 7    1  0.2746803E-013  0.5052886E+02  0.7816164E-02  0.1300439E+00
        -11   -1    0    0    0    0  0.00000000000E+00  0.00000000000E+00  0.45593999997E+02  0.45594000000E+02  0.51100000000E-03 0. -1.
         11   -1    0    0    0    0 -0.00000000000E+00 -0.00000000000E+00 -0.45593999997E+02  0.45594000000E+02  0.51100000000E-03 0.  1.
    9900012    2    1    2    0    0 -0.51108147360E+01 -0.28849197311E+02 -0.28191650885E+02  0.50528858441E+02  0.29999995716E+02 0.  0.
         12    1    1    2    0    0  0.51108147360E+01  0.28849197311E+02  0.28191650885E+02  0.40659141559E+02  0.00000000000E+00 0. -1.
         11    1    3    3    0    0  0.19508176851E+00 -0.15274493874E+02 -0.47359578544E+01  0.15993045897E+02  0.51100000000E-03 0. -1.
        -11    1    3    3    0    0 -0.94754590778E+01 -0.16831828821E+02 -0.14571771712E+02  0.24195687990E+02  0.51100000000E-03 0.  1.
         12    1    3    3    0    0  0.41695625733E+01  0.32571253837E+01 -0.88839213177E+01  0.10340124554E+02  0.00000000000E+00 0. -1.
</event>
<event>
 7    1  0.2746803E-013  0.5052887E+02  0.7816164E-02  0.1300439E+00
        -11   -1    0    0    0    0  0.00000000000E+00  0.00000000000E+00  0.45593999997E+02  0.45594000000E+02  0.51100000000E-03 0. -1.
         11   -1    0    0    0    0 -0.00000000000E+00 -0.00000000000E+00 -0.45593999997E+02  0.45594000000E+02  0.51100000000E-03 0.  1.
    9900012    2    1    2    0    0  0.24022862126E+02  0.11771650722E+02 -0.30618543754E+02  0.50528869574E+02  0.30000029556E+02 0.  0.
         12    1    1    2    0    0 -0.24022862126E+02 -0.11771650722E+02  0.30618543754E+02  0.40659130426E+02  0.00000000000E+00 0. -1.
         11    1    3    3    0    0 -0.14514559290E+01 -0.31249610780E+01 -0.36868186112E+01  0.50462597818E+01  0.51100000000E-03 0. -1.
        -11    1    3    3    0    0  0.22791963463E+02  0.27790071994E+01 -0.22911950078E+02  0.32436922421E+02  0.51100000000E-03 0.  1.
        -12    1    3    3    0    0  0.26823545917E+01  0.12117604600E+02 -0.40197750651E+01  0.13045687371E+02  0.00000000000E+00 0.  1.
</event>
<event>
 7    1  0.2746803E-013  0.5052886E+02  0.7816164E-02  0.1300439E+00
        -11   -1    0    0    0    0  0.00000000000E+00  0.00000000000E+00  0.45593999997E+02  0.45594000000E+02  0.51100000000E-03 0. -1.
         11   -1    0    0    0    0 -0.00000000000E+00 -0.00000000000E+00 -0.45593999997E+02  0.45594000000E+02  0.51100000000E-03 0.  1.
    9900012    2    1    2    0    0 -0.30343544403E+02  0.26991736192E+02  0.19699619008E+01  0.50528864994E+02  0.30000015634E+02 0.  0.
         12    1    1    2    0    0  0.30343544403E+02 -0.26991736192E+02 -0.19699619008E+01  0.40659135006E+02  0.00000000000E+00 0. -1.
         11    1    3    3    0    0 -0.19312605950E+02  0.79126577011E+01 -0.43320053907E+01  0.21315561720E+02  0.51100000000E-03 0.  1.
        -11    1    3    3    0    0  0.14370099414E+00 -0.32520207963E+01 -0.59099930951E+00  0.33084089349E+01  0.51100000000E-03 0. -1.
        -12    1    3    3    0    0 -0.11174639447E+02  0.22331099287E+02  0.68929666010E+01  0.25904894339E+02  0.00000000000E+00 0.  1.
</event>
<event>
 7    1  0.2746803E-013  0.5052886E+02  0.7816164E-02  0.1300439E+00
        -11   -1    0    0    0    0  0.00000000000E+00  0.00000000000E+00  0.45593999997E+02  0.45594000000E+02  0.51100000000E-03 0.  1.
         11   -1    0    0    0    0 -0.00000000000E+00 -0.00000000000E+00 -0.45593999997E+02  0.45594000000E+02  0.51100000000E-03 0. -1.
    9900012    2    1    2    0    0  0.21565896464E+02 -0.28344980443E+02 -0.19612239992E+02  0.50528858787E+02  0.29999996770E+02 0.  0.
         12    1    1    2    0    0 -0.21565896464E+02  0.28344980443E+02  0.19612239992E+02  0.40659141213E+02  0.00000000000E+00 0. -1.
         11    1    3    3    0    0  0.33107637968E+01 -0.57874891982E+01  0.63450292205E+01  0.92041069207E+01  0.51100000000E-03 0.  1.
        -11    1    3    3    0    0  0.38530913155E+00 -0.21064965194E+01  0.15700110880E+01  0.26553202803E+01  0.51100000000E-03 0. -1.
         12    1    3    3    0    0  0.17869823536E+02 -0.20450994726E+02 -0.27527280300E+02  0.38669431586E+02  0.00000000000E+00 0. -1.
</event>
<event>
 7    1  0.2746803E-013  0.5052886E+02  0.7816164E-02  0.1300439E+00
        -11   -1    0    0    0    0  0.00000000000E+00  0.00000000000E+00  0.45593999997E+02  0.45594000000E+02  0.51100000000E-03 0.  1.
         11   -1    0    0    0    0 -0.00000000000E+00 -0.00000000000E+00 -0.45593999997E+02  0.45594000000E+02  0.51100000000E-03 0. -1.
    9900012    2    1    2    0    0  0.35101031681E+02 -0.19643101896E+02 -0.59356179723E+01  0.50528862800E+02  0.30000008966E+02 0.  0.
         12    1    1    2    0    0 -0.35101031681E+02  0.19643101896E+02  0.59356179723E+01  0.40659137200E+02  0.00000000000E+00 0. -1.
         11    1    3    3    0    0  0.23552717327E+02 -0.28932436664E+01 -0.11422416928E+02  0.26335773411E+02  0.51100000000E-03 0. -1.
        -11    1    3    3    0    0  0.12884036458E+02 -0.11341058619E+02  0.68113286286E+01  0.18466515752E+02  0.51100000000E-03 0.  1.
        -12    1    3    3    0    0 -0.13357221044E+01 -0.54087996105E+01 -0.13245296732E+01  0.57265736372E+01  0.00000000000E+00 0.  1.
</event>
<event>
 7    1  0.2746803E-013  0.5052886E+02  0.7816164E-02  0.1300439E+00
        -11   -1    0    0    0    0  0.00000000000E+00  0.00000000000E+00  0.45593999997E+02  0.45594000000E+02  0.51100000000E-03 0. -1.
         11   -1    0    0    0    0 -0.00000000000E+00 -0.00000000000E+00 -0.45593999997E+02  0.45594000000E+02  0.51100000000E-03 0.  1.
    9900012    2    1    2    0    0  0.20780076366E+02  0.17659918576E+02 -0.30157614188E+02  0.50528855993E+02  0.29999988276E+02 0.  0.
         12    1    1    2    0    0 -0.20780076366E+02 -0.17659918576E+02  0.30157614188E+02  0.40659144007E+02  0.00000000000E+00 0. -1.
         11    1    3    3    0    0  0.19508767933E+02  0.16911663090E+02 -0.11652781370E+02  0.28326377965E+02  0.51100000000E-03 0. -1.
        -11    1    3    3    0    0  0.21404731266E+01  0.43148315658E+01 -0.18690838588E+01  0.51665144323E+01  0.51100000000E-03 0.  1.
        -12    1    3    3    0    0 -0.86916469304E+00 -0.35665760802E+01 -0.16635748959E+02  0.17035963595E+02  0.00000000000E+00 0.  1.
</event>
<event>
 7    1  0.2746803E-013  0.5052884E+02  0.7816164E-02  0.1300439E+00
        -11   -1    0    0    0    0  0.00000000000E+00  0.00000000000E+00  0.45593999997E+02  0.45594000000E+02  0.51100000000E-03 0.  1.
         11   -1    0    0    0    0 -0.00000000000E+00 -0.00000000000E+00 -0.45593999997E+02  0.45594000000E+02  0.51100000000E-03 0. -1.
    9900012    2    1    2    0    0 -0.28562707319E+02 -0.22774237052E+02  0.17851415351E+02  0.50528841711E+02  0.29999944866E+02 0.  0.
         12    1    1    2    0    0  0.28562707319E+02  0.22774237052E+02 -0.17851415351E+02  0.40659158289E+02  0.00000000000E+00 0. -1.
         11    1    3    3    0    0 -0.62580589009E+01  0.21497363026E+01  0.98579071795E+01  0.11872784071E+02  0.51100000000E-03 0. -1.
        -11    1    3    3    0    0 -0.23005245880E+02 -0.18839930277E+02  0.11161387083E+02  0.31760996092E+02  0.51100000000E-03 0.  1.
        -12    1    3    3    0    0  0.70059746166E+00 -0.60840430770E+01 -0.31678789109E+01  0.68950615487E+01  0.00000000000E+00 0.  1.
</event>
<event>
 7    1  0.2746803E-013  0.5052886E+02  0.7816164E-02  0.1300439E+00
        -11   -1    0    0    0    0  0.00000000000E+00  0.00000000000E+00  0.45593999997E+02  0.45594000000E+02  0.51100000000E-03 0.  1.
         11   -1    0    0    0    0 -0.00000000000E+00 -0.00000000000E+00 -0.45593999997E+02  0.45594000000E+02  0.51100000000E-03 0. -1.
    9900012    2    1    2    0    0 -0.15501239790E+01 -0.21046069823E+02  0.34753785866E+02  0.50528861158E+02  0.30000003977E+02 0.  0.
         12    1    1    2    0    0  0.15501239790E+01  0.21046069823E+02 -0.34753785866E+02  0.40659138842E+02  0.00000000000E+00 0. -1.
         11    1    3    3    0    0 -0.72688132139E+00  0.10838602443E+01 -0.34018387324E+01  0.36435719434E+01  0.51100000000E-03 0. -1.
        -11    1    3    3    0    0  0.32544908304E+00 -0.32972881182E+01  0.21389593588E+02  0.21644693118E+02  0.51100000000E-03 0.  1.
        -12    1    3    3    0    0 -0.11486917406E+01 -0.18832641949E+02  0.16766031010E+02  0.25240596097E+02  0.00000000000E+00 0.  1.
</event>
<event>
 7    1  0.2746803E-013  0.5052885E+02  0.7816164E-02  0.1300439E+00
        -11   -1    0    0    0    0  0.00000000000E+00  0.00000000000E+00  0.45593999997E+02  0.45594000000E+02  0.51100000000E-03 0.  1.
         11   -1    0    0    0    0 -0.00000000000E+00 -0.00000000000E+00 -0.45593999997E+02  0.45594000000E+02  0.51100000000E-03 0. -1.
    9900012    2    1    2    0    0 -0.30644627400E+01 -0.63210832591E+01  0.40047711296E+02  0.50528853360E+02  0.29999980273E+02 0.  0.
         12    1    1    2    0    0  0.30644627400E+01  0.63210832591E+01 -0.40047711296E+02  0.40659146640E+02  0.00000000000E+00 0. -1.
         11    1    3    3    0    0  0.43888336354E+00 -0.54522947263E+01  0.26905954237E+02  0.27456338249E+02  0.51100000000E-03 0. -1.
        -11    1    3    3    0    0  0.52004759506E+00 -0.50166046304E+01  0.15891804303E+02  0.16672918634E+02  0.51100000000E-03 0.  1.
         12    1    3    3    0    0 -0.40233936986E+01  0.41478160977E+01 -0.27500472433E+01  0.63995964775E+01  0.00000000000E+00 0. -1.
</event>
<event>
 7    1  0.2746803E-013  0.5052886E+02  0.7816164E-02  0.1300439E+00
        -11   -1    0    0    0    0  0.00000000000E+00  0.00000000000E+00  0.45593999997E+02  0.45594000000E+02  0.51100000000E-03 0.  1.
         11   -1    0    0    0    0 -0.00000000000E+00 -0.00000000000E+00 -0.45593999997E+02  0.45594000000E+02  0.51100000000E-03 0. -1.
    9900012    2    1    2    0    0 -0.39896639793E+02  0.22745551453E+01  0.74999952134E+01  0.50528863314E+02  0.30000010529E+02 0.  0.
         12    1    1    2    0    0  0.39896639793E+02 -0.22745551453E+01 -0.74999952134E+01  0.40659136686E+02  0.00000000000E+00 0. -1.
         11    1    3    3    0    0 -0.17636958248E+02  0.82325906729E+01  0.28134557078E+01  0.19666046342E+02  0.51100000000E-03 0. -1.
        -11    1    3    3    0    0 -0.15355395300E+02  0.57755507372E+01  0.52837850516E+01  0.17235531204E+02  0.51100000000E-03 0.  1.
         12    1    3    3    0    0 -0.69042862442E+01 -0.11733586265E+02 -0.59724554597E+00  0.13627285769E+02  0.00000000000E+00 0. -1.
</event>
<event>
 7    1  0.2746803E-013  0.5052885E+02  0.7816164E-02  0.1300439E+00
        -11   -1    0    0    0    0  0.00000000000E+00  0.00000000000E+00  0.45593999997E+02  0.45594000000E+02  0.51100000000E-03 0.  1.
         11   -1    0    0    0    0 -0.00000000000E+00 -0.00000000000E+00 -0.45593999997E+02  0.45594000000E+02  0.51100000000E-03 0. -1.
    9900012    2    1    2    0    0  0.30460405438E+02  0.31741293558E+01 -0.26744260642E+02  0.50528845141E+02  0.29999955290E+02 0.  0.
         12    1    1    2    0    0 -0.30460405438E+02 -0.31741293558E+01  0.26744260642E+02  0.40659154859E+02  0.00000000000E+00 0. -1.
         11    1    3    3    0    0  0.11624716785E+01  0.18080880002E+01 -0.83224960705E+01  0.85956072342E+01  0.51100000000E-03 0. -1.
        -11    1    3    3    0    0  0.20680107299E+02  0.12018228658E+02 -0.12742024804E+02  0.27100993605E+02  0.51100000000E-03 0.  1.
        -12    1    3    3    0    0  0.86178264601E+01 -0.10652187302E+02 -0.56797397666E+01  0.14832244302E+02  0.00000000000E+00 0.  1.
</event>
<event>
 7    1  0.2746803E-013  0.5052886E+02  0.7816164E-02  0.1300439E+00
        -11   -1    0    0    0    0  0.00000000000E+00  0.00000000000E+00  0.45593999997E+02  0.45594000000E+02  0.51100000000E-03 0.  1.
         11   -1    0    0    0    0 -0.00000000000E+00 -0.00000000000E+00 -0.45593999997E+02  0.45594000000E+02  0.51100000000E-03 0. -1.
    9900012    2    1    2    0    0  0.23149821975E+02 -0.37343938605E+01  0.33216043342E+02  0.50528862155E+02  0.30000007007E+02 0.  0.
         12    1    1    2    0    0 -0.23149821975E+02  0.37343938605E+01 -0.33216043342E+02  0.40659137845E+02  0.00000000000E+00 0. -1.
         11    1    3    3    0    0 -0.22423751855E+01  0.26513988990E+01  0.15844901135E+01  0.38169060475E+01  0.51100000000E-03 0. -1.
        -11    1    3    3    0    0  0.46166351773E+01 -0.11711439559E+02  0.86298240142E+01  0.15262535820E+02  0.51100000000E-03 0.  1.
        -12    1    3    3    0    0  0.20775561984E+02  0.53256467992E+01  0.23001729214E+02  0.31449420287E+02  0.00000000000E+00 0.  1.
</event>
<event>
 7    1  0.2746803E-013  0.5052889E+02  0.7816164E-02  0.1300439E+00
        -11   -1    0    0    0    0  0.00000000000E+00  0.00000000000E+00  0.45593999997E+02  0.45594000000E+02  0.51100000000E-03 0. -1.
         11   -1    0    0    0    0 -0.00000000000E+00 -0.00000000000E+00 -0.45593999997E+02  0.45594000000E+02  0.51100000000E-03 0.  1.
    9900012    2    1    2    0    0 -0.17078738766E+02  0.36829453313E+02  0.22519899588E+01  0.50528887763E+02  0.30000084843E+02 0.  0.
         12    1    1    2    0    0  0.17078738766E+02 -0.36829453313E+02 -0.22519899588E+01  0.40659112237E+02  0.00000000000E+00 0. -1.
         11    1    3    3    0    0 -0.20662817434E+02  0.24835197074E+02 -0.43628556703E+01  0.32600207789E+02  0.51100000000E-03 0. -1.
        -11    1    3    3    0    0  0.66783485152E+00  0.65432168022E+01 -0.23968472243E+01  0.70003261629E+01  0.51100000000E-03 0.  1.
         12    1    3    3    0    0  0.29162438162E+01  0.54510394367E+01  0.90116928534E+01  0.10928353811E+02  0.00000000000E+00 0. -1.
</event>
<event>
 7    1  0.2746803E-013  0.5052887E+02  0.7816164E-02  0.1300439E+00
        -11   -1    0    0    0    0  0.00000000000E+00  0.00000000000E+00  0.45593999997E+02  0.45594000000E+02  0.51100000000E-03 0.  1.
         11   -1    0    0    0    0 -0.00000000000E+00 -0.00000000000E+00 -0.45593999997E+02  0.45594000000E+02  0.51100000000E-03 0. -1.
    9900012    2    1    2    0    0  0.14008933113E+02  0.16890062886E+02  0.34229233810E+02  0.50528869679E+02  0.30000029876E+02 0.  0.
         12    1    1    2    0    0 -0.14008933113E+02 -0.16890062886E+02 -0.34229233810E+02  0.40659130321E+02  0.00000000000E+00 0. -1.
         11    1    3    3    0    0  0.46536928960E+01 -0.44775529618E+01 -0.11341704008E+01  0.65568041647E+01  0.51100000000E-03 0. -1.
        -11    1    3    3    0    0  0.96944235417E-01  0.26177174219E-01  0.82332993040E+01  0.82339116536E+01  0.51100000000E-03 0.  1.
        -12    1    3    3    0    0  0.92582959815E+01  0.21341438673E+02  0.27130104907E+02  0.35738153861E+02  0.00000000000E+00 0.  1.
</event>
<event>
 7    1  0.2746803E-013  0.5052886E+02  0.7816164E-02  0.1300439E+00
        -11   -1    0    0    0    0  0.00000000000E+00  0.00000000000E+00  0.45593999997E+02  0.45594000000E+02  0.51100000000E-03 0. -1.
         11   -1    0    0    0    0 -0.00000000000E+00 -0.00000000000E+00 -0.45593999997E+02  0.45594000000E+02  0.51100000000E-03 0.  1.
    9900012    2    1    2    0    0  0.14474057093E+02  0.28136365727E+02 -0.25534533223E+02  0.50528858446E+02  0.29999995732E+02 0.  0.
         12    1    1    2    0    0 -0.14474057093E+02 -0.28136365727E+02  0.25534533223E+02  0.40659141554E+02  0.00000000000E+00 0. -1.
         11    1    3    3    0    0 -0.14114898797E+01  0.69647832327E+01 -0.15947861251E+01  0.72831210483E+01  0.51100000000E-03 0. -1.
        -11    1    3    3    0    0  0.10254887980E+02 -0.22536748098E+01 -0.20577990738E+01  0.10699360491E+02  0.51100000000E-03 0.  1.
        -12    1    3    3    0    0  0.56306589928E+01  0.23425257304E+02 -0.21881948024E+02  0.32546376907E+02  0.00000000000E+00 0.  1.
</event>
<event>
 7    1  0.2746803E-013  0.5052886E+02  0.7816164E-02  0.1300439E+00
        -11   -1    0    0    0    0  0.00000000000E+00  0.00000000000E+00  0.45593999997E+02  0.45594000000E+02  0.51100000000E-03 0.  1.
         11   -1    0    0    0    0 -0.00000000000E+00 -0.00000000000E+00 -0.45593999997E+02  0.45594000000E+02  0.51100000000E-03 0. -1.
    9900012    2    1    2    0    0  0.23070904693E+02 -0.32828072770E+02  0.65739298121E+01  0.50528861318E+02  0.30000004463E+02 0.  0.
         12    1    1    2    0    0 -0.23070904693E+02  0.32828072770E+02 -0.65739298121E+01  0.40659138682E+02  0.00000000000E+00 0. -1.
         11    1    3    3    0    0  0.91815271484E+01 -0.21221011153E+02  0.81388640389E+01  0.24512708199E+02  0.51100000000E-03 0.  1.
        -11    1    3    3    0    0 -0.20765456706E+01 -0.26707436715E+01 -0.62697714812E+01  0.71242507234E+01  0.51100000000E-03 0. -1.
         12    1    3    3    0    0  0.15965923216E+02 -0.89363179451E+01  0.47048372544E+01  0.18891902396E+02  0.00000000000E+00 0. -1.
</event>
<event>
 7    1  0.2746803E-013  0.5052886E+02  0.7816164E-02  0.1300439E+00
        -11   -1    0    0    0    0  0.00000000000E+00  0.00000000000E+00  0.45593999997E+02  0.45594000000E+02  0.51100000000E-03 0. -1.
         11   -1    0    0    0    0 -0.00000000000E+00 -0.00000000000E+00 -0.45593999997E+02  0.45594000000E+02  0.51100000000E-03 0.  1.
    9900012    2    1    2    0    0  0.12094894481E+02  0.36845597464E+02 -0.12218069714E+02  0.50528858930E+02  0.29999997203E+02 0.  0.
         12    1    1    2    0    0 -0.12094894481E+02 -0.36845597464E+02  0.12218069714E+02  0.40659141070E+02  0.00000000000E+00 0. -1.
         11    1    3    3    0    0  0.86231613695E+01  0.42375640670E+01 -0.76324264149E+01  0.12270688427E+02  0.51100000000E-03 0. -1.
        -11    1    3    3    0    0 -0.11013854504E+00  0.25114372858E+02 -0.11336769285E+02  0.27554785295E+02  0.51100000000E-03 0.  1.
        -12    1    3    3    0    0  0.35818716567E+01  0.74936605393E+01  0.67511259858E+01  0.10703385208E+02  0.00000000000E+00 0.  1.
</event>
<event>
 7    1  0.2746803E-013  0.5052894E+02  0.7816164E-02  0.1300439E+00
        -11   -1    0    0    0    0  0.00000000000E+00  0.00000000000E+00  0.45593999997E+02  0.45594000000E+02  0.51100000000E-03 0. -1.
         11   -1    0    0    0    0 -0.00000000000E+00 -0.00000000000E+00 -0.45593999997E+02  0.45594000000E+02  0.51100000000E-03 0.  1.
    9900012    2    1    2    0    0  0.13471729223E+02 -0.34873817355E+02 -0.15984004021E+02  0.50528941849E+02  0.30000249244E+02 0.  0.
         12    1    1    2    0    0 -0.13471729223E+02  0.34873817355E+02  0.15984004021E+02  0.40659058151E+02  0.00000000000E+00 0. -1.
         11    1    3    3    0    0  0.20026976880E+01 -0.54838384766E+01  0.33992472510E+01  0.67556024603E+01  0.51100000000E-03 0. -1.
        -11    1    3    3    0    0  0.16985341519E+02 -0.21298384747E+02 -0.72675091652E+01  0.28194675190E+02  0.51100000000E-03 0.  1.
        -12    1    3    3    0    0 -0.55163099838E+01 -0.80915941315E+01 -0.12115742107E+02  0.15578664199E+02  0.00000000000E+00 0.  1.
</event>
<event>
 7    1  0.2746803E-013  0.5052885E+02  0.7816164E-02  0.1300439E+00
        -11   -1    0    0    0    0  0.00000000000E+00  0.00000000000E+00  0.45593999997E+02  0.45594000000E+02  0.51100000000E-03 0.  1.
         11   -1    0    0    0    0 -0.00000000000E+00 -0.00000000000E+00 -0.45593999997E+02  0.45594000000E+02  0.51100000000E-03 0. -1.
    9900012    2    1    2    0    0 -0.36769404828E+01 -0.31046385970E+02  0.25995540708E+02  0.50528854537E+02  0.29999983851E+02 0.  0.
         12    1    1    2    0    0  0.36769404828E+01  0.31046385970E+02 -0.25995540708E+02  0.40659145463E+02  0.00000000000E+00 0. -1.
         11    1    3    3    0    0  0.47028407029E+01 -0.22481085134E+02  0.15081908112E+02  0.27476896696E+02  0.51100000000E-03 0.  1.
        -11    1    3    3    0    0  0.33601558549E+00 -0.37455728680E+01 -0.37597650900E+01  0.53177115733E+01  0.51100000000E-03 0. -1.
         12    1    3    3    0    0 -0.87157967712E+01 -0.48197279678E+01  0.14673397686E+02  0.17734246268E+02  0.00000000000E+00 0. -1.
</event>
<event>
 7    1  0.2746803E-013  0.5052886E+02  0.7816164E-02  0.1300439E+00
        -11   -1    0    0    0    0  0.00000000000E+00  0.00000000000E+00  0.45593999997E+02  0.45594000000E+02  0.51100000000E-03 0. -1.
         11   -1    0    0    0    0 -0.00000000000E+00 -0.00000000000E+00 -0.45593999997E+02  0.45594000000E+02  0.51100000000E-03 0.  1.
    9900012    2    1    2    0    0 -0.65541788481E+01 -0.10660865878E+02 -0.38685327358E+02  0.50528857432E+02  0.29999992649E+02 0.  0.
         12    1    1    2    0    0  0.65541788481E+01  0.10660865878E+02  0.38685327358E+02  0.40659142568E+02  0.00000000000E+00 0. -1.
         11    1    3    3    0    0  0.51696356764E+01 -0.26264218987E+01 -0.40666483378E+01  0.70824327728E+01  0.51100000000E-03 0. -1.
        -11    1    3    3    0    0 -0.37867110184E+01 -0.52588442964E+01  0.12547986591E+01  0.66006926612E+01  0.51100000000E-03 0.  1.
        -12    1    3    3    0    0 -0.79371035060E+01 -0.27755996829E+01 -0.35873477679E+02  0.36845731998E+02  0.00000000000E+00 0.  1.
</event>
<event>
 7    1  0.2746803E-013  0.5052886E+02  0.7816164E-02  0.1300439E+00
        -11   -1    0    0    0    0  0.00000000000E+00  0.00000000000E+00  0.45593999997E+02  0.45594000000E+02  0.51100000000E-03 0.  1.
         11   -1    0    0    0    0 -0.00000000000E+00 -0.00000000000E+00 -0.45593999997E+02  0.45594000000E+02  0.51100000000E-03 0. -1.
    9900012    2    1    2    0    0 -0.59223622660E+00 -0.40457633067E+02 -0.39993677786E+01  0.50528858841E+02  0.29999996934E+02 0.  0.
         12    1    1    2    0    0  0.59223622660E+00  0.40457633067E+02  0.39993677786E+01  0.40659141159E+02  0.00000000000E+00 0. -1.
         11    1    3    3    0    0 -0.41817758035E+01  0.26813938467E+01 -0.31568277781E+01  0.58858035741E+01  0.51100000000E-03 0. -1.
        -11    1    3    3    0    0 -0.74744853405E+00 -0.10396798372E+02  0.41888377247E+01  0.11233808680E+02  0.51100000000E-03 0.  1.
        -12    1    3    3    0    0  0.43369881109E+01 -0.32742228541E+02 -0.50313777251E+01  0.33409246587E+02  0.00000000000E+00 0.  1.
</event>
<event>
 7    1  0.2746803E-013  0.5052887E+02  0.7816164E-02  0.1300439E+00
        -11   -1    0    0    0    0  0.00000000000E+00  0.00000000000E+00  0.45593999997E+02  0.45594000000E+02  0.51100000000E-03 0. -1.
         11   -1    0    0    0    0 -0.00000000000E+00 -0.00000000000E+00 -0.45593999997E+02  0.45594000000E+02  0.51100000000E-03 0.  1.
    9900012    2    1    2    0    0  0.65138957791E+01  0.30625055891E+02 -0.25939166262E+02  0.50528865320E+02  0.30000016626E+02 0.  0.
         12    1    1    2    0    0 -0.65138957791E+01 -0.30625055891E+02  0.25939166262E+02  0.40659134680E+02  0.00000000000E+00 0. -1.
         11    1    3    3    0    0  0.84337916595E+00  0.56848434365E+01 -0.18323408987E+00  0.57499833311E+01  0.51100000000E-03 0. -1.
        -11    1    3    3    0    0  0.12640663267E+02  0.24454577448E+02 -0.25890393993E+02  0.37790544153E+02  0.51100000000E-03 0.  1.
         12    1    3    3    0    0 -0.69701466534E+01  0.48563500660E+00  0.13446182009E+00  0.69883378361E+01  0.00000000000E+00 0. -1.
</event>
<event>
 7    1  0.2746803E-013  0.5052885E+02  0.7816164E-02  0.1300439E+00
        -11   -1    0    0    0    0  0.00000000000E+00  0.00000000000E+00  0.45593999997E+02  0.45594000000E+02  0.51100000000E-03 0.  1.
         11   -1    0    0    0    0 -0.00000000000E+00 -0.00000000000E+00 -0.45593999997E+02  0.45594000000E+02  0.51100000000E-03 0. -1.
    9900012    2    1    2    0    0  0.30606239670E+02 -0.29423760221E+01  0.26603893723E+02  0.50528847960E+02  0.29999963858E+02 0.  0.
         12    1    1    2    0    0 -0.30606239670E+02  0.29423760221E+01 -0.26603893723E+02  0.40659152040E+02  0.00000000000E+00 0. -1.
         11    1    3    3    0    0  0.13172110102E+02 -0.10692411233E+02  0.69267543478E+01  0.18325175813E+02  0.51100000000E-03 0. -1.
        -11    1    3    3    0    0  0.18226860899E+02  0.10371468509E+01  0.11425478144E+02  0.21536844776E+02  0.51100000000E-03 0.  1.
         12    1    3    3    0    0 -0.79273133058E+00  0.67128883596E+01  0.82516612316E+01  0.10666827371E+02  0.00000000000E+00 0. -1.
</event>
<event>
 7    1  0.2746803E-013  0.5052891E+02  0.7816164E-02  0.1300439E+00
        -11   -1    0    0    0    0  0.00000000000E+00  0.00000000000E+00  0.45593999997E+02  0.45594000000E+02  0.51100000000E-03 0.  1.
         11   -1    0    0    0    0 -0.00000000000E+00 -0.00000000000E+00 -0.45593999997E+02  0.45594000000E+02  0.51100000000E-03 0. -1.
    9900012    2    1    2    0    0  0.26303933242E+02 -0.94572505090E+01  0.29526683452E+02  0.50528910895E+02  0.30000155156E+02 0.  0.
         12    1    1    2    0    0 -0.26303933242E+02  0.94572505090E+01 -0.29526683452E+02  0.40659089105E+02  0.00000000000E+00 0. -1.
         11    1    3    3    0    0 -0.44957299962E+01  0.28450568303E+01  0.36235980149E+00  0.53326580102E+01  0.51100000000E-03 0. -1.
        -11    1    3    3    0    0  0.13399713301E+02 -0.10439076364E+02  0.13252326029E+02  0.21544158775E+02  0.51100000000E-03 0.  1.
        -12    1    3    3    0    0  0.17399949937E+02 -0.18632309758E+01  0.15911997621E+02  0.23652094110E+02  0.00000000000E+00 0.  1.
</event>
<event>
 7    1  0.2746803E-013  0.5052886E+02  0.7816164E-02  0.1300439E+00
        -11   -1    0    0    0    0  0.00000000000E+00  0.00000000000E+00  0.45593999997E+02  0.45594000000E+02  0.51100000000E-03 0.  1.
         11   -1    0    0    0    0 -0.00000000000E+00 -0.00000000000E+00 -0.45593999997E+02  0.45594000000E+02  0.51100000000E-03 0. -1.
    9900012    2    1    2    0    0  0.11738728320E+02  0.14931606934E+02  0.35950177275E+02  0.50528857433E+02  0.29999992653E+02 0.  0.
         12    1    1    2    0    0 -0.11738728320E+02 -0.14931606934E+02 -0.35950177275E+02  0.40659142567E+02  0.00000000000E+00 0. -1.
         11    1    3    3    0    0  0.14636065031E+02  0.92137056405E+01  0.23618202518E+02  0.29273302883E+02  0.51100000000E-03 0. -1.
        -11    1    3    3    0    0  0.37203612058E+01 -0.30871762267E+01  0.81454680463E+01  0.94720850140E+01  0.51100000000E-03 0.  1.
        -12    1    3    3    0    0 -0.66176979171E+01  0.88050775206E+01  0.41865067099E+01  0.11783469536E+02  0.00000000000E+00 0.  1.
</event>
<event>
 7    1  0.2746803E-013  0.5052886E+02  0.7816164E-02  0.1300439E+00
        -11   -1    0    0    0    0  0.00000000000E+00  0.00000000000E+00  0.45593999997E+02  0.45594000000E+02  0.51100000000E-03 0.  1.
         11   -1    0    0    0    0 -0.00000000000E+00 -0.00000000000E+00 -0.45593999997E+02  0.45594000000E+02  0.51100000000E-03 0. -1.
    9900012    2    1    2    0    0  0.32291079117E+02  0.14721351841E+01  0.24663427237E+02  0.50528860614E+02  0.30000002323E+02 0.  0.
         12    1    1    2    0    0 -0.32291079117E+02 -0.14721351841E+01 -0.24663427237E+02  0.40659139386E+02  0.00000000000E+00 0. -1.
         11    1    3    3    0    0  0.13605100996E+02 -0.83291513320E+01  0.80297792439E+01  0.17859196230E+02  0.51100000000E-03 0. -1.
        -11    1    3    3    0    0  0.14314294376E+02  0.28045437508E+01  0.55395670792E+00  0.14596963979E+02  0.51100000000E-03 0.  1.
        -12    1    3    3    0    0  0.43716837453E+01  0.69967427653E+01  0.16079691285E+02  0.18072700405E+02  0.00000000000E+00 0.  1.
</event>
<event>
 7    1  0.2746803E-013  0.5052886E+02  0.7816164E-02  0.1300439E+00
        -11   -1    0    0    0    0  0.00000000000E+00  0.00000000000E+00  0.45593999997E+02  0.45594000000E+02  0.51100000000E-03 0.  1.
         11   -1    0    0    0    0 -0.00000000000E+00 -0.00000000000E+00 -0.45593999997E+02  0.45594000000E+02  0.51100000000E-03 0. -1.
    9900012    2    1    2    0    0 -0.12061573969E+01  0.30679304777E+02  0.26655036569E+02  0.50528861645E+02  0.30000005456E+02 0.  0.
         12    1    1    2    0    0  0.12061573969E+01 -0.30679304777E+02 -0.26655036569E+02  0.40659138355E+02  0.00000000000E+00 0. -1.
         11    1    3    3    0    0  0.23306846035E+01  0.26734256668E+02  0.49332153087E+01  0.27285329095E+02  0.51100000000E-03 0. -1.
        -11    1    3    3    0    0 -0.10552035672E+01 -0.16006337387E+01  0.29973500677E+01  0.35580318468E+01  0.51100000000E-03 0.  1.
        -12    1    3    3    0    0 -0.24816384332E+01  0.55456818484E+01  0.18724471193E+02  0.19685500703E+02  0.00000000000E+00 0.  1.
</event>
<event>
 7    1  0.2746803E-013  0.5052886E+02  0.7816164E-02  0.1300439E+00
        -11   -1    0    0    0    0  0.00000000000E+00  0.00000000000E+00  0.45593999997E+02  0.45594000000E+02  0.51100000000E-03 0.  1.
         11   -1    0    0    0    0 -0.00000000000E+00 -0.00000000000E+00 -0.45593999997E+02  0.45594000000E+02  0.51100000000E-03 0. -1.
    9900012    2    1    2    0    0 -0.32624513743E+02  0.16567598250E+02  0.17729116553E+02  0.50528858562E+02  0.29999996086E+02 0.  0.
         12    1    1    2    0    0  0.32624513743E+02 -0.16567598250E+02 -0.17729116553E+02  0.40659141438E+02  0.00000000000E+00 0. -1.
         11    1    3    3    0    0 -0.15399725843E+02  0.14580900261E+02  0.18186740884E+02  0.27937640428E+02  0.51100000000E-03 0. -1.
        -11    1    3    3    0    0 -0.77226528812E+01 -0.30397713068E+01  0.58256341420E+01  0.10139900914E+02  0.51100000000E-03 0.  1.
         12    1    3    3    0    0 -0.95021350187E+01  0.50264692950E+01 -0.62832584731E+01  0.12451317220E+02  0.00000000000E+00 0. -1.
</event>
<event>
 7    1  0.2746803E-013  0.5052883E+02  0.7816164E-02  0.1300439E+00
        -11   -1    0    0    0    0  0.00000000000E+00  0.00000000000E+00  0.45593999997E+02  0.45594000000E+02  0.51100000000E-03 0.  1.
         11   -1    0    0    0    0 -0.00000000000E+00 -0.00000000000E+00 -0.45593999997E+02  0.45594000000E+02  0.51100000000E-03 0. -1.
    9900012    2    1    2    0    0  0.17990399992E+01  0.29354300326E+02  0.28075912364E+02  0.50528827017E+02  0.29999900201E+02 0.  0.
         12    1    1    2    0    0 -0.17990399992E+01 -0.29354300326E+02 -0.28075912364E+02  0.40659172983E+02  0.00000000000E+00 0. -1.
         11    1    3    3    0    0 -0.46050378819E+01  0.10600021799E+02  0.90972706505E+01  0.14708064781E+02  0.51100000000E-03 0.  1.
        -11    1    3    3    0    0  0.74568052248E+01 -0.31923547004E+00 -0.17149891507E+01  0.76581357714E+01  0.51100000000E-03 0. -1.
         12    1    3    3    0    0 -0.10527273436E+01  0.19073513997E+02  0.20693630865E+02  0.28162626465E+02  0.00000000000E+00 0. -1.
</event>
<event>
 7    1  0.2746803E-013  0.5052882E+02  0.7816164E-02  0.1300439E+00
        -11   -1    0    0    0    0  0.00000000000E+00  0.00000000000E+00  0.45593999997E+02  0.45594000000E+02  0.51100000000E-03 0.  1.
         11   -1    0    0    0    0 -0.00000000000E+00 -0.00000000000E+00 -0.45593999997E+02  0.45594000000E+02  0.51100000000E-03 0. -1.
    9900012    2    1    2    0    0  0.41174589030E+01 -0.35398581134E+02  0.19574376956E+02  0.50528815954E+02  0.29999866573E+02 0.  0.
         12    1    1    2    0    0 -0.41174589030E+01  0.35398581134E+02 -0.19574376956E+02  0.40659184046E+02  0.00000000000E+00 0. -1.
         11    1    3    3    0    0 -0.12142684328E+01 -0.10688353534E+02 -0.24984544668E+01  0.11043442583E+02  0.51100000000E-03 0. -1.
        -11    1    3    3    0    0  0.56675234005E+01  0.10361406728E+01  0.30671130257E+00  0.57696170647E+01  0.51100000000E-03 0.  1.
        -12    1    3    3    0    0 -0.33579606468E+00 -0.25746368272E+02  0.21766120120E+02  0.33715756306E+02  0.00000000000E+00 0.  1.
</event>
<event>
 7    1  0.2746803E-013  0.5052886E+02  0.7816164E-02  0.1300439E+00
        -11   -1    0    0    0    0  0.00000000000E+00  0.00000000000E+00  0.45593999997E+02  0.45594000000E+02  0.51100000000E-03 0. -1.
         11   -1    0    0    0    0 -0.00000000000E+00 -0.00000000000E+00 -0.45593999997E+02  0.45594000000E+02  0.51100000000E-03 0.  1.
    9900012    2    1    2    0    0  0.26965634750E+02 -0.29914187638E+02  0.55822703354E+01  0.50528858081E+02  0.29999994624E+02 0.  0.
         12    1    1    2    0    0 -0.26965634750E+02  0.29914187638E+02 -0.55822703354E+01  0.40659141919E+02  0.00000000000E+00 0. -1.
         11    1    3    3    0    0  0.26596173095E+01 -0.89644084254E+01  0.68505624927E+01  0.11591565441E+02  0.51100000000E-03 0. -1.
        -11    1    3    3    0    0  0.15434166694E+02 -0.16552045176E+01  0.57766846727E+01  0.16562707798E+02  0.51100000000E-03 0.  1.
        -12    1    3    3    0    0  0.88718507457E+01 -0.19294574695E+02 -0.70449768299E+01  0.22374584842E+02  0.00000000000E+00 0.  1.
</event>
<event>
 7    1  0.2746803E-013  0.5052887E+02  0.7816164E-02  0.1300439E+00
        -11   -1    0    0    0    0  0.00000000000E+00  0.00000000000E+00  0.45593999997E+02  0.45594000000E+02  0.51100000000E-03 0. -1.
         11   -1    0    0    0    0 -0.00000000000E+00 -0.00000000000E+00 -0.45593999997E+02  0.45594000000E+02  0.51100000000E-03 0.  1.
    9900012    2    1    2    0    0  0.35242717456E+01 -0.40402970825E+02  0.28887072868E+01  0.50528866061E+02  0.30000018880E+02 0.  0.
         12    1    1    2    0    0 -0.35242717456E+01  0.40402970825E+02 -0.28887072868E+01  0.40659133939E+02  0.00000000000E+00 0. -1.
         11    1    3    3    0    0  0.26639507270E+01  0.30415533827E+01  0.37910639708E+00  0.40609607702E+01  0.51100000000E-03 0. -1.
        -11    1    3    3    0    0 -0.10608720962E+01 -0.16085219832E+02 -0.68120753928E+01  0.17500403369E+02  0.51100000000E-03 0.  1.
        -12    1    3    3    0    0  0.19211931148E+01 -0.27359304376E+02  0.93216762826E+01  0.28967501922E+02  0.00000000000E+00 0.  1.
</event>
<event>
 7    1  0.2746803E-013  0.5052888E+02  0.7816164E-02  0.1300439E+00
        -11   -1    0    0    0    0  0.00000000000E+00  0.00000000000E+00  0.45593999997E+02  0.45594000000E+02  0.51100000000E-03 0.  1.
         11   -1    0    0    0    0 -0.00000000000E+00 -0.00000000000E+00 -0.45593999997E+02  0.45594000000E+02  0.51100000000E-03 0. -1.
    9900012    2    1    2    0    0  0.15683513500E+02  0.35084595021E+02  0.13276388916E+02  0.50528881636E+02  0.30000066220E+02 0.  0.
         12    1    1    2    0    0 -0.15683513500E+02 -0.35084595021E+02 -0.13276388916E+02  0.40659118364E+02  0.00000000000E+00 0. -1.
         11    1    3    3    0    0  0.34762006027E+00  0.58737178149E+01 -0.76016511786E+01  0.96128300504E+01  0.51100000000E-03 0. -1.
        -11    1    3    3    0    0 -0.25273816141E+00  0.30120677674E+01 -0.12241944560E+01  0.32611472124E+01  0.51100000000E-03 0.  1.
        -12    1    3    3    0    0  0.15588631601E+02  0.26198809439E+02  0.22102234551E+02  0.37654904373E+02  0.00000000000E+00 0.  1.
</event>
<event>
 7    1  0.2746803E-013  0.5052888E+02  0.7816164E-02  0.1300439E+00
        -11   -1    0    0    0    0  0.00000000000E+00  0.00000000000E+00  0.45593999997E+02  0.45594000000E+02  0.51100000000E-03 0. -1.
         11   -1    0    0    0    0 -0.00000000000E+00 -0.00000000000E+00 -0.45593999997E+02  0.45594000000E+02  0.51100000000E-03 0.  1.
    9900012    2    1    2    0    0 -0.15588685886E+02 -0.27005957531E+02 -0.26092826059E+02  0.50528875052E+02  0.30000046207E+02 0.  0.
         12    1    1    2    0    0  0.15588685886E+02  0.27005957531E+02  0.26092826059E+02  0.40659124948E+02  0.00000000000E+00 0. -1.
         11    1    3    3    0    0  0.40708710693E+01 -0.40875493449E+01  0.12522203888E+01  0.59032285296E+01  0.51100000000E-03 0. -1.
        -11    1    3    3    0    0 -0.12690909428E+02 -0.19083105554E+02 -0.28517743739E+02  0.36585322302E+02  0.51100000000E-03 0.  1.
         12    1    3    3    0    0 -0.69686475270E+01 -0.38353026320E+01  0.11726972907E+01  0.80403242205E+01  0.00000000000E+00 0. -1.
</event>
<event>
 7    1  0.2746803E-013  0.5052886E+02  0.7816164E-02  0.1300439E+00
        -11   -1    0    0    0    0  0.00000000000E+00  0.00000000000E+00  0.45593999997E+02  0.45594000000E+02  0.51100000000E-03 0.  1.
         11   -1    0    0    0    0 -0.00000000000E+00 -0.00000000000E+00 -0.45593999997E+02  0.45594000000E+02  0.51100000000E-03 0. -1.
    9900012    2    1    2    0    0  0.17204247840E+02 -0.13432286861E+02  0.34303841423E+02  0.50528855759E+02  0.29999987564E+02 0.  0.
         12    1    1    2    0    0 -0.17204247840E+02  0.13432286861E+02 -0.34303841423E+02  0.40659144241E+02  0.00000000000E+00 0. -1.
         11    1    3    3    0    0 -0.23143615179E+00  0.43891026946E+01 -0.70391757950E-01  0.43957639173E+01  0.51100000000E-03 0. -1.
        -11    1    3    3    0    0  0.48877675926E+01  0.27434996129E+01  0.23954343904E+01  0.60955039451E+01  0.51100000000E-03 0.  1.
        -12    1    3    3    0    0  0.12547916399E+02 -0.20564889168E+02  0.31978798791E+02  0.40037587896E+02  0.00000000000E+00 0.  1.
</event>
<event>
 7    1  0.2746803E-013  0.5052887E+02  0.7816164E-02  0.1300439E+00
        -11   -1    0    0    0    0  0.00000000000E+00  0.00000000000E+00  0.45593999997E+02  0.45594000000E+02  0.51100000000E-03 0.  1.
         11   -1    0    0    0    0 -0.00000000000E+00 -0.00000000000E+00 -0.45593999997E+02  0.45594000000E+02  0.51100000000E-03 0. -1.
    9900012    2    1    2    0    0 -0.26657585999E+02 -0.27646742062E+02  0.13348984685E+02  0.50528872734E+02  0.30000039162E+02 0.  0.
         12    1    1    2    0    0  0.26657585999E+02  0.27646742062E+02 -0.13348984685E+02  0.40659127266E+02  0.00000000000E+00 0. -1.
         11    1    3    3    0    0 -0.88083473737E+01  0.27266481414E+01 -0.35881402473E+01  0.98942581449E+01  0.51100000000E-03 0. -1.
        -11    1    3    3    0    0 -0.17148366568E+02 -0.19752254830E+02  0.10439060015E+02  0.28163664909E+02  0.51100000000E-03 0.  1.
        -12    1    3    3    0    0 -0.70087205660E+00 -0.10621135373E+02  0.64980649178E+01  0.12470949680E+02  0.00000000000E+00 0.  1.
</event>
<event>
 7    1  0.2746803E-013  0.5052884E+02  0.7816164E-02  0.1300439E+00
        -11   -1    0    0    0    0  0.00000000000E+00  0.00000000000E+00  0.45593999997E+02  0.45594000000E+02  0.51100000000E-03 0.  1.
         11   -1    0    0    0    0 -0.00000000000E+00 -0.00000000000E+00 -0.45593999997E+02  0.45594000000E+02  0.51100000000E-03 0. -1.
    9900012    2    1    2    0    0  0.12881208324E+02  0.15725713469E+02  0.35212831980E+02  0.50528842015E+02  0.29999945788E+02 0.  0.
         12    1    1    2    0    0 -0.12881208324E+02 -0.15725713469E+02 -0.35212831980E+02  0.40659157985E+02  0.00000000000E+00 0. -1.
         11    1    3    3    0    0 -0.36182258604E+01  0.60081376382E+01  0.91625056350E+01  0.11538664829E+02  0.51100000000E-03 0. -1.
        -11    1    3    3    0    0  0.10015778154E+02  0.12021340051E+02  0.27790609897E+02  0.31892733144E+02  0.51100000000E-03 0.  1.
        -12    1    3    3    0    0  0.64836560301E+01 -0.23037642201E+01 -0.17402835519E+01  0.70974440427E+01  0.00000000000E+00 0.  1.
</event>
<event>
 7    1  0.2746803E-013  0.5052880E+02  0.7816164E-02  0.1300439E+00
        -11   -1    0    0    0    0  0.00000000000E+00  0.00000000000E+00  0.45593999997E+02  0.45594000000E+02  0.51100000000E-03 0.  1.
         11   -1    0    0    0    0 -0.00000000000E+00 -0.00000000000E+00 -0.45593999997E+02  0.45594000000E+02  0.51100000000E-03 0. -1.
    9900012    2    1    2    0    0  0.32840126594E+02 -0.60463109793E+01  0.23197812313E+02  0.50528803165E+02  0.29999827699E+02 0.  0.
         12    1    1    2    0    0 -0.32840126594E+02  0.60463109793E+01 -0.23197812313E+02  0.40659196835E+02  0.00000000000E+00 0. -1.
         11    1    3    3    0    0  0.75507536195E+01 -0.10037004970E+02  0.13666457068E+01  0.12634202378E+02  0.51100000000E-03 0. -1.
        -11    1    3    3    0    0  0.20164529336E+02 -0.31207327060E+01  0.20683183869E+02  0.29054110057E+02  0.51100000000E-03 0.  1.
         12    1    3    3    0    0  0.51248436389E+01  0.71114266964E+01  0.11479827374E+01  0.88404907299E+01  0.00000000000E+00 0. -1.
</event>
<event>
 7    1  0.2746803E-013  0.5052885E+02  0.7816164E-02  0.1300439E+00
        -11   -1    0    0    0    0  0.00000000000E+00  0.00000000000E+00  0.45593999997E+02  0.45594000000E+02  0.51100000000E-03 0.  1.
         11   -1    0    0    0    0 -0.00000000000E+00 -0.00000000000E+00 -0.45593999997E+02  0.45594000000E+02  0.51100000000E-03 0. -1.
    9900012    2    1    2    0    0 -0.31980699372E+02  0.11417221776E+02  0.22361761490E+02  0.50528850202E+02  0.29999970673E+02 0.  0.
         12    1    1    2    0    0  0.31980699372E+02 -0.11417221776E+02 -0.22361761490E+02  0.40659149798E+02  0.00000000000E+00 0. -1.
         11    1    3    3    0    0 -0.13604581694E+02 -0.23458431839E+01  0.55261080417E+01  0.14870288957E+02  0.51100000000E-03 0. -1.
        -11    1    3    3    0    0 -0.11853899023E+00 -0.51134803827E+01  0.19665995357E+01  0.54798948084E+01  0.51100000000E-03 0.  1.
        -12    1    3    3    0    0 -0.18257578687E+02  0.18876545342E+02  0.14869053913E+02  0.30178666436E+02  0.00000000000E+00 0.  1.
</event>
<event>
 7    1  0.2746803E-013  0.5052886E+02  0.7816164E-02  0.1300439E+00
        -11   -1    0    0    0    0  0.00000000000E+00  0.00000000000E+00  0.45593999997E+02  0.45594000000E+02  0.51100000000E-03 0.  1.
         11   -1    0    0    0    0 -0.00000000000E+00 -0.00000000000E+00 -0.45593999997E+02  0.45594000000E+02  0.51100000000E-03 0. -1.
    9900012    2    1    2    0    0  0.20958863832E+02  0.15193193493E+02  0.31353765893E+02  0.50528859118E+02  0.29999997775E+02 0.  0.
         12    1    1    2    0    0 -0.20958863832E+02 -0.15193193493E+02 -0.31353765893E+02  0.40659140882E+02  0.00000000000E+00 0. -1.
         11    1    3    3    0    0 -0.30310155017E+01  0.78539780922E+01  0.92119466481E+01  0.12479262324E+02  0.51100000000E-03 0. -1.
        -11    1    3    3    0    0  0.19707715466E+01 -0.44751039050E+01  0.36451773155E+00  0.49034038062E+01  0.51100000000E-03 0.  1.
        -12    1    3    3    0    0  0.22019107787E+02  0.11814319305E+02  0.21777301513E+02  0.33146192988E+02  0.00000000000E+00 0.  1.
</event>
<event>
 7    1  0.2746803E-013  0.5052886E+02  0.7816164E-02  0.1300439E+00
        -11   -1    0    0    0    0  0.00000000000E+00  0.00000000000E+00  0.45593999997E+02  0.45594000000E+02  0.51100000000E-03 0. -1.
         11   -1    0    0    0    0 -0.00000000000E+00 -0.00000000000E+00 -0.45593999997E+02  0.45594000000E+02  0.51100000000E-03 0.  1.
    9900012    2    1    2    0    0 -0.27591190686E+02 -0.26660254384E+02 -0.13458178729E+02  0.50528861520E+02  0.30000005075E+02 0.  0.
         12    1    1    2    0    0  0.27591190686E+02  0.26660254384E+02  0.13458178729E+02  0.40659138480E+02  0.00000000000E+00 0. -1.
         11    1    3    3    0    0 -0.34395543751E+01  0.31590730770E+01  0.11274354207E+01  0.48043093046E+01  0.51100000000E-03 0. -1.
        -11    1    3    3    0    0 -0.11591746848E+02 -0.14848237659E+02  0.34283547952E+01  0.19146602138E+02  0.51100000000E-03 0.  1.
        -12    1    3    3    0    0 -0.12559889462E+02 -0.14971089802E+02 -0.18013968945E+02  0.26577950077E+02  0.00000000000E+00 0.  1.
</event>
<event>
 7    1  0.2746803E-013  0.5052876E+02  0.7816164E-02  0.1300439E+00
        -11   -1    0    0    0    0  0.00000000000E+00  0.00000000000E+00  0.45593999997E+02  0.45594000000E+02  0.51100000000E-03 0.  1.
         11   -1    0    0    0    0 -0.00000000000E+00 -0.00000000000E+00 -0.45593999997E+02  0.45594000000E+02  0.51100000000E-03 0. -1.
    9900012    2    1    2    0    0 -0.25856905404E+02 -0.25430615441E+02 -0.18381458138E+02  0.50528760434E+02  0.29999697814E+02 0.  0.
         12    1    1    2    0    0  0.25856905404E+02  0.25430615441E+02  0.18381458138E+02  0.40659239566E+02  0.00000000000E+00 0. -1.
         11    1    3    3    0    0 -0.22097937251E+01  0.35647335823E+01 -0.31549907313E+00  0.42059545583E+01  0.51100000000E-03 0. -1.
        -11    1    3    3    0    0 -0.10513900678E+02 -0.86272645299E+01  0.33213393667E+01  0.14000110578E+02  0.51100000000E-03 0.  1.
         12    1    3    3    0    0 -0.13133211001E+02 -0.20368084493E+02 -0.21387298432E+02  0.32322695298E+02  0.00000000000E+00 0. -1.
</event>
<event>
 7    1  0.2746803E-013  0.5052882E+02  0.7816164E-02  0.1300439E+00
        -11   -1    0    0    0    0  0.00000000000E+00  0.00000000000E+00  0.45593999997E+02  0.45594000000E+02  0.51100000000E-03 0.  1.
         11   -1    0    0    0    0 -0.00000000000E+00 -0.00000000000E+00 -0.45593999997E+02  0.45594000000E+02  0.51100000000E-03 0. -1.
    9900012    2    1    2    0    0  0.24892352821E+02  0.21922324266E+02  0.23514925082E+02  0.50528816144E+02  0.29999867151E+02 0.  0.
         12    1    1    2    0    0 -0.24892352821E+02 -0.21922324266E+02 -0.23514925082E+02  0.40659183856E+02  0.00000000000E+00 0. -1.
         11    1    3    3    0    0 -0.15506526034E+01 -0.26732768099E+01  0.15979712488E+00  0.30945868514E+01  0.51100000000E-03 0. -1.
        -11    1    3    3    0    0  0.23087689504E+02  0.12642141434E+02  0.76442073792E+01  0.27409834976E+02  0.51100000000E-03 0.  1.
         12    1    3    3    0    0  0.33553159204E+01  0.11953459642E+02  0.15710920578E+02  0.20024394317E+02  0.00000000000E+00 0. -1.
</event>
<event>
 7    1  0.2746803E-013  0.5052885E+02  0.7816164E-02  0.1300439E+00
        -11   -1    0    0    0    0  0.00000000000E+00  0.00000000000E+00  0.45593999997E+02  0.45594000000E+02  0.51100000000E-03 0.  1.
         11   -1    0    0    0    0 -0.00000000000E+00 -0.00000000000E+00 -0.45593999997E+02  0.45594000000E+02  0.51100000000E-03 0. -1.
    9900012    2    1    2    0    0 -0.79112995210E+01  0.19378974015E+02  0.34857321722E+02  0.50528853776E+02  0.29999981538E+02 0.  0.
         12    1    1    2    0    0  0.79112995210E+01 -0.19378974015E+02 -0.34857321722E+02  0.40659146224E+02  0.00000000000E+00 0. -1.
         11    1    3    3    0    0 -0.63926475443E+01  0.11845957430E+02  0.16763491967E+02  0.21499007262E+02  0.51100000000E-03 0. -1.
        -11    1    3    3    0    0  0.24762873388E+01  0.13696100419E+02  0.66337907157E+01  0.15418247150E+02  0.51100000000E-03 0.  1.
         12    1    3    3    0    0 -0.39949393155E+01 -0.61630838327E+01  0.11460039039E+02  0.13611599364E+02  0.00000000000E+00 0. -1.
</event>
<event>
 7    1  0.2746803E-013  0.5052887E+02  0.7816164E-02  0.1300439E+00
        -11   -1    0    0    0    0  0.00000000000E+00  0.00000000000E+00  0.45593999997E+02  0.45594000000E+02  0.51100000000E-03 0.  1.
         11   -1    0    0    0    0 -0.00000000000E+00 -0.00000000000E+00 -0.45593999997E+02  0.45594000000E+02  0.51100000000E-03 0. -1.
    9900012    2    1    2    0    0  0.40156317373E+02  0.62068673937E+01 -0.14526032146E+01  0.50528867152E+02  0.30000022196E+02 0.  0.
         12    1    1    2    0    0 -0.40156317373E+02 -0.62068673937E+01  0.14526032146E+01  0.40659132848E+02  0.00000000000E+00 0. -1.
         11    1    3    3    0    0  0.65718702065E+01 -0.77791455608E+01  0.17494779494E+01  0.10332727473E+02  0.51100000000E-03 0. -1.
        -11    1    3    3    0    0  0.20890850274E+02  0.27959127947E+01 -0.80997463219E+01  0.22579872548E+02  0.51100000000E-03 0.  1.
         12    1    3    3    0    0  0.12693596893E+02  0.11190100160E+02  0.48976651580E+01  0.17616267132E+02  0.00000000000E+00 0. -1.
</event>
<event>
 7    1  0.2746803E-013  0.5052886E+02  0.7816164E-02  0.1300439E+00
        -11   -1    0    0    0    0  0.00000000000E+00  0.00000000000E+00  0.45593999997E+02  0.45594000000E+02  0.51100000000E-03 0. -1.
         11   -1    0    0    0    0 -0.00000000000E+00 -0.00000000000E+00 -0.45593999997E+02  0.45594000000E+02  0.51100000000E-03 0.  1.
    9900012    2    1    2    0    0 -0.11013305386E+02  0.39114781930E+02  0.13808279355E+01  0.50528859001E+02  0.29999997420E+02 0.  0.
         12    1    1    2    0    0  0.11013305386E+02 -0.39114781930E+02 -0.13808279355E+01  0.40659140999E+02  0.00000000000E+00 0. -1.
         11    1    3    3    0    0 -0.77338902340E+01  0.94806791411E+01  0.93877105198E+01  0.15421590197E+02  0.51100000000E-03 0. -1.
        -11    1    3    3    0    0 -0.37220821474E+01  0.11228515081E+01 -0.51458962983E+01  0.64494139265E+01  0.51100000000E-03 0.  1.
         12    1    3    3    0    0  0.44266699584E+00  0.28511251281E+02 -0.28609862860E+01  0.28657854878E+02  0.00000000000E+00 0. -1.
</event>
<event>
 7    1  0.2746803E-013  0.5052887E+02  0.7816164E-02  0.1300439E+00
        -11   -1    0    0    0    0  0.00000000000E+00  0.00000000000E+00  0.45593999997E+02  0.45594000000E+02  0.51100000000E-03 0. -1.
         11   -1    0    0    0    0 -0.00000000000E+00 -0.00000000000E+00 -0.45593999997E+02  0.45594000000E+02  0.51100000000E-03 0.  1.
    9900012    2    1    2    0    0 -0.15006872473E+02  0.14536039219E+02 -0.34880690410E+02  0.50528865466E+02  0.30000017071E+02 0.  0.
         12    1    1    2    0    0  0.15006872473E+02 -0.14536039219E+02  0.34880690410E+02  0.40659134534E+02  0.00000000000E+00 0. -1.
         11    1    3    3    0    0 -0.44507381024E+01  0.45195389199E+01 -0.25138809332E+02  0.25926724371E+02  0.51100000000E-03 0. -1.
        -11    1    3    3    0    0 -0.12504421554E+02  0.42096308922E+01 -0.12230633279E+02  0.17990829367E+02  0.51100000000E-03 0.  1.
         12    1    3    3    0    0  0.19482871836E+01  0.58068694065E+01  0.24887522009E+01  0.66113117285E+01  0.00000000000E+00 0. -1.
</event>
<event>
 7    1  0.2746803E-013  0.5052885E+02  0.7816164E-02  0.1300439E+00
        -11   -1    0    0    0    0  0.00000000000E+00  0.00000000000E+00  0.45593999997E+02  0.45594000000E+02  0.51100000000E-03 0.  1.
         11   -1    0    0    0    0 -0.00000000000E+00 -0.00000000000E+00 -0.45593999997E+02  0.45594000000E+02  0.51100000000E-03 0. -1.
    9900012    2    1    2    0    0 -0.34743800821E+02  0.10984011314E+02  0.18038473729E+02  0.50528846855E+02  0.29999960500E+02 0.  0.
         12    1    1    2    0    0  0.34743800821E+02 -0.10984011314E+02 -0.18038473729E+02  0.40659153145E+02  0.00000000000E+00 0. -1.
         11    1    3    3    0    0  0.89501038012E+00  0.62606472494E+01  0.10763471962E+02  0.12483952759E+02  0.51100000000E-03 0. -1.
        -11    1    3    3    0    0 -0.84492447691E+01  0.36170398178E+01 -0.17881601496E+01  0.93632382856E+01  0.51100000000E-03 0.  1.
        -12    1    3    3    0    0 -0.27189566432E+02  0.11063242470E+01  0.90631619164E+01  0.28681655810E+02  0.00000000000E+00 0.  1.
</event>
<event>
 7    1  0.2746803E-013  0.5052885E+02  0.7816164E-02  0.1300439E+00
        -11   -1    0    0    0    0  0.00000000000E+00  0.00000000000E+00  0.45593999997E+02  0.45594000000E+02  0.51100000000E-03 0.  1.
         11   -1    0    0    0    0 -0.00000000000E+00 -0.00000000000E+00 -0.45593999997E+02  0.45594000000E+02  0.51100000000E-03 0. -1.
    9900012    2    1    2    0    0 -0.11408024866E+02 -0.12196943459E+02  0.37070990455E+02  0.50528846118E+02  0.29999958260E+02 0.  0.
         12    1    1    2    0    0  0.11408024866E+02  0.12196943459E+02 -0.37070990455E+02  0.40659153882E+02  0.00000000000E+00 0. -1.
         11    1    3    3    0    0  0.92905757765E+01 -0.62935854950E+01  0.15998172416E+02  0.19541380134E+02  0.51100000000E-03 0. -1.
        -11    1    3    3    0    0 -0.30399853005E+01  0.16935485640E+01  0.28231138189E+01  0.44810254699E+01  0.51100000000E-03 0.  1.
         12    1    3    3    0    0 -0.17658615342E+02 -0.75969065284E+01  0.18249704220E+02  0.26506440514E+02  0.00000000000E+00 0. -1.
</event>
<event>
 7    1  0.2746803E-013  0.5052891E+02  0.7816164E-02  0.1300439E+00
        -11   -1    0    0    0    0  0.00000000000E+00  0.00000000000E+00  0.45593999997E+02  0.45594000000E+02  0.51100000000E-03 0.  1.
         11   -1    0    0    0    0 -0.00000000000E+00 -0.00000000000E+00 -0.45593999997E+02  0.45594000000E+02  0.51100000000E-03 0. -1.
    9900012    2    1    2    0    0  0.14941939264E-01  0.40416601662E+02  0.44339175255E+01  0.50528910761E+02  0.30000154748E+02 0.  0.
         12    1    1    2    0    0 -0.14941939264E-01 -0.40416601662E+02 -0.44339175255E+01  0.40659089239E+02  0.00000000000E+00 0. -1.
         11    1    3    3    0    0 -0.66259023862E+01  0.17501486195E+02  0.65572431554E+01  0.19829322720E+02  0.51100000000E-03 0.  1.
        -11    1    3    3    0    0  0.20837121178E+01 -0.32817849437E+01 -0.12912497550E+01  0.40962537516E+01  0.51100000000E-03 0. -1.
         12    1    3    3    0    0  0.45571322076E+01  0.26196900410E+02 -0.83207587493E+00  0.26603334290E+02  0.00000000000E+00 0. -1.
</event>
<event>
 7    1  0.2746803E-013  0.5052886E+02  0.7816164E-02  0.1300439E+00
        -11   -1    0    0    0    0  0.00000000000E+00  0.00000000000E+00  0.45593999997E+02  0.45594000000E+02  0.51100000000E-03 0.  1.
         11   -1    0    0    0    0 -0.00000000000E+00 -0.00000000000E+00 -0.45593999997E+02  0.45594000000E+02  0.51100000000E-03 0. -1.
    9900012    2    1    2    0    0 -0.13813105671E+02  0.59007872842E+01  0.37782862434E+02  0.50528857454E+02  0.29999992717E+02 0.  0.
         12    1    1    2    0    0  0.13813105671E+02 -0.59007872842E+01 -0.37782862434E+02  0.40659142546E+02  0.00000000000E+00 0. -1.
         11    1    3    3    0    0 -0.58151837083E+01 -0.99288681361E+01  0.90841935557E+01  0.14660196344E+02  0.51100000000E-03 0. -1.
        -11    1    3    3    0    0  0.12391206535E+01  0.24593998025E+01  0.12947486151E+02  0.13237124509E+02  0.51100000000E-03 0.  1.
        -12    1    3    3    0    0 -0.92370426166E+01  0.13370255618E+02  0.15751182727E+02  0.22631536601E+02  0.00000000000E+00 0.  1.
</event>
<event>
 7    1  0.2746803E-013  0.5052886E+02  0.7816164E-02  0.1300439E+00
        -11   -1    0    0    0    0  0.00000000000E+00  0.00000000000E+00  0.45593999997E+02  0.45594000000E+02  0.51100000000E-03 0. -1.
         11   -1    0    0    0    0 -0.00000000000E+00 -0.00000000000E+00 -0.45593999997E+02  0.45594000000E+02  0.51100000000E-03 0.  1.
    9900012    2    1    2    0    0 -0.27355842687E+02 -0.27802089584E+02  0.11483356628E+02  0.50528858423E+02  0.29999995662E+02 0.  0.
         12    1    1    2    0    0  0.27355842687E+02  0.27802089584E+02 -0.11483356628E+02  0.40659141577E+02  0.00000000000E+00 0. -1.
         11    1    3    3    0    0 -0.40954076122E+01 -0.38088003757E+01  0.80690586277E+01  0.98177915648E+01  0.51100000000E-03 0. -1.
        -11    1    3    3    0    0 -0.17877619015E+02 -0.21873920657E+02  0.11723616301E+02  0.30586285260E+02  0.51100000000E-03 0.  1.
        -12    1    3    3    0    0 -0.53828160598E+01 -0.21193685509E+01 -0.83093183007E+01  0.10124781598E+02  0.00000000000E+00 0.  1.
</event>
<event>
 7    1  0.2746803E-013  0.5052880E+02  0.7816164E-02  0.1300439E+00
        -11   -1    0    0    0    0  0.00000000000E+00  0.00000000000E+00  0.45593999997E+02  0.45594000000E+02  0.51100000000E-03 0. -1.
         11   -1    0    0    0    0 -0.00000000000E+00 -0.00000000000E+00 -0.45593999997E+02  0.45594000000E+02  0.51100000000E-03 0.  1.
    9900012    2    1    2    0    0  0.35585755363E+02 -0.17636018426E+02 -0.87060413770E+01  0.50528803167E+02  0.29999827706E+02 0.  0.
         12    1    1    2    0    0 -0.35585755363E+02  0.17636018426E+02  0.87060413770E+01  0.40659196833E+02  0.00000000000E+00 0. -1.
         11    1    3    3    0    0 -0.13622157801E+01 -0.51219390237E+01  0.43670575085E+01  0.68673927176E+01  0.51100000000E-03 0. -1.
        -11    1    3    3    0    0  0.12003965365E+02  0.23512976971E+01 -0.12021683670E+01  0.12291012749E+02  0.51100000000E-03 0.  1.
        -12    1    3    3    0    0  0.24944005778E+02 -0.14865377099E+02 -0.11870930518E+02  0.31370397701E+02  0.00000000000E+00 0.  1.
</event>
<event>
 7    1  0.2746803E-013  0.5052886E+02  0.7816164E-02  0.1300439E+00
        -11   -1    0    0    0    0  0.00000000000E+00  0.00000000000E+00  0.45593999997E+02  0.45594000000E+02  0.51100000000E-03 0.  1.
         11   -1    0    0    0    0 -0.00000000000E+00 -0.00000000000E+00 -0.45593999997E+02  0.45594000000E+02  0.51100000000E-03 0. -1.
    9900012    2    1    2    0    0 -0.31058738870E+02  0.18634406843E+02  0.18473756420E+02  0.50528855212E+02  0.29999985903E+02 0.  0.
         12    1    1    2    0    0  0.31058738870E+02 -0.18634406843E+02 -0.18473756420E+02  0.40659144788E+02  0.00000000000E+00 0. -1.
         11    1    3    3    0    0 -0.24839010412E+01 -0.67953176648E+00  0.32220657403E+01  0.41247103777E+01  0.51100000000E-03 0. -1.
        -11    1    3    3    0    0 -0.97162974114E+01  0.21800458183E+02  0.13193119535E+02  0.27271318555E+02  0.51100000000E-03 0.  1.
        -12    1    3    3    0    0 -0.18858540418E+02 -0.24865195740E+01  0.20585711450E+01  0.19132826279E+02  0.00000000000E+00 0.  1.
</event>
<event>
 7    1  0.2746803E-013  0.5052886E+02  0.7816164E-02  0.1300439E+00
        -11   -1    0    0    0    0  0.00000000000E+00  0.00000000000E+00  0.45593999997E+02  0.45594000000E+02  0.51100000000E-03 0.  1.
         11   -1    0    0    0    0 -0.00000000000E+00 -0.00000000000E+00 -0.45593999997E+02  0.45594000000E+02  0.51100000000E-03 0. -1.
    9900012    2    1    2    0    0  0.23475915266E+02  0.19211088303E+02  0.27073627693E+02  0.50528858005E+02  0.29999994391E+02 0.  0.
         12    1    1    2    0    0 -0.23475915266E+02 -0.19211088303E+02 -0.27073627693E+02  0.40659141995E+02  0.00000000000E+00 0. -1.
         11    1    3    3    0    0  0.10691937769E+02 -0.17866030948E+01  0.23176423916E+02  0.25586248449E+02  0.51100000000E-03 0. -1.
        -11    1    3    3    0    0  0.23114778159E+01  0.29295300697E+01  0.22472049006E+00  0.37383921253E+01  0.51100000000E-03 0.  1.
         12    1    3    3    0    0  0.10472499680E+02  0.18068161328E+02  0.36724832865E+01  0.21204217430E+02  0.00000000000E+00 0. -1.
</event>
<event>
 7    1  0.2746803E-013  0.5052889E+02  0.7816164E-02  0.1300439E+00
        -11   -1    0    0    0    0  0.00000000000E+00  0.00000000000E+00  0.45593999997E+02  0.45594000000E+02  0.51100000000E-03 0.  1.
         11   -1    0    0    0    0 -0.00000000000E+00 -0.00000000000E+00 -0.45593999997E+02  0.45594000000E+02  0.51100000000E-03 0. -1.
    9900012    2    1    2    0    0  0.13760846336E+02  0.30768348219E+02  0.22740077477E+02  0.50528889488E+02  0.30000090087E+02 0.  0.
         12    1    1    2    0    0 -0.13760846336E+02 -0.30768348219E+02 -0.22740077477E+02  0.40659110512E+02  0.00000000000E+00 0. -1.
         11    1    3    3    0    0  0.24522551208E+01  0.90583557064E+01  0.75433108544E+01  0.12040303243E+02  0.51100000000E-03 0. -1.
        -11    1    3    3    0    0  0.19865905259E+01  0.25025941222E+02  0.13314628712E+02  0.28416959970E+02  0.51100000000E-03 0.  1.
         12    1    3    3    0    0  0.93220006889E+01 -0.33159487096E+01  0.18821379109E+01  0.10071626274E+02  0.00000000000E+00 0. -1.
</event>
<event>
 7    1  0.2746803E-013  0.5052886E+02  0.7816164E-02  0.1300439E+00
        -11   -1    0    0    0    0  0.00000000000E+00  0.00000000000E+00  0.45593999997E+02  0.45594000000E+02  0.51100000000E-03 0.  1.
         11   -1    0    0    0    0 -0.00000000000E+00 -0.00000000000E+00 -0.45593999997E+02  0.45594000000E+02  0.51100000000E-03 0. -1.
    9900012    2    1    2    0    0 -0.51719335419E+01  0.10993982865E+01  0.40313871530E+02  0.50528858213E+02  0.29999995024E+02 0.  0.
         12    1    1    2    0    0  0.51719335419E+01 -0.10993982865E+01 -0.40313871530E+02  0.40659141787E+02  0.00000000000E+00 0. -1.
         11    1    3    3    0    0 -0.96498437868E+00  0.26293745469E+01  0.34860470384E+01  0.44718373823E+01  0.51100000000E-03 0. -1.
        -11    1    3    3    0    0 -0.82675760119E+01  0.10849226969E+02  0.12704005193E+02  0.18640018432E+02  0.51100000000E-03 0.  1.
         12    1    3    3    0    0  0.40606268487E+01 -0.12379203229E+02  0.24123819298E+02  0.27417002398E+02  0.00000000000E+00 0. -1.
</event>
<event>
 7    1  0.2746803E-013  0.5052885E+02  0.7816164E-02  0.1300439E+00
        -11   -1    0    0    0    0  0.00000000000E+00  0.00000000000E+00  0.45593999997E+02  0.45594000000E+02  0.51100000000E-03 0.  1.
         11   -1    0    0    0    0 -0.00000000000E+00 -0.00000000000E+00 -0.45593999997E+02  0.45594000000E+02  0.51100000000E-03 0. -1.
    9900012    2    1    2    0    0 -0.17428963469E+02 -0.14142330872E+01  0.36706911766E+02  0.50528853498E+02  0.29999980693E+02 0.  0.
         12    1    1    2    0    0  0.17428963469E+02  0.14142330872E+01 -0.36706911766E+02  0.40659146502E+02  0.00000000000E+00 0. -1.
         11    1    3    3    0    0 -0.51358988306E+01 -0.10830878912E+01  0.42883339792E+01  0.67779307135E+01  0.51100000000E-03 0. -1.
        -11    1    3    3    0    0 -0.21867707114E+01  0.47188159525E+01  0.32026835876E+02  0.32446377404E+02  0.51100000000E-03 0.  1.
         12    1    3    3    0    0 -0.10106293927E+02 -0.50499611485E+01  0.39174191088E+00  0.11304545381E+02  0.00000000000E+00 0. -1.
</event>
<event>
 7    1  0.2746803E-013  0.5052887E+02  0.7816164E-02  0.1300439E+00
        -11   -1    0    0    0    0  0.00000000000E+00  0.00000000000E+00  0.45593999997E+02  0.45594000000E+02  0.51100000000E-03 0.  1.
         11   -1    0    0    0    0 -0.00000000000E+00 -0.00000000000E+00 -0.45593999997E+02  0.45594000000E+02  0.51100000000E-03 0. -1.
    9900012    2    1    2    0    0 -0.28569205038E+02 -0.28258418844E+02  0.61989373938E+01  0.50528873880E+02  0.30000042644E+02 0.  0.
         12    1    1    2    0    0  0.28569205038E+02  0.28258418844E+02 -0.61989373938E+01  0.40659126120E+02  0.00000000000E+00 0. -1.
         11    1    3    3    0    0 -0.14194660766E+02 -0.15186233544E+01 -0.32766129774E+01  0.14646870110E+02  0.51100000000E-03 0. -1.
        -11    1    3    3    0    0  0.26778805278E+01 -0.29059723126E+01  0.47805882071E+01  0.62023981708E+01  0.51100000000E-03 0.  1.
        -12    1    3    3    0    0 -0.17052424800E+02 -0.23833823177E+02  0.46949621641E+01  0.29679605599E+02  0.00000000000E+00 0.  1.
</event>
<event>
 7    1  0.2746803E-013  0.5052887E+02  0.7816164E-02  0.1300439E+00
        -11   -1    0    0    0    0  0.00000000000E+00  0.00000000000E+00  0.45593999997E+02  0.45594000000E+02  0.51100000000E-03 0.  1.
         11   -1    0    0    0    0 -0.00000000000E+00 -0.00000000000E+00 -0.45593999997E+02  0.45594000000E+02  0.51100000000E-03 0. -1.
    9900012    2    1    2    0    0 -0.25282767274E+02  0.27441326959E+02  0.16153015482E+02  0.50528872422E+02  0.30000038213E+02 0.  0.
         12    1    1    2    0    0  0.25282767274E+02 -0.27441326959E+02 -0.16153015482E+02  0.40659127578E+02  0.00000000000E+00 0. -1.
         11    1    3    3    0    0 -0.12571200696E+02  0.25713146632E+02  0.61726791470E+01  0.29279736419E+02  0.51100000000E-03 0. -1.
        -11    1    3    3    0    0 -0.56837480290E+01  0.62814991519E+01  0.96890636831E+01  0.12870127372E+02  0.51100000000E-03 0.  1.
        -12    1    3    3    0    0 -0.70278185488E+01 -0.45533188251E+01  0.29127265193E+00  0.83790086309E+01  0.00000000000E+00 0.  1.
</event>
<event>
 7    1  0.2746803E-013  0.5052886E+02  0.7816164E-02  0.1300439E+00
        -11   -1    0    0    0    0  0.00000000000E+00  0.00000000000E+00  0.45593999997E+02  0.45594000000E+02  0.51100000000E-03 0.  1.
         11   -1    0    0    0    0 -0.00000000000E+00 -0.00000000000E+00 -0.45593999997E+02  0.45594000000E+02  0.51100000000E-03 0. -1.
    9900012    2    1    2    0    0  0.27234500620E+02  0.21636840853E+02  0.21054562652E+02  0.50528861856E+02  0.30000006098E+02 0.  0.
         12    1    1    2    0    0 -0.27234500620E+02 -0.21636840853E+02 -0.21054562652E+02  0.40659138144E+02  0.00000000000E+00 0. -1.
         11    1    3    3    0    0 -0.39264665964E+01  0.18761823733E+00 -0.27000774486E+01  0.47689368862E+01  0.51100000000E-03 0. -1.
        -11    1    3    3    0    0  0.31021470806E+01  0.18970072718E+01  0.65153880824E+01  0.74613829297E+01  0.51100000000E-03 0.  1.
         12    1    3    3    0    0  0.28058820136E+02  0.19552215344E+02  0.17239252018E+02  0.38298542040E+02  0.00000000000E+00 0. -1.
</event>
<event>
 7    1  0.2746803E-013  0.5052886E+02  0.7816164E-02  0.1300439E+00
        -11   -1    0    0    0    0  0.00000000000E+00  0.00000000000E+00  0.45593999997E+02  0.45594000000E+02  0.51100000000E-03 0.  1.
         11   -1    0    0    0    0 -0.00000000000E+00 -0.00000000000E+00 -0.45593999997E+02  0.45594000000E+02  0.51100000000E-03 0. -1.
    9900012    2    1    2    0    0 -0.23674449084E+02 -0.30967102692E+02  0.11563935296E+02  0.50528860952E+02  0.30000003349E+02 0.  0.
         12    1    1    2    0    0  0.23674449084E+02  0.30967102692E+02 -0.11563935296E+02  0.40659139048E+02  0.00000000000E+00 0. -1.
         11    1    3    3    0    0  0.60060109924E-01  0.44272118922E+00 -0.19833686116E+01  0.20330667915E+01  0.51100000000E-03 0. -1.
        -11    1    3    3    0    0 -0.57322261796E+01 -0.93285390813E+01 -0.73294496561E+01  0.13175769081E+02  0.51100000000E-03 0.  1.
        -12    1    3    3    0    0 -0.18002283015E+02 -0.22081284800E+02  0.20876753564E+02  0.35320025079E+02  0.00000000000E+00 0.  1.
</event>
<event>
 7    1  0.2746803E-013  0.5052886E+02  0.7816164E-02  0.1300439E+00
        -11   -1    0    0    0    0  0.00000000000E+00  0.00000000000E+00  0.45593999997E+02  0.45594000000E+02  0.51100000000E-03 0.  1.
         11   -1    0    0    0    0 -0.00000000000E+00 -0.00000000000E+00 -0.45593999997E+02  0.45594000000E+02  0.51100000000E-03 0. -1.
    9900012    2    1    2    0    0 -0.80958926974E+01 -0.11444938003E+02  0.38165897890E+02  0.50528857778E+02  0.29999993702E+02 0.  0.
         12    1    1    2    0    0  0.80958926974E+01  0.11444938003E+02 -0.38165897890E+02  0.40659142222E+02  0.00000000000E+00 0. -1.
         11    1    3    3    0    0 -0.23130887775E+01 -0.33363287028E+01 -0.31873098871E+01  0.51614352154E+01  0.51100000000E-03 0. -1.
        -11    1    3    3    0    0 -0.46754908921E-01  0.28012896718E+01  0.70153957455E+00  0.28881772595E+01  0.51100000000E-03 0.  1.
        -12    1    3    3    0    0 -0.57360490110E+01 -0.10909898972E+02  0.40651668203E+02  0.42479245303E+02  0.00000000000E+00 0.  1.
</event>
<event>
 7    1  0.2746803E-013  0.5052886E+02  0.7816164E-02  0.1300439E+00
        -11   -1    0    0    0    0  0.00000000000E+00  0.00000000000E+00  0.45593999997E+02  0.45594000000E+02  0.51100000000E-03 0. -1.
         11   -1    0    0    0    0 -0.00000000000E+00 -0.00000000000E+00 -0.45593999997E+02  0.45594000000E+02  0.51100000000E-03 0.  1.
    9900012    2    1    2    0    0  0.20566216043E+02  0.28457255077E+02 -0.20503192000E+02  0.50528862146E+02  0.30000006980E+02 0.  0.
         12    1    1    2    0    0 -0.20566216043E+02 -0.28457255077E+02  0.20503192000E+02  0.40659137854E+02  0.00000000000E+00 0. -1.
         11    1    3    3    0    0  0.16680364627E+02  0.24708017488E+02 -0.74000116143E+01  0.30716133618E+02  0.51100000000E-03 0. -1.
        -11    1    3    3    0    0  0.69257970477E+01  0.73617110588E+01 -0.95283988324E+01  0.13890710530E+02  0.51100000000E-03 0.  1.
         12    1    3    3    0    0 -0.30399456324E+01 -0.36124734699E+01 -0.35747815533E+01  0.59220179983E+01  0.00000000000E+00 0. -1.
</event>
<event>
 7    1  0.2746803E-013  0.5052886E+02  0.7816164E-02  0.1300439E+00
        -11   -1    0    0    0    0  0.00000000000E+00  0.00000000000E+00  0.45593999997E+02  0.45594000000E+02  0.51100000000E-03 0. -1.
         11   -1    0    0    0    0 -0.00000000000E+00 -0.00000000000E+00 -0.45593999997E+02  0.45594000000E+02  0.51100000000E-03 0.  1.
    9900012    2    1    2    0    0 -0.43515350178E+01  0.23697032285E+01 -0.40356096111E+02  0.50528857809E+02  0.29999993796E+02 0.  0.
         12    1    1    2    0    0  0.43515350178E+01 -0.23697032285E+01  0.40356096111E+02  0.40659142191E+02  0.00000000000E+00 0. -1.
         11    1    3    3    0    0 -0.54886273422E+01  0.11289434324E+01 -0.34817741747E+02  0.35265772131E+02  0.51100000000E-03 0. -1.
        -11    1    3    3    0    0 -0.58093106931E+01 -0.99574982825E+00 -0.53547247751E+01  0.79632082811E+01  0.51100000000E-03 0.  1.
         12    1    3    3    0    0  0.69464030175E+01  0.22365096244E+01 -0.18362958844E+00  0.72998773967E+01  0.00000000000E+00 0. -1.
</event>
<event>
 7    1  0.2746803E-013  0.5052886E+02  0.7816164E-02  0.1300439E+00
        -11   -1    0    0    0    0  0.00000000000E+00  0.00000000000E+00  0.45593999997E+02  0.45594000000E+02  0.51100000000E-03 0.  1.
         11   -1    0    0    0    0 -0.00000000000E+00 -0.00000000000E+00 -0.45593999997E+02  0.45594000000E+02  0.51100000000E-03 0. -1.
    9900012    2    1    2    0    0 -0.57038773221E+01  0.12838562949E+02  0.38154978699E+02  0.50528864315E+02  0.30000013573E+02 0.  0.
         12    1    1    2    0    0  0.57038773221E+01 -0.12838562949E+02 -0.38154978699E+02  0.40659135685E+02  0.00000000000E+00 0. -1.
         11    1    3    3    0    0 -0.12510883013E+02  0.34953797552E+01  0.16855256744E+02  0.21280027104E+02  0.51100000000E-03 0. -1.
        -11    1    3    3    0    0  0.79322538933E+00  0.12266560462E+01  0.18781238359E+02  0.18837961836E+02  0.51100000000E-03 0.  1.
        -12    1    3    3    0    0  0.60137803014E+01  0.81165271477E+01  0.25184835960E+01  0.10410875375E+02  0.00000000000E+00 0.  1.
</event>
<event>
 7    1  0.2746803E-013  0.5052882E+02  0.7816164E-02  0.1300439E+00
        -11   -1    0    0    0    0  0.00000000000E+00  0.00000000000E+00  0.45593999997E+02  0.45594000000E+02  0.51100000000E-03 0.  1.
         11   -1    0    0    0    0 -0.00000000000E+00 -0.00000000000E+00 -0.45593999997E+02  0.45594000000E+02  0.51100000000E-03 0. -1.
    9900012    2    1    2    0    0  0.34288107656E+01 -0.96017775384E+00  0.40502968469E+02  0.50528817281E+02  0.29999870606E+02 0.  0.
         12    1    1    2    0    0 -0.34288107656E+01  0.96017775384E+00 -0.40502968469E+02  0.40659182719E+02  0.00000000000E+00 0. -1.
         11    1    3    3    0    0  0.10170925993E+02  0.24807702311E+01  0.15108703181E+02  0.18381372870E+02  0.51100000000E-03 0. -1.
        -11    1    3    3    0    0  0.31386279513E+01  0.36876320858E+01  0.10950164460E+01  0.49647434067E+01  0.51100000000E-03 0.  1.
         12    1    3    3    0    0 -0.98807431791E+01 -0.71285800707E+01  0.24299248842E+02  0.27182701004E+02  0.00000000000E+00 0. -1.
</event>
<event>
 7    1  0.2746803E-013  0.5052879E+02  0.7816164E-02  0.1300439E+00
        -11   -1    0    0    0    0  0.00000000000E+00  0.00000000000E+00  0.45593999997E+02  0.45594000000E+02  0.51100000000E-03 0.  1.
         11   -1    0    0    0    0 -0.00000000000E+00 -0.00000000000E+00 -0.45593999997E+02  0.45594000000E+02  0.51100000000E-03 0. -1.
    9900012    2    1    2    0    0  0.32830883141E+02  0.64604177074E+01  0.23099071156E+02  0.50528794731E+02  0.29999802065E+02 0.  0.
         12    1    1    2    0    0 -0.32830883141E+02 -0.64604177074E+01 -0.23099071156E+02  0.40659205269E+02  0.00000000000E+00 0. -1.
         11    1    3    3    0    0  0.20209600668E+02  0.35574182914E+01  0.19049895230E+02  0.27999673080E+02  0.51100000000E-03 0. -1.
        -11    1    3    3    0    0  0.15149547261E+02  0.74567147372E+01  0.23357342118E+01  0.17046026853E+02  0.51100000000E-03 0.  1.
         12    1    3    3    0    0 -0.25282647877E+01 -0.45537153213E+01  0.17134417143E+01  0.54830947988E+01  0.00000000000E+00 0. -1.
</event>
<event>
 7    1  0.2746803E-013  0.5052883E+02  0.7816164E-02  0.1300439E+00
        -11   -1    0    0    0    0  0.00000000000E+00  0.00000000000E+00  0.45593999997E+02  0.45594000000E+02  0.51100000000E-03 0.  1.
         11   -1    0    0    0    0 -0.00000000000E+00 -0.00000000000E+00 -0.45593999997E+02  0.45594000000E+02  0.51100000000E-03 0. -1.
    9900012    2    1    2    0    0  0.26175378497E+02 -0.45107030593E+01  0.30784271991E+02  0.50528827805E+02  0.29999902597E+02 0.  0.
         12    1    1    2    0    0 -0.26175378497E+02  0.45107030593E+01 -0.30784271991E+02  0.40659172195E+02  0.00000000000E+00 0. -1.
         11    1    3    3    0    0  0.19244467973E+02  0.87146750248E+01  0.13811608490E+02  0.25239961127E+02  0.51100000000E-03 0. -1.
        -11    1    3    3    0    0  0.86708272540E+01 -0.78922665198E+01  0.15597711267E+02  0.19513065190E+02  0.51100000000E-03 0.  1.
        -12    1    3    3    0    0 -0.17399167301E+01 -0.53331115643E+01  0.13749522341E+01  0.57758014881E+01  0.00000000000E+00 0.  1.
</event>
<event>
 7    1  0.2746803E-013  0.5052890E+02  0.7816164E-02  0.1300439E+00
        -11   -1    0    0    0    0  0.00000000000E+00  0.00000000000E+00  0.45593999997E+02  0.45594000000E+02  0.51100000000E-03 0.  1.
         11   -1    0    0    0    0 -0.00000000000E+00 -0.00000000000E+00 -0.45593999997E+02  0.45594000000E+02  0.51100000000E-03 0. -1.
    9900012    2    1    2    0    0 -0.36361046614E+02 -0.83083721429E+01  0.16186645112E+02  0.50528902143E+02  0.30000128554E+02 0.  0.
         12    1    1    2    0    0  0.36361046614E+02  0.83083721429E+01 -0.16186645112E+02  0.40659097857E+02  0.00000000000E+00 0. -1.
         11    1    3    3    0    0 -0.18725274851E+02 -0.37381097249E+01 -0.47830930423E+01  0.19684698674E+02  0.51100000000E-03 0. -1.
        -11    1    3    3    0    0  0.18486301947E+01 -0.12020289159E+01  0.27607679759E+00  0.22222794088E+01  0.51100000000E-03 0.  1.
        -12    1    3    3    0    0 -0.19484401958E+02 -0.33682335021E+01  0.20693661357E+02  0.28621924061E+02  0.00000000000E+00 0.  1.
</event>
<event>
 7    1  0.2746803E-013  0.5052887E+02  0.7816164E-02  0.1300439E+00
        -11   -1    0    0    0    0  0.00000000000E+00  0.00000000000E+00  0.45593999997E+02  0.45594000000E+02  0.51100000000E-03 0. -1.
         11   -1    0    0    0    0 -0.00000000000E+00 -0.00000000000E+00 -0.45593999997E+02  0.45594000000E+02  0.51100000000E-03 0.  1.
    9900012    2    1    2    0    0 -0.36574007585E+02  0.16243867575E+02 -0.71863221644E+01  0.50528874445E+02  0.30000044364E+02 0.  0.
         12    1    1    2    0    0  0.36574007585E+02 -0.16243867575E+02  0.71863221644E+01  0.40659125555E+02  0.00000000000E+00 0. -1.
         11    1    3    3    0    0 -0.21566223811E+02  0.14630462127E+02 -0.41459388336E+01  0.26388278470E+02  0.51100000000E-03 0. -1.
        -11    1    3    3    0    0 -0.17421312613E+02  0.52111104809E+01 -0.57007779351E+01  0.19056670090E+02  0.51100000000E-03 0.  1.
        -12    1    3    3    0    0  0.24135288388E+01 -0.35977050327E+01  0.26603946042E+01  0.50839258854E+01  0.00000000000E+00 0.  1.
</event>
<event>
 7    1  0.2746803E-013  0.5052885E+02  0.7816164E-02  0.1300439E+00
        -11   -1    0    0    0    0  0.00000000000E+00  0.00000000000E+00  0.45593999997E+02  0.45594000000E+02  0.51100000000E-03 0.  1.
         11   -1    0    0    0    0 -0.00000000000E+00 -0.00000000000E+00 -0.45593999997E+02  0.45594000000E+02  0.51100000000E-03 0. -1.
    9900012    2    1    2    0    0  0.53927328083E+00 -0.32674009974E+02  0.24192655712E+02  0.50528851782E+02  0.29999975475E+02 0.  0.
         12    1    1    2    0    0 -0.53927328083E+00  0.32674009974E+02 -0.24192655712E+02  0.40659148218E+02  0.00000000000E+00 0. -1.
         11    1    3    3    0    0  0.59423459627E+01 -0.26796668192E+01  0.85063313864E+01  0.10716798203E+02  0.51100000000E-03 0. -1.
        -11    1    3    3    0    0  0.25504671469E+01 -0.99656250448E+01 -0.35934014742E+01  0.10896380115E+02  0.51100000000E-03 0.  1.
         12    1    3    3    0    0 -0.79535398288E+01 -0.20028718110E+02  0.19279725800E+02  0.28915673464E+02  0.00000000000E+00 0. -1.
</event>
<event>
 7    1  0.2746803E-013  0.5052886E+02  0.7816164E-02  0.1300439E+00
        -11   -1    0    0    0    0  0.00000000000E+00  0.00000000000E+00  0.45593999997E+02  0.45594000000E+02  0.51100000000E-03 0.  1.
         11   -1    0    0    0    0 -0.00000000000E+00 -0.00000000000E+00 -0.45593999997E+02  0.45594000000E+02  0.51100000000E-03 0. -1.
    9900012    2    1    2    0    0 -0.61183004680E+01  0.31927750141E+00  0.40194897945E+02  0.50528863763E+02  0.30000011893E+02 0.  0.
         12    1    1    2    0    0  0.61183004680E+01 -0.31927750141E+00 -0.40194897945E+02  0.40659136237E+02  0.00000000000E+00 0. -1.
         11    1    3    3    0    0 -0.73756048423E+01  0.25129743423E+01  0.17423543071E+02  0.19086498900E+02  0.51100000000E-03 0. -1.
        -11    1    3    3    0    0  0.76317114453E+00 -0.11884193905E+02  0.13793625125E+02  0.18223078481E+02  0.51100000000E-03 0.  1.
         12    1    3    3    0    0  0.49413322973E+00  0.96904970642E+01  0.89777297488E+01  0.13219286382E+02  0.00000000000E+00 0. -1.
</event>
<event>
 7    1  0.2746803E-013  0.5052887E+02  0.7816164E-02  0.1300439E+00
        -11   -1    0    0    0    0  0.00000000000E+00  0.00000000000E+00  0.45593999997E+02  0.45594000000E+02  0.51100000000E-03 0.  1.
         11   -1    0    0    0    0 -0.00000000000E+00 -0.00000000000E+00 -0.45593999997E+02  0.45594000000E+02  0.51100000000E-03 0. -1.
    9900012    2    1    2    0    0  0.22017149207E+02 -0.30993419956E+02 -0.14415899693E+02  0.50528866909E+02  0.30000021457E+02 0.  0.
         12    1    1    2    0    0 -0.22017149207E+02  0.30993419956E+02  0.14415899693E+02  0.40659133091E+02  0.00000000000E+00 0. -1.
         11    1    3    3    0    0 -0.32970926760E+01 -0.98379971412E+01  0.29801220066E+01  0.10795283012E+02  0.51100000000E-03 0. -1.
        -11    1    3    3    0    0  0.26103216420E+01  0.17033829496E+01  0.47143265079E-02  0.31169400113E+01  0.51100000000E-03 0.  1.
         12    1    3    3    0    0  0.22703920241E+02 -0.22858805764E+02 -0.17400736026E+02  0.36616643886E+02  0.00000000000E+00 0. -1.
</event>
<event>
 7    1  0.2746803E-013  0.5052886E+02  0.7816164E-02  0.1300439E+00
        -11   -1    0    0    0    0  0.00000000000E+00  0.00000000000E+00  0.45593999997E+02  0.45594000000E+02  0.51100000000E-03 0. -1.
         11   -1    0    0    0    0 -0.00000000000E+00 -0.00000000000E+00 -0.45593999997E+02  0.45594000000E+02  0.51100000000E-03 0.  1.
    9900012    2    1    2    0    0 -0.12131687665E+02 -0.46683773717E+01  0.38525236458E+02  0.50528862810E+02  0.30000008997E+02 0.  0.
         12    1    1    2    0    0  0.12131687665E+02  0.46683773717E+01 -0.38525236458E+02  0.40659137190E+02  0.00000000000E+00 0. -1.
         11    1    3    3    0    0 -0.11701526260E+02 -0.64585533995E+01  0.35441556122E+01  0.13827496813E+02  0.51100000000E-03 0. -1.
        -11    1    3    3    0    0 -0.49363209597E+01  0.14494636114E+00  0.88592742906E+01  0.10142732141E+02  0.51100000000E-03 0.  1.
         12    1    3    3    0    0  0.45061595550E+01  0.16452296666E+01  0.26121806556E+02  0.26558633856E+02  0.00000000000E+00 0. -1.
</event>
<event>
 7    1  0.2746803E-013  0.5052886E+02  0.7816164E-02  0.1300439E+00
        -11   -1    0    0    0    0  0.00000000000E+00  0.00000000000E+00  0.45593999997E+02  0.45594000000E+02  0.51100000000E-03 0.  1.
         11   -1    0    0    0    0 -0.00000000000E+00 -0.00000000000E+00 -0.45593999997E+02  0.45594000000E+02  0.51100000000E-03 0. -1.
    9900012    2    1    2    0    0 -0.13576880622E+02  0.73978672486E+01  0.37604591566E+02  0.50528862847E+02  0.30000009108E+02 0.  0.
         12    1    1    2    0    0  0.13576880622E+02 -0.73978672486E+01 -0.37604591566E+02  0.40659137153E+02  0.00000000000E+00 0. -1.
         11    1    3    3    0    0  0.51401737335E+01  0.46462116135E+01  0.72539421922E+01  0.10031368100E+02  0.51100000000E-03 0. -1.
        -11    1    3    3    0    0 -0.12665955262E+02  0.58302379038E+01  0.59323209759E+01  0.15152904974E+02  0.51100000000E-03 0.  1.
        -12    1    3    3    0    0 -0.60510990928E+01 -0.30785822687E+01  0.24418328398E+02  0.25344589773E+02  0.00000000000E+00 0.  1.
</event>
<event>
 7    1  0.2746803E-013  0.5052885E+02  0.7816164E-02  0.1300439E+00
        -11   -1    0    0    0    0  0.00000000000E+00  0.00000000000E+00  0.45593999997E+02  0.45594000000E+02  0.51100000000E-03 0.  1.
         11   -1    0    0    0    0 -0.00000000000E+00 -0.00000000000E+00 -0.45593999997E+02  0.45594000000E+02  0.51100000000E-03 0. -1.
    9900012    2    1    2    0    0  0.33829366147E+02 -0.22554680975E+02  0.16454026633E+00  0.50528847017E+02  0.29999960992E+02 0.  0.
         12    1    1    2    0    0 -0.33829366147E+02  0.22554680975E+02 -0.16454026633E+00  0.40659152983E+02  0.00000000000E+00 0. -1.
         11    1    3    3    0    0  0.15702778535E+02 -0.41625834084E+00  0.72625240741E+00  0.15725074484E+02  0.51100000000E-03 0. -1.
        -11    1    3    3    0    0  0.18323174065E+02 -0.25484027170E+02  0.10025165451E+00  0.31387647240E+02  0.51100000000E-03 0.  1.
         12    1    3    3    0    0 -0.19658645233E+00  0.33456045361E+01 -0.66196379559E+00  0.34161252921E+01  0.00000000000E+00 0. -1.
</event>
<event>
 7    1  0.2746803E-013  0.5052886E+02  0.7816164E-02  0.1300439E+00
        -11   -1    0    0    0    0  0.00000000000E+00  0.00000000000E+00  0.45593999997E+02  0.45594000000E+02  0.51100000000E-03 0.  1.
         11   -1    0    0    0    0 -0.00000000000E+00 -0.00000000000E+00 -0.45593999997E+02  0.45594000000E+02  0.51100000000E-03 0. -1.
    9900012    2    1    2    0    0 -0.37690714336E+02  0.41027970671E+01  0.14688177989E+02  0.50528862484E+02  0.30000008006E+02 0.  0.
         12    1    1    2    0    0  0.37690714336E+02 -0.41027970671E+01 -0.14688177989E+02  0.40659137516E+02  0.00000000000E+00 0. -1.
         11    1    3    3    0    0 -0.10009742010E+02 -0.59866871720E+01 -0.37924138679E+01  0.12264491902E+02  0.51100000000E-03 0. -1.
        -11    1    3    3    0    0 -0.18269871982E+02 -0.14780372413E+01  0.77916367343E+01  0.19916887799E+02  0.51100000000E-03 0.  1.
         12    1    3    3    0    0 -0.94111003442E+01  0.11567521480E+02  0.10688955122E+02  0.18347482784E+02  0.00000000000E+00 0. -1.
</event>
<event>
 7    1  0.2746803E-013  0.5052896E+02  0.7816164E-02  0.1300438E+00
        -11   -1    0    0    0    0  0.00000000000E+00  0.00000000000E+00  0.45593999997E+02  0.45594000000E+02  0.51100000000E-03 0. -1.
         11   -1    0    0    0    0 -0.00000000000E+00 -0.00000000000E+00 -0.45593999997E+02  0.45594000000E+02  0.51100000000E-03 0.  1.
    9900012    2    1    2    0    0  0.37411615947E+02 -0.64497110121E+01 -0.14557813099E+02  0.50528957929E+02  0.30000298120E+02 0.  0.
         12    1    1    2    0    0 -0.37411615947E+02  0.64497110121E+01  0.14557813099E+02  0.40659042071E+02  0.00000000000E+00 0. -1.
         11    1    3    3    0    0 -0.10897120970E+01 -0.14818861120E+01 -0.41612352300E+01  0.45496524926E+01  0.51100000000E-03 0. -1.
        -11    1    3    3    0    0  0.16801029233E+02 -0.12527684046E+02 -0.51104237214E+00  0.20963745262E+02  0.51100000000E-03 0.  1.
        -12    1    3    3    0    0  0.21700298811E+02  0.75598591461E+01 -0.98855354967E+01  0.25015560174E+02  0.00000000000E+00 0.  1.
</event>
<event>
 7    1  0.2746803E-013  0.5052886E+02  0.7816164E-02  0.1300439E+00
        -11   -1    0    0    0    0  0.00000000000E+00  0.00000000000E+00  0.45593999997E+02  0.45594000000E+02  0.51100000000E-03 0. -1.
         11   -1    0    0    0    0 -0.00000000000E+00 -0.00000000000E+00 -0.45593999997E+02  0.45594000000E+02  0.51100000000E-03 0.  1.
    9900012    2    1    2    0    0  0.40558163729E+02  0.35342568085E+00 -0.28419122872E+01  0.50528855638E+02  0.29999987198E+02 0.  0.
         12    1    1    2    0    0 -0.40558163729E+02 -0.35342568085E+00  0.28419122872E+01  0.40659144362E+02  0.00000000000E+00 0. -1.
         11    1    3    3    0    0  0.79671209051E+01 -0.44357555953E+01 -0.67618566619E+01  0.11352253036E+02  0.51100000000E-03 0. -1.
        -11    1    3    3    0    0  0.11467081986E+02 -0.81621366925E+01  0.29397921142E+01  0.14379041088E+02  0.51100000000E-03 0.  1.
        -12    1    3    3    0    0  0.21123960838E+02  0.12951317969E+02  0.98015226050E+00  0.24797561514E+02  0.00000000000E+00 0.  1.
</event>
<event>
 7    1  0.2746803E-013  0.5052886E+02  0.7816164E-02  0.1300439E+00
        -11   -1    0    0    0    0  0.00000000000E+00  0.00000000000E+00  0.45593999997E+02  0.45594000000E+02  0.51100000000E-03 0. -1.
         11   -1    0    0    0    0 -0.00000000000E+00 -0.00000000000E+00 -0.45593999997E+02  0.45594000000E+02  0.51100000000E-03 0.  1.
    9900012    2    1    2    0    0  0.76745819192E+01  0.26909622191E+02 -0.29498116255E+02  0.50528857895E+02  0.29999994058E+02 0.  0.
         12    1    1    2    0    0 -0.76745819192E+01 -0.26909622191E+02  0.29498116255E+02  0.40659142105E+02  0.00000000000E+00 0. -1.
         11    1    3    3    0    0  0.11474024904E+01  0.24708637630E+01 -0.49845053466E+01  0.56804043889E+01  0.51100000000E-03 0. -1.
        -11    1    3    3    0    0  0.14668503335E+02  0.15718733649E+02 -0.24918706217E+02  0.32911783565E+02  0.51100000000E-03 0.  1.
         12    1    3    3    0    0 -0.81413239063E+01  0.87200247789E+01  0.40509530806E+00  0.11936669942E+02  0.00000000000E+00 0. -1.
</event>
<event>
 7    1  0.2746803E-013  0.5052885E+02  0.7816164E-02  0.1300439E+00
        -11   -1    0    0    0    0  0.00000000000E+00  0.00000000000E+00  0.45593999997E+02  0.45594000000E+02  0.51100000000E-03 0.  1.
         11   -1    0    0    0    0 -0.00000000000E+00 -0.00000000000E+00 -0.45593999997E+02  0.45594000000E+02  0.51100000000E-03 0. -1.
    9900012    2    1    2    0    0 -0.19320051618E+02 -0.22168075229E+02  0.28079856921E+02  0.50528851969E+02  0.29999976046E+02 0.  0.
         12    1    1    2    0    0  0.19320051618E+02  0.22168075229E+02 -0.28079856921E+02  0.40659148031E+02  0.00000000000E+00 0. -1.
         11    1    3    3    0    0 -0.68632214710E+01 -0.78602425527E+01  0.32064803975E+01  0.10916443503E+02  0.51100000000E-03 0.  1.
        -11    1    3    3    0    0  0.17097059230E+01 -0.16329521450E+02  0.11689154768E+02  0.20154719164E+02  0.51100000000E-03 0. -1.
         12    1    3    3    0    0 -0.14166536070E+02  0.20216887732E+01  0.13184221756E+02  0.19457689303E+02  0.00000000000E+00 0. -1.
</event>
<event>
 7    1  0.2746803E-013  0.5052885E+02  0.7816164E-02  0.1300439E+00
        -11   -1    0    0    0    0  0.00000000000E+00  0.00000000000E+00  0.45593999997E+02  0.45594000000E+02  0.51100000000E-03 0.  1.
         11   -1    0    0    0    0 -0.00000000000E+00 -0.00000000000E+00 -0.45593999997E+02  0.45594000000E+02  0.51100000000E-03 0. -1.
    9900012    2    1    2    0    0  0.84377817351E+01 -0.28209244274E+02  0.28039422422E+02  0.50528845645E+02  0.29999956822E+02 0.  0.
         12    1    1    2    0    0 -0.84377817351E+01  0.28209244274E+02 -0.28039422422E+02  0.40659154355E+02  0.00000000000E+00 0. -1.
         11    1    3    3    0    0 -0.53937587786E+01 -0.75184352579E+01  0.13380893808E+02  0.16268614626E+02  0.51100000000E-03 0. -1.
        -11    1    3    3    0    0  0.38198072180E+01 -0.20333428323E+02  0.11908336252E+02  0.23871483136E+02  0.51100000000E-03 0.  1.
         12    1    3    3    0    0  0.10011733296E+02 -0.35738069327E+00  0.27501923615E+01  0.10388747883E+02  0.00000000000E+00 0. -1.
</event>
<event>
 7    1  0.2746803E-013  0.5052884E+02  0.7816164E-02  0.1300439E+00
        -11   -1    0    0    0    0  0.00000000000E+00  0.00000000000E+00  0.45593999997E+02  0.45594000000E+02  0.51100000000E-03 0.  1.
         11   -1    0    0    0    0 -0.00000000000E+00 -0.00000000000E+00 -0.45593999997E+02  0.45594000000E+02  0.51100000000E-03 0. -1.
    9900012    2    1    2    0    0  0.19662346458E+02  0.34437295603E+02  0.89795309069E+01  0.50528841475E+02  0.29999944146E+02 0.  0.
         12    1    1    2    0    0 -0.19662346458E+02 -0.34437295603E+02 -0.89795309069E+01  0.40659158525E+02  0.00000000000E+00 0. -1.
         11    1    3    3    0    0 -0.29150530705E+01  0.11628828772E+02  0.57862785992E+01  0.13311957531E+02  0.51100000000E-03 0. -1.
        -11    1    3    3    0    0  0.10440918292E+02  0.22595839839E+02  0.30506412506E+01  0.25077702548E+02  0.51100000000E-03 0.  1.
        -12    1    3    3    0    0  0.12136481236E+02  0.21262699196E+00  0.14261105719E+00  0.12139181395E+02  0.00000000000E+00 0.  1.
</event>
<event>
 7    1  0.2746803E-013  0.5052885E+02  0.7816164E-02  0.1300439E+00
        -11   -1    0    0    0    0  0.00000000000E+00  0.00000000000E+00  0.45593999997E+02  0.45594000000E+02  0.51100000000E-03 0. -1.
         11   -1    0    0    0    0 -0.00000000000E+00 -0.00000000000E+00 -0.45593999997E+02  0.45594000000E+02  0.51100000000E-03 0.  1.
    9900012    2    1    2    0    0 -0.84976935526E+01  0.23417586161E+02 -0.32133664204E+02  0.50528849585E+02  0.29999968797E+02 0.  0.
         12    1    1    2    0    0  0.84976935526E+01 -0.23417586161E+02  0.32133664204E+02  0.40659150415E+02  0.00000000000E+00 0. -1.
         11    1    3    3    0    0  0.14767177714E+01  0.25400146272E+00 -0.19052437980E+01  0.24238742357E+01  0.51100000000E-03 0. -1.
        -11    1    3    3    0    0 -0.12893147137E+02  0.18405172253E+02 -0.60241088510E+01  0.23265285222E+02  0.51100000000E-03 0.  1.
         12    1    3    3    0    0  0.29187358132E+01  0.47584124457E+01 -0.24204311555E+02  0.24839690127E+02  0.00000000000E+00 0. -1.
</event>
<event>
 7    1  0.2746803E-013  0.5052884E+02  0.7816164E-02  0.1300439E+00
        -11   -1    0    0    0    0  0.00000000000E+00  0.00000000000E+00  0.45593999997E+02  0.45594000000E+02  0.51100000000E-03 0. -1.
         11   -1    0    0    0    0 -0.00000000000E+00 -0.00000000000E+00 -0.45593999997E+02  0.45594000000E+02  0.51100000000E-03 0.  1.
    9900012    2    1    2    0    0 -0.25517727402E+02 -0.14655378721E+02 -0.28057665966E+02  0.50528841663E+02  0.29999944717E+02 0.  0.
         12    1    1    2    0    0  0.25517727402E+02  0.14655378721E+02  0.28057665966E+02  0.40659158337E+02  0.00000000000E+00 0. -1.
         11    1    3    3    0    0 -0.13175128255E+01 -0.52766734312E+00 -0.19665383131E+02  0.19716530294E+02  0.51100000000E-03 0. -1.
        -11    1    3    3    0    0 -0.13371732212E+02 -0.23201110601E+01 -0.29171475398E+01  0.13881494434E+02  0.51100000000E-03 0.  1.
        -12    1    3    3    0    0 -0.10828482365E+02 -0.11807600318E+02 -0.54751352956E+01  0.16930816935E+02  0.00000000000E+00 0.  1.
</event>
<event>
 7    1  0.2746803E-013  0.5052886E+02  0.7816164E-02  0.1300439E+00
        -11   -1    0    0    0    0  0.00000000000E+00  0.00000000000E+00  0.45593999997E+02  0.45594000000E+02  0.51100000000E-03 0.  1.
         11   -1    0    0    0    0 -0.00000000000E+00 -0.00000000000E+00 -0.45593999997E+02  0.45594000000E+02  0.51100000000E-03 0. -1.
    9900012    2    1    2    0    0  0.12297691809E+02 -0.91692503799E+01  0.37654444704E+02  0.50528861023E+02  0.30000003565E+02 0.  0.
         12    1    1    2    0    0 -0.12297691809E+02  0.91692503799E+01 -0.37654444704E+02  0.40659138977E+02  0.00000000000E+00 0. -1.
         11    1    3    3    0    0 -0.22359167260E+01  0.47879321813E+01  0.56253636602E+01  0.77180525231E+01  0.51100000000E-03 0. -1.
        -11    1    3    3    0    0 -0.27873407924E+01 -0.81408579751E+01  0.43420205936E+01  0.96382560850E+01  0.51100000000E-03 0.  1.
        -12    1    3    3    0    0  0.17320949328E+02 -0.58163245861E+01  0.27687060451E+02  0.33172552415E+02  0.00000000000E+00 0.  1.
</event>
<event>
 7    1  0.2746803E-013  0.5052883E+02  0.7816164E-02  0.1300439E+00
        -11   -1    0    0    0    0  0.00000000000E+00  0.00000000000E+00  0.45593999997E+02  0.45594000000E+02  0.51100000000E-03 0. -1.
         11   -1    0    0    0    0 -0.00000000000E+00 -0.00000000000E+00 -0.45593999997E+02  0.45594000000E+02  0.51100000000E-03 0.  1.
    9900012    2    1    2    0    0  0.15786140820E+02 -0.18961638474E+02 -0.32317524127E+02  0.50528827095E+02  0.29999900437E+02 0.  0.
         12    1    1    2    0    0 -0.15786140820E+02  0.18961638474E+02  0.32317524127E+02  0.40659172905E+02  0.00000000000E+00 0. -1.
         11    1    3    3    0    0 -0.28342071150E+01 -0.85194829621E+00 -0.27315527803E+01  0.40273970158E+01  0.51100000000E-03 0. -1.
        -11    1    3    3    0    0  0.91209773829E+01  0.51563392123E+01 -0.11382074407E+02  0.15470348430E+02  0.51100000000E-03 0.  1.
        -12    1    3    3    0    0  0.94993705516E+01 -0.23266029390E+02 -0.18203896940E+02  0.31031081649E+02  0.00000000000E+00 0.  1.
</event>
<event>
 7    1  0.2746803E-013  0.5052885E+02  0.7816164E-02  0.1300439E+00
        -11   -1    0    0    0    0  0.00000000000E+00  0.00000000000E+00  0.45593999997E+02  0.45594000000E+02  0.51100000000E-03 0.  1.
         11   -1    0    0    0    0 -0.00000000000E+00 -0.00000000000E+00 -0.45593999997E+02  0.45594000000E+02  0.51100000000E-03 0. -1.
    9900012    2    1    2    0    0 -0.43980180056E+01  0.27007321939E+02  0.30073716989E+02  0.50528850301E+02  0.29999970976E+02 0.  0.
         12    1    1    2    0    0  0.43980180056E+01 -0.27007321939E+02 -0.30073716989E+02  0.40659149699E+02  0.00000000000E+00 0. -1.
         11    1    3    3    0    0 -0.66188986722E+01  0.10177389276E+01  0.16486957408E+02  0.17795094184E+02  0.51100000000E-03 0. -1.
        -11    1    3    3    0    0  0.48709700966E+01  0.12911516752E+02  0.15530399168E+00  0.13800642526E+02  0.51100000000E-03 0.  1.
         12    1    3    3    0    0 -0.26500894299E+01  0.13078066259E+02  0.13431455589E+02  0.18933113592E+02  0.00000000000E+00 0. -1.
</event>
<event>
 7    1  0.2746803E-013  0.5052875E+02  0.7816164E-02  0.1300439E+00
        -11   -1    0    0    0    0  0.00000000000E+00  0.00000000000E+00  0.45593999997E+02  0.45594000000E+02  0.51100000000E-03 0.  1.
         11   -1    0    0    0    0 -0.00000000000E+00 -0.00000000000E+00 -0.45593999997E+02  0.45594000000E+02  0.51100000000E-03 0. -1.
    9900012    2    1    2    0    0 -0.37639418890E+02 -0.14711979919E+02  0.44728572954E+01  0.50528749394E+02  0.29999664255E+02 0.  0.
         12    1    1    2    0    0  0.37639418890E+02  0.14711979919E+02 -0.44728572954E+01  0.40659250606E+02  0.00000000000E+00 0. -1.
         11    1    3    3    0    0 -0.20072105590E+02  0.57329046378E+01  0.20991119372E+01  0.20980035501E+02  0.51100000000E-03 0. -1.
        -11    1    3    3    0    0 -0.40032494837E+01 -0.18498094783E+01  0.46636876757E+01  0.64185500335E+01  0.51100000000E-03 0.  1.
        -12    1    3    3    0    0 -0.13564063815E+02 -0.18595075078E+02 -0.22899423176E+01  0.23130163860E+02  0.00000000000E+00 0.  1.
</event>
<event>
 7    1  0.2746803E-013  0.5052885E+02  0.7816164E-02  0.1300439E+00
        -11   -1    0    0    0    0  0.00000000000E+00  0.00000000000E+00  0.45593999997E+02  0.45594000000E+02  0.51100000000E-03 0. -1.
         11   -1    0    0    0    0 -0.00000000000E+00 -0.00000000000E+00 -0.45593999997E+02  0.45594000000E+02  0.51100000000E-03 0.  1.
    9900012    2    1    2    0    0 -0.37503878681E+02 -0.93421441550E+01 -0.12623391573E+02  0.50528848652E+02  0.29999965962E+02 0.  0.
         12    1    1    2    0    0  0.37503878681E+02  0.93421441550E+01  0.12623391573E+02  0.40659151348E+02  0.00000000000E+00 0. -1.
         11    1    3    3    0    0 -0.11178294507E+02 -0.47973450969E+01 -0.12064401501E+02  0.17132383719E+02  0.51100000000E-03 0. -1.
        -11    1    3    3    0    0 -0.21515097106E+02  0.78701792949E+00 -0.80817855866E+01  0.22996392310E+02  0.51100000000E-03 0.  1.
         12    1    3    3    0    0 -0.48104870676E+01 -0.53318169876E+01  0.75227955144E+01  0.10400072623E+02  0.00000000000E+00 0. -1.
</event>
<event>
 7    1  0.2746803E-013  0.5052886E+02  0.7816164E-02  0.1300439E+00
        -11   -1    0    0    0    0  0.00000000000E+00  0.00000000000E+00  0.45593999997E+02  0.45594000000E+02  0.51100000000E-03 0. -1.
         11   -1    0    0    0    0 -0.00000000000E+00 -0.00000000000E+00 -0.45593999997E+02  0.45594000000E+02  0.51100000000E-03 0.  1.
    9900012    2    1    2    0    0 -0.84569764615E+01 -0.43867037543E+01 -0.39527227797E+02  0.50528863781E+02  0.30000011950E+02 0.  0.
         12    1    1    2    0    0  0.84569764615E+01  0.43867037543E+01  0.39527227797E+02  0.40659136219E+02  0.00000000000E+00 0. -1.
         11    1    3    3    0    0 -0.26963266266E+01  0.46322637371E+01 -0.24099938124E+02  0.24688763891E+02  0.51100000000E-03 0.  1.
        -11    1    3    3    0    0 -0.91384867855E+01  0.10880711217E+01 -0.35011593083E+01  0.98465200075E+01  0.51100000000E-03 0. -1.
         12    1    3    3    0    0  0.33778369506E+01 -0.10107038613E+02 -0.11926130365E+02  0.15993579883E+02  0.00000000000E+00 0. -1.
</event>
<event>
 7    1  0.2746803E-013  0.5052885E+02  0.7816164E-02  0.1300439E+00
        -11   -1    0    0    0    0  0.00000000000E+00  0.00000000000E+00  0.45593999997E+02  0.45594000000E+02  0.51100000000E-03 0. -1.
         11   -1    0    0    0    0 -0.00000000000E+00 -0.00000000000E+00 -0.45593999997E+02  0.45594000000E+02  0.51100000000E-03 0.  1.
    9900012    2    1    2    0    0 -0.16544310311E+02  0.28335222298E+02 -0.24011811377E+02  0.50528854510E+02  0.29999983769E+02 0.  0.
         12    1    1    2    0    0  0.16544310311E+02 -0.28335222298E+02  0.24011811377E+02  0.40659145490E+02  0.00000000000E+00 0. -1.
         11    1    3    3    0    0 -0.24953465240E+01  0.54647401812E+01  0.31991713978E+01  0.68062351867E+01  0.51100000000E-03 0. -1.
        -11    1    3    3    0    0  0.37255832504E+00  0.17793942282E+02 -0.20141664680E+02  0.26878427000E+02  0.51100000000E-03 0.  1.
         12    1    3    3    0    0 -0.14421522112E+02  0.50765398352E+01 -0.70693180950E+01  0.16844192324E+02  0.00000000000E+00 0. -1.
</event>
<event>
 7    1  0.2746803E-013  0.5052886E+02  0.7816164E-02  0.1300439E+00
        -11   -1    0    0    0    0  0.00000000000E+00  0.00000000000E+00  0.45593999997E+02  0.45594000000E+02  0.51100000000E-03 0. -1.
         11   -1    0    0    0    0 -0.00000000000E+00 -0.00000000000E+00 -0.45593999997E+02  0.45594000000E+02  0.51100000000E-03 0.  1.
    9900012    2    1    2    0    0 -0.84631370018E+01  0.35393427983E+02 -0.18134114893E+02  0.50528861356E+02  0.30000004578E+02 0.  0.
         12    1    1    2    0    0  0.84631370018E+01 -0.35393427983E+02  0.18134114893E+02  0.40659138644E+02  0.00000000000E+00 0. -1.
         11    1    3    3    0    0 -0.78800387085E+01  0.76431160257E+01 -0.58986631144E+01  0.12462201227E+02  0.51100000000E-03 0. -1.
        -11    1    3    3    0    0 -0.15909265920E+01  0.12816787406E+02 -0.17891646404E+02  0.22066084794E+02  0.51100000000E-03 0.  1.
         12    1    3    3    0    0  0.10078282987E+01  0.14933524552E+02  0.56561946252E+01  0.16000575335E+02  0.00000000000E+00 0. -1.
</event>
<event>
 7    1  0.2746803E-013  0.5052887E+02  0.7816164E-02  0.1300439E+00
        -11   -1    0    0    0    0  0.00000000000E+00  0.00000000000E+00  0.45593999997E+02  0.45594000000E+02  0.51100000000E-03 0.  1.
         11   -1    0    0    0    0 -0.00000000000E+00 -0.00000000000E+00 -0.45593999997E+02  0.45594000000E+02  0.51100000000E-03 0. -1.
    9900012    2    1    2    0    0  0.26052986461E+01  0.17665775298E+02  0.36528043187E+02  0.50528866499E+02  0.30000020211E+02 0.  0.
         12    1    1    2    0    0 -0.26052986461E+01 -0.17665775298E+02 -0.36528043187E+02  0.40659133501E+02  0.00000000000E+00 0. -1.
         11    1    3    3    0    0  0.65513451157E+01  0.17226676542E+02  0.24295163443E+02  0.30494810616E+02  0.51100000000E-03 0.  1.
        -11    1    3    3    0    0 -0.31107854280E+01  0.77452050675E+01  0.50553003033E+01  0.97581375751E+01  0.51100000000E-03 0. -1.
        -12    1    3    3    0    0 -0.83526104155E+00 -0.73061063116E+01  0.71775794408E+01  0.10275918308E+02  0.00000000000E+00 0.  1.
</event>
<event>
 7    1  0.2746803E-013  0.5052886E+02  0.7816164E-02  0.1300439E+00
        -11   -1    0    0    0    0  0.00000000000E+00  0.00000000000E+00  0.45593999997E+02  0.45594000000E+02  0.51100000000E-03 0.  1.
         11   -1    0    0    0    0 -0.00000000000E+00 -0.00000000000E+00 -0.45593999997E+02  0.45594000000E+02  0.51100000000E-03 0. -1.
    9900012    2    1    2    0    0 -0.23665439113E+02  0.82406948848E+01  0.32018804403E+02  0.50528857166E+02  0.29999991843E+02 0.  0.
         12    1    1    2    0    0  0.23665439113E+02 -0.82406948848E+01 -0.32018804403E+02  0.40659142834E+02  0.00000000000E+00 0. -1.
         11    1    3    3    0    0 -0.10124700803E+02  0.10461039695E+02  0.76211597120E+01  0.16432437234E+02  0.51100000000E-03 0. -1.
        -11    1    3    3    0    0 -0.14562800587E+02  0.56892742018E+01  0.13956291384E+02  0.20957601755E+02  0.51100000000E-03 0.  1.
         12    1    3    3    0    0  0.10220622769E+01 -0.79096190118E+01  0.10441353306E+02  0.13138818177E+02  0.00000000000E+00 0. -1.
</event>
<event>
 7    1  0.2746803E-013  0.5052887E+02  0.7816164E-02  0.1300439E+00
        -11   -1    0    0    0    0  0.00000000000E+00  0.00000000000E+00  0.45593999997E+02  0.45594000000E+02  0.51100000000E-03 0. -1.
         11   -1    0    0    0    0 -0.00000000000E+00 -0.00000000000E+00 -0.45593999997E+02  0.45594000000E+02  0.51100000000E-03 0.  1.
    9900012    2    1    2    0    0  0.58024273256E+01 -0.38477609533E+02 -0.11788571102E+02  0.50528868100E+02  0.30000025077E+02 0.  0.
         12    1    1    2    0    0 -0.58024273256E+01  0.38477609533E+02  0.11788571102E+02  0.40659131900E+02  0.00000000000E+00 0. -1.
         11    1    3    3    0    0  0.55820499694E+01  0.80117972840E+00 -0.89282705694E+00  0.57094930802E+01  0.51100000000E-03 0. -1.
        -11    1    3    3    0    0  0.54852455248E+01 -0.37521514403E+02 -0.97087775886E+01  0.39143483801E+02  0.51100000000E-03 0.  1.
         12    1    3    3    0    0 -0.52648681686E+01 -0.17572748585E+01 -0.11869664561E+01  0.56758912189E+01  0.00000000000E+00 0. -1.
</event>
<event>
 7    1  0.2746803E-013  0.5052886E+02  0.7816164E-02  0.1300439E+00
        -11   -1    0    0    0    0  0.00000000000E+00  0.00000000000E+00  0.45593999997E+02  0.45594000000E+02  0.51100000000E-03 0.  1.
         11   -1    0    0    0    0 -0.00000000000E+00 -0.00000000000E+00 -0.45593999997E+02  0.45594000000E+02  0.51100000000E-03 0. -1.
    9900012    2    1    2    0    0 -0.33234854888E+02  0.22140397520E+02  0.76428382539E+01  0.50528858859E+02  0.29999996987E+02 0.  0.
         12    1    1    2    0    0  0.33234854888E+02 -0.22140397520E+02 -0.76428382539E+01  0.40659141141E+02  0.00000000000E+00 0. -1.
         11    1    3    3    0    0 -0.36740332228E+01 -0.39965339563E+00 -0.25528482967E+01  0.44916898430E+01  0.51100000000E-03 0. -1.
        -11    1    3    3    0    0  0.10792102572E+01  0.12551298321E+02  0.17228860652E+01  0.12714877938E+02  0.51100000000E-03 0.  1.
         12    1    3    3    0    0 -0.30640031923E+02  0.99887525946E+01  0.84728004853E+01  0.33322291078E+02  0.00000000000E+00 0. -1.
</event>
<event>
 7    1  0.2746803E-013  0.5052886E+02  0.7816164E-02  0.1300439E+00
        -11   -1    0    0    0    0  0.00000000000E+00  0.00000000000E+00  0.45593999997E+02  0.45594000000E+02  0.51100000000E-03 0.  1.
         11   -1    0    0    0    0 -0.00000000000E+00 -0.00000000000E+00 -0.45593999997E+02  0.45594000000E+02  0.51100000000E-03 0. -1.
    9900012    2    1    2    0    0 -0.23846233238E+02  0.24234287157E+02  0.22298479327E+02  0.50528859651E+02  0.29999999394E+02 0.  0.
         12    1    1    2    0    0  0.23846233238E+02 -0.24234287157E+02 -0.22298479327E+02  0.40659140349E+02  0.00000000000E+00 0. -1.
         11    1    3    3    0    0 -0.55505989139E+01  0.23968323839E+02  0.16430516185E+02  0.29584650721E+02  0.51100000000E-03 0.  1.
        -11    1    3    3    0    0 -0.86732915899E+01  0.18853571055E+00  0.71427837193E+01  0.11237477130E+02  0.51100000000E-03 0. -1.
        -12    1    3    3    0    0 -0.96223427340E+01  0.77427607476E-01 -0.12748205768E+01  0.97067317995E+01  0.00000000000E+00 0.  1.
</event>
<event>
 7    1  0.2746803E-013  0.5052886E+02  0.7816164E-02  0.1300439E+00
        -11   -1    0    0    0    0  0.00000000000E+00  0.00000000000E+00  0.45593999997E+02  0.45594000000E+02  0.51100000000E-03 0.  1.
         11   -1    0    0    0    0 -0.00000000000E+00 -0.00000000000E+00 -0.45593999997E+02  0.45594000000E+02  0.51100000000E-03 0. -1.
    9900012    2    1    2    0    0 -0.14959578182E+02 -0.34084961309E+02  0.16358250588E+02  0.50528856759E+02  0.29999990603E+02 0.  0.
         12    1    1    2    0    0  0.14959578182E+02  0.34084961309E+02 -0.16358250588E+02  0.40659143241E+02  0.00000000000E+00 0. -1.
         11    1    3    3    0    0 -0.86826918168E+01 -0.10276545220E+02 -0.51404363142E+01  0.14402104173E+02  0.51100000000E-03 0. -1.
        -11    1    3    3    0    0 -0.63484822119E+01 -0.16421787149E+02  0.54024786866E+01  0.18416435480E+02  0.51100000000E-03 0.  1.
        -12    1    3    3    0    0  0.71595846381E-01 -0.73866289397E+01  0.16096208216E+02  0.17710317106E+02  0.00000000000E+00 0.  1.
</event>
<event>
 7    1  0.2746803E-013  0.5052886E+02  0.7816164E-02  0.1300439E+00
        -11   -1    0    0    0    0  0.00000000000E+00  0.00000000000E+00  0.45593999997E+02  0.45594000000E+02  0.51100000000E-03 0.  1.
         11   -1    0    0    0    0 -0.00000000000E+00 -0.00000000000E+00 -0.45593999997E+02  0.45594000000E+02  0.51100000000E-03 0. -1.
    9900012    2    1    2    0    0 -0.19569766286E+02 -0.34167611965E+02 -0.10137284557E+02  0.50528855911E+02  0.29999988026E+02 0.  0.
         12    1    1    2    0    0  0.19569766286E+02  0.34167611965E+02  0.10137284557E+02  0.40659144089E+02  0.00000000000E+00 0. -1.
         11    1    3    3    0    0 -0.32200688095E+01 -0.19609864655E+01  0.58369372727E+01  0.69486795899E+01  0.51100000000E-03 0. -1.
        -11    1    3    3    0    0 -0.17501042014E+02 -0.26175616172E+02 -0.62835542837E+01  0.32108136169E+02  0.51100000000E-03 0.  1.
         12    1    3    3    0    0  0.11513445376E+01 -0.60310093273E+01 -0.96906675462E+01  0.11472040152E+02  0.00000000000E+00 0. -1.
</event>
<event>
 7    1  0.2746803E-013  0.5052886E+02  0.7816164E-02  0.1300439E+00
        -11   -1    0    0    0    0  0.00000000000E+00  0.00000000000E+00  0.45593999997E+02  0.45594000000E+02  0.51100000000E-03 0.  1.
         11   -1    0    0    0    0 -0.00000000000E+00 -0.00000000000E+00 -0.45593999997E+02  0.45594000000E+02  0.51100000000E-03 0. -1.
    9900012    2    1    2    0    0 -0.25579832715E+02  0.26278435021E+01  0.31494957356E+02  0.50528859059E+02  0.29999997596E+02 0.  0.
         12    1    1    2    0    0  0.25579832715E+02 -0.26278435021E+01 -0.31494957356E+02  0.40659140941E+02  0.00000000000E+00 0. -1.
         11    1    3    3    0    0 -0.15057959701E+02 -0.67466467648E+01  0.21283309082E+02  0.26930255080E+02  0.51100000000E-03 0. -1.
        -11    1    3    3    0    0 -0.26456410496E+01  0.23972932695E+01  0.12354864174E+02  0.12860369381E+02  0.51100000000E-03 0.  1.
         12    1    3    3    0    0 -0.78762319641E+01  0.69771969974E+01 -0.21432159004E+01  0.10738234598E+02  0.00000000000E+00 0. -1.
</event>
<event>
 7    1  0.2746803E-013  0.5052889E+02  0.7816164E-02  0.1300439E+00
        -11   -1    0    0    0    0  0.00000000000E+00  0.00000000000E+00  0.45593999997E+02  0.45594000000E+02  0.51100000000E-03 0.  1.
         11   -1    0    0    0    0 -0.00000000000E+00 -0.00000000000E+00 -0.45593999997E+02  0.45594000000E+02  0.51100000000E-03 0. -1.
    9900012    2    1    2    0    0  0.33558882148E+02  0.17458163447E+02  0.14905607259E+02  0.50528890692E+02  0.30000093746E+02 0.  0.
         12    1    1    2    0    0 -0.33558882148E+02 -0.17458163447E+02 -0.14905607259E+02  0.40659109308E+02  0.00000000000E+00 0. -1.
         11    1    3    3    0    0  0.37447926586E+01  0.22634415700E+01  0.37592744638E+01  0.57687766946E+01  0.51100000000E-03 0. -1.
        -11    1    3    3    0    0  0.15708078752E+02  0.11887605088E+02 -0.75591677041E+01  0.21099760886E+02  0.51100000000E-03 0.  1.
        -12    1    3    3    0    0  0.14106010737E+02  0.33071167889E+01  0.18705500500E+02  0.23660353111E+02  0.00000000000E+00 0.  1.
</event>
<event>
 7    1  0.2746803E-013  0.5052885E+02  0.7816164E-02  0.1300439E+00
        -11   -1    0    0    0    0  0.00000000000E+00  0.00000000000E+00  0.45593999997E+02  0.45594000000E+02  0.51100000000E-03 0.  1.
         11   -1    0    0    0    0 -0.00000000000E+00 -0.00000000000E+00 -0.45593999997E+02  0.45594000000E+02  0.51100000000E-03 0. -1.
    9900012    2    1    2    0    0 -0.34556956636E+02 -0.12908513005E+02  0.17098355537E+02  0.50528847008E+02  0.29999960966E+02 0.  0.
         12    1    1    2    0    0  0.34556956636E+02  0.12908513005E+02 -0.17098355537E+02  0.40659152992E+02  0.00000000000E+00 0. -1.
         11    1    3    3    0    0 -0.40686255557E+01 -0.79172454408E+01 -0.44186055848E+01  0.99378350186E+01  0.51100000000E-03 0. -1.
        -11    1    3    3    0    0  0.10412302306E+01 -0.24119500690E+01  0.69122082154E+00  0.27165143131E+01  0.51100000000E-03 0.  1.
        -12    1    3    3    0    0 -0.31529561311E+02 -0.25793174957E+01  0.20825740300E+02  0.37874497676E+02  0.00000000000E+00 0.  1.
</event>
<event>
 7    1  0.2746803E-013  0.5052886E+02  0.7816164E-02  0.1300439E+00
        -11   -1    0    0    0    0  0.00000000000E+00  0.00000000000E+00  0.45593999997E+02  0.45594000000E+02  0.51100000000E-03 0.  1.
         11   -1    0    0    0    0 -0.00000000000E+00 -0.00000000000E+00 -0.45593999997E+02  0.45594000000E+02  0.51100000000E-03 0. -1.
    9900012    2    1    2    0    0  0.22954078752E+02 -0.33158001780E+02  0.51790875349E+01  0.50528858825E+02  0.29999996885E+02 0.  0.
         12    1    1    2    0    0 -0.22954078752E+02  0.33158001780E+02 -0.51790875349E+01  0.40659141175E+02  0.00000000000E+00 0. -1.
         11    1    3    3    0    0  0.53596085569E+01 -0.24169323433E+01 -0.26349570519E+01  0.64428227324E+01  0.51100000000E-03 0.  1.
        -11    1    3    3    0    0 -0.40336908923E+01 -0.17495132915E+02  0.44906433221E+01  0.18507193619E+02  0.51100000000E-03 0. -1.
         12    1    3    3    0    0  0.21628161087E+02 -0.13245936522E+02  0.33234012647E+01  0.25578842474E+02  0.00000000000E+00 0. -1.
</event>
<event>
 7    1  0.2746803E-013  0.5052886E+02  0.7816164E-02  0.1300439E+00
        -11   -1    0    0    0    0  0.00000000000E+00  0.00000000000E+00  0.45593999997E+02  0.45594000000E+02  0.51100000000E-03 0. -1.
         11   -1    0    0    0    0 -0.00000000000E+00 -0.00000000000E+00 -0.45593999997E+02  0.45594000000E+02  0.51100000000E-03 0.  1.
    9900012    2    1    2    0    0  0.14610447560E+01  0.39842337164E+02 -0.79761651186E+01  0.50528859669E+02  0.29999999450E+02 0.  0.
         12    1    1    2    0    0 -0.14610447560E+01 -0.39842337164E+02  0.79761651186E+01  0.40659140331E+02  0.00000000000E+00 0. -1.
         11    1    3    3    0    0 -0.70592321760E+01  0.89005390966E+01 -0.10622040356E+02  0.15552494871E+02  0.51100000000E-03 0. -1.
        -11    1    3    3    0    0  0.13478769952E+01  0.16082661190E+01 -0.35742812174E+01  0.41447290365E+01  0.51100000000E-03 0.  1.
         12    1    3    3    0    0  0.71723999368E+01  0.29333531948E+02  0.62201564547E+01  0.30831635762E+02  0.00000000000E+00 0. -1.
</event>
<event>
 7    1  0.2746803E-013  0.5052886E+02  0.7816164E-02  0.1300439E+00
        -11   -1    0    0    0    0  0.00000000000E+00  0.00000000000E+00  0.45593999997E+02  0.45594000000E+02  0.51100000000E-03 0.  1.
         11   -1    0    0    0    0 -0.00000000000E+00 -0.00000000000E+00 -0.45593999997E+02  0.45594000000E+02  0.51100000000E-03 0. -1.
    9900012    2    1    2    0    0  0.19068772240E+02 -0.33807703715E+02 -0.12107294729E+02  0.50528862148E+02  0.30000006986E+02 0.  0.
         12    1    1    2    0    0 -0.19068772240E+02  0.33807703715E+02  0.12107294729E+02  0.40659137852E+02  0.00000000000E+00 0. -1.
         11    1    3    3    0    0  0.35244101798E+01 -0.92120568794E+01 -0.11198827863E+02  0.14923042747E+02  0.51100000000E-03 0. -1.
        -11    1    3    3    0    0  0.16950832042E+02 -0.15924579001E+02 -0.77031861271E+01  0.24500244898E+02  0.51100000000E-03 0.  1.
        -12    1    3    3    0    0 -0.14064699825E+01 -0.86710678346E+01  0.67947192614E+01  0.11105574503E+02  0.00000000000E+00 0.  1.
</event>
<event>
 7    1  0.2746803E-013  0.5052884E+02  0.7816164E-02  0.1300439E+00
        -11   -1    0    0    0    0  0.00000000000E+00  0.00000000000E+00  0.45593999997E+02  0.45594000000E+02  0.51100000000E-03 0.  1.
         11   -1    0    0    0    0 -0.00000000000E+00 -0.00000000000E+00 -0.45593999997E+02  0.45594000000E+02  0.51100000000E-03 0. -1.
    9900012    2    1    2    0    0  0.18820502523E+02  0.34005795764E+02  0.11939911185E+02  0.50528844329E+02  0.29999952823E+02 0.  0.
         12    1    1    2    0    0 -0.18820502523E+02 -0.34005795764E+02 -0.11939911185E+02  0.40659155671E+02  0.00000000000E+00 0. -1.
         11    1    3    3    0    0  0.29732664162E+01  0.16631018976E+02 -0.19013549112E+01  0.17001360420E+02  0.51100000000E-03 0. -1.
        -11    1    3    3    0    0  0.14626858780E+02  0.21279884951E+02  0.93768042611E+01  0.27471857595E+02  0.51100000000E-03 0.  1.
         12    1    3    3    0    0  0.12203773271E+01 -0.39051081632E+01  0.44644618348E+01  0.60556263145E+01  0.00000000000E+00 0. -1.
</event>
<event>
 7    1  0.2746803E-013  0.5052882E+02  0.7816164E-02  0.1300439E+00
        -11   -1    0    0    0    0  0.00000000000E+00  0.00000000000E+00  0.45593999997E+02  0.45594000000E+02  0.51100000000E-03 0. -1.
         11   -1    0    0    0    0 -0.00000000000E+00 -0.00000000000E+00 -0.45593999997E+02  0.45594000000E+02  0.51100000000E-03 0.  1.
    9900012    2    1    2    0    0 -0.18903305980E+02 -0.34348743508E+02  0.10770214790E+02  0.50528822878E+02  0.29999887621E+02 0.  0.
         12    1    1    2    0    0  0.18903305980E+02  0.34348743508E+02 -0.10770214790E+02  0.40659177122E+02  0.00000000000E+00 0. -1.
         11    1    3    3    0    0 -0.24223160687E+01 -0.16526776957E+02 -0.28463450276E+01  0.16944133262E+02  0.51100000000E-03 0. -1.
        -11    1    3    3    0    0 -0.48936460326E+01 -0.18375879907E+02  0.96500500009E+01  0.21324732100E+02  0.51100000000E-03 0.  1.
         12    1    3    3    0    0 -0.11587343879E+02  0.55391335600E+00  0.39665098167E+01  0.12259957516E+02  0.00000000000E+00 0. -1.
</event>
<event>
 7    1  0.2746803E-013  0.5052886E+02  0.7816164E-02  0.1300439E+00
        -11   -1    0    0    0    0  0.00000000000E+00  0.00000000000E+00  0.45593999997E+02  0.45594000000E+02  0.51100000000E-03 0.  1.
         11   -1    0    0    0    0 -0.00000000000E+00 -0.00000000000E+00 -0.45593999997E+02  0.45594000000E+02  0.51100000000E-03 0. -1.
    9900012    2    1    2    0    0  0.16383619426E+02 -0.18623022583E+02  0.32216851352E+02  0.50528862446E+02  0.30000007890E+02 0.  0.
         12    1    1    2    0    0 -0.16383619426E+02  0.18623022583E+02 -0.32216851352E+02  0.40659137554E+02  0.00000000000E+00 0. -1.
         11    1    3    3    0    0  0.66125540215E+01 -0.11116906796E+01  0.43069470407E+01  0.79694115170E+01  0.51100000000E-03 0. -1.
        -11    1    3    3    0    0  0.87771132354E+01 -0.23343687326E+01 -0.17295121320E+01  0.92454424774E+01  0.51100000000E-03 0.  1.
         12    1    3    3    0    0  0.99395216913E+00 -0.15176963171E+02  0.29639416443E+02  0.33314008451E+02  0.00000000000E+00 0. -1.
</event>
<event>
 7    1  0.2746803E-013  0.5052882E+02  0.7816164E-02  0.1300439E+00
        -11   -1    0    0    0    0  0.00000000000E+00  0.00000000000E+00  0.45593999997E+02  0.45594000000E+02  0.51100000000E-03 0.  1.
         11   -1    0    0    0    0 -0.00000000000E+00 -0.00000000000E+00 -0.45593999997E+02  0.45594000000E+02  0.51100000000E-03 0. -1.
    9900012    2    1    2    0    0 -0.32611202696E+02  0.44940653307E+01  0.23863814761E+02  0.50528821216E+02  0.29999882568E+02 0.  0.
         12    1    1    2    0    0  0.32611202696E+02 -0.44940653307E+01 -0.23863814761E+02  0.40659178784E+02  0.00000000000E+00 0. -1.
         11    1    3    3    0    0 -0.10980608347E+02  0.69057419928E+01  0.44122113188E+01  0.13701483173E+02  0.51100000000E-03 0. -1.
        -11    1    3    3    0    0 -0.11845859734E+02 -0.92940676587E+01  0.13327532236E+01  0.15115565418E+02  0.51100000000E-03 0.  1.
         12    1    3    3    0    0 -0.97847346145E+01  0.68823909966E+01  0.18118850218E+02  0.21711772625E+02  0.00000000000E+00 0. -1.
</event>
<event>
 7    1  0.2746803E-013  0.5052886E+02  0.7816164E-02  0.1300439E+00
        -11   -1    0    0    0    0  0.00000000000E+00  0.00000000000E+00  0.45593999997E+02  0.45594000000E+02  0.51100000000E-03 0.  1.
         11   -1    0    0    0    0 -0.00000000000E+00 -0.00000000000E+00 -0.45593999997E+02  0.45594000000E+02  0.51100000000E-03 0. -1.
    9900012    2    1    2    0    0 -0.34235812754E+02  0.16516143668E+02  0.14432311722E+02  0.50528862058E+02  0.30000006710E+02 0.  0.
         12    1    1    2    0    0  0.34235812754E+02 -0.16516143668E+02 -0.14432311722E+02  0.40659137942E+02  0.00000000000E+00 0. -1.
         11    1    3    3    0    0 -0.24522200285E+02  0.21351145117E+02  0.71388921461E+01  0.33289239793E+02  0.51100000000E-03 0. -1.
        -11    1    3    3    0    0 -0.22590957972E+01  0.10143395107E+01  0.73584059676E+01  0.77639253673E+01  0.51100000000E-03 0.  1.
        -12    1    3    3    0    0 -0.74545166712E+01 -0.58493409598E+01 -0.64986391625E-01  0.94756968976E+01  0.00000000000E+00 0.  1.
</event>
<event>
 7    1  0.2746803E-013  0.5052886E+02  0.7816164E-02  0.1300439E+00
        -11   -1    0    0    0    0  0.00000000000E+00  0.00000000000E+00  0.45593999997E+02  0.45594000000E+02  0.51100000000E-03 0.  1.
         11   -1    0    0    0    0 -0.00000000000E+00 -0.00000000000E+00 -0.45593999997E+02  0.45594000000E+02  0.51100000000E-03 0. -1.
    9900012    2    1    2    0    0 -0.29854357384E+02  0.25148486377E+02  0.11377016387E+02  0.50528861744E+02  0.30000005757E+02 0.  0.
         12    1    1    2    0    0  0.29854357384E+02 -0.25148486377E+02 -0.11377016387E+02  0.40659138256E+02  0.00000000000E+00 0. -1.
         11    1    3    3    0    0  0.15194264423E+01  0.60459395346E+00  0.10351718462E+01  0.19353995904E+01  0.51100000000E-03 0. -1.
        -11    1    3    3    0    0 -0.15647757709E+02  0.27227950243E+02  0.51983575767E+01  0.31831376306E+02  0.51100000000E-03 0.  1.
        -12    1    3    3    0    0 -0.15726026117E+02 -0.26840578203E+01  0.51434869641E+01  0.16762085847E+02  0.00000000000E+00 0.  1.
</event>
<event>
 7    1  0.2746803E-013  0.5052886E+02  0.7816164E-02  0.1300439E+00
        -11   -1    0    0    0    0  0.00000000000E+00  0.00000000000E+00  0.45593999997E+02  0.45594000000E+02  0.51100000000E-03 0.  1.
         11   -1    0    0    0    0 -0.00000000000E+00 -0.00000000000E+00 -0.45593999997E+02  0.45594000000E+02  0.51100000000E-03 0. -1.
    9900012    2    1    2    0    0 -0.15192257875E+02 -0.37692110283E+02 -0.12906753986E+01  0.50528859332E+02  0.29999998424E+02 0.  0.
         12    1    1    2    0    0  0.15192257875E+02  0.37692110283E+02  0.12906753986E+01  0.40659140668E+02  0.00000000000E+00 0. -1.
         11    1    3    3    0    0  0.53533854303E+01 -0.34621786519E+01 -0.45765771371E+00  0.63917812405E+01  0.51100000000E-03 0. -1.
        -11    1    3    3    0    0 -0.11330735402E+02 -0.24056269007E+02 -0.91097171241E+01  0.28108301081E+02  0.51100000000E-03 0.  1.
         12    1    3    3    0    0 -0.92149079031E+01 -0.10173662624E+02  0.82766994392E+01  0.16028777011E+02  0.00000000000E+00 0. -1.
</event>
<event>
 7    1  0.2746803E-013  0.5052885E+02  0.7816164E-02  0.1300439E+00
        -11   -1    0    0    0    0  0.00000000000E+00  0.00000000000E+00  0.45593999997E+02  0.45594000000E+02  0.51100000000E-03 0. -1.
         11   -1    0    0    0    0 -0.00000000000E+00 -0.00000000000E+00 -0.45593999997E+02  0.45594000000E+02  0.51100000000E-03 0.  1.
    9900012    2    1    2    0    0  0.39982071159E+02 -0.49879772520E+01 -0.54516471674E+01  0.50528851115E+02  0.29999973448E+02 0.  0.
         12    1    1    2    0    0 -0.39982071159E+02  0.49879772520E+01  0.54516471674E+01  0.40659148885E+02  0.00000000000E+00 0. -1.
         11    1    3    3    0    0  0.93770039326E+01  0.97426431652E+00 -0.82115961312E+01  0.12502307987E+02  0.51100000000E-03 0. -1.
        -11    1    3    3    0    0  0.53636271450E+01  0.73142292507E+01  0.28467316464E+01  0.95063308911E+01  0.51100000000E-03 0.  1.
         12    1    3    3    0    0  0.25241440082E+02 -0.13276470819E+02 -0.86782682635E-01  0.28520212237E+02  0.00000000000E+00 0. -1.
</event>
<event>
 7    1  0.2746803E-013  0.5052886E+02  0.7816164E-02  0.1300439E+00
        -11   -1    0    0    0    0  0.00000000000E+00  0.00000000000E+00  0.45593999997E+02  0.45594000000E+02  0.51100000000E-03 0. -1.
         11   -1    0    0    0    0 -0.00000000000E+00 -0.00000000000E+00 -0.45593999997E+02  0.45594000000E+02  0.51100000000E-03 0.  1.
    9900012    2    1    2    0    0  0.21287659164E+02  0.17282174510E+02 -0.30022124472E+02  0.50528856548E+02  0.29999989963E+02 0.  0.
         12    1    1    2    0    0 -0.21287659164E+02 -0.17282174510E+02  0.30022124472E+02  0.40659143452E+02  0.00000000000E+00 0. -1.
         11    1    3    3    0    0  0.78650884345E+01 -0.44390616401E+01 -0.78991775020E+01  0.11998411970E+02  0.51100000000E-03 0. -1.
        -11    1    3    3    0    0  0.13383995582E+02  0.62108244391E+01 -0.16239936043E+02  0.21941768408E+02  0.51100000000E-03 0.  1.
        -12    1    3    3    0    0  0.38575147245E-01  0.15510411711E+02 -0.58830109269E+01  0.16588676169E+02  0.00000000000E+00 0.  1.
</event>
<event>
 7    1  0.2746803E-013  0.5052886E+02  0.7816164E-02  0.1300439E+00
        -11   -1    0    0    0    0  0.00000000000E+00  0.00000000000E+00  0.45593999997E+02  0.45594000000E+02  0.51100000000E-03 0.  1.
         11   -1    0    0    0    0 -0.00000000000E+00 -0.00000000000E+00 -0.45593999997E+02  0.45594000000E+02  0.51100000000E-03 0. -1.
    9900012    2    1    2    0    0 -0.39780304474E+02  0.62378097141E+01  0.56375956154E+01  0.50528863531E+02  0.30000011188E+02 0.  0.
         12    1    1    2    0    0  0.39780304474E+02 -0.62378097141E+01 -0.56375956154E+01  0.40659136469E+02  0.00000000000E+00 0. -1.
         11    1    3    3    0    0 -0.65567587281E+01  0.54886314217E+01  0.58763324001E+01  0.10375328556E+02  0.51100000000E-03 0. -1.
        -11    1    3    3    0    0 -0.24320518296E+02  0.10381320054E+02 -0.34007732518E+01  0.26661295453E+02  0.51100000000E-03 0.  1.
        -12    1    3    3    0    0 -0.89030274501E+01 -0.96321417617E+01  0.31620364671E+01  0.13492239522E+02  0.00000000000E+00 0.  1.
</event>
<event>
 7    1  0.2746803E-013  0.5052885E+02  0.7816164E-02  0.1300439E+00
        -11   -1    0    0    0    0  0.00000000000E+00  0.00000000000E+00  0.45593999997E+02  0.45594000000E+02  0.51100000000E-03 0.  1.
         11   -1    0    0    0    0 -0.00000000000E+00 -0.00000000000E+00 -0.45593999997E+02  0.45594000000E+02  0.51100000000E-03 0. -1.
    9900012    2    1    2    0    0  0.26678337197E+02  0.30681113087E+02 -0.31976742132E+00  0.50528848176E+02  0.29999964517E+02 0.  0.
         12    1    1    2    0    0 -0.26678337197E+02 -0.30681113087E+02  0.31976742132E+00  0.40659151824E+02  0.00000000000E+00 0. -1.
         11    1    3    3    0    0 -0.14589541546E+01  0.52658182892E+00  0.33480856397E+01  0.36899205086E+01  0.51100000000E-03 0. -1.
        -11    1    3    3    0    0 -0.15461261365E+01  0.38242048320E+01  0.47356092048E+01  0.62802104605E+01  0.51100000000E-03 0.  1.
        -12    1    3    3    0    0  0.29683417488E+02  0.26330326426E+02 -0.84034622658E+01  0.40558717207E+02  0.00000000000E+00 0.  1.
</event>
<event>
 7    1  0.2746803E-013  0.5052886E+02  0.7816164E-02  0.1300439E+00
        -11   -1    0    0    0    0  0.00000000000E+00  0.00000000000E+00  0.45593999997E+02  0.45594000000E+02  0.51100000000E-03 0.  1.
         11   -1    0    0    0    0 -0.00000000000E+00 -0.00000000000E+00 -0.45593999997E+02  0.45594000000E+02  0.51100000000E-03 0. -1.
    9900012    2    1    2    0    0  0.87939626230E+01  0.36151314783E+01  0.39531790663E+02  0.50528862930E+02  0.30000009362E+02 0.  0.
         12    1    1    2    0    0 -0.87939626230E+01 -0.36151314783E+01 -0.39531790663E+02  0.40659137070E+02  0.00000000000E+00 0. -1.
         11    1    3    3    0    0  0.30840258949E+01 -0.71359300614E+00  0.17172235822E+01  0.36012897400E+01  0.51100000000E-03 0. -1.
        -11    1    3    3    0    0 -0.40547782814E+01  0.31259177294E+01  0.36666589499E+02  0.37022309143E+02  0.51100000000E-03 0.  1.
        -12    1    3    3    0    0  0.97647150096E+01  0.12028067551E+01  0.11479775825E+01  0.99052640468E+01  0.00000000000E+00 0.  1.
</event>
<event>
 7    1  0.2746803E-013  0.5052884E+02  0.7816164E-02  0.1300439E+00
        -11   -1    0    0    0    0  0.00000000000E+00  0.00000000000E+00  0.45593999997E+02  0.45594000000E+02  0.51100000000E-03 0.  1.
         11   -1    0    0    0    0 -0.00000000000E+00 -0.00000000000E+00 -0.45593999997E+02  0.45594000000E+02  0.51100000000E-03 0. -1.
    9900012    2    1    2    0    0 -0.38084517464E+02 -0.70663551377E+01  0.12361367045E+02  0.50528840631E+02  0.29999941581E+02 0.  0.
         12    1    1    2    0    0  0.38084517464E+02  0.70663551377E+01 -0.12361367045E+02  0.40659159369E+02  0.00000000000E+00 0. -1.
         11    1    3    3    0    0  0.23878447040E+01 -0.52087642044E+01  0.12222279495E+01  0.58589135758E+01  0.51100000000E-03 0. -1.
        -11    1    3    3    0    0 -0.97114613707E+01 -0.40881395882E+01 -0.26822557490E+01  0.10872895815E+02  0.51100000000E-03 0.  1.
        -12    1    3    3    0    0 -0.30760900797E+02  0.22305486548E+01  0.13821394844E+02  0.33797031240E+02  0.00000000000E+00 0.  1.
</event>
<event>
 7    1  0.2746803E-013  0.5052886E+02  0.7816164E-02  0.1300439E+00
        -11   -1    0    0    0    0  0.00000000000E+00  0.00000000000E+00  0.45593999997E+02  0.45594000000E+02  0.51100000000E-03 0. -1.
         11   -1    0    0    0    0 -0.00000000000E+00 -0.00000000000E+00 -0.45593999997E+02  0.45594000000E+02  0.51100000000E-03 0.  1.
    9900012    2    1    2    0    0 -0.24180979646E+02 -0.27065853769E+02 -0.18327183186E+02  0.50528857604E+02  0.29999993173E+02 0.  0.
         12    1    1    2    0    0  0.24180979646E+02  0.27065853769E+02  0.18327183186E+02  0.40659142396E+02  0.00000000000E+00 0. -1.
         11    1    3    3    0    0 -0.13230612359E+01 -0.76367484054E+01 -0.59562982108E+01  0.97748609135E+01  0.51100000000E-03 0. -1.
        -11    1    3    3    0    0 -0.27411796081E+02 -0.18167377184E+02 -0.70408162551E+01  0.33630837812E+02  0.51100000000E-03 0.  1.
         12    1    3    3    0    0  0.45538776717E+01 -0.12617281795E+01 -0.53300687197E+01  0.71231588783E+01  0.00000000000E+00 0. -1.
</event>
<event>
 7    1  0.2746803E-013  0.5052887E+02  0.7816164E-02  0.1300439E+00
        -11   -1    0    0    0    0  0.00000000000E+00  0.00000000000E+00  0.45593999997E+02  0.45594000000E+02  0.51100000000E-03 0.  1.
         11   -1    0    0    0    0 -0.00000000000E+00 -0.00000000000E+00 -0.45593999997E+02  0.45594000000E+02  0.51100000000E-03 0. -1.
    9900012    2    1    2    0    0  0.22641300643E+02  0.18928465313E+02  0.27968731579E+02  0.50528865233E+02  0.30000016362E+02 0.  0.
         12    1    1    2    0    0 -0.22641300643E+02 -0.18928465313E+02 -0.27968731579E+02  0.40659134767E+02  0.00000000000E+00 0. -1.
         11    1    3    3    0    0  0.16338903979E+01  0.12043735477E+02  0.34415602562E+01  0.12631923817E+02  0.51100000000E-03 0. -1.
        -11    1    3    3    0    0  0.54612390165E+00 -0.17432822604E+01  0.12519960694E+02  0.12652537310E+02  0.51100000000E-03 0.  1.
        -12    1    3    3    0    0  0.20461286343E+02  0.86280120965E+01  0.12007210629E+02  0.25244404105E+02  0.00000000000E+00 0.  1.
</event>
<event>
 7    1  0.2746803E-013  0.5052886E+02  0.7816164E-02  0.1300439E+00
        -11   -1    0    0    0    0  0.00000000000E+00  0.00000000000E+00  0.45593999997E+02  0.45594000000E+02  0.51100000000E-03 0. -1.
         11   -1    0    0    0    0 -0.00000000000E+00 -0.00000000000E+00 -0.45593999997E+02  0.45594000000E+02  0.51100000000E-03 0.  1.
    9900012    2    1    2    0    0 -0.39304410224E+02 -0.60787430550E+01 -0.84485466624E+01  0.50528859319E+02  0.29999998386E+02 0.  0.
         12    1    1    2    0    0  0.39304410224E+02  0.60787430550E+01  0.84485466624E+01  0.40659140681E+02  0.00000000000E+00 0. -1.
         11    1    3    3    0    0 -0.10845441806E+02 -0.50191145350E+01  0.58217940701E+01  0.13293171373E+02  0.51100000000E-03 0. -1.
        -11    1    3    3    0    0 -0.16884507524E+02 -0.97798860371E+01 -0.10925603631E+02  0.22362951062E+02  0.51100000000E-03 0.  1.
        -12    1    3    3    0    0 -0.11574460895E+02  0.87202575171E+01 -0.33447371013E+01  0.14872736885E+02  0.00000000000E+00 0.  1.
</event>
<event>
 7    1  0.2746803E-013  0.5052886E+02  0.7816164E-02  0.1300439E+00
        -11   -1    0    0    0    0  0.00000000000E+00  0.00000000000E+00  0.45593999997E+02  0.45594000000E+02  0.51100000000E-03 0.  1.
         11   -1    0    0    0    0 -0.00000000000E+00 -0.00000000000E+00 -0.45593999997E+02  0.45594000000E+02  0.51100000000E-03 0. -1.
    9900012    2    1    2    0    0 -0.26419854600E+02 -0.29273366595E+02  0.99109666600E+01  0.50528856268E+02  0.29999989112E+02 0.  0.
         12    1    1    2    0    0  0.26419854600E+02  0.29273366595E+02 -0.99109666600E+01  0.40659143732E+02  0.00000000000E+00 0. -1.
         11    1    3    3    0    0 -0.82156488312E+01 -0.47151009627E+01 -0.79890402325E+01  0.12391683780E+02  0.51100000000E-03 0. -1.
        -11    1    3    3    0    0 -0.40109655146E+01 -0.13587793988E+02  0.22775055838E+01  0.14349321300E+02  0.51100000000E-03 0.  1.
         12    1    3    3    0    0 -0.14193240254E+02 -0.10970471644E+02  0.15622501309E+02  0.23787851188E+02  0.00000000000E+00 0. -1.
</event>
<event>
 7    1  0.2746803E-013  0.5052886E+02  0.7816164E-02  0.1300439E+00
        -11   -1    0    0    0    0  0.00000000000E+00  0.00000000000E+00  0.45593999997E+02  0.45594000000E+02  0.51100000000E-03 0. -1.
         11   -1    0    0    0    0 -0.00000000000E+00 -0.00000000000E+00 -0.45593999997E+02  0.45594000000E+02  0.51100000000E-03 0.  1.
    9900012    2    1    2    0    0  0.27718738331E+02 -0.28857361380E+02  0.72173429298E+01  0.50528858354E+02  0.29999995453E+02 0.  0.
         12    1    1    2    0    0 -0.27718738331E+02  0.28857361380E+02 -0.72173429298E+01  0.40659141646E+02  0.00000000000E+00 0. -1.
         11    1    3    3    0    0  0.45803640270E+01 -0.11538825171E+02 -0.33771774156E+01  0.12865828715E+02  0.51100000000E-03 0. -1.
        -11    1    3    3    0    0  0.16224264123E+02 -0.52451398221E+01 -0.39847191741E+01  0.17510460452E+02  0.51100000000E-03 0.  1.
         12    1    3    3    0    0  0.69141101808E+01 -0.12073396386E+02  0.14579239520E+02  0.20152569187E+02  0.00000000000E+00 0. -1.
</event>
<event>
 7    1  0.2746803E-013  0.5052885E+02  0.7816164E-02  0.1300439E+00
        -11   -1    0    0    0    0  0.00000000000E+00  0.00000000000E+00  0.45593999997E+02  0.45594000000E+02  0.51100000000E-03 0.  1.
         11   -1    0    0    0    0 -0.00000000000E+00 -0.00000000000E+00 -0.45593999997E+02  0.45594000000E+02  0.51100000000E-03 0. -1.
    9900012    2    1    2    0    0  0.27560327242E+02 -0.65055463501E+01  0.29176573072E+02  0.50528853585E+02  0.29999980956E+02 0.  0.
         12    1    1    2    0    0 -0.27560327242E+02  0.65055463501E+01 -0.29176573072E+02  0.40659146415E+02  0.00000000000E+00 0. -1.
         11    1    3    3    0    0  0.22930610313E+01 -0.11848821677E+02  0.40326761285E+01  0.12724589622E+02  0.51100000000E-03 0. -1.
        -11    1    3    3    0    0  0.85002826915E+01  0.17847289411E+01  0.16410114771E+02  0.18566958025E+02  0.51100000000E-03 0.  1.
         12    1    3    3    0    0  0.16766983519E+02  0.35585463859E+01  0.87337821720E+01  0.19237305938E+02  0.00000000000E+00 0. -1.
</event>
<event>
 7    1  0.2746803E-013  0.5052885E+02  0.7816164E-02  0.1300439E+00
        -11   -1    0    0    0    0  0.00000000000E+00  0.00000000000E+00  0.45593999997E+02  0.45594000000E+02  0.51100000000E-03 0.  1.
         11   -1    0    0    0    0 -0.00000000000E+00 -0.00000000000E+00 -0.45593999997E+02  0.45594000000E+02  0.51100000000E-03 0. -1.
    9900012    2    1    2    0    0  0.24054578919E+02  0.15338022400E+02  0.28970474776E+02  0.50528854572E+02  0.29999983958E+02 0.  0.
         12    1    1    2    0    0 -0.24054578919E+02 -0.15338022400E+02 -0.28970474776E+02  0.40659145428E+02  0.00000000000E+00 0. -1.
         11    1    3    3    0    0 -0.18603341314E+01 -0.20244449765E+01  0.51836370910E+00  0.27978423364E+01  0.51100000000E-03 0. -1.
        -11    1    3    3    0    0  0.47038641072E+01  0.93682072077E+01  0.21667174446E+02  0.24069817044E+02  0.51100000000E-03 0.  1.
         12    1    3    3    0    0  0.21211048944E+02  0.79942601690E+01  0.67849366217E+01  0.23661195192E+02  0.00000000000E+00 0. -1.
</event>
<event>
 7    1  0.2746803E-013  0.5052884E+02  0.7816164E-02  0.1300439E+00
        -11   -1    0    0    0    0  0.00000000000E+00  0.00000000000E+00  0.45593999997E+02  0.45594000000E+02  0.51100000000E-03 0. -1.
         11   -1    0    0    0    0 -0.00000000000E+00 -0.00000000000E+00 -0.45593999997E+02  0.45594000000E+02  0.51100000000E-03 0.  1.
    9900012    2    1    2    0    0 -0.18905688381E+02 -0.31680683588E+02 -0.17090238176E+02  0.50528843508E+02  0.29999950326E+02 0.  0.
         12    1    1    2    0    0  0.18905688381E+02  0.31680683588E+02  0.17090238176E+02  0.40659156492E+02  0.00000000000E+00 0. -1.
         11    1    3    3    0    0 -0.16336345687E+01 -0.22782852039E+02 -0.13952576023E+02  0.26765677404E+02  0.51100000000E-03 0. -1.
        -11    1    3    3    0    0 -0.91998967411E+01 -0.96753284419E+01 -0.66620698390E+01  0.14920899950E+02  0.51100000000E-03 0.  1.
         12    1    3    3    0    0 -0.80721570715E+01  0.77749689368E+00  0.35244076859E+01  0.88422661543E+01  0.00000000000E+00 0. -1.
</event>
<event>
 7    1  0.2746803E-013  0.5052886E+02  0.7816164E-02  0.1300439E+00
        -11   -1    0    0    0    0  0.00000000000E+00  0.00000000000E+00  0.45593999997E+02  0.45594000000E+02  0.51100000000E-03 0.  1.
         11   -1    0    0    0    0 -0.00000000000E+00 -0.00000000000E+00 -0.45593999997E+02  0.45594000000E+02  0.51100000000E-03 0. -1.
    9900012    2    1    2    0    0 -0.11969025149E+02 -0.35354784889E+02  0.16122877296E+02  0.50528861422E+02  0.30000004779E+02 0.  0.
         12    1    1    2    0    0  0.11969025149E+02  0.35354784889E+02 -0.16122877296E+02  0.40659138578E+02  0.00000000000E+00 0. -1.
         11    1    3    3    0    0  0.69965833971E+00 -0.91833273368E+01 -0.55656264083E+01  0.10761004616E+02  0.51100000000E-03 0. -1.
        -11    1    3    3    0    0 -0.27670388465E+00 -0.16026661728E+02  0.53725182003E+01  0.16905454837E+02  0.51100000000E-03 0.  1.
         12    1    3    3    0    0 -0.12391979604E+02 -0.10144795824E+02  0.16315985504E+02  0.22862401969E+02  0.00000000000E+00 0. -1.
</event>
<event>
 7    1  0.2746803E-013  0.5052886E+02  0.7816164E-02  0.1300439E+00
        -11   -1    0    0    0    0  0.00000000000E+00  0.00000000000E+00  0.45593999997E+02  0.45594000000E+02  0.51100000000E-03 0.  1.
         11   -1    0    0    0    0 -0.00000000000E+00 -0.00000000000E+00 -0.45593999997E+02  0.45594000000E+02  0.51100000000E-03 0. -1.
    9900012    2    1    2    0    0 -0.10816381452E+02 -0.35727801151E+02  0.16115069315E+02  0.50528863981E+02  0.30000012556E+02 0.  0.
         12    1    1    2    0    0  0.10816381452E+02  0.35727801151E+02 -0.16115069315E+02  0.40659136019E+02  0.00000000000E+00 0. -1.
         11    1    3    3    0    0 -0.14883265904E+02 -0.14061064917E+02  0.73733307017E+01  0.21762149629E+02  0.51100000000E-03 0. -1.
        -11    1    3    3    0    0  0.22755071677E+01 -0.45426628758E+00  0.70380226339E+01  0.74106716016E+01  0.51100000000E-03 0.  1.
         12    1    3    3    0    0  0.17913772844E+01 -0.21212469947E+02  0.17037159794E+01  0.21356042750E+02  0.00000000000E+00 0. -1.
</event>
<event>
 7    1  0.2746803E-013  0.5052886E+02  0.7816164E-02  0.1300439E+00
        -11   -1    0    0    0    0  0.00000000000E+00  0.00000000000E+00  0.45593999997E+02  0.45594000000E+02  0.51100000000E-03 0. -1.
         11   -1    0    0    0    0 -0.00000000000E+00 -0.00000000000E+00 -0.45593999997E+02  0.45594000000E+02  0.51100000000E-03 0.  1.
    9900012    2    1    2    0    0  0.13028735386E+02 -0.26181588384E+02 -0.28247869129E+02  0.50528860482E+02  0.30000001920E+02 0.  0.
         12    1    1    2    0    0 -0.13028735386E+02  0.26181588384E+02  0.28247869129E+02  0.40659139518E+02  0.00000000000E+00 0. -1.
         11    1    3    3    0    0  0.52256690416E+01 -0.19049249678E+02 -0.11844513569E+02  0.23032021887E+02  0.51100000000E-03 0. -1.
        -11    1    3    3    0    0  0.33213658793E+01 -0.13657211867E+02 -0.11711145151E+02  0.18294857974E+02  0.51100000000E-03 0.  1.
         12    1    3    3    0    0  0.44817004653E+01  0.65248731613E+01 -0.46922104083E+01  0.92019806209E+01  0.00000000000E+00 0. -1.
</event>
<event>
 7    1  0.2746803E-013  0.5052886E+02  0.7816164E-02  0.1300439E+00
        -11   -1    0    0    0    0  0.00000000000E+00  0.00000000000E+00  0.45593999997E+02  0.45594000000E+02  0.51100000000E-03 0.  1.
         11   -1    0    0    0    0 -0.00000000000E+00 -0.00000000000E+00 -0.45593999997E+02  0.45594000000E+02  0.51100000000E-03 0. -1.
    9900012    2    1    2    0    0 -0.88115205528E+00 -0.35269481159E+02  0.20210221375E+02  0.50528858614E+02  0.29999996245E+02 0.  0.
         12    1    1    2    0    0  0.88115205528E+00  0.35269481159E+02 -0.20210221375E+02  0.40659141386E+02  0.00000000000E+00 0. -1.
         11    1    3    3    0    0  0.56334885607E+01 -0.23313533439E+02  0.78754386608E-01  0.23984645866E+02  0.51100000000E-03 0.  1.
        -11    1    3    3    0    0 -0.62166066133E+01 -0.31420475665E+01  0.36795220341E+01  0.78776610333E+01  0.51100000000E-03 0. -1.
        -12    1    3    3    0    0 -0.29803400267E+00 -0.88139001538E+01  0.16451944954E+02  0.18666551716E+02  0.00000000000E+00 0.  1.
</event>
<event>
 7    1  0.2746803E-013  0.5052888E+02  0.7816164E-02  0.1300439E+00
        -11   -1    0    0    0    0  0.00000000000E+00  0.00000000000E+00  0.45593999997E+02  0.45594000000E+02  0.51100000000E-03 0. -1.
         11   -1    0    0    0    0 -0.00000000000E+00 -0.00000000000E+00 -0.45593999997E+02  0.45594000000E+02  0.51100000000E-03 0.  1.
    9900012    2    1    2    0    0  0.25098730861E+02 -0.29430546753E+02 -0.12532397150E+02  0.50528876161E+02  0.30000049579E+02 0.  0.
         12    1    1    2    0    0 -0.25098730861E+02  0.29430546753E+02  0.12532397150E+02  0.40659123839E+02  0.00000000000E+00 0. -1.
         11    1    3    3    0    0 -0.25729523627E+01  0.27646008671E+00 -0.37194125732E+01  0.45310643552E+01  0.51100000000E-03 0. -1.
        -11    1    3    3    0    0  0.15168993803E+02 -0.16136056971E+02 -0.14755814915E+02  0.26612117196E+02  0.51100000000E-03 0.  1.
        -12    1    3    3    0    0  0.12502689420E+02 -0.13570949869E+02  0.59428303384E+01  0.19385694610E+02  0.00000000000E+00 0.  1.
</event>
<event>
 7    1  0.2746803E-013  0.5052886E+02  0.7816164E-02  0.1300439E+00
        -11   -1    0    0    0    0  0.00000000000E+00  0.00000000000E+00  0.45593999997E+02  0.45594000000E+02  0.51100000000E-03 0.  1.
         11   -1    0    0    0    0 -0.00000000000E+00 -0.00000000000E+00 -0.45593999997E+02  0.45594000000E+02  0.51100000000E-03 0. -1.
    9900012    2    1    2    0    0  0.15145671281E+02 -0.34428950740E+02  0.15440921691E+02  0.50528855022E+02  0.29999985326E+02 0.  0.
         12    1    1    2    0    0 -0.15145671281E+02  0.34428950740E+02 -0.15440921691E+02  0.40659144978E+02  0.00000000000E+00 0. -1.
         11    1    3    3    0    0  0.95986076490E+01 -0.78830001678E+01 -0.42730600109E+01  0.13135219928E+02  0.51100000000E-03 0. -1.
        -11    1    3    3    0    0  0.54858919526E+01 -0.16421024817E+02  0.25978590968E+01  0.17506968290E+02  0.51100000000E-03 0.  1.
         12    1    3    3    0    0  0.61171679155E-01 -0.10124925755E+02  0.17116122606E+02  0.19886666804E+02  0.00000000000E+00 0. -1.
</event>
<event>
 7    1  0.2746803E-013  0.5052886E+02  0.7816164E-02  0.1300439E+00
        -11   -1    0    0    0    0  0.00000000000E+00  0.00000000000E+00  0.45593999997E+02  0.45594000000E+02  0.51100000000E-03 0.  1.
         11   -1    0    0    0    0 -0.00000000000E+00 -0.00000000000E+00 -0.45593999997E+02  0.45594000000E+02  0.51100000000E-03 0. -1.
    9900012    2    1    2    0    0  0.38620206087E+02 -0.12692722608E+02  0.73481426902E+00  0.50528862313E+02  0.30000007488E+02 0.  0.
         12    1    1    2    0    0 -0.38620206087E+02  0.12692722608E+02 -0.73481426902E+00  0.40659137687E+02  0.00000000000E+00 0. -1.
         11    1    3    3    0    0 -0.39064413859E+00  0.19280305924E+01 -0.86793017368E+00  0.21501646114E+01  0.51100000000E-03 0. -1.
        -11    1    3    3    0    0  0.13765110057E+02 -0.16743958858E+02 -0.48998007420E+01  0.22222656473E+02  0.51100000000E-03 0.  1.
        -12    1    3    3    0    0  0.25245740168E+02  0.21232056579E+01  0.65025451847E+01  0.26156041229E+02  0.00000000000E+00 0.  1.
</event>
<event>
 7    1  0.2746803E-013  0.5052886E+02  0.7816164E-02  0.1300439E+00
        -11   -1    0    0    0    0  0.00000000000E+00  0.00000000000E+00  0.45593999997E+02  0.45594000000E+02  0.51100000000E-03 0.  1.
         11   -1    0    0    0    0 -0.00000000000E+00 -0.00000000000E+00 -0.45593999997E+02  0.45594000000E+02  0.51100000000E-03 0. -1.
    9900012    2    1    2    0    0 -0.80385154909E+01 -0.10640760080E+02  0.38409921681E+02  0.50528860930E+02  0.30000003283E+02 0.  0.
         12    1    1    2    0    0  0.80385154909E+01  0.10640760080E+02 -0.38409921681E+02  0.40659139070E+02  0.00000000000E+00 0. -1.
         11    1    3    3    0    0  0.63100784566E+01 -0.30956137298E+01  0.54261074446E+01  0.88793331256E+01  0.51100000000E-03 0. -1.
        -11    1    3    3    0    0 -0.13837590730E+01  0.41035696267E+01 -0.14990425346E-01  0.43306232609E+01  0.51100000000E-03 0.  1.
        -12    1    3    3    0    0 -0.12964834875E+02 -0.11648715977E+02  0.32998804662E+02  0.37318904544E+02  0.00000000000E+00 0.  1.
</event>
<event>
 7    1  0.2746803E-013  0.5052885E+02  0.7816164E-02  0.1300439E+00
        -11   -1    0    0    0    0  0.00000000000E+00  0.00000000000E+00  0.45593999997E+02  0.45594000000E+02  0.51100000000E-03 0.  1.
         11   -1    0    0    0    0 -0.00000000000E+00 -0.00000000000E+00 -0.45593999997E+02  0.45594000000E+02  0.51100000000E-03 0. -1.
    9900012    2    1    2    0    0 -0.40836427394E+01  0.80561691388E+01  0.39643261322E+02  0.50528853828E+02  0.29999981695E+02 0.  0.
         12    1    1    2    0    0  0.40836427394E+01 -0.80561691388E+01 -0.39643261322E+02  0.40659146172E+02  0.00000000000E+00 0. -1.
         11    1    3    3    0    0 -0.19265088682E+01  0.11800183626E+02  0.21586193449E+02  0.24676294655E+02  0.51100000000E-03 0. -1.
        -11    1    3    3    0    0  0.69823104494E+01  0.23218204499E+01  0.90167007602E+01  0.11638058355E+02  0.51100000000E-03 0.  1.
         12    1    3    3    0    0 -0.91394443206E+01 -0.60658349370E+01  0.90403671122E+01  0.14214500818E+02  0.00000000000E+00 0. -1.
</event>
<event>
 7    1  0.2746803E-013  0.5052886E+02  0.7816164E-02  0.1300439E+00
        -11   -1    0    0    0    0  0.00000000000E+00  0.00000000000E+00  0.45593999997E+02  0.45594000000E+02  0.51100000000E-03 0.  1.
         11   -1    0    0    0    0 -0.00000000000E+00 -0.00000000000E+00 -0.45593999997E+02  0.45594000000E+02  0.51100000000E-03 0. -1.
    9900012    2    1    2    0    0 -0.15317799643E+02  0.37054626000E+02  0.67443024807E+01  0.50528856996E+02  0.29999991324E+02 0.  0.
         12    1    1    2    0    0  0.15317799643E+02 -0.37054626000E+02 -0.67443024807E+01  0.40659143004E+02  0.00000000000E+00 0. -1.
         11    1    3    3    0    0  0.59961696943E+00 -0.30175888022E+00 -0.86894291545E+00  0.10980259483E+01  0.51100000000E-03 0. -1.
        -11    1    3    3    0    0 -0.15498502090E+02  0.16573199805E+02  0.15189757420E+02  0.27305736569E+02  0.51100000000E-03 0.  1.
         12    1    3    3    0    0 -0.41891452194E+00  0.20783185075E+02 -0.75765120237E+01  0.22125094479E+02  0.00000000000E+00 0. -1.
</event>
<event>
 7    1  0.2746803E-013  0.5052886E+02  0.7816164E-02  0.1300439E+00
        -11   -1    0    0    0    0  0.00000000000E+00  0.00000000000E+00  0.45593999997E+02  0.45594000000E+02  0.51100000000E-03 0.  1.
         11   -1    0    0    0    0 -0.00000000000E+00 -0.00000000000E+00 -0.45593999997E+02  0.45594000000E+02  0.51100000000E-03 0. -1.
    9900012    2    1    2    0    0 -0.10010705991E+01 -0.40610423877E+02 -0.17195939373E+01  0.50528859906E+02  0.30000000171E+02 0.  0.
         12    1    1    2    0    0  0.10010705991E+01  0.40610423877E+02  0.17195939373E+01  0.40659140094E+02  0.00000000000E+00 0. -1.
         11    1    3    3    0    0 -0.43505042053E+01 -0.13094308164E+02 -0.86919518089E+01  0.16307600058E+02  0.51100000000E-03 0. -1.
        -11    1    3    3    0    0 -0.50552740971E+00 -0.28981816802E+02  0.77944884576E+01  0.30015917672E+02  0.51100000000E-03 0.  1.
         12    1    3    3    0    0  0.38549610159E+01  0.14657010892E+01 -0.82213058602E+00  0.42053421761E+01  0.00000000000E+00 0. -1.
</event>
<event>
 7    1  0.2746803E-013  0.5052885E+02  0.7816164E-02  0.1300439E+00
        -11   -1    0    0    0    0  0.00000000000E+00  0.00000000000E+00  0.45593999997E+02  0.45594000000E+02  0.51100000000E-03 0.  1.
         11   -1    0    0    0    0 -0.00000000000E+00 -0.00000000000E+00 -0.45593999997E+02  0.45594000000E+02  0.51100000000E-03 0. -1.
    9900012    2    1    2    0    0 -0.21903209463E+02 -0.15241664816E+02  0.30677470060E+02  0.50528854652E+02  0.29999984199E+02 0.  0.
         12    1    1    2    0    0  0.21903209463E+02  0.15241664816E+02 -0.30677470060E+02  0.40659145348E+02  0.00000000000E+00 0. -1.
         11    1    3    3    0    0  0.78401914233E+00 -0.13598055603E+01  0.16317367383E+02  0.16392688484E+02  0.51100000000E-03 0. -1.
        -11    1    3    3    0    0 -0.17493753648E+02 -0.22642572211E+01  0.11607818463E+02  0.21116337921E+02  0.51100000000E-03 0.  1.
         12    1    3    3    0    0 -0.51934749575E+01 -0.11617602035E+02  0.27522842152E+01  0.13019828247E+02  0.00000000000E+00 0. -1.
</event>
<event>
 7    1  0.2746803E-013  0.5052884E+02  0.7816164E-02  0.1300439E+00
        -11   -1    0    0    0    0  0.00000000000E+00  0.00000000000E+00  0.45593999997E+02  0.45594000000E+02  0.51100000000E-03 0. -1.
         11   -1    0    0    0    0 -0.00000000000E+00 -0.00000000000E+00 -0.45593999997E+02  0.45594000000E+02  0.51100000000E-03 0.  1.
    9900012    2    1    2    0    0  0.39405535063E+02  0.81382123401E+01  0.58429687563E+01  0.50528843865E+02  0.29999951412E+02 0.  0.
         12    1    1    2    0    0 -0.39405535063E+02 -0.81382123401E+01 -0.58429687563E+01  0.40659156135E+02  0.00000000000E+00 0. -1.
         11    1    3    3    0    0  0.46161459404E+00  0.66073444716E+01  0.53002294755E+01  0.84830726600E+01  0.51100000000E-03 0. -1.
        -11    1    3    3    0    0  0.23218890652E+02  0.61976028204E+01  0.59809673986E+01  0.24764877046E+02  0.51100000000E-03 0.  1.
         12    1    3    3    0    0  0.15725029817E+02 -0.46667349520E+01 -0.54382281178E+01  0.17280894159E+02  0.00000000000E+00 0. -1.
</event>
<event>
 7    1  0.2746803E-013  0.5052886E+02  0.7816164E-02  0.1300439E+00
        -11   -1    0    0    0    0  0.00000000000E+00  0.00000000000E+00  0.45593999997E+02  0.45594000000E+02  0.51100000000E-03 0.  1.
         11   -1    0    0    0    0 -0.00000000000E+00 -0.00000000000E+00 -0.45593999997E+02  0.45594000000E+02  0.51100000000E-03 0. -1.
    9900012    2    1    2    0    0  0.98232040015E+01  0.35431078344E+02  0.17358249369E+02  0.50528862397E+02  0.30000007741E+02 0.  0.
         12    1    1    2    0    0 -0.98232040015E+01 -0.35431078344E+02 -0.17358249369E+02  0.40659137603E+02  0.00000000000E+00 0. -1.
         11    1    3    3    0    0  0.17491099846E+02  0.11702808461E+02  0.22974604251E+01  0.21170087963E+02  0.51100000000E-03 0. -1.
        -11    1    3    3    0    0 -0.13139732418E+01  0.35083325664E+01  0.85206992127E+00  0.38419977211E+01  0.51100000000E-03 0.  1.
         12    1    3    3    0    0 -0.63539226027E+01  0.20219937317E+02  0.14208719022E+02  0.25516776712E+02  0.00000000000E+00 0. -1.
</event>
<event>
 7    1  0.2746803E-013  0.5052884E+02  0.7816164E-02  0.1300439E+00
        -11   -1    0    0    0    0  0.00000000000E+00  0.00000000000E+00  0.45593999997E+02  0.45594000000E+02  0.51100000000E-03 0.  1.
         11   -1    0    0    0    0 -0.00000000000E+00 -0.00000000000E+00 -0.45593999997E+02  0.45594000000E+02  0.51100000000E-03 0. -1.
    9900012    2    1    2    0    0  0.28085074681E+02 -0.28754017877E+02  0.61320497100E+01  0.50528843620E+02  0.29999950667E+02 0.  0.
         12    1    1    2    0    0 -0.28085074681E+02  0.28754017877E+02 -0.61320497100E+01  0.40659156380E+02  0.00000000000E+00 0. -1.
         11    1    3    3    0    0  0.24652671293E+01  0.16284867164E+01 -0.66086345099E+01  0.72390304151E+01  0.51100000000E-03 0.  1.
        -11    1    3    3    0    0  0.71336229814E+01 -0.90169727730E+01 -0.15955431158E+01  0.11607761753E+02  0.51100000000E-03 0. -1.
        -12    1    3    3    0    0  0.18486184570E+02 -0.21365531821E+02  0.14336227336E+02  0.31682051451E+02  0.00000000000E+00 0.  1.
</event>
<event>
 7    1  0.2746803E-013  0.5052887E+02  0.7816164E-02  0.1300439E+00
        -11   -1    0    0    0    0  0.00000000000E+00  0.00000000000E+00  0.45593999997E+02  0.45594000000E+02  0.51100000000E-03 0. -1.
         11   -1    0    0    0    0 -0.00000000000E+00 -0.00000000000E+00 -0.45593999997E+02  0.45594000000E+02  0.51100000000E-03 0.  1.
    9900012    2    1    2    0    0  0.38591251336E+02 -0.40146025400E+01  0.12155795852E+02  0.50528867126E+02  0.30000022117E+02 0.  0.
         12    1    1    2    0    0 -0.38591251336E+02  0.40146025400E+01 -0.12155795852E+02  0.40659132874E+02  0.00000000000E+00 0. -1.
         11    1    3    3    0    0  0.52254908100E+01 -0.65277141848E+01 -0.67373622698E+01  0.10738196185E+02  0.51100000000E-03 0. -1.
        -11    1    3    3    0    0  0.60453260518E+01 -0.35291797287E+01  0.45401712526E+01  0.83435143612E+01  0.51100000000E-03 0.  1.
        -12    1    3    3    0    0  0.27320434475E+02  0.60422913736E+01  0.14352986869E+02  0.31447156580E+02  0.00000000000E+00 0.  1.
</event>
<event>
 7    1  0.2746803E-013  0.5052886E+02  0.7816164E-02  0.1300439E+00
        -11   -1    0    0    0    0  0.00000000000E+00  0.00000000000E+00  0.45593999997E+02  0.45594000000E+02  0.51100000000E-03 0.  1.
         11   -1    0    0    0    0 -0.00000000000E+00 -0.00000000000E+00 -0.45593999997E+02  0.45594000000E+02  0.51100000000E-03 0. -1.
    9900012    2    1    2    0    0 -0.22947219114E+02 -0.31024497410E+02 -0.12809032801E+02  0.50528860487E+02  0.30000001937E+02 0.  0.
         12    1    1    2    0    0  0.22947219114E+02  0.31024497410E+02  0.12809032801E+02  0.40659139513E+02  0.00000000000E+00 0. -1.
         11    1    3    3    0    0 -0.44208821995E+01 -0.15175286248E+02 -0.31627892828E+01  0.16119452485E+02  0.51100000000E-03 0. -1.
        -11    1    3    3    0    0 -0.12216878812E+01 -0.77022500576E+01 -0.12835417628E+02  0.15018825626E+02  0.51100000000E-03 0.  1.
         12    1    3    3    0    0 -0.17304649033E+02 -0.81469611050E+01  0.31891741094E+01  0.19390582376E+02  0.00000000000E+00 0. -1.
</event>
<event>
 7    1  0.2746803E-013  0.5052886E+02  0.7816164E-02  0.1300439E+00
        -11   -1    0    0    0    0  0.00000000000E+00  0.00000000000E+00  0.45593999997E+02  0.45594000000E+02  0.51100000000E-03 0.  1.
         11   -1    0    0    0    0 -0.00000000000E+00 -0.00000000000E+00 -0.45593999997E+02  0.45594000000E+02  0.51100000000E-03 0. -1.
    9900012    2    1    2    0    0 -0.32807905233E+02 -0.12512832493E+01  0.23984195115E+02  0.50528856246E+02  0.29999989045E+02 0.  0.
         12    1    1    2    0    0  0.32807905233E+02  0.12512832493E+01 -0.23984195115E+02  0.40659143754E+02  0.00000000000E+00 0. -1.
         11    1    3    3    0    0  0.10833899670E+00 -0.20489826626E+00 -0.15083963716E+01  0.15260997715E+01  0.51100000000E-03 0.  1.
        -11    1    3    3    0    0 -0.31816341288E+01  0.63660067402E+01 -0.24546260719E+01  0.75282153901E+01  0.51100000000E-03 0. -1.
        -12    1    3    3    0    0 -0.29734610100E+02 -0.74123917232E+01  0.27947217558E+02  0.41474541084E+02  0.00000000000E+00 0.  1.
</event>
<event>
 7    1  0.2746803E-013  0.5052886E+02  0.7816164E-02  0.1300439E+00
        -11   -1    0    0    0    0  0.00000000000E+00  0.00000000000E+00  0.45593999997E+02  0.45594000000E+02  0.51100000000E-03 0.  1.
         11   -1    0    0    0    0 -0.00000000000E+00 -0.00000000000E+00 -0.45593999997E+02  0.45594000000E+02  0.51100000000E-03 0. -1.
    9900012    2    1    2    0    0  0.13552211514E+02  0.24884826013E+02  0.29159022801E+02  0.50528860642E+02  0.30000002407E+02 0.  0.
         12    1    1    2    0    0 -0.13552211514E+02 -0.24884826013E+02 -0.29159022801E+02  0.40659139358E+02  0.00000000000E+00 0. -1.
         11    1    3    3    0    0 -0.34286367083E+01 -0.24208023895E+01  0.47356790901E+01  0.63279136050E+01  0.51100000000E-03 0. -1.
        -11    1    3    3    0    0  0.16797009501E+02  0.10037025513E+02  0.12665581056E+02  0.23308761294E+02  0.51100000000E-03 0.  1.
         12    1    3    3    0    0  0.18383872141E+00  0.17268602890E+02  0.11757762656E+02  0.20892185743E+02  0.00000000000E+00 0. -1.
</event>
<event>
 7    1  0.2746803E-013  0.5052882E+02  0.7816164E-02  0.1300439E+00
        -11   -1    0    0    0    0  0.00000000000E+00  0.00000000000E+00  0.45593999997E+02  0.45594000000E+02  0.51100000000E-03 0. -1.
         11   -1    0    0    0    0 -0.00000000000E+00 -0.00000000000E+00 -0.45593999997E+02  0.45594000000E+02  0.51100000000E-03 0.  1.
    9900012    2    1    2    0    0 -0.12377051585E+02 -0.97736554050E+01 -0.37476031440E+02  0.50528822950E+02  0.29999887839E+02 0.  0.
         12    1    1    2    0    0  0.12377051585E+02  0.97736554050E+01  0.37476031440E+02  0.40659177050E+02  0.00000000000E+00 0. -1.
         11    1    3    3    0    0 -0.18013258189E+02  0.70038591719E+00 -0.22529466002E+02  0.28853853289E+02  0.51100000000E-03 0. -1.
        -11    1    3    3    0    0  0.45322518028E+01 -0.21937579671E+01 -0.11655253419E+02  0.12696409451E+02  0.51100000000E-03 0.  1.
        -12    1    3    3    0    0  0.11039548014E+01 -0.82802833551E+01 -0.32913120187E+01  0.89785602103E+01  0.00000000000E+00 0.  1.
</event>
<event>
 7    1  0.2746803E-013  0.5052886E+02  0.7816164E-02  0.1300439E+00
        -11   -1    0    0    0    0  0.00000000000E+00  0.00000000000E+00  0.45593999997E+02  0.45594000000E+02  0.51100000000E-03 0. -1.
         11   -1    0    0    0    0 -0.00000000000E+00 -0.00000000000E+00 -0.45593999997E+02  0.45594000000E+02  0.51100000000E-03 0.  1.
    9900012    2    1    2    0    0 -0.24332021682E+02 -0.30724714783E+02 -0.10821754358E+02  0.50528859022E+02  0.29999997484E+02 0.  0.
         12    1    1    2    0    0  0.24332021682E+02  0.30724714783E+02  0.10821754358E+02  0.40659140978E+02  0.00000000000E+00 0. -1.
         11    1    3    3    0    0 -0.16627707723E+02 -0.53307598504E+01 -0.20851542307E+01  0.17585378390E+02  0.51100000000E-03 0.  1.
        -11    1    3    3    0    0 -0.31633397141E+01 -0.26620334667E+02 -0.88728199133E+01  0.28237844631E+02  0.51100000000E-03 0. -1.
         12    1    3    3    0    0 -0.45409742452E+01  0.12263797341E+01  0.13621978555E+00  0.47056360014E+01  0.00000000000E+00 0. -1.
</event>
<event>
 7    1  0.2746803E-013  0.5052886E+02  0.7816164E-02  0.1300439E+00
        -11   -1    0    0    0    0  0.00000000000E+00  0.00000000000E+00  0.45593999997E+02  0.45594000000E+02  0.51100000000E-03 0. -1.
         11   -1    0    0    0    0 -0.00000000000E+00 -0.00000000000E+00 -0.45593999997E+02  0.45594000000E+02  0.51100000000E-03 0.  1.
    9900012    2    1    2    0    0 -0.49973811719E+01  0.29153919788E+02 -0.27896971814E+02  0.50528857191E+02  0.29999991918E+02 0.  0.
         12    1    1    2    0    0  0.49973811719E+01 -0.29153919788E+02  0.27896971814E+02  0.40659142809E+02  0.00000000000E+00 0. -1.
         11    1    3    3    0    0 -0.13126358238E+01 -0.15799730088E+01  0.30721651097E+01  0.36956090481E+01  0.51100000000E-03 0.  1.
        -11    1    3    3    0    0 -0.52384756041E+01  0.15129961478E+02 -0.55107509588E+01  0.16932977806E+02  0.51100000000E-03 0. -1.
        -12    1    3    3    0    0  0.15537302559E+01  0.15603931319E+02 -0.25458385965E+02  0.29900270337E+02  0.00000000000E+00 0.  1.
</event>
<event>
 7    1  0.2746803E-013  0.5052883E+02  0.7816164E-02  0.1300439E+00
        -11   -1    0    0    0    0  0.00000000000E+00  0.00000000000E+00  0.45593999997E+02  0.45594000000E+02  0.51100000000E-03 0. -1.
         11   -1    0    0    0    0 -0.00000000000E+00 -0.00000000000E+00 -0.45593999997E+02  0.45594000000E+02  0.51100000000E-03 0.  1.
    9900012    2    1    2    0    0  0.12206784594E+02  0.38626226712E+02 -0.34895354573E+01  0.50528833287E+02  0.29999919258E+02 0.  0.
         12    1    1    2    0    0 -0.12206784594E+02 -0.38626226712E+02  0.34895354573E+01  0.40659166713E+02  0.00000000000E+00 0. -1.
         11    1    3    3    0    0  0.38469780803E+01  0.30412808246E+01  0.44115862492E+01  0.65962658299E+01  0.51100000000E-03 0. -1.
        -11    1    3    3    0    0 -0.76318165066E+01  0.14993737671E+02 -0.50383273465E+00  0.16831834131E+02  0.51100000000E-03 0.  1.
         12    1    3    3    0    0  0.15991623021E+02  0.20591208216E+02 -0.73972889718E+01  0.27100733325E+02  0.00000000000E+00 0. -1.
</event>
<event>
 7    1  0.2746803E-013  0.5052885E+02  0.7816164E-02  0.1300439E+00
        -11   -1    0    0    0    0  0.00000000000E+00  0.00000000000E+00  0.45593999997E+02  0.45594000000E+02  0.51100000000E-03 0. -1.
         11   -1    0    0    0    0 -0.00000000000E+00 -0.00000000000E+00 -0.45593999997E+02  0.45594000000E+02  0.51100000000E-03 0.  1.
    9900012    2    1    2    0    0 -0.93173141868E+01  0.20075604879E+02 -0.34107533753E+02  0.50528854490E+02  0.29999983708E+02 0.  0.
         12    1    1    2    0    0  0.93173141868E+01 -0.20075604879E+02  0.34107533753E+02  0.40659145510E+02  0.00000000000E+00 0. -1.
         11    1    3    3    0    0 -0.86894563661E+01  0.17853876541E+02 -0.14362182379E+02  0.24505914438E+02  0.51100000000E-03 0. -1.
        -11    1    3    3    0    0  0.34501914587E+01  0.86296392255E+01 -0.11956075915E+02  0.15143389508E+02  0.51100000000E-03 0.  1.
         12    1    3    3    0    0 -0.40780492795E+01 -0.64079108872E+01 -0.77892754584E+01  0.10879550544E+02  0.00000000000E+00 0. -1.
</event>
<event>
 7    1  0.2746803E-013  0.5052887E+02  0.7816164E-02  0.1300439E+00
        -11   -1    0    0    0    0  0.00000000000E+00  0.00000000000E+00  0.45593999997E+02  0.45594000000E+02  0.51100000000E-03 0.  1.
         11   -1    0    0    0    0 -0.00000000000E+00 -0.00000000000E+00 -0.45593999997E+02  0.45594000000E+02  0.51100000000E-03 0. -1.
    9900012    2    1    2    0    0  0.30550799549E+02 -0.12701750997E+02  0.23632165232E+02  0.50528867385E+02  0.30000022902E+02 0.  0.
         12    1    1    2    0    0 -0.30550799549E+02  0.12701750997E+02 -0.23632165232E+02  0.40659132615E+02  0.00000000000E+00 0. -1.
         11    1    3    3    0    0 -0.13595657213E+01 -0.86196968826E+01  0.43809835569E+01  0.97642516603E+01  0.51100000000E-03 0.  1.
        -11    1    3    3    0    0  0.33725628236E+01  0.47984804668E+01  0.17082828019E+01  0.61088317363E+01  0.51100000000E-03 0. -1.
        -12    1    3    3    0    0  0.28537802447E+02 -0.88805345809E+01  0.17542898873E+02  0.34655783988E+02  0.00000000000E+00 0.  1.
</event>
<event>
 7    1  0.2746803E-013  0.5052885E+02  0.7816164E-02  0.1300439E+00
        -11   -1    0    0    0    0  0.00000000000E+00  0.00000000000E+00  0.45593999997E+02  0.45594000000E+02  0.51100000000E-03 0.  1.
         11   -1    0    0    0    0 -0.00000000000E+00 -0.00000000000E+00 -0.45593999997E+02  0.45594000000E+02  0.51100000000E-03 0. -1.
    9900012    2    1    2    0    0 -0.14115246850E+02 -0.24513590264E+02  0.29206336434E+02  0.50528851101E+02  0.29999973408E+02 0.  0.
         12    1    1    2    0    0  0.14115246850E+02  0.24513590264E+02 -0.29206336434E+02  0.40659148899E+02  0.00000000000E+00 0. -1.
         11    1    3    3    0    0 -0.26242222984E+01  0.14167581074E-01  0.19895356801E+02  0.20067684617E+02  0.51100000000E-03 0. -1.
        -11    1    3    3    0    0 -0.92098879804E+01 -0.10842497181E+02  0.84810171394E+01  0.16562289507E+02  0.51100000000E-03 0.  1.
        -12    1    3    3    0    0 -0.22811365711E+01 -0.13685260664E+02  0.82996249380E+00  0.13898876978E+02  0.00000000000E+00 0.  1.
</event>
<event>
 7    1  0.2746803E-013  0.5052886E+02  0.7816164E-02  0.1300439E+00
        -11   -1    0    0    0    0  0.00000000000E+00  0.00000000000E+00  0.45593999997E+02  0.45594000000E+02  0.51100000000E-03 0. -1.
         11   -1    0    0    0    0 -0.00000000000E+00 -0.00000000000E+00 -0.45593999997E+02  0.45594000000E+02  0.51100000000E-03 0.  1.
    9900012    2    1    2    0    0 -0.39721290841E+01  0.40787015557E+01 -0.40258569307E+02  0.50528855660E+02  0.29999987264E+02 0.  0.
         12    1    1    2    0    0  0.39721290841E+01 -0.40787015557E+01  0.40258569307E+02  0.40659144340E+02  0.00000000000E+00 0. -1.
         11    1    3    3    0    0 -0.71103512692E+01  0.22192289042E+01 -0.12945212243E+01  0.75602815795E+01  0.51100000000E-03 0. -1.
        -11    1    3    3    0    0 -0.44365657449E+01  0.74625209288E+01 -0.19398776902E+02  0.21252879329E+02  0.51100000000E-03 0.  1.
        -12    1    3    3    0    0  0.75747879299E+01 -0.56030482773E+01 -0.19565271181E+02  0.21715694752E+02  0.00000000000E+00 0.  1.
</event>
<event>
 7    1  0.2746803E-013  0.5052886E+02  0.7816164E-02  0.1300439E+00
        -11   -1    0    0    0    0  0.00000000000E+00  0.00000000000E+00  0.45593999997E+02  0.45594000000E+02  0.51100000000E-03 0.  1.
         11   -1    0    0    0    0 -0.00000000000E+00 -0.00000000000E+00 -0.45593999997E+02  0.45594000000E+02  0.51100000000E-03 0. -1.
    9900012    2    1    2    0    0  0.70225829710E+01  0.18508948394E+02  0.35514334043E+02  0.50528858780E+02  0.29999996747E+02 0.  0.
         12    1    1    2    0    0 -0.70225829710E+01 -0.18508948394E+02 -0.35514334043E+02  0.40659141220E+02  0.00000000000E+00 0. -1.
         11    1    3    3    0    0  0.41526193809E+00  0.75059412895E+01  0.21348400299E+02  0.22633289481E+02  0.51100000000E-03 0. -1.
        -11    1    3    3    0    0 -0.45385021813E+01  0.11814960568E+02  0.57282140823E+01  0.13892578310E+02  0.51100000000E-03 0.  1.
         12    1    3    3    0    0  0.11145823214E+02 -0.81195346301E+00  0.84377196618E+01  0.14002990989E+02  0.00000000000E+00 0. -1.
</event>
<event>
 7    1  0.2746803E-013  0.5052886E+02  0.7816164E-02  0.1300439E+00
        -11   -1    0    0    0    0  0.00000000000E+00  0.00000000000E+00  0.45593999997E+02  0.45594000000E+02  0.51100000000E-03 0.  1.
         11   -1    0    0    0    0 -0.00000000000E+00 -0.00000000000E+00 -0.45593999997E+02  0.45594000000E+02  0.51100000000E-03 0. -1.
    9900012    2    1    2    0    0 -0.17822414755E+02 -0.58477841446E+01  0.36073962707E+02  0.50528857947E+02  0.29999994217E+02 0.  0.
         12    1    1    2    0    0  0.17822414755E+02  0.58477841446E+01 -0.36073962707E+02  0.40659142053E+02  0.00000000000E+00 0. -1.
         11    1    3    3    0    0  0.39423333738E+01 -0.35378360450E+01  0.10956708512E+02  0.12169952259E+02  0.51100000000E-03 0. -1.
        -11    1    3    3    0    0 -0.91451404312E+01 -0.78075521306E+01  0.20634059964E+02  0.23882125003E+02  0.51100000000E-03 0.  1.
        -12    1    3    3    0    0 -0.12619607697E+02  0.54976040310E+01  0.44831942306E+01  0.14476780686E+02  0.00000000000E+00 0.  1.
</event>
<event>
 7    1  0.2746803E-013  0.5052886E+02  0.7816164E-02  0.1300439E+00
        -11   -1    0    0    0    0  0.00000000000E+00  0.00000000000E+00  0.45593999997E+02  0.45594000000E+02  0.51100000000E-03 0. -1.
         11   -1    0    0    0    0 -0.00000000000E+00 -0.00000000000E+00 -0.45593999997E+02  0.45594000000E+02  0.51100000000E-03 0.  1.
    9900012    2    1    2    0    0 -0.28782849599E+02  0.13462299023E+02 -0.25366909009E+02  0.50528855904E+02  0.29999988005E+02 0.  0.
         12    1    1    2    0    0  0.28782849599E+02 -0.13462299023E+02  0.25366909009E+02  0.40659144096E+02  0.00000000000E+00 0. -1.
         11    1    3    3    0    0  0.22478057852E+00 -0.29283261750E+01 -0.54467332166E+00  0.29870202182E+01  0.51100000000E-03 0. -1.
        -11    1    3    3    0    0 -0.20328817907E+02  0.20510748832E+01 -0.40142767807E+01  0.20822635857E+02  0.51100000000E-03 0.  1.
        -12    1    3    3    0    0 -0.86788122698E+01  0.14339550315E+02 -0.20807958906E+02  0.26719199829E+02  0.00000000000E+00 0.  1.
</event>
<event>
 7    1  0.2746803E-013  0.5052888E+02  0.7816164E-02  0.1300439E+00
        -11   -1    0    0    0    0  0.00000000000E+00  0.00000000000E+00  0.45593999997E+02  0.45594000000E+02  0.51100000000E-03 0.  1.
         11   -1    0    0    0    0 -0.00000000000E+00 -0.00000000000E+00 -0.45593999997E+02  0.45594000000E+02  0.51100000000E-03 0. -1.
    9900012    2    1    2    0    0 -0.37344536458E+02  0.10317189223E+02 -0.12333099508E+02  0.50528878758E+02  0.30000057472E+02 0.  0.
         12    1    1    2    0    0  0.37344536458E+02 -0.10317189223E+02  0.12333099508E+02  0.40659121242E+02  0.00000000000E+00 0. -1.
         11    1    3    3    0    0 -0.85273460841E+01  0.28897634011E+01  0.97853903809E+01  0.13297376768E+02  0.51100000000E-03 0.  1.
        -11    1    3    3    0    0 -0.19712430275E+02  0.34683263164E+01 -0.14440750131E+02  0.24680852080E+02  0.51100000000E-03 0. -1.
        -12    1    3    3    0    0 -0.91047600990E+01  0.39590995054E+01 -0.76777397579E+01  0.12550649909E+02  0.00000000000E+00 0.  1.
</event>
<event>
 7    1  0.2746803E-013  0.5052886E+02  0.7816164E-02  0.1300439E+00
        -11   -1    0    0    0    0  0.00000000000E+00  0.00000000000E+00  0.45593999997E+02  0.45594000000E+02  0.51100000000E-03 0.  1.
         11   -1    0    0    0    0 -0.00000000000E+00 -0.00000000000E+00 -0.45593999997E+02  0.45594000000E+02  0.51100000000E-03 0. -1.
    9900012    2    1    2    0    0 -0.31463678527E+02  0.22076785036E+02  0.13259634757E+02  0.50528863046E+02  0.30000009714E+02 0.  0.
         12    1    1    2    0    0  0.31463678527E+02 -0.22076785036E+02 -0.13259634757E+02  0.40659136954E+02  0.00000000000E+00 0. -1.
         11    1    3    3    0    0 -0.20181610111E+02  0.16219248950E+02  0.58899451977E+00  0.25898037339E+02  0.51100000000E-03 0. -1.
        -11    1    3    3    0    0 -0.43035055789E+01  0.92490903036E+01  0.13395914766E+02  0.16837944185E+02  0.51100000000E-03 0.  1.
         12    1    3    3    0    0 -0.69785628364E+01 -0.33915542175E+01 -0.72527452816E+00  0.77928815218E+01  0.00000000000E+00 0. -1.
</event>
<event>
 7    1  0.2746803E-013  0.5052886E+02  0.7816164E-02  0.1300439E+00
        -11   -1    0    0    0    0  0.00000000000E+00  0.00000000000E+00  0.45593999997E+02  0.45594000000E+02  0.51100000000E-03 0. -1.
         11   -1    0    0    0    0 -0.00000000000E+00 -0.00000000000E+00 -0.45593999997E+02  0.45594000000E+02  0.51100000000E-03 0.  1.
    9900012    2    1    2    0    0 -0.12758326217E+02  0.29876759452E+02 -0.24449330432E+02  0.50528863244E+02  0.30000010317E+02 0.  0.
         12    1    1    2    0    0  0.12758326217E+02 -0.29876759452E+02  0.24449330432E+02  0.40659136756E+02  0.00000000000E+00 0. -1.
         11    1    3    3    0    0 -0.57611425279E+01  0.35066936442E+01  0.10009385107E+01  0.68183239659E+01  0.51100000000E-03 0. -1.
        -11    1    3    3    0    0  0.19719848051E+01  0.23636950077E+02 -0.10223801870E+02  0.25828671239E+02  0.51100000000E-03 0.  1.
        -12    1    3    3    0    0 -0.89691684939E+01  0.27331157304E+01 -0.15226467073E+02  0.17881868040E+02  0.00000000000E+00 0.  1.
</event>
<event>
 7    1  0.2746803E-013  0.5052886E+02  0.7816164E-02  0.1300439E+00
        -11   -1    0    0    0    0  0.00000000000E+00  0.00000000000E+00  0.45593999997E+02  0.45594000000E+02  0.51100000000E-03 0.  1.
         11   -1    0    0    0    0 -0.00000000000E+00 -0.00000000000E+00 -0.45593999997E+02  0.45594000000E+02  0.51100000000E-03 0. -1.
    9900012    2    1    2    0    0 -0.69478197996E+00 -0.39791397407E+02  0.83263293661E+01  0.50528858465E+02  0.29999995792E+02 0.  0.
         12    1    1    2    0    0  0.69478197996E+00  0.39791397407E+02 -0.83263293661E+01  0.40659141535E+02  0.00000000000E+00 0. -1.
         11    1    3    3    0    0  0.31454857236E+01 -0.92744600254E+01 -0.82913732560E+01  0.12831857228E+02  0.51100000000E-03 0. -1.
        -11    1    3    3    0    0 -0.46220989217E+01 -0.21768935351E+01  0.47035557553E+01  0.69445014874E+01  0.51100000000E-03 0.  1.
         12    1    3    3    0    0  0.78183121812E+00 -0.28340043847E+02  0.11914146867E+02  0.30752499750E+02  0.00000000000E+00 0. -1.
</event>
<event>
 7    1  0.2746803E-013  0.5052886E+02  0.7816164E-02  0.1300439E+00
        -11   -1    0    0    0    0  0.00000000000E+00  0.00000000000E+00  0.45593999997E+02  0.45594000000E+02  0.51100000000E-03 0. -1.
         11   -1    0    0    0    0 -0.00000000000E+00 -0.00000000000E+00 -0.45593999997E+02  0.45594000000E+02  0.51100000000E-03 0.  1.
    9900012    2    1    2    0    0  0.22879989699E+01 -0.32022760501E+02 -0.24949414419E+02  0.50528863152E+02  0.30000010037E+02 0.  0.
         12    1    1    2    0    0 -0.22879989699E+01  0.32022760501E+02  0.24949414419E+02  0.40659136848E+02  0.00000000000E+00 0. -1.
         11    1    3    3    0    0  0.64661203995E+01 -0.32131475896E+01  0.35277684043E+01  0.80361794796E+01  0.51100000000E-03 0.  1.
        -11    1    3    3    0    0  0.19061328967E+01 -0.15696102179E+02 -0.88607738004E+01  0.18124962864E+02  0.51100000000E-03 0. -1.
        -12    1    3    3    0    0 -0.60842543262E+01 -0.13113510732E+02 -0.19616409023E+02  0.24367720808E+02  0.00000000000E+00 0.  1.
</event>
<event>
 7    1  0.2746803E-013  0.5052886E+02  0.7816164E-02  0.1300439E+00
        -11   -1    0    0    0    0  0.00000000000E+00  0.00000000000E+00  0.45593999997E+02  0.45594000000E+02  0.51100000000E-03 0.  1.
         11   -1    0    0    0    0 -0.00000000000E+00 -0.00000000000E+00 -0.45593999997E+02  0.45594000000E+02  0.51100000000E-03 0. -1.
    9900012    2    1    2    0    0  0.13384858653E+02  0.46031582827E+01  0.38115907587E+02  0.50528856889E+02  0.29999991000E+02 0.  0.
         12    1    1    2    0    0 -0.13384858653E+02 -0.46031582827E+01 -0.38115907587E+02  0.40659143111E+02  0.00000000000E+00 0. -1.
         11    1    3    3    0    0  0.25646309658E+01 -0.37499027459E+01 -0.21119900224E+01  0.50099505696E+01  0.51100000000E-03 0. -1.
        -11    1    3    3    0    0  0.84784193604E+01 -0.31897810420E+01  0.12919209169E+02  0.15778601451E+02  0.51100000000E-03 0.  1.
        -12    1    3    3    0    0  0.23418083270E+01  0.11542842071E+02  0.27308688441E+02  0.29740304868E+02  0.00000000000E+00 0.  1.
</event>
<event>
 7    1  0.2746803E-013  0.5052888E+02  0.7816164E-02  0.1300439E+00
        -11   -1    0    0    0    0  0.00000000000E+00  0.00000000000E+00  0.45593999997E+02  0.45594000000E+02  0.51100000000E-03 0. -1.
         11   -1    0    0    0    0 -0.00000000000E+00 -0.00000000000E+00 -0.45593999997E+02  0.45594000000E+02  0.51100000000E-03 0.  1.
    9900012    2    1    2    0    0  0.33125700379E+02 -0.20587311221E+02  0.11489768936E+02  0.50528878033E+02  0.30000055270E+02 0.  0.
         12    1    1    2    0    0 -0.33125700379E+02  0.20587311221E+02 -0.11489768936E+02  0.40659121967E+02  0.00000000000E+00 0. -1.
         11    1    3    3    0    0 -0.70533701315E+00 -0.70577580993E+01  0.57793695845E+01  0.91493476677E+01  0.51100000000E-03 0. -1.
        -11    1    3    3    0    0  0.13238711557E+02 -0.36102903193E+01  0.11383415715E+02  0.17829184880E+02  0.51100000000E-03 0.  1.
        -12    1    3    3    0    0  0.20592325835E+02 -0.99192628023E+01 -0.56730163637E+01  0.23550345486E+02  0.00000000000E+00 0.  1.
</event>
<event>
 7    1  0.2746803E-013  0.5052886E+02  0.7816164E-02  0.1300439E+00
        -11   -1    0    0    0    0  0.00000000000E+00  0.00000000000E+00  0.45593999997E+02  0.45594000000E+02  0.51100000000E-03 0.  1.
         11   -1    0    0    0    0 -0.00000000000E+00 -0.00000000000E+00 -0.45593999997E+02  0.45594000000E+02  0.51100000000E-03 0. -1.
    9900012    2    1    2    0    0 -0.60987200982E+01  0.21234903980E+02  0.34132832032E+02  0.50528858882E+02  0.29999997059E+02 0.  0.
         12    1    1    2    0    0  0.60987200982E+01 -0.21234903980E+02 -0.34132832032E+02  0.40659141118E+02  0.00000000000E+00 0. -1.
         11    1    3    3    0    0  0.54320559370E+01 -0.33891242808E+01  0.19705792581E+01  0.66989982809E+01  0.51100000000E-03 0. -1.
        -11    1    3    3    0    0  0.43127319254E+00  0.10615544567E+02  0.16633040323E+02  0.19736610998E+02  0.51100000000E-03 0.  1.
        -12    1    3    3    0    0 -0.11962049228E+02  0.14008483694E+02  0.15529212451E+02  0.24093249604E+02  0.00000000000E+00 0.  1.
</event>
<event>
 7    1  0.2746803E-013  0.5052885E+02  0.7816164E-02  0.1300439E+00
        -11   -1    0    0    0    0  0.00000000000E+00  0.00000000000E+00  0.45593999997E+02  0.45594000000E+02  0.51100000000E-03 0.  1.
         11   -1    0    0    0    0 -0.00000000000E+00 -0.00000000000E+00 -0.45593999997E+02  0.45594000000E+02  0.51100000000E-03 0. -1.
    9900012    2    1    2    0    0 -0.16834919409E+02 -0.80564612186E+01  0.36122638792E+02  0.50528854508E+02  0.29999983763E+02 0.  0.
         12    1    1    2    0    0  0.16834919409E+02  0.80564612186E+01 -0.36122638792E+02  0.40659145492E+02  0.00000000000E+00 0. -1.
         11    1    3    3    0    0 -0.12093995738E+02  0.67855438246E+01  0.12560810155E+02  0.18710486095E+02  0.51100000000E-03 0. -1.
        -11    1    3    3    0    0 -0.26325846899E+01 -0.40984970624E+01  0.19566488621E+02  0.20163721321E+02  0.51100000000E-03 0.  1.
         12    1    3    3    0    0 -0.21083389813E+01 -0.10743507981E+02  0.39953400161E+01  0.11654647092E+02  0.00000000000E+00 0. -1.
</event>
<event>
 7    1  0.2746803E-013  0.5052886E+02  0.7816164E-02  0.1300439E+00
        -11   -1    0    0    0    0  0.00000000000E+00  0.00000000000E+00  0.45593999997E+02  0.45594000000E+02  0.51100000000E-03 0.  1.
         11   -1    0    0    0    0 -0.00000000000E+00 -0.00000000000E+00 -0.45593999997E+02  0.45594000000E+02  0.51100000000E-03 0. -1.
    9900012    2    1    2    0    0 -0.10594486298E+01 -0.40304337396E+02  0.52539362466E+01  0.50528857235E+02  0.29999992052E+02 0.  0.
         12    1    1    2    0    0  0.10594486298E+01  0.40304337396E+02 -0.52539362466E+01  0.40659142765E+02  0.00000000000E+00 0. -1.
         11    1    3    3    0    0 -0.74760466836E+01 -0.39886596171E+01 -0.55127319346E+00  0.84914416887E+01  0.51100000000E-03 0. -1.
        -11    1    3    3    0    0 -0.40421776500E+01 -0.25879817211E+02  0.84252346886E-01  0.26193725159E+02  0.51100000000E-03 0.  1.
         12    1    3    3    0    0  0.10458775704E+02 -0.10435860568E+02  0.57209570932E+01  0.15843690387E+02  0.00000000000E+00 0. -1.
</event>
<event>
 7    1  0.2746803E-013  0.5052886E+02  0.7816164E-02  0.1300439E+00
        -11   -1    0    0    0    0  0.00000000000E+00  0.00000000000E+00  0.45593999997E+02  0.45594000000E+02  0.51100000000E-03 0.  1.
         11   -1    0    0    0    0 -0.00000000000E+00 -0.00000000000E+00 -0.45593999997E+02  0.45594000000E+02  0.51100000000E-03 0. -1.
    9900012    2    1    2    0    0  0.20342567987E+02  0.29766368603E+02  0.18796507908E+02  0.50528862262E+02  0.30000007331E+02 0.  0.
         12    1    1    2    0    0 -0.20342567987E+02 -0.29766368603E+02 -0.18796507908E+02  0.40659137738E+02  0.00000000000E+00 0. -1.
         11    1    3    3    0    0 -0.26861204152E+01  0.43870161402E+01  0.13717157592E+00  0.51458691979E+01  0.51100000000E-03 0. -1.
        -11    1    3    3    0    0  0.79884440477E+01  0.23728589221E+02  0.16770753848E+02  0.30135018992E+02  0.51100000000E-03 0.  1.
         12    1    3    3    0    0  0.15040244354E+02  0.16507632413E+01  0.18885824837E+01  0.15247974072E+02  0.00000000000E+00 0. -1.
</event>
<event>
 7    1  0.2746803E-013  0.5052884E+02  0.7816164E-02  0.1300439E+00
        -11   -1    0    0    0    0  0.00000000000E+00  0.00000000000E+00  0.45593999997E+02  0.45594000000E+02  0.51100000000E-03 0. -1.
         11   -1    0    0    0    0 -0.00000000000E+00 -0.00000000000E+00 -0.45593999997E+02  0.45594000000E+02  0.51100000000E-03 0.  1.
    9900012    2    1    2    0    0 -0.12946508252E+01 -0.38486856710E+02  0.13048104037E+02  0.50528840157E+02  0.29999940140E+02 0.  0.
         12    1    1    2    0    0  0.12946508252E+01  0.38486856710E+02 -0.13048104037E+02  0.40659159843E+02  0.00000000000E+00 0. -1.
         11    1    3    3    0    0  0.38926297558E+01  0.20899271450E+01 -0.36554235174E+01  0.57343250030E+01  0.51100000000E-03 0. -1.
        -11    1    3    3    0    0  0.77461629192E+00 -0.97504326716E+01  0.14508243409E+01  0.98881676367E+01  0.51100000000E-03 0.  1.
         12    1    3    3    0    0 -0.59618968730E+01 -0.30826351184E+02  0.15252703214E+02  0.34906347517E+02  0.00000000000E+00 0. -1.
</event>
<event>
 7    1  0.2746803E-013  0.5052886E+02  0.7816164E-02  0.1300439E+00
        -11   -1    0    0    0    0  0.00000000000E+00  0.00000000000E+00  0.45593999997E+02  0.45594000000E+02  0.51100000000E-03 0.  1.
         11   -1    0    0    0    0 -0.00000000000E+00 -0.00000000000E+00 -0.45593999997E+02  0.45594000000E+02  0.51100000000E-03 0. -1.
    9900012    2    1    2    0    0 -0.12940269993E+02 -0.20218172042E+02  0.32816774531E+02  0.50528858852E+02  0.29999996968E+02 0.  0.
         12    1    1    2    0    0  0.12940269993E+02  0.20218172042E+02 -0.32816774531E+02  0.40659141148E+02  0.00000000000E+00 0. -1.
         11    1    3    3    0    0 -0.35708793145E+01  0.36558788187E+01  0.37485233531E+01  0.63378274358E+01  0.51100000000E-03 0. -1.
        -11    1    3    3    0    0 -0.11644791320E+02 -0.18712221929E+02  0.31166824476E+02  0.38172232875E+02  0.51100000000E-03 0.  1.
         12    1    3    3    0    0  0.22754006420E+01 -0.51618289317E+01 -0.20985732982E+01  0.60187985420E+01  0.00000000000E+00 0. -1.
</event>
<event>
 7    1  0.2746803E-013  0.5052886E+02  0.7816164E-02  0.1300439E+00
        -11   -1    0    0    0    0  0.00000000000E+00  0.00000000000E+00  0.45593999997E+02  0.45594000000E+02  0.51100000000E-03 0.  1.
         11   -1    0    0    0    0 -0.00000000000E+00 -0.00000000000E+00 -0.45593999997E+02  0.45594000000E+02  0.51100000000E-03 0. -1.
    9900012    2    1    2    0    0  0.26454986449E+02 -0.51380133452E+01  0.30445036724E+02  0.50528858958E+02  0.29999997287E+02 0.  0.
         12    1    1    2    0    0 -0.26454986449E+02  0.51380133452E+01 -0.30445036724E+02  0.40659141042E+02  0.00000000000E+00 0. -1.
         11    1    3    3    0    0  0.19808465909E+02  0.30516656151E+01  0.11824115476E+02  0.23270102960E+02  0.51100000000E-03 0. -1.
        -11    1    3    3    0    0  0.40605537115E+01 -0.10308665965E+02  0.32758326695E+01  0.11553690768E+02  0.51100000000E-03 0.  1.
         12    1    3    3    0    0  0.25859668283E+01  0.21189870052E+01  0.15345088579E+02  0.15705065229E+02  0.00000000000E+00 0. -1.
</event>
<event>
 7    1  0.2746803E-013  0.5052886E+02  0.7816164E-02  0.1300439E+00
        -11   -1    0    0    0    0  0.00000000000E+00  0.00000000000E+00  0.45593999997E+02  0.45594000000E+02  0.51100000000E-03 0.  1.
         11   -1    0    0    0    0 -0.00000000000E+00 -0.00000000000E+00 -0.45593999997E+02  0.45594000000E+02  0.51100000000E-03 0. -1.
    9900012    2    1    2    0    0  0.30459844510E+02  0.21224329597E+02  0.16579849029E+02  0.50528859720E+02  0.29999999606E+02 0.  0.
         12    1    1    2    0    0 -0.30459844510E+02 -0.21224329597E+02 -0.16579849029E+02  0.40659140280E+02  0.00000000000E+00 0. -1.
         11    1    3    3    0    0  0.56160509461E+01  0.18263827898E+02  0.17348602601E+01  0.19186380015E+02  0.51100000000E-03 0.  1.
        -11    1    3    3    0    0  0.15701878867E+02  0.68314616955E+00  0.26603095479E+01  0.15940292839E+02  0.51100000000E-03 0. -1.
        -12    1    3    3    0    0  0.91419146969E+01  0.22773555303E+01  0.12184679221E+02  0.15402186866E+02  0.00000000000E+00 0.  1.
</event>
<event>
 7    1  0.2746803E-013  0.5052887E+02  0.7816164E-02  0.1300439E+00
        -11   -1    0    0    0    0  0.00000000000E+00  0.00000000000E+00  0.45593999997E+02  0.45594000000E+02  0.51100000000E-03 0. -1.
         11   -1    0    0    0    0 -0.00000000000E+00 -0.00000000000E+00 -0.45593999997E+02  0.45594000000E+02  0.51100000000E-03 0.  1.
    9900012    2    1    2    0    0  0.92845347862E+01 -0.13887816676E+02 -0.37068732436E+02  0.50528868644E+02  0.30000026731E+02 0.  0.
         12    1    1    2    0    0 -0.92845347862E+01  0.13887816676E+02  0.37068732436E+02  0.40659131356E+02  0.00000000000E+00 0. -1.
         11    1    3    3    0    0 -0.57518854690E+01 -0.74022825139E+01 -0.24691478201E+01  0.96940530266E+01  0.51100000000E-03 0. -1.
        -11    1    3    3    0    0  0.16065552888E+01  0.38138557476E+01 -0.34647605298E+01  0.53973216830E+01  0.51100000000E-03 0.  1.
         12    1    3    3    0    0  0.13429864966E+02 -0.10299389909E+02 -0.31134824086E+02  0.35437493935E+02  0.00000000000E+00 0. -1.
</event>
<event>
 7    1  0.2746803E-013  0.5052885E+02  0.7816164E-02  0.1300439E+00
        -11   -1    0    0    0    0  0.00000000000E+00  0.00000000000E+00  0.45593999997E+02  0.45594000000E+02  0.51100000000E-03 0.  1.
         11   -1    0    0    0    0 -0.00000000000E+00 -0.00000000000E+00 -0.45593999997E+02  0.45594000000E+02  0.51100000000E-03 0. -1.
    9900012    2    1    2    0    0 -0.20342063491E+01  0.21618446074E+02  0.34375450668E+02  0.50528845868E+02  0.29999957499E+02 0.  0.
         12    1    1    2    0    0  0.20342063491E+01 -0.21618446074E+02 -0.34375450668E+02  0.40659154132E+02  0.00000000000E+00 0. -1.
         11    1    3    3    0    0  0.33508321778E+01 -0.36014020089E+01 -0.33271836266E+00  0.49304030751E+01  0.51100000000E-03 0. -1.
        -11    1    3    3    0    0  0.29224114348E+01  0.12955717525E+02  0.23610114185E+02  0.27089270888E+02  0.51100000000E-03 0.  1.
        -12    1    3    3    0    0 -0.83074499617E+01  0.12264130558E+02  0.11098054846E+02  0.18509171904E+02  0.00000000000E+00 0.  1.
</event>
<event>
 7    1  0.2746803E-013  0.5052886E+02  0.7816164E-02  0.1300439E+00
        -11   -1    0    0    0    0  0.00000000000E+00  0.00000000000E+00  0.45593999997E+02  0.45594000000E+02  0.51100000000E-03 0. -1.
         11   -1    0    0    0    0 -0.00000000000E+00 -0.00000000000E+00 -0.45593999997E+02  0.45594000000E+02  0.51100000000E-03 0.  1.
    9900012    2    1    2    0    0  0.22222783920E+02  0.27858695737E+02 -0.19575660589E+02  0.50528861533E+02  0.30000005117E+02 0.  0.
         12    1    1    2    0    0 -0.22222783920E+02 -0.27858695737E+02  0.19575660589E+02  0.40659138467E+02  0.00000000000E+00 0. -1.
         11    1    3    3    0    0  0.27466255056E+01 -0.28922231356E+01  0.15582398327E+00  0.39916397268E+01  0.51100000000E-03 0. -1.
        -11    1    3    3    0    0  0.21208539575E+02  0.21088805745E+02 -0.74646379140E+01  0.30826298806E+02  0.51100000000E-03 0.  1.
         12    1    3    3    0    0 -0.17323811601E+01  0.96621131280E+01 -0.12266846658E+02  0.15710923000E+02  0.00000000000E+00 0. -1.
</event>
<event>
 7    1  0.2746803E-013  0.5052887E+02  0.7816164E-02  0.1300439E+00
        -11   -1    0    0    0    0  0.00000000000E+00  0.00000000000E+00  0.45593999997E+02  0.45594000000E+02  0.51100000000E-03 0.  1.
         11   -1    0    0    0    0 -0.00000000000E+00 -0.00000000000E+00 -0.45593999997E+02  0.45594000000E+02  0.51100000000E-03 0. -1.
    9900012    2    1    2    0    0  0.98597941930E+01  0.32100660750E+02 -0.22923726949E+02  0.50528865487E+02  0.30000017135E+02 0.  0.
         12    1    1    2    0    0 -0.98597941930E+01 -0.32100660750E+02  0.22923726949E+02  0.40659134513E+02  0.00000000000E+00 0. -1.
         11    1    3    3    0    0  0.23965040627E+01  0.19174776980E+01 -0.72034809407E+01  0.78300760129E+01  0.51100000000E-03 0. -1.
        -11    1    3    3    0    0 -0.29274459924E+01  0.24507702990E+02 -0.18118983909E+02  0.30618540527E+02  0.51100000000E-03 0.  1.
         12    1    3    3    0    0  0.10390736123E+02  0.56754800616E+01  0.23987379002E+01  0.12080248947E+02  0.00000000000E+00 0. -1.
</event>
<event>
 7    1  0.2746803E-013  0.5052885E+02  0.7816164E-02  0.1300439E+00
        -11   -1    0    0    0    0  0.00000000000E+00  0.00000000000E+00  0.45593999997E+02  0.45594000000E+02  0.51100000000E-03 0. -1.
         11   -1    0    0    0    0 -0.00000000000E+00 -0.00000000000E+00 -0.45593999997E+02  0.45594000000E+02  0.51100000000E-03 0.  1.
    9900012    2    1    2    0    0 -0.58081069146E+01 -0.21183984723E+02 -0.34215073101E+02  0.50528849222E+02  0.29999967694E+02 0.  0.
         12    1    1    2    0    0  0.58081069146E+01  0.21183984723E+02  0.34215073101E+02  0.40659150778E+02  0.00000000000E+00 0. -1.
         11    1    3    3    0    0 -0.29243548820E+01 -0.75777816392E+01 -0.40081336898E+01  0.90575803603E+01  0.51100000000E-03 0. -1.
        -11    1    3    3    0    0 -0.13533660494E+02 -0.57747830429E+01 -0.19679728702E+02  0.24572338261E+02  0.51100000000E-03 0.  1.
         12    1    3    3    0    0  0.10649908462E+02 -0.78314200411E+01 -0.10527210710E+02  0.16898930600E+02  0.00000000000E+00 0. -1.
</event>
<event>
 7    1  0.2746803E-013  0.5052886E+02  0.7816164E-02  0.1300439E+00
        -11   -1    0    0    0    0  0.00000000000E+00  0.00000000000E+00  0.45593999997E+02  0.45594000000E+02  0.51100000000E-03 0.  1.
         11   -1    0    0    0    0 -0.00000000000E+00 -0.00000000000E+00 -0.45593999997E+02  0.45594000000E+02  0.51100000000E-03 0. -1.
    9900012    2    1    2    0    0  0.37640716759E+02  0.14517590904E+02  0.50578033366E+01  0.50528863532E+02  0.30000011191E+02 0.  0.
         12    1    1    2    0    0 -0.37640716759E+02 -0.14517590904E+02 -0.50578033366E+01  0.40659136468E+02  0.00000000000E+00 0. -1.
         11    1    3    3    0    0  0.15427517055E+02  0.16597117476E+01  0.11082912196E+02  0.19068137523E+02  0.51100000000E-03 0. -1.
        -11    1    3    3    0    0  0.53663948213E+01 -0.21314640485E+01  0.37481894099E+01  0.68840581405E+01  0.51100000000E-03 0.  1.
        -12    1    3    3    0    0  0.16846804882E+02  0.14989343205E+02 -0.97732982694E+01  0.24576667868E+02  0.00000000000E+00 0.  1.
</event>
<event>
 7    1  0.2746803E-013  0.5052886E+02  0.7816164E-02  0.1300439E+00
        -11   -1    0    0    0    0  0.00000000000E+00  0.00000000000E+00  0.45593999997E+02  0.45594000000E+02  0.51100000000E-03 0.  1.
         11   -1    0    0    0    0 -0.00000000000E+00 -0.00000000000E+00 -0.45593999997E+02  0.45594000000E+02  0.51100000000E-03 0. -1.
    9900012    2    1    2    0    0 -0.62703120008E+01 -0.18249859449E+02  0.35788146891E+02  0.50528860309E+02  0.30000001395E+02 0.  0.
         12    1    1    2    0    0  0.62703120008E+01  0.18249859449E+02 -0.35788146891E+02  0.40659139691E+02  0.00000000000E+00 0. -1.
         11    1    3    3    0    0 -0.13148679605E+02  0.16116631247E+00  0.12276771070E+02  0.17989798723E+02  0.51100000000E-03 0.  1.
        -11    1    3    3    0    0  0.47684733948E+01 -0.31920706704E+01  0.12128299433E+02  0.13417276217E+02  0.51100000000E-03 0. -1.
        -12    1    3    3    0    0  0.21098942093E+01 -0.15218955091E+02  0.11383076388E+02  0.19121785369E+02  0.00000000000E+00 0.  1.
</event>
<event>
 7    1  0.2746803E-013  0.5052886E+02  0.7816164E-02  0.1300439E+00
        -11   -1    0    0    0    0  0.00000000000E+00  0.00000000000E+00  0.45593999997E+02  0.45594000000E+02  0.51100000000E-03 0.  1.
         11   -1    0    0    0    0 -0.00000000000E+00 -0.00000000000E+00 -0.45593999997E+02  0.45594000000E+02  0.51100000000E-03 0. -1.
    9900012    2    1    2    0    0 -0.68687649868E+01 -0.36409679336E+02  0.16742789853E+02  0.50528859652E+02  0.29999999398E+02 0.  0.
         12    1    1    2    0    0  0.68687649868E+01  0.36409679336E+02 -0.16742789853E+02  0.40659140348E+02  0.00000000000E+00 0. -1.
         11    1    3    3    0    0 -0.51477060210E+01 -0.11354921917E+02 -0.50788552011E+01  0.13462091198E+02  0.51100000000E-03 0. -1.
        -11    1    3    3    0    0 -0.64051201736E+01 -0.21591724060E+02  0.11677675299E+02  0.25369198115E+02  0.51100000000E-03 0.  1.
        -12    1    3    3    0    0  0.46840612078E+01 -0.34630333591E+01  0.10143969755E+02  0.11697570339E+02  0.00000000000E+00 0.  1.
</event>
<event>
 7    1  0.2746803E-013  0.5052886E+02  0.7816164E-02  0.1300439E+00
        -11   -1    0    0    0    0  0.00000000000E+00  0.00000000000E+00  0.45593999997E+02  0.45594000000E+02  0.51100000000E-03 0. -1.
         11   -1    0    0    0    0 -0.00000000000E+00 -0.00000000000E+00 -0.45593999997E+02  0.45594000000E+02  0.51100000000E-03 0.  1.
    9900012    2    1    2    0    0  0.28582752307E+02  0.27402172600E+02 -0.92364830254E+01  0.50528863126E+02  0.30000009958E+02 0.  0.
         12    1    1    2    0    0 -0.28582752307E+02 -0.27402172600E+02  0.92364830254E+01  0.40659136874E+02  0.00000000000E+00 0. -1.
         11    1    3    3    0    0  0.13372224834E+02  0.13835211501E+02 -0.20383581415E+01  0.19349014922E+02  0.51100000000E-03 0. -1.
        -11    1    3    3    0    0  0.15686995876E+02  0.11812196913E+02  0.38264871952E+01  0.20006295010E+02  0.51100000000E-03 0.  1.
         12    1    3    3    0    0 -0.47646840279E+00  0.17547641867E+01 -0.11024612079E+02  0.11173553194E+02  0.00000000000E+00 0. -1.
</event>
<event>
 7    1  0.2746803E-013  0.5052886E+02  0.7816164E-02  0.1300439E+00
        -11   -1    0    0    0    0  0.00000000000E+00  0.00000000000E+00  0.45593999997E+02  0.45594000000E+02  0.51100000000E-03 0. -1.
         11   -1    0    0    0    0 -0.00000000000E+00 -0.00000000000E+00 -0.45593999997E+02  0.45594000000E+02  0.51100000000E-03 0.  1.
    9900012    2    1    2    0    0 -0.69242399265E+00  0.24045433382E+02 -0.32779623533E+02  0.50528855439E+02  0.29999986591E+02 0.  0.
         12    1    1    2    0    0  0.69242399265E+00 -0.24045433382E+02  0.32779623533E+02  0.40659144561E+02  0.00000000000E+00 0. -1.
         11    1    3    3    0    0 -0.70521786329E+01  0.83462833022E+01 -0.98980056337E+01  0.14743275898E+02  0.51100000000E-03 0. -1.
        -11    1    3    3    0    0  0.58317646241E+00  0.15588429037E+02 -0.40911100558E+01  0.16126884273E+02  0.51100000000E-03 0.  1.
        -12    1    3    3    0    0  0.57765781779E+01  0.11072104377E+00 -0.18790507843E+02  0.19658695267E+02  0.00000000000E+00 0.  1.
</event>
<event>
 7    1  0.2746803E-013  0.5052886E+02  0.7816164E-02  0.1300439E+00
        -11   -1    0    0    0    0  0.00000000000E+00  0.00000000000E+00  0.45593999997E+02  0.45594000000E+02  0.51100000000E-03 0. -1.
         11   -1    0    0    0    0 -0.00000000000E+00 -0.00000000000E+00 -0.45593999997E+02  0.45594000000E+02  0.51100000000E-03 0.  1.
    9900012    2    1    2    0    0  0.37260479297E+02 -0.15104940976E+02 -0.60550168252E+01  0.50528858493E+02  0.29999995877E+02 0.  0.
         12    1    1    2    0    0 -0.37260479297E+02  0.15104940976E+02  0.60550168252E+01  0.40659141507E+02  0.00000000000E+00 0. -1.
         11    1    3    3    0    0  0.53660791288E+01  0.32819558058E+01 -0.16134080524E+01  0.64937758610E+01  0.51100000000E-03 0. -1.
        -11    1    3    3    0    0  0.33022587289E+02 -0.21211781480E+02 -0.72298839020E+01  0.39908672821E+02  0.51100000000E-03 0.  1.
         12    1    3    3    0    0 -0.11281871207E+01  0.28248846986E+01  0.27882751293E+01  0.41264098120E+01  0.00000000000E+00 0. -1.
</event>
<event>
 7    1  0.2746803E-013  0.5052877E+02  0.7816164E-02  0.1300439E+00
        -11   -1    0    0    0    0  0.00000000000E+00  0.00000000000E+00  0.45593999997E+02  0.45594000000E+02  0.51100000000E-03 0. -1.
         11   -1    0    0    0    0 -0.00000000000E+00 -0.00000000000E+00 -0.45593999997E+02  0.45594000000E+02  0.51100000000E-03 0.  1.
    9900012    2    1    2    0    0 -0.40118228378E+02 -0.65787918594E+01  0.64809420797E+00  0.50528772553E+02  0.29999734650E+02 0.  0.
         12    1    1    2    0    0  0.40118228378E+02  0.65787918594E+01 -0.64809420797E+00  0.40659227447E+02  0.00000000000E+00 0. -1.
         11    1    3    3    0    0  0.30629566278E+00 -0.17756680712E+01 -0.32227344323E+01  0.36922664604E+01  0.51100000000E-03 0. -1.
        -11    1    3    3    0    0 -0.22740415963E+02 -0.82315664609E+01 -0.77548832662E+01  0.25397311261E+02  0.51100000000E-03 0.  1.
        -12    1    3    3    0    0 -0.17684108078E+02  0.34284426728E+01  0.11625711907E+02  0.21439194831E+02  0.00000000000E+00 0.  1.
</event>
<event>
 7    1  0.2746803E-013  0.5052886E+02  0.7816164E-02  0.1300439E+00
        -11   -1    0    0    0    0  0.00000000000E+00  0.00000000000E+00  0.45593999997E+02  0.45594000000E+02  0.51100000000E-03 0. -1.
         11   -1    0    0    0    0 -0.00000000000E+00 -0.00000000000E+00 -0.45593999997E+02  0.45594000000E+02  0.51100000000E-03 0.  1.
    9900012    2    1    2    0    0 -0.11105135951E+02 -0.35374996941E+02 -0.16686857079E+02  0.50528860163E+02  0.30000000953E+02 0.  0.
         12    1    1    2    0    0  0.11105135951E+02  0.35374996941E+02  0.16686857079E+02  0.40659139837E+02  0.00000000000E+00 0. -1.
         11    1    3    3    0    0 -0.55528380172E-02  0.13401755586E+00 -0.17555840730E+01  0.17607007803E+01  0.51100000000E-03 0. -1.
        -11    1    3    3    0    0 -0.11250556828E+02 -0.25087510775E+02  0.33767345635E+01  0.27701273661E+02  0.51100000000E-03 0.  1.
        -12    1    3    3    0    0  0.15097371424E+00 -0.10421503721E+02 -0.18308007570E+02  0.21066885723E+02  0.00000000000E+00 0.  1.
</event>
<event>
 7    1  0.2746803E-013  0.5052885E+02  0.7816164E-02  0.1300439E+00
        -11   -1    0    0    0    0  0.00000000000E+00  0.00000000000E+00  0.45593999997E+02  0.45594000000E+02  0.51100000000E-03 0. -1.
         11   -1    0    0    0    0 -0.00000000000E+00 -0.00000000000E+00 -0.45593999997E+02  0.45594000000E+02  0.51100000000E-03 0.  1.
    9900012    2    1    2    0    0  0.33870910382E+02  0.21510703350E+02  0.65740099810E+01  0.50528849296E+02  0.29999967921E+02 0.  0.
         12    1    1    2    0    0 -0.33870910382E+02 -0.21510703350E+02 -0.65740099810E+01  0.40659150704E+02  0.00000000000E+00 0. -1.
         11    1    3    3    0    0  0.54005376878E+01 -0.29795688703E+00 -0.72826332610E+01  0.90714570549E+01  0.51100000000E-03 0. -1.
        -11    1    3    3    0    0  0.25439139961E+01  0.17993846166E+01 -0.32554844933E+01  0.45063802509E+01  0.51100000000E-03 0.  1.
         12    1    3    3    0    0  0.25926458698E+02  0.20009275620E+02  0.17112127735E+02  0.36951011990E+02  0.00000000000E+00 0. -1.
</event>
<event>
 7    1  0.2746803E-013  0.5052884E+02  0.7816164E-02  0.1300439E+00
        -11   -1    0    0    0    0  0.00000000000E+00  0.00000000000E+00  0.45593999997E+02  0.45594000000E+02  0.51100000000E-03 0.  1.
         11   -1    0    0    0    0 -0.00000000000E+00 -0.00000000000E+00 -0.45593999997E+02  0.45594000000E+02  0.51100000000E-03 0. -1.
    9900012    2    1    2    0    0  0.10561778936E+02  0.87412795487E+01  0.38278013604E+02  0.50528837836E+02  0.29999933086E+02 0.  0.
         12    1    1    2    0    0 -0.10561778936E+02 -0.87412795487E+01 -0.38278013604E+02  0.40659162164E+02  0.00000000000E+00 0. -1.
         11    1    3    3    0    0  0.11300176739E+02  0.77902951562E+01  0.16957526039E+02  0.21816057907E+02  0.51100000000E-03 0. -1.
        -11    1    3    3    0    0  0.75619523993E+00  0.66458402668E+01  0.21802430955E+02  0.22805372611E+02  0.51100000000E-03 0.  1.
         12    1    3    3    0    0 -0.14945930438E+01 -0.56948558743E+01 -0.48194339007E+00  0.59074073186E+01  0.00000000000E+00 0. -1.
</event>
<event>
 7    1  0.2746803E-013  0.5052886E+02  0.7816164E-02  0.1300439E+00
        -11   -1    0    0    0    0  0.00000000000E+00  0.00000000000E+00  0.45593999997E+02  0.45594000000E+02  0.51100000000E-03 0. -1.
         11   -1    0    0    0    0 -0.00000000000E+00 -0.00000000000E+00 -0.45593999997E+02  0.45594000000E+02  0.51100000000E-03 0.  1.
    9900012    2    1    2    0    0 -0.50391270759E+01  0.26725165733E+02 -0.30224794050E+02  0.50528862521E+02  0.30000008119E+02 0.  0.
         12    1    1    2    0    0  0.50391270759E+01 -0.26725165733E+02  0.30224794050E+02  0.40659137479E+02  0.00000000000E+00 0. -1.
         11    1    3    3    0    0  0.14987311061E+01  0.60703669004E+01 -0.19643900155E+02  0.20615003342E+02  0.51100000000E-03 0. -1.
        -11    1    3    3    0    0 -0.36176950431E+01 -0.25663817099E+01 -0.28221706577E+01  0.52572502307E+01  0.51100000000E-03 0.  1.
         12    1    3    3    0    0 -0.29201631388E+01  0.23221180543E+02 -0.77587232375E+01  0.24656608948E+02  0.00000000000E+00 0. -1.
</event>
<event>
 7    1  0.2746803E-013  0.5052886E+02  0.7816164E-02  0.1300439E+00
        -11   -1    0    0    0    0  0.00000000000E+00  0.00000000000E+00  0.45593999997E+02  0.45594000000E+02  0.51100000000E-03 0.  1.
         11   -1    0    0    0    0 -0.00000000000E+00 -0.00000000000E+00 -0.45593999997E+02  0.45594000000E+02  0.51100000000E-03 0. -1.
    9900012    2    1    2    0    0  0.36061068112E+01  0.14225567224E+02  0.37918268368E+02  0.50528857791E+02  0.29999993742E+02 0.  0.
         12    1    1    2    0    0 -0.36061068112E+01 -0.14225567224E+02 -0.37918268368E+02  0.40659142209E+02  0.00000000000E+00 0. -1.
         11    1    3    3    0    0  0.31148675538E+01  0.30296801788E+00  0.58077997865E+01  0.65973273466E+01  0.51100000000E-03 0. -1.
        -11    1    3    3    0    0  0.28615208869E+01  0.20725934140E+02  0.16183969643E+02  0.26451342526E+02  0.51100000000E-03 0.  1.
         12    1    3    3    0    0 -0.23702816296E+01 -0.68033349341E+01  0.15926498939E+02  0.17480187919E+02  0.00000000000E+00 0. -1.
</event>
<event>
 7    1  0.2746803E-013  0.5052886E+02  0.7816164E-02  0.1300439E+00
        -11   -1    0    0    0    0  0.00000000000E+00  0.00000000000E+00  0.45593999997E+02  0.45594000000E+02  0.51100000000E-03 0. -1.
         11   -1    0    0    0    0 -0.00000000000E+00 -0.00000000000E+00 -0.45593999997E+02  0.45594000000E+02  0.51100000000E-03 0.  1.
    9900012    2    1    2    0    0  0.34409006340E+02  0.20701270075E+02  0.63752193669E+01  0.50528859306E+02  0.29999998346E+02 0.  0.
         12    1    1    2    0    0 -0.34409006340E+02 -0.20701270075E+02 -0.63752193669E+01  0.40659140694E+02  0.00000000000E+00 0. -1.
         11    1    3    3    0    0  0.72023462301E+01  0.15597203607E+02  0.10811522268E+02  0.20298659207E+02  0.51100000000E-03 0. -1.
        -11    1    3    3    0    0 -0.39766212490E+00  0.90462045933E+00  0.13913992452E+01  0.17065946976E+01  0.51100000000E-03 0.  1.
        -12    1    3    3    0    0  0.27604322234E+02  0.41994460087E+01 -0.58277021462E+01  0.28523605402E+02  0.00000000000E+00 0.  1.
</event>
<event>
 7    1  0.2746803E-013  0.5052884E+02  0.7816164E-02  0.1300439E+00
        -11   -1    0    0    0    0  0.00000000000E+00  0.00000000000E+00  0.45593999997E+02  0.45594000000E+02  0.51100000000E-03 0.  1.
         11   -1    0    0    0    0 -0.00000000000E+00 -0.00000000000E+00 -0.45593999997E+02  0.45594000000E+02  0.51100000000E-03 0. -1.
    9900012    2    1    2    0    0  0.31705263059E+02  0.59416341414E+01  0.24751579172E+02  0.50528838752E+02  0.29999935870E+02 0.  0.
         12    1    1    2    0    0 -0.31705263059E+02 -0.59416341414E+01 -0.24751579172E+02  0.40659161248E+02  0.00000000000E+00 0. -1.
         11    1    3    3    0    0  0.44196903289E+01 -0.51060584367E+01  0.13247390035E+02  0.14869392670E+02  0.51100000000E-03 0. -1.
        -11    1    3    3    0    0  0.37380163844E+01  0.55319148229E+01  0.91968098638E+01  0.11364689174E+02  0.51100000000E-03 0.  1.
         12    1    3    3    0    0  0.23547556346E+02  0.55157777552E+01  0.23073792727E+01  0.24294756908E+02  0.00000000000E+00 0. -1.
</event>
<event>
 7    1  0.2746803E-013  0.5052882E+02  0.7816164E-02  0.1300439E+00
        -11   -1    0    0    0    0  0.00000000000E+00  0.00000000000E+00  0.45593999997E+02  0.45594000000E+02  0.51100000000E-03 0.  1.
         11   -1    0    0    0    0 -0.00000000000E+00 -0.00000000000E+00 -0.45593999997E+02  0.45594000000E+02  0.51100000000E-03 0. -1.
    9900012    2    1    2    0    0 -0.56598798770E+01 -0.19201026172E+02  0.35390047611E+02  0.50528817566E+02  0.29999871474E+02 0.  0.
         12    1    1    2    0    0  0.56598798770E+01  0.19201026172E+02 -0.35390047611E+02  0.40659182434E+02  0.00000000000E+00 0. -1.
         11    1    3    3    0    0  0.24397370543E+01 -0.81063859263E+01  0.10454612315E+01  0.85298768531E+01  0.51100000000E-03 0.  1.
        -11    1    3    3    0    0 -0.95245471162E+01 -0.13518135848E+02  0.14612769400E+02  0.22067850470E+02  0.51100000000E-03 0. -1.
        -12    1    3    3    0    0  0.14249301848E+01  0.24234956022E+01  0.19731816980E+02  0.19931090243E+02  0.00000000000E+00 0.  1.
</event>
<event>
 7    1  0.2746803E-013  0.5052885E+02  0.7816164E-02  0.1300439E+00
        -11   -1    0    0    0    0  0.00000000000E+00  0.00000000000E+00  0.45593999997E+02  0.45594000000E+02  0.51100000000E-03 0.  1.
         11   -1    0    0    0    0 -0.00000000000E+00 -0.00000000000E+00 -0.45593999997E+02  0.45594000000E+02  0.51100000000E-03 0. -1.
    9900012    2    1    2    0    0  0.27321813586E+01 -0.36728882288E+02  0.17224721308E+02  0.50528848100E+02  0.29999964285E+02 0.  0.
         12    1    1    2    0    0 -0.27321813586E+01  0.36728882288E+02 -0.17224721308E+02  0.40659151900E+02  0.00000000000E+00 0. -1.
         11    1    3    3    0    0 -0.35261655216E+01 -0.20960149280E+02  0.17626116208E+02  0.27612346405E+02  0.51100000000E-03 0. -1.
        -11    1    3    3    0    0 -0.11125984688E+01 -0.14923814925E+02  0.20451118205E+01  0.15104324211E+02  0.51100000000E-03 0.  1.
         12    1    3    3    0    0  0.73709453491E+01 -0.84491808265E+00 -0.24465067210E+01  0.78121774840E+01  0.00000000000E+00 0. -1.
</event>
<event>
 7    1  0.2746803E-013  0.5052885E+02  0.7816164E-02  0.1300439E+00
        -11   -1    0    0    0    0  0.00000000000E+00  0.00000000000E+00  0.45593999997E+02  0.45594000000E+02  0.51100000000E-03 0.  1.
         11   -1    0    0    0    0 -0.00000000000E+00 -0.00000000000E+00 -0.45593999997E+02  0.45594000000E+02  0.51100000000E-03 0. -1.
    9900012    2    1    2    0    0 -0.75921118757E+01 -0.94755148341E+01  0.38803881364E+02  0.50528846627E+02  0.29999959808E+02 0.  0.
         12    1    1    2    0    0  0.75921118757E+01  0.94755148341E+01 -0.38803881364E+02  0.40659153373E+02  0.00000000000E+00 0. -1.
         11    1    3    3    0    0 -0.29027194950E+01 -0.74979615856E+01  0.14241584925E+01  0.81653803389E+01  0.51100000000E-03 0. -1.
        -11    1    3    3    0    0 -0.65387957136E+01  0.67240922685E+01  0.10644957695E+02  0.14187473024E+02  0.51100000000E-03 0.  1.
        -12    1    3    3    0    0  0.18494033329E+01 -0.87016455169E+01  0.26734765176E+02  0.28175993264E+02  0.00000000000E+00 0.  1.
</event>
<event>
 7    1  0.2746803E-013  0.5052886E+02  0.7816164E-02  0.1300439E+00
        -11   -1    0    0    0    0  0.00000000000E+00  0.00000000000E+00  0.45593999997E+02  0.45594000000E+02  0.51100000000E-03 0.  1.
         11   -1    0    0    0    0 -0.00000000000E+00 -0.00000000000E+00 -0.45593999997E+02  0.45594000000E+02  0.51100000000E-03 0. -1.
    9900012    2    1    2    0    0 -0.39955251713E+02  0.50657962931E+01  0.55750475701E+01  0.50528860966E+02  0.30000003393E+02 0.  0.
         12    1    1    2    0    0  0.39955251713E+02 -0.50657962931E+01 -0.55750475701E+01  0.40659139034E+02  0.00000000000E+00 0. -1.
         11    1    3    3    0    0 -0.72402356055E+01  0.10400023132E+02 -0.51350444395E+01  0.13672972406E+02  0.51100000000E-03 0. -1.
        -11    1    3    3    0    0 -0.85624136324E+01 -0.51714418126E+01 -0.92644418696E+00  0.10045747196E+02  0.51100000000E-03 0.  1.
        -12    1    3    3    0    0 -0.24152602475E+02 -0.16278502620E+00  0.11636536197E+02  0.26810141364E+02  0.00000000000E+00 0.  1.
</event>
<event>
 7    1  0.2746803E-013  0.5052886E+02  0.7816164E-02  0.1300439E+00
        -11   -1    0    0    0    0  0.00000000000E+00  0.00000000000E+00  0.45593999997E+02  0.45594000000E+02  0.51100000000E-03 0.  1.
         11   -1    0    0    0    0 -0.00000000000E+00 -0.00000000000E+00 -0.45593999997E+02  0.45594000000E+02  0.51100000000E-03 0. -1.
    9900012    2    1    2    0    0  0.25390992132E+02  0.30439674718E+02 -0.90492853046E+01  0.50528857819E+02  0.29999993826E+02 0.  0.
         12    1    1    2    0    0 -0.25390992132E+02 -0.30439674718E+02  0.90492853046E+01  0.40659142181E+02  0.00000000000E+00 0. -1.
         11    1    3    3    0    0  0.16383134155E+02  0.10299790168E+02 -0.14883389505E+02  0.24413276013E+02  0.51100000000E-03 0. -1.
        -11    1    3    3    0    0  0.98101172601E+01  0.83552062804E+01 -0.12284413666E+00  0.12886541956E+02  0.51100000000E-03 0.  1.
        -12    1    3    3    0    0 -0.80225928238E+00  0.11784678269E+02  0.59569483374E+01  0.13229039850E+02  0.00000000000E+00 0.  1.
</event>
<event>
 7    1  0.2746803E-013  0.5052888E+02  0.7816164E-02  0.1300439E+00
        -11   -1    0    0    0    0  0.00000000000E+00  0.00000000000E+00  0.45593999997E+02  0.45594000000E+02  0.51100000000E-03 0. -1.
         11   -1    0    0    0    0 -0.00000000000E+00 -0.00000000000E+00 -0.45593999997E+02  0.45594000000E+02  0.51100000000E-03 0.  1.
    9900012    2    1    2    0    0 -0.34570937006E+01  0.35188864641E+02 -0.20073769565E+02  0.50528881514E+02  0.30000065848E+02 0.  0.
         12    1    1    2    0    0  0.34570937006E+01 -0.35188864641E+02  0.20073769565E+02  0.40659118486E+02  0.00000000000E+00 0. -1.
         11    1    3    3    0    0  0.45802630149E+01  0.57029576510E+01 -0.51400157409E+01  0.89399271436E+01  0.51100000000E-03 0.  1.
        -11    1    3    3    0    0  0.71515132997E+01  0.11438555928E+02  0.32761819333E+00  0.13494148293E+02  0.51100000000E-03 0. -1.
        -12    1    3    3    0    0 -0.15188870015E+02  0.18047351061E+02 -0.15261372018E+02  0.28094806077E+02  0.00000000000E+00 0.  1.
</event>
<event>
 7    1  0.2746803E-013  0.5052887E+02  0.7816164E-02  0.1300439E+00
        -11   -1    0    0    0    0  0.00000000000E+00  0.00000000000E+00  0.45593999997E+02  0.45594000000E+02  0.51100000000E-03 0.  1.
         11   -1    0    0    0    0 -0.00000000000E+00 -0.00000000000E+00 -0.45593999997E+02  0.45594000000E+02  0.51100000000E-03 0. -1.
    9900012    2    1    2    0    0  0.10877634400E+02  0.13149579743E+02  0.36904338047E+02  0.50528873789E+02  0.30000042370E+02 0.  0.
         12    1    1    2    0    0 -0.10877634400E+02 -0.13149579743E+02 -0.36904338047E+02  0.40659126211E+02  0.00000000000E+00 0. -1.
         11    1    3    3    0    0  0.43144144304E+00 -0.20536129996E+01  0.17335269331E+01  0.27218714076E+01  0.51100000000E-03 0. -1.
        -11    1    3    3    0    0 -0.60930320203E+01  0.14537122260E+02  0.18680793214E+02  0.24442278907E+02  0.51100000000E-03 0.  1.
        -12    1    3    3    0    0  0.16539224977E+02  0.66607048216E+00  0.16490017900E+02  0.23364723475E+02  0.00000000000E+00 0.  1.
</event>
<event>
 7    1  0.2746803E-013  0.5052887E+02  0.7816164E-02  0.1300439E+00
        -11   -1    0    0    0    0  0.00000000000E+00  0.00000000000E+00  0.45593999997E+02  0.45594000000E+02  0.51100000000E-03 0.  1.
         11   -1    0    0    0    0 -0.00000000000E+00 -0.00000000000E+00 -0.45593999997E+02  0.45594000000E+02  0.51100000000E-03 0. -1.
    9900012    2    1    2    0    0 -0.35176705121E+02 -0.11859118297E+02  0.16586917759E+02  0.50528866823E+02  0.30000021195E+02 0.  0.
         12    1    1    2    0    0  0.35176705121E+02  0.11859118297E+02 -0.16586917759E+02  0.40659133177E+02  0.00000000000E+00 0. -1.
         11    1    3    3    0    0 -0.83251191336E+01  0.42006428200E+01 -0.13822868915E+01  0.94267558578E+01  0.51100000000E-03 0. -1.
        -11    1    3    3    0    0 -0.14112246438E+02 -0.13604090878E+02  0.84729847264E+00  0.19620007725E+02  0.51100000000E-03 0.  1.
         12    1    3    3    0    0 -0.12739339549E+02 -0.24556702392E+01  0.17121906178E+02  0.21482103240E+02  0.00000000000E+00 0. -1.
</event>
<event>
 7    1  0.2746803E-013  0.5052886E+02  0.7816164E-02  0.1300439E+00
        -11   -1    0    0    0    0  0.00000000000E+00  0.00000000000E+00  0.45593999997E+02  0.45594000000E+02  0.51100000000E-03 0. -1.
         11   -1    0    0    0    0 -0.00000000000E+00 -0.00000000000E+00 -0.45593999997E+02  0.45594000000E+02  0.51100000000E-03 0.  1.
    9900012    2    1    2    0    0 -0.18418263260E+02  0.27494133720E+01 -0.36143801207E+02  0.50528855136E+02  0.29999985671E+02 0.  0.
         12    1    1    2    0    0  0.18418263260E+02 -0.27494133720E+01  0.36143801207E+02  0.40659144864E+02  0.00000000000E+00 0. -1.
         11    1    3    3    0    0 -0.10747395884E+02  0.51676757105E+01 -0.14221822518E+02  0.18559946835E+02  0.51100000000E-03 0. -1.
        -11    1    3    3    0    0 -0.10209652060E+01  0.40177395970E+01 -0.22324179124E+02  0.22705804880E+02  0.51100000000E-03 0.  1.
         12    1    3    3    0    0 -0.66499021702E+01 -0.64360019355E+01  0.40220043562E+00  0.92631034204E+01  0.00000000000E+00 0. -1.
</event>
<event>
 7    1  0.2746803E-013  0.5052886E+02  0.7816164E-02  0.1300439E+00
        -11   -1    0    0    0    0  0.00000000000E+00  0.00000000000E+00  0.45593999997E+02  0.45594000000E+02  0.51100000000E-03 0. -1.
         11   -1    0    0    0    0 -0.00000000000E+00 -0.00000000000E+00 -0.45593999997E+02  0.45594000000E+02  0.51100000000E-03 0.  1.
    9900012    2    1    2    0    0  0.38375276628E+02  0.30589910831E+01 -0.13082299558E+02  0.50528857800E+02  0.29999993769E+02 0.  0.
         12    1    1    2    0    0 -0.38375276628E+02 -0.30589910831E+01  0.13082299558E+02  0.40659142200E+02  0.00000000000E+00 0. -1.
         11    1    3    3    0    0  0.11919915228E+01 -0.18197764841E+01 -0.85621912775E+01  0.88342260541E+01  0.51100000000E-03 0. -1.
        -11    1    3    3    0    0  0.30628170531E+02  0.71789978422E+00 -0.99593995142E+01  0.32214745834E+02  0.51100000000E-03 0.  1.
         12    1    3    3    0    0  0.65551145740E+01  0.41608677829E+01  0.54392912336E+01  0.94798859122E+01  0.00000000000E+00 0. -1.
</event>
<event>
 7    1  0.2746803E-013  0.5052886E+02  0.7816164E-02  0.1300439E+00
        -11   -1    0    0    0    0  0.00000000000E+00  0.00000000000E+00  0.45593999997E+02  0.45594000000E+02  0.51100000000E-03 0.  1.
         11   -1    0    0    0    0 -0.00000000000E+00 -0.00000000000E+00 -0.45593999997E+02  0.45594000000E+02  0.51100000000E-03 0. -1.
    9900012    2    1    2    0    0 -0.94999578977E+01  0.26666385171E+00  0.39532840350E+02  0.50528858644E+02  0.29999996335E+02 0.  0.
         12    1    1    2    0    0  0.94999578977E+01 -0.26666385171E+00 -0.39532840350E+02  0.40659141356E+02  0.00000000000E+00 0. -1.
         11    1    3    3    0    0 -0.75840297976E+01  0.66096488949E+01  0.47175480458E+01  0.11111265738E+02  0.51100000000E-03 0. -1.
        -11    1    3    3    0    0  0.39029751297E+01  0.36083719258E+01  0.44312691355E+01  0.69202391021E+01  0.51100000000E-03 0.  1.
        -12    1    3    3    0    0 -0.58189032298E+01 -0.99513569690E+01  0.30384023169E+02  0.32497353804E+02  0.00000000000E+00 0.  1.
</event>
<event>
 7    1  0.2746803E-013  0.5052885E+02  0.7816164E-02  0.1300439E+00
        -11   -1    0    0    0    0  0.00000000000E+00  0.00000000000E+00  0.45593999997E+02  0.45594000000E+02  0.51100000000E-03 0. -1.
         11   -1    0    0    0    0 -0.00000000000E+00 -0.00000000000E+00 -0.45593999997E+02  0.45594000000E+02  0.51100000000E-03 0.  1.
    9900012    2    1    2    0    0  0.30287019909E+02  0.27060289148E+02  0.18982475050E+01  0.50528853830E+02  0.29999981701E+02 0.  0.
         12    1    1    2    0    0 -0.30287019909E+02 -0.27060289148E+02 -0.18982475050E+01  0.40659146170E+02  0.00000000000E+00 0. -1.
         11    1    3    3    0    0  0.24932538718E+02  0.18347514418E+02 -0.62825606939E+01  0.31586917250E+02  0.51100000000E-03 0. -1.
        -11    1    3    3    0    0  0.82719680514E+01  0.53213396968E+00  0.29240647946E+01  0.87896972183E+01  0.51100000000E-03 0.  1.
         12    1    3    3    0    0 -0.29174868606E+01  0.81806407603E+01  0.52567434043E+01  0.10152239361E+02  0.00000000000E+00 0. -1.
</event>
<event>
 7    1  0.2746803E-013  0.5052886E+02  0.7816164E-02  0.1300439E+00
        -11   -1    0    0    0    0  0.00000000000E+00  0.00000000000E+00  0.45593999997E+02  0.45594000000E+02  0.51100000000E-03 0. -1.
         11   -1    0    0    0    0 -0.00000000000E+00 -0.00000000000E+00 -0.45593999997E+02  0.45594000000E+02  0.51100000000E-03 0.  1.
    9900012    2    1    2    0    0 -0.24597111670E+02  0.32257729794E+02 -0.27543356678E+01  0.50528863278E+02  0.30000010421E+02 0.  0.
         12    1    1    2    0    0  0.24597111670E+02 -0.32257729794E+02  0.27543356678E+01  0.40659136722E+02  0.00000000000E+00 0. -1.
         11    1    3    3    0    0  0.85660589832E+00  0.12177991708E+02 -0.36284409085E+01  0.12735887853E+02  0.51100000000E-03 0. -1.
        -11    1    3    3    0    0 -0.82170164780E+01  0.89942503795E+01 -0.89005124747E+01  0.15087578409E+02  0.51100000000E-03 0.  1.
        -12    1    3    3    0    0 -0.17236701090E+02  0.11085487706E+02  0.97746177154E+01  0.22705397016E+02  0.00000000000E+00 0.  1.
</event>
<event>
 7    1  0.2746803E-013  0.5052889E+02  0.7816164E-02  0.1300439E+00
        -11   -1    0    0    0    0  0.00000000000E+00  0.00000000000E+00  0.45593999997E+02  0.45594000000E+02  0.51100000000E-03 0.  1.
         11   -1    0    0    0    0 -0.00000000000E+00 -0.00000000000E+00 -0.45593999997E+02  0.45594000000E+02  0.51100000000E-03 0. -1.
    9900012    2    1    2    0    0  0.32708962080E+02 -0.19521605926E+02  0.14219480215E+02  0.50528893813E+02  0.30000103235E+02 0.  0.
         12    1    1    2    0    0 -0.32708962080E+02  0.19521605926E+02 -0.14219480215E+02  0.40659106187E+02  0.00000000000E+00 0. -1.
         11    1    3    3    0    0  0.61262723499E+00 -0.12022924407E+02  0.29436578847E+00  0.12042120864E+02  0.51100000000E-03 0. -1.
        -11    1    3    3    0    0  0.37089068255E+01  0.36205679439E+01  0.35501784285E+01  0.62823776718E+01  0.51100000000E-03 0.  1.
        -12    1    3    3    0    0  0.28387428020E+02 -0.11119249463E+02  0.10374935998E+02  0.32204395277E+02  0.00000000000E+00 0.  1.
</event>
<event>
 7    1  0.2746803E-013  0.5052886E+02  0.7816164E-02  0.1300439E+00
        -11   -1    0    0    0    0  0.00000000000E+00  0.00000000000E+00  0.45593999997E+02  0.45594000000E+02  0.51100000000E-03 0.  1.
         11   -1    0    0    0    0 -0.00000000000E+00 -0.00000000000E+00 -0.45593999997E+02  0.45594000000E+02  0.51100000000E-03 0. -1.
    9900012    2    1    2    0    0  0.25126514289E+01 -0.25470830481E+02  0.31592542684E+02  0.50528863563E+02  0.30000011286E+02 0.  0.
         12    1    1    2    0    0 -0.25126514289E+01  0.25470830481E+02 -0.31592542684E+02  0.40659136437E+02  0.00000000000E+00 0. -1.
         11    1    3    3    0    0  0.26548371492E+01 -0.20940856632E+01  0.18957549549E+02  0.19256740124E+02  0.51100000000E-03 0. -1.
        -11    1    3    3    0    0  0.29736628399E+01 -0.15366588666E+02  0.15679031389E+02  0.22154158605E+02  0.51100000000E-03 0.  1.
         12    1    3    3    0    0 -0.31158485602E+01 -0.80101561516E+01 -0.30440382542E+01  0.91179648341E+01  0.00000000000E+00 0. -1.
</event>
<event>
 7    1  0.2746803E-013  0.5052886E+02  0.7816164E-02  0.1300439E+00
        -11   -1    0    0    0    0  0.00000000000E+00  0.00000000000E+00  0.45593999997E+02  0.45594000000E+02  0.51100000000E-03 0.  1.
         11   -1    0    0    0    0 -0.00000000000E+00 -0.00000000000E+00 -0.45593999997E+02  0.45594000000E+02  0.51100000000E-03 0. -1.
    9900012    2    1    2    0    0  0.14252226700E+02 -0.37904771648E+02  0.36425297939E+01  0.50528859540E+02  0.29999999059E+02 0.  0.
         12    1    1    2    0    0 -0.14252226700E+02  0.37904771648E+02 -0.36425297939E+01  0.40659140460E+02  0.00000000000E+00 0. -1.
         11    1    3    3    0    0  0.14243613275E+01 -0.29996038102E+01 -0.18278266158E+01  0.37904325094E+01  0.51100000000E-03 0. -1.
        -11    1    3    3    0    0 -0.42457081508E+01 -0.10813595651E+02  0.11778860240E+02  0.16543924487E+02  0.51100000000E-03 0.  1.
        -12    1    3    3    0    0  0.17073573523E+02 -0.24091572187E+02 -0.63085038306E+01  0.30194502544E+02  0.00000000000E+00 0.  1.
</event>
<event>
 7    1  0.2746803E-013  0.5052886E+02  0.7816164E-02  0.1300439E+00
        -11   -1    0    0    0    0  0.00000000000E+00  0.00000000000E+00  0.45593999997E+02  0.45594000000E+02  0.51100000000E-03 0.  1.
         11   -1    0    0    0    0 -0.00000000000E+00 -0.00000000000E+00 -0.45593999997E+02  0.45594000000E+02  0.51100000000E-03 0. -1.
    9900012    2    1    2    0    0 -0.70975936843E+01 -0.27311279542E+02  0.29272579163E+02  0.50528859365E+02  0.29999998526E+02 0.  0.
         12    1    1    2    0    0  0.70975936843E+01  0.27311279542E+02 -0.29272579163E+02  0.40659140635E+02  0.00000000000E+00 0. -1.
         11    1    3    3    0    0 -0.67373155265E+01 -0.34339756665E+01  0.65862794069E+01  0.10028094837E+02  0.51100000000E-03 0. -1.
        -11    1    3    3    0    0  0.23041992179E+01  0.81723234518E+00  0.13963237484E+02  0.14175655331E+02  0.51100000000E-03 0.  1.
        -12    1    3    3    0    0 -0.26644773757E+01 -0.24694536221E+02  0.87230622714E+01  0.26325109197E+02  0.00000000000E+00 0.  1.
</event>
<event>
 7    1  0.2746803E-013  0.5052886E+02  0.7816164E-02  0.1300439E+00
        -11   -1    0    0    0    0  0.00000000000E+00  0.00000000000E+00  0.45593999997E+02  0.45594000000E+02  0.51100000000E-03 0. -1.
         11   -1    0    0    0    0 -0.00000000000E+00 -0.00000000000E+00 -0.45593999997E+02  0.45594000000E+02  0.51100000000E-03 0.  1.
    9900012    2    1    2    0    0 -0.29840936890E+02 -0.23835396720E+02  0.13948404997E+02  0.50528860152E+02  0.30000000917E+02 0.  0.
         12    1    1    2    0    0  0.29840936890E+02  0.23835396720E+02 -0.13948404997E+02  0.40659139848E+02  0.00000000000E+00 0. -1.
         11    1    3    3    0    0  0.98376130748E+00  0.17362075107E+01 -0.74868242379E+00  0.21313677447E+01  0.51100000000E-03 0. -1.
        -11    1    3    3    0    0 -0.21900384576E+02 -0.26945979602E+02  0.17578516564E+02  0.38919364154E+02  0.51100000000E-03 0.  1.
         12    1    3    3    0    0 -0.89243136211E+01  0.13743753712E+01 -0.28814291437E+01  0.94781282529E+01  0.00000000000E+00 0. -1.
</event>
<event>
 7    1  0.2746803E-013  0.5052876E+02  0.7816164E-02  0.1300439E+00
        -11   -1    0    0    0    0  0.00000000000E+00  0.00000000000E+00  0.45593999997E+02  0.45594000000E+02  0.51100000000E-03 0.  1.
         11   -1    0    0    0    0 -0.00000000000E+00 -0.00000000000E+00 -0.45593999997E+02  0.45594000000E+02  0.51100000000E-03 0. -1.
    9900012    2    1    2    0    0 -0.19058791962E+02 -0.35834201119E+02 -0.24178396891E+01  0.50528764030E+02  0.29999708744E+02 0.  0.
         12    1    1    2    0    0  0.19058791962E+02  0.35834201119E+02  0.24178396891E+01  0.40659235970E+02  0.00000000000E+00 0. -1.
         11    1    3    3    0    0 -0.20067802039E+02 -0.23749754176E+02 -0.83097691631E+01  0.32184153956E+02  0.51100000000E-03 0. -1.
        -11    1    3    3    0    0 -0.49569841908E+01 -0.47301941534E+01  0.56349826169E+01  0.88712715182E+01  0.51100000000E-03 0.  1.
         12    1    3    3    0    0  0.59659942674E+01 -0.73542527900E+01  0.25694685707E+00  0.94733385554E+01  0.00000000000E+00 0. -1.
</event>
<event>
 7    1  0.2746803E-013  0.5052887E+02  0.7816164E-02  0.1300439E+00
        -11   -1    0    0    0    0  0.00000000000E+00  0.00000000000E+00  0.45593999997E+02  0.45594000000E+02  0.51100000000E-03 0.  1.
         11   -1    0    0    0    0 -0.00000000000E+00 -0.00000000000E+00 -0.45593999997E+02  0.45594000000E+02  0.51100000000E-03 0. -1.
    9900012    2    1    2    0    0 -0.32434026735E+02 -0.22116860633E+02  0.10585066803E+02  0.50528865064E+02  0.30000015849E+02 0.  0.
         12    1    1    2    0    0  0.32434026735E+02  0.22116860633E+02 -0.10585066803E+02  0.40659134936E+02  0.00000000000E+00 0. -1.
         11    1    3    3    0    0 -0.48701464439E+01  0.22218560736E+01  0.21421800638E+01  0.57657528982E+01  0.51100000000E-03 0. -1.
        -11    1    3    3    0    0 -0.23878766029E+02 -0.10334768404E+02 -0.31557748135E+01  0.26209956505E+02  0.51100000000E-03 0.  1.
        -12    1    3    3    0    0 -0.36851142623E+01 -0.14003948302E+02  0.11598661553E+02  0.18553155661E+02  0.00000000000E+00 0.  1.
</event>
<event>
 7    1  0.2746803E-013  0.5052886E+02  0.7816164E-02  0.1300439E+00
        -11   -1    0    0    0    0  0.00000000000E+00  0.00000000000E+00  0.45593999997E+02  0.45594000000E+02  0.51100000000E-03 0. -1.
         11   -1    0    0    0    0 -0.00000000000E+00 -0.00000000000E+00 -0.45593999997E+02  0.45594000000E+02  0.51100000000E-03 0.  1.
    9900012    2    1    2    0    0 -0.10054774978E+02  0.34846315973E+02 -0.18379384877E+02  0.50528855577E+02  0.29999987011E+02 0.  0.
         12    1    1    2    0    0  0.10054774978E+02 -0.34846315973E+02  0.18379384877E+02  0.40659144423E+02  0.00000000000E+00 0. -1.
         11    1    3    3    0    0 -0.84682721999E+01  0.11708671863E+02 -0.12021160780E+02  0.18796620377E+02  0.51100000000E-03 0. -1.
        -11    1    3    3    0    0  0.23854505728E+01  0.19612681905E+02 -0.12679822045E+02  0.23476063412E+02  0.51100000000E-03 0.  1.
         12    1    3    3    0    0 -0.39719533512E+01  0.35249622048E+01  0.63215979483E+01  0.82561717878E+01  0.00000000000E+00 0. -1.
</event>
<event>
 7    1  0.2746803E-013  0.5052887E+02  0.7816164E-02  0.1300439E+00
        -11   -1    0    0    0    0  0.00000000000E+00  0.00000000000E+00  0.45593999997E+02  0.45594000000E+02  0.51100000000E-03 0. -1.
         11   -1    0    0    0    0 -0.00000000000E+00 -0.00000000000E+00 -0.45593999997E+02  0.45594000000E+02  0.51100000000E-03 0.  1.
    9900012    2    1    2    0    0  0.17302065084E+02  0.24939939632E+02 -0.27051847505E+02  0.50528874352E+02  0.30000044080E+02 0.  0.
         12    1    1    2    0    0 -0.17302065084E+02 -0.24939939632E+02  0.27051847505E+02  0.40659125648E+02  0.00000000000E+00 0. -1.
         11    1    3    3    0    0  0.76820130672E+01  0.79948292605E+00  0.18868767421E+01  0.79506478865E+01  0.51100000000E-03 0.  1.
        -11    1    3    3    0    0 -0.55315238097E+00  0.12638198984E+02 -0.39574681973E+01  0.13254871026E+02  0.51100000000E-03 0. -1.
        -12    1    3    3    0    0  0.10173204397E+02  0.11502257722E+02 -0.24981256050E+02  0.29323355440E+02  0.00000000000E+00 0.  1.
</event>
<event>
 7    1  0.2746803E-013  0.5052886E+02  0.7816164E-02  0.1300439E+00
        -11   -1    0    0    0    0  0.00000000000E+00  0.00000000000E+00  0.45593999997E+02  0.45594000000E+02  0.51100000000E-03 0.  1.
         11   -1    0    0    0    0 -0.00000000000E+00 -0.00000000000E+00 -0.45593999997E+02  0.45594000000E+02  0.51100000000E-03 0. -1.
    9900012    2    1    2    0    0  0.15544682006E+02  0.35384565529E+02  0.12627789493E+02  0.50528859775E+02  0.29999999773E+02 0.  0.
         12    1    1    2    0    0 -0.15544682006E+02 -0.35384565529E+02 -0.12627789493E+02  0.40659140225E+02  0.00000000000E+00 0. -1.
         11    1    3    3    0    0  0.28179929140E+01  0.15953090897E+02  0.34351283529E+01  0.16560262688E+02  0.51100000000E-03 0. -1.
        -11    1    3    3    0    0  0.17673323167E+02  0.20971860904E+02  0.86597862218E+01  0.28760340736E+02  0.51100000000E-03 0.  1.
         12    1    3    3    0    0 -0.49466340750E+01 -0.15403862730E+01  0.53287491879E+00  0.52082563513E+01  0.00000000000E+00 0. -1.
</event>
<event>
 7    1  0.2746803E-013  0.5052885E+02  0.7816164E-02  0.1300439E+00
        -11   -1    0    0    0    0  0.00000000000E+00  0.00000000000E+00  0.45593999997E+02  0.45594000000E+02  0.51100000000E-03 0.  1.
         11   -1    0    0    0    0 -0.00000000000E+00 -0.00000000000E+00 -0.45593999997E+02  0.45594000000E+02  0.51100000000E-03 0. -1.
    9900012    2    1    2    0    0 -0.13162545728E+02 -0.33573741558E+02 -0.18780773259E+02  0.50528853717E+02  0.29999981359E+02 0.  0.
         12    1    1    2    0    0  0.13162545728E+02  0.33573741558E+02  0.18780773259E+02  0.40659146283E+02  0.00000000000E+00 0. -1.
         11    1    3    3    0    0 -0.26047172844E+01 -0.10282373325E+02 -0.99097234859E+01  0.14516004036E+02  0.51100000000E-03 0. -1.
        -11    1    3    3    0    0 -0.53674835102E+01 -0.25195422447E+02 -0.13242147092E+02  0.28965041884E+02  0.51100000000E-03 0.  1.
        -12    1    3    3    0    0 -0.51903449334E+01  0.19040542145E+01  0.43710973184E+01  0.70478077972E+01  0.00000000000E+00 0.  1.
</event>
<event>
 7    1  0.2746803E-013  0.5052886E+02  0.7816164E-02  0.1300439E+00
        -11   -1    0    0    0    0  0.00000000000E+00  0.00000000000E+00  0.45593999997E+02  0.45594000000E+02  0.51100000000E-03 0.  1.
         11   -1    0    0    0    0 -0.00000000000E+00 -0.00000000000E+00 -0.45593999997E+02  0.45594000000E+02  0.51100000000E-03 0. -1.
    9900012    2    1    2    0    0  0.11359929774E+02 -0.22837410139E+02  0.31663387924E+02  0.50528862760E+02  0.30000008844E+02 0.  0.
         12    1    1    2    0    0 -0.11359929774E+02  0.22837410139E+02 -0.31663387924E+02  0.40659137240E+02  0.00000000000E+00 0. -1.
         11    1    3    3    0    0  0.70524017965E+01  0.26758185859E+01  0.49124404807E+01  0.90015803025E+01  0.51100000000E-03 0. -1.
        -11    1    3    3    0    0  0.53332786046E+01  0.80138698098E+00  0.53044373351E+01  0.75645976410E+01  0.51100000000E-03 0.  1.
        -12    1    3    3    0    0 -0.10257506272E+01 -0.26314615706E+02  0.21446510108E+02  0.33962684816E+02  0.00000000000E+00 0.  1.
</event>
<event>
 7    1  0.2746803E-013  0.5052886E+02  0.7816164E-02  0.1300439E+00
        -11   -1    0    0    0    0  0.00000000000E+00  0.00000000000E+00  0.45593999997E+02  0.45594000000E+02  0.51100000000E-03 0. -1.
         11   -1    0    0    0    0 -0.00000000000E+00 -0.00000000000E+00 -0.45593999997E+02  0.45594000000E+02  0.51100000000E-03 0.  1.
    9900012    2    1    2    0    0 -0.35357247782E+02 -0.35555802865E+01 -0.19758247532E+02  0.50528862436E+02  0.30000007862E+02 0.  0.
         12    1    1    2    0    0  0.35357247782E+02  0.35555802865E+01  0.19758247532E+02  0.40659137564E+02  0.00000000000E+00 0. -1.
         11    1    3    3    0    0 -0.80449040574E+01 -0.16654850492E+01 -0.13956902037E+02  0.16195352311E+02  0.51100000000E-03 0. -1.
        -11    1    3    3    0    0 -0.25531152658E+02 -0.22836959835E+01 -0.11687012948E+02  0.28171639912E+02  0.51100000000E-03 0.  1.
         12    1    3    3    0    0 -0.17811910666E+01  0.39360074614E+00  0.58856674534E+01  0.61618702141E+01  0.00000000000E+00 0. -1.
</event>
<event>
 7    1  0.2746803E-013  0.5052885E+02  0.7816164E-02  0.1300439E+00
        -11   -1    0    0    0    0  0.00000000000E+00  0.00000000000E+00  0.45593999997E+02  0.45594000000E+02  0.51100000000E-03 0.  1.
         11   -1    0    0    0    0 -0.00000000000E+00 -0.00000000000E+00 -0.45593999997E+02  0.45594000000E+02  0.51100000000E-03 0. -1.
    9900012    2    1    2    0    0  0.67243231879E+00 -0.56201950014E+01  0.40263226530E+02  0.50528853825E+02  0.29999981688E+02 0.  0.
         12    1    1    2    0    0 -0.67243231879E+00  0.56201950014E+01 -0.40263226530E+02  0.40659146175E+02  0.00000000000E+00 0. -1.
         11    1    3    3    0    0 -0.15833863890E+01 -0.76193165301E+01  0.31944302889E+02  0.32878558122E+02  0.51100000000E-03 0. -1.
        -11    1    3    3    0    0 -0.64530692618E+01  0.11724872168E+01  0.19935607994E+01  0.68550064984E+01  0.51100000000E-03 0.  1.
        -12    1    3    3    0    0  0.87088879695E+01  0.82663431194E+00  0.63253628412E+01  0.10795289205E+02  0.00000000000E+00 0.  1.
</event>
<event>
 7    1  0.2746803E-013  0.5052885E+02  0.7816164E-02  0.1300439E+00
        -11   -1    0    0    0    0  0.00000000000E+00  0.00000000000E+00  0.45593999997E+02  0.45594000000E+02  0.51100000000E-03 0.  1.
         11   -1    0    0    0    0 -0.00000000000E+00 -0.00000000000E+00 -0.45593999997E+02  0.45594000000E+02  0.51100000000E-03 0. -1.
    9900012    2    1    2    0    0  0.95810140854E-01 -0.38124786928E+02  0.14130031868E+02  0.50528851479E+02  0.29999974556E+02 0.  0.
         12    1    1    2    0    0 -0.95810140854E-01  0.38124786928E+02 -0.14130031868E+02  0.40659148521E+02  0.00000000000E+00 0. -1.
         11    1    3    3    0    0 -0.66147428592E+01 -0.84174974308E+01  0.13185379064E+02  0.16984207588E+02  0.51100000000E-03 0. -1.
        -11    1    3    3    0    0 -0.38877764662E+01 -0.75068191996E+01 -0.22224990072E+01  0.87410893169E+01  0.51100000000E-03 0.  1.
         12    1    3    3    0    0  0.10598329466E+02 -0.22200470297E+02  0.31671518111E+01  0.24803554574E+02  0.00000000000E+00 0. -1.
</event>
<event>
 7    1  0.2746803E-013  0.5052881E+02  0.7816164E-02  0.1300439E+00
        -11   -1    0    0    0    0  0.00000000000E+00  0.00000000000E+00  0.45593999997E+02  0.45594000000E+02  0.51100000000E-03 0.  1.
         11   -1    0    0    0    0 -0.00000000000E+00 -0.00000000000E+00 -0.45593999997E+02  0.45594000000E+02  0.51100000000E-03 0. -1.
    9900012    2    1    2    0    0 -0.36298358503E+02 -0.14516649449E+02  0.11174321812E+02  0.50528813963E+02  0.29999860521E+02 0.  0.
         12    1    1    2    0    0  0.36298358503E+02  0.14516649449E+02 -0.11174321812E+02  0.40659186037E+02  0.00000000000E+00 0. -1.
         11    1    3    3    0    0 -0.64157435301E+01  0.24285527159E+01 -0.30781790173E+01  0.75189640019E+01  0.51100000000E-03 0. -1.
        -11    1    3    3    0    0 -0.12671800679E+02 -0.80267315032E+01 -0.48798306385E+01  0.15773892937E+02  0.51100000000E-03 0.  1.
        -12    1    3    3    0    0 -0.17210814294E+02 -0.89184706621E+01  0.19132331468E+02  0.27235957024E+02  0.00000000000E+00 0.  1.
</event>
<event>
 7    1  0.2746803E-013  0.5052885E+02  0.7816164E-02  0.1300439E+00
        -11   -1    0    0    0    0  0.00000000000E+00  0.00000000000E+00  0.45593999997E+02  0.45594000000E+02  0.51100000000E-03 0. -1.
         11   -1    0    0    0    0 -0.00000000000E+00 -0.00000000000E+00 -0.45593999997E+02  0.45594000000E+02  0.51100000000E-03 0.  1.
    9900012    2    1    2    0    0 -0.38846373716E+02  0.11991244649E+02 -0.57928723338E+00  0.50528852533E+02  0.29999977758E+02 0.  0.
         12    1    1    2    0    0  0.38846373716E+02 -0.11991244649E+02  0.57928723338E+00  0.40659147467E+02  0.00000000000E+00 0. -1.
         11    1    3    3    0    0 -0.17174416899E+02  0.14537139743E+01 -0.81908005382E+01  0.19083057770E+02  0.51100000000E-03 0. -1.
        -11    1    3    3    0    0 -0.84498909222E+01  0.10600912558E+02 -0.36922160094E+01  0.14050354550E+02  0.51100000000E-03 0.  1.
         12    1    3    3    0    0 -0.13222065895E+02 -0.63381883190E-01  0.11303729314E+02  0.17395440213E+02  0.00000000000E+00 0. -1.
</event>
<event>
 7    1  0.2746803E-013  0.5052881E+02  0.7816164E-02  0.1300439E+00
        -11   -1    0    0    0    0  0.00000000000E+00  0.00000000000E+00  0.45593999997E+02  0.45594000000E+02  0.51100000000E-03 0. -1.
         11   -1    0    0    0    0 -0.00000000000E+00 -0.00000000000E+00 -0.45593999997E+02  0.45594000000E+02  0.51100000000E-03 0.  1.
    9900012    2    1    2    0    0 -0.20190969393E+02  0.35016025915E+02 -0.44014093373E+01  0.50528810140E+02  0.29999848902E+02 0.  0.
         12    1    1    2    0    0  0.20190969393E+02 -0.35016025915E+02  0.44014093373E+01  0.40659189860E+02  0.00000000000E+00 0. -1.
         11    1    3    3    0    0 -0.47461241040E+01  0.12308769039E+02  0.39745289888E+01  0.13777821679E+02  0.51100000000E-03 0. -1.
        -11    1    3    3    0    0  0.35559428868E+01  0.92050484663E+00  0.38880990897E+01  0.53487731097E+01  0.51100000000E-03 0.  1.
        -12    1    3    3    0    0 -0.19000788175E+02  0.21786752029E+02 -0.12264037416E+02  0.31402215352E+02  0.00000000000E+00 0.  1.
</event>
<event>
 7    1  0.2746803E-013  0.5052885E+02  0.7816164E-02  0.1300439E+00
        -11   -1    0    0    0    0  0.00000000000E+00  0.00000000000E+00  0.45593999997E+02  0.45594000000E+02  0.51100000000E-03 0.  1.
         11   -1    0    0    0    0 -0.00000000000E+00 -0.00000000000E+00 -0.45593999997E+02  0.45594000000E+02  0.51100000000E-03 0. -1.
    9900012    2    1    2    0    0  0.15598249265E+02  0.23707518867E+02  0.29117249922E+02  0.50528854977E+02  0.29999985188E+02 0.  0.
         12    1    1    2    0    0 -0.15598249265E+02 -0.23707518867E+02 -0.29117249922E+02  0.40659145023E+02  0.00000000000E+00 0. -1.
         11    1    3    3    0    0  0.29431338672E+01 -0.22802404354E+01  0.38748462350E+00  0.37432175996E+01  0.51100000000E-03 0.  1.
        -11    1    3    3    0    0  0.12417622578E+02  0.24059095976E+02  0.32646926628E+02  0.42412961087E+02  0.51100000000E-03 0. -1.
         12    1    3    3    0    0  0.23749282033E+00  0.19286633262E+01 -0.39171613289E+01  0.43726762906E+01  0.00000000000E+00 0. -1.
</event>
<event>
 7    1  0.2746803E-013  0.5052878E+02  0.7816164E-02  0.1300439E+00
        -11   -1    0    0    0    0  0.00000000000E+00  0.00000000000E+00  0.45593999997E+02  0.45594000000E+02  0.51100000000E-03 0.  1.
         11   -1    0    0    0    0 -0.00000000000E+00 -0.00000000000E+00 -0.45593999997E+02  0.45594000000E+02  0.51100000000E-03 0. -1.
    9900012    2    1    2    0    0  0.11477909902E+01 -0.64809934319E+01  0.40122955709E+02  0.50528778724E+02  0.29999753407E+02 0.  0.
         12    1    1    2    0    0 -0.11477909902E+01  0.64809934319E+01 -0.40122955709E+02  0.40659221276E+02  0.00000000000E+00 0. -1.
         11    1    3    3    0    0  0.26098677789E+01  0.41592760817E+01  0.54101284511E+01  0.73061944585E+01  0.51100000000E-03 0. -1.
        -11    1    3    3    0    0  0.10987605606E+02 -0.54171360218E+01  0.16279367146E+02  0.20373773205E+02  0.51100000000E-03 0.  1.
        -12    1    3    3    0    0 -0.12449682395E+02 -0.52231334918E+01  0.18433460111E+02  0.22848811060E+02  0.00000000000E+00 0.  1.
</event>
<event>
 7    1  0.2746803E-013  0.5052886E+02  0.7816164E-02  0.1300439E+00
        -11   -1    0    0    0    0  0.00000000000E+00  0.00000000000E+00  0.45593999997E+02  0.45594000000E+02  0.51100000000E-03 0.  1.
         11   -1    0    0    0    0 -0.00000000000E+00 -0.00000000000E+00 -0.45593999997E+02  0.45594000000E+02  0.51100000000E-03 0. -1.
    9900012    2    1    2    0    0  0.11515301644E+02  0.26216764655E+02  0.28865977020E+02  0.50528861418E+02  0.30000004767E+02 0.  0.
         12    1    1    2    0    0 -0.11515301644E+02 -0.26216764655E+02 -0.28865977020E+02  0.40659138582E+02  0.00000000000E+00 0. -1.
         11    1    3    3    0    0  0.48146073997E+01  0.97388717701E+00  0.16314843886E+02  0.17038281367E+02  0.51100000000E-03 0. -1.
        -11    1    3    3    0    0  0.11570897537E+02  0.10907687734E+02  0.68139798245E+01  0.17300105283E+02  0.51100000000E-03 0.  1.
         12    1    3    3    0    0 -0.48702032929E+01  0.14335189744E+02  0.57371533093E+01  0.16190474768E+02  0.00000000000E+00 0. -1.
</event>
<event>
 7    1  0.2746803E-013  0.5052885E+02  0.7816164E-02  0.1300439E+00
        -11   -1    0    0    0    0  0.00000000000E+00  0.00000000000E+00  0.45593999997E+02  0.45594000000E+02  0.51100000000E-03 0.  1.
         11   -1    0    0    0    0 -0.00000000000E+00 -0.00000000000E+00 -0.45593999997E+02  0.45594000000E+02  0.51100000000E-03 0. -1.
    9900012    2    1    2    0    0  0.30551443473E+02  0.15110934833E+02  0.22168346342E+02  0.50528848148E+02  0.29999964431E+02 0.  0.
         12    1    1    2    0    0 -0.30551443473E+02 -0.15110934833E+02 -0.22168346342E+02  0.40659151852E+02  0.00000000000E+00 0. -1.
         11    1    3    3    0    0  0.82110801430E+01 -0.56072392719E+01  0.87023278143E+00  0.99809956779E+01  0.51100000000E-03 0. -1.
        -11    1    3    3    0    0 -0.17277037440E+01  0.47253351339E+01  0.74304380494E+00  0.50858496549E+01  0.51100000000E-03 0.  1.
        -12    1    3    3    0    0  0.24068067074E+02  0.15992838971E+02  0.20555069756E+02  0.35462002815E+02  0.00000000000E+00 0.  1.
</event>
<event>
 7    1  0.2746803E-013  0.5052880E+02  0.7816164E-02  0.1300439E+00
        -11   -1    0    0    0    0  0.00000000000E+00  0.00000000000E+00  0.45593999997E+02  0.45594000000E+02  0.51100000000E-03 0.  1.
         11   -1    0    0    0    0 -0.00000000000E+00 -0.00000000000E+00 -0.45593999997E+02  0.45594000000E+02  0.51100000000E-03 0. -1.
    9900012    2    1    2    0    0  0.37297553244E+02 -0.86387179404E+01  0.13690715752E+02  0.50528799031E+02  0.29999815133E+02 0.  0.
         12    1    1    2    0    0 -0.37297553244E+02  0.86387179404E+01 -0.13690715752E+02  0.40659200969E+02  0.00000000000E+00 0. -1.
         11    1    3    3    0    0  0.82594992853E+01 -0.13301053927E+02  0.65083553679E+01  0.16955708593E+02  0.51100000000E-03 0. -1.
        -11    1    3    3    0    0  0.31319997694E+01 -0.22966161585E+01  0.54506749939E+01  0.66928115531E+01  0.51100000000E-03 0.  1.
        -12    1    3    3    0    0  0.25906054190E+02  0.69589521455E+01  0.17316853903E+01  0.26880278885E+02  0.00000000000E+00 0.  1.
</event>
<event>
 7    1  0.2746803E-013  0.5052886E+02  0.7816164E-02  0.1300439E+00
        -11   -1    0    0    0    0  0.00000000000E+00  0.00000000000E+00  0.45593999997E+02  0.45594000000E+02  0.51100000000E-03 0.  1.
         11   -1    0    0    0    0 -0.00000000000E+00 -0.00000000000E+00 -0.45593999997E+02  0.45594000000E+02  0.51100000000E-03 0. -1.
    9900012    2    1    2    0    0  0.10156747358E+02  0.13013361333E+02  0.37157216853E+02  0.50528857678E+02  0.29999993399E+02 0.  0.
         12    1    1    2    0    0 -0.10156747358E+02 -0.13013361333E+02 -0.37157216853E+02  0.40659142322E+02  0.00000000000E+00 0. -1.
         11    1    3    3    0    0 -0.17203909140E+01  0.47163888737E+01 -0.30583960400E+00  0.50296726563E+01  0.51100000000E-03 0. -1.
        -11    1    3    3    0    0 -0.46668801460E+01 -0.20452465134E+01  0.14485992966E+02  0.15356001956E+02  0.51100000000E-03 0.  1.
         12    1    3    3    0    0  0.16544018418E+02  0.10342218973E+02  0.22977063490E+02  0.30143183066E+02  0.00000000000E+00 0. -1.
</event>
<event>
 7    1  0.2746803E-013  0.5052884E+02  0.7816164E-02  0.1300439E+00
        -11   -1    0    0    0    0  0.00000000000E+00  0.00000000000E+00  0.45593999997E+02  0.45594000000E+02  0.51100000000E-03 0.  1.
         11   -1    0    0    0    0 -0.00000000000E+00 -0.00000000000E+00 -0.45593999997E+02  0.45594000000E+02  0.51100000000E-03 0. -1.
    9900012    2    1    2    0    0  0.30405916235E+01 -0.36613322772E+02  0.17417991586E+02  0.50528843188E+02  0.29999949353E+02 0.  0.
         12    1    1    2    0    0 -0.30405916235E+01  0.36613322772E+02 -0.17417991586E+02  0.40659156812E+02  0.00000000000E+00 0. -1.
         11    1    3    3    0    0  0.76867517238E+01 -0.86516065867E+01  0.26339124041E+01  0.11869032960E+02  0.51100000000E-03 0. -1.
        -11    1    3    3    0    0 -0.46255189961E+01 -0.11572144784E+02 -0.45921985894E+01  0.13281500255E+02  0.51100000000E-03 0.  1.
        -12    1    3    3    0    0 -0.20641104155E-01 -0.16389571401E+02  0.19376277772E+02  0.25378309973E+02  0.00000000000E+00 0.  1.
</event>
<event>
 7    1  0.2746803E-013  0.5052886E+02  0.7816164E-02  0.1300439E+00
        -11   -1    0    0    0    0  0.00000000000E+00  0.00000000000E+00  0.45593999997E+02  0.45594000000E+02  0.51100000000E-03 0.  1.
         11   -1    0    0    0    0 -0.00000000000E+00 -0.00000000000E+00 -0.45593999997E+02  0.45594000000E+02  0.51100000000E-03 0. -1.
    9900012    2    1    2    0    0  0.46252701206E+01  0.18833640632E+02  0.35736068422E+02  0.50528859215E+02  0.29999998070E+02 0.  0.
         12    1    1    2    0    0 -0.46252701206E+01 -0.18833640632E+02 -0.35736068422E+02  0.40659140785E+02  0.00000000000E+00 0. -1.
         11    1    3    3    0    0 -0.98780622103E+00  0.67437405264E-01  0.25474039703E+01  0.27330525394E+01  0.51100000000E-03 0. -1.
        -11    1    3    3    0    0 -0.44922242726E+01  0.13876537324E+02  0.33529462518E+02  0.36564507709E+02  0.51100000000E-03 0.  1.
         12    1    3    3    0    0  0.10105300614E+02  0.48896659028E+01 -0.34079806672E+00  0.11231298966E+02  0.00000000000E+00 0. -1.
</event>
<event>
 7    1  0.2746803E-013  0.5052885E+02  0.7816164E-02  0.1300439E+00
        -11   -1    0    0    0    0  0.00000000000E+00  0.00000000000E+00  0.45593999997E+02  0.45594000000E+02  0.51100000000E-03 0. -1.
         11   -1    0    0    0    0 -0.00000000000E+00 -0.00000000000E+00 -0.45593999997E+02  0.45594000000E+02  0.51100000000E-03 0.  1.
    9900012    2    1    2    0    0 -0.23801000466E+02  0.15908930844E+02 -0.28871871874E+02  0.50528847410E+02  0.29999962188E+02 0.  0.
         12    1    1    2    0    0  0.23801000466E+02 -0.15908930844E+02  0.28871871874E+02  0.40659152590E+02  0.00000000000E+00 0. -1.
         11    1    3    3    0    0 -0.16084166020E+02  0.14915466527E+01 -0.76239297514E+01  0.17861954347E+02  0.51100000000E-03 0. -1.
        -11    1    3    3    0    0 -0.91693876386E+01  0.11096649869E+01 -0.15617409867E+02  0.18144214429E+02  0.51100000000E-03 0.  1.
         12    1    3    3    0    0  0.14525531924E+01  0.13307719205E+02 -0.56305322559E+01  0.14522678634E+02  0.00000000000E+00 0. -1.
</event>
<event>
 7    1  0.2746803E-013  0.5052885E+02  0.7816164E-02  0.1300439E+00
        -11   -1    0    0    0    0  0.00000000000E+00  0.00000000000E+00  0.45593999997E+02  0.45594000000E+02  0.51100000000E-03 0. -1.
         11   -1    0    0    0    0 -0.00000000000E+00 -0.00000000000E+00 -0.45593999997E+02  0.45594000000E+02  0.51100000000E-03 0.  1.
    9900012    2    1    2    0    0 -0.25933532778E+02  0.29401929428E+02 -0.10777040985E+02  0.50528853565E+02  0.29999980896E+02 0.  0.
         12    1    1    2    0    0  0.25933532778E+02 -0.29401929428E+02  0.10777040985E+02  0.40659146435E+02  0.00000000000E+00 0. -1.
         11    1    3    3    0    0 -0.16670293549E+01  0.66582618226E+01  0.19059489764E+01  0.71234878486E+01  0.51100000000E-03 0. -1.
        -11    1    3    3    0    0 -0.22603688322E+02  0.26279554618E+02 -0.16095255799E+02  0.38217783507E+02  0.51100000000E-03 0.  1.
         12    1    3    3    0    0 -0.16628151019E+01 -0.35358870133E+01  0.34122658378E+01  0.51875822096E+01  0.00000000000E+00 0. -1.
</event>
<event>
 7    1  0.2746803E-013  0.5052898E+02  0.7816164E-02  0.1300438E+00
        -11   -1    0    0    0    0  0.00000000000E+00  0.00000000000E+00  0.45593999997E+02  0.45594000000E+02  0.51100000000E-03 0.  1.
         11   -1    0    0    0    0 -0.00000000000E+00 -0.00000000000E+00 -0.45593999997E+02  0.45594000000E+02  0.51100000000E-03 0. -1.
    9900012    2    1    2    0    0  0.26409596309E+02  0.24972294522E+02  0.18222884404E+02  0.50528981481E+02  0.30000369708E+02 0.  0.
         12    1    1    2    0    0 -0.26409596309E+02 -0.24972294522E+02 -0.18222884404E+02  0.40659018519E+02  0.00000000000E+00 0. -1.
         11    1    3    3    0    0  0.18109671168E+02  0.18764763772E+02  0.94053258602E+00  0.26095232344E+02  0.51100000000E-03 0. -1.
        -11    1    3    3    0    0  0.52272733767E+01  0.53551796085E+01  0.66470078631E+00  0.75129330484E+01  0.51100000000E-03 0.  1.
         12    1    3    3    0    0  0.30726517641E+01  0.85235114156E+00  0.16617651031E+02  0.16920816089E+02  0.00000000000E+00 0. -1.
</event>
<event>
 7    1  0.2746803E-013  0.5052884E+02  0.7816164E-02  0.1300439E+00
        -11   -1    0    0    0    0  0.00000000000E+00  0.00000000000E+00  0.45593999997E+02  0.45594000000E+02  0.51100000000E-03 0.  1.
         11   -1    0    0    0    0 -0.00000000000E+00 -0.00000000000E+00 -0.45593999997E+02  0.45594000000E+02  0.51100000000E-03 0. -1.
    9900012    2    1    2    0    0 -0.33543570277E+02 -0.22967408463E+02  0.70298909255E+00  0.50528841720E+02  0.29999944891E+02 0.  0.
         12    1    1    2    0    0  0.33543570277E+02  0.22967408463E+02 -0.70298909255E+00  0.40659158280E+02  0.00000000000E+00 0. -1.
         11    1    3    3    0    0  0.24308718828E+01 -0.73308689010E+01  0.82200453286E+00  0.77670115661E+01  0.51100000000E-03 0. -1.
        -11    1    3    3    0    0 -0.14858501066E+02 -0.12473835826E+02  0.64142522508E+01  0.20433165843E+02  0.51100000000E-03 0.  1.
         12    1    3    3    0    0 -0.21115941093E+02 -0.31627037354E+01 -0.65332676911E+01  0.22328664311E+02  0.00000000000E+00 0. -1.
</event>
<event>
 7    1  0.2746803E-013  0.5052886E+02  0.7816164E-02  0.1300439E+00
        -11   -1    0    0    0    0  0.00000000000E+00  0.00000000000E+00  0.45593999997E+02  0.45594000000E+02  0.51100000000E-03 0.  1.
         11   -1    0    0    0    0 -0.00000000000E+00 -0.00000000000E+00 -0.45593999997E+02  0.45594000000E+02  0.51100000000E-03 0. -1.
    9900012    2    1    2    0    0  0.32197760440E+02  0.30369068440E+01  0.24642382087E+02  0.50528861107E+02  0.30000003822E+02 0.  0.
         12    1    1    2    0    0 -0.32197760440E+02 -0.30369068440E+01 -0.24642382087E+02  0.40659138893E+02  0.00000000000E+00 0. -1.
         11    1    3    3    0    0 -0.19744234739E+01  0.72199068724E+00  0.73852058144E+01  0.76785990772E+01  0.51100000000E-03 0. -1.
        -11    1    3    3    0    0  0.13620337193E+02 -0.65643393213E+01  0.13255466213E+02  0.20107499118E+02  0.51100000000E-03 0.  1.
         12    1    3    3    0    0  0.20551846721E+02  0.88792554780E+01  0.40017100596E+01  0.22742762912E+02  0.00000000000E+00 0. -1.
</event>
<event>
 7    1  0.2746803E-013  0.5052886E+02  0.7816164E-02  0.1300439E+00
        -11   -1    0    0    0    0  0.00000000000E+00  0.00000000000E+00  0.45593999997E+02  0.45594000000E+02  0.51100000000E-03 0.  1.
         11   -1    0    0    0    0 -0.00000000000E+00 -0.00000000000E+00 -0.45593999997E+02  0.45594000000E+02  0.51100000000E-03 0. -1.
    9900012    2    1    2    0    0  0.24398647623E+01 -0.16740222412E+02  0.36972666681E+02  0.50528855051E+02  0.29999985414E+02 0.  0.
         12    1    1    2    0    0 -0.24398647623E+01  0.16740222412E+02 -0.36972666681E+02  0.40659144949E+02  0.00000000000E+00 0. -1.
         11    1    3    3    0    0  0.17025116529E+01  0.36526374656E+01  0.11713671876E+02  0.12387510462E+02  0.51100000000E-03 0. -1.
        -11    1    3    3    0    0 -0.68078548436E+01 -0.85796525360E+00  0.27360755404E+01  0.73870901965E+01  0.51100000000E-03 0.  1.
        -12    1    3    3    0    0  0.75452079531E+01 -0.19534894624E+02  0.22522919265E+02  0.30754254393E+02  0.00000000000E+00 0.  1.
</event>
<event>
 7    1  0.2746803E-013  0.5052885E+02  0.7816164E-02  0.1300439E+00
        -11   -1    0    0    0    0  0.00000000000E+00  0.00000000000E+00  0.45593999997E+02  0.45594000000E+02  0.51100000000E-03 0.  1.
         11   -1    0    0    0    0 -0.00000000000E+00 -0.00000000000E+00 -0.45593999997E+02  0.45594000000E+02  0.51100000000E-03 0. -1.
    9900012    2    1    2    0    0 -0.14782199375E+01 -0.32286659709E+02  0.24668862960E+02  0.50528851840E+02  0.29999975653E+02 0.  0.
         12    1    1    2    0    0  0.14782199375E+01  0.32286659709E+02 -0.24668862960E+02  0.40659148160E+02  0.00000000000E+00 0. -1.
         11    1    3    3    0    0 -0.32985454396E+01 -0.11062895045E+02 -0.12175530219E+01  0.11608207632E+02  0.51100000000E-03 0. -1.
        -11    1    3    3    0    0 -0.87929244250E+01 -0.12722204475E+02  0.13867324089E+02  0.20771920573E+02  0.51100000000E-03 0.  1.
         12    1    3    3    0    0  0.10613249927E+02 -0.85015601884E+01  0.12019091893E+02  0.18148723635E+02  0.00000000000E+00 0. -1.
</event>
<event>
 7    1  0.2746803E-013  0.5052886E+02  0.7816164E-02  0.1300439E+00
        -11   -1    0    0    0    0  0.00000000000E+00  0.00000000000E+00  0.45593999997E+02  0.45594000000E+02  0.51100000000E-03 0. -1.
         11   -1    0    0    0    0 -0.00000000000E+00 -0.00000000000E+00 -0.45593999997E+02  0.45594000000E+02  0.51100000000E-03 0.  1.
    9900012    2    1    2    0    0 -0.37115109681E+02  0.11968076540E+02 -0.11506507323E+02  0.50528856705E+02  0.29999990441E+02 0.  0.
         12    1    1    2    0    0  0.37115109681E+02 -0.11968076540E+02  0.11506507323E+02  0.40659143295E+02  0.00000000000E+00 0. -1.
         11    1    3    3    0    0 -0.13705051852E+00 -0.24153576917E+01  0.28984467838E+01  0.37754111886E+01  0.51100000000E-03 0. -1.
        -11    1    3    3    0    0 -0.33960199851E+01  0.84069960347E+01 -0.79067981742E+01  0.12030294747E+02  0.51100000000E-03 0.  1.
        -12    1    3    3    0    0 -0.33582039177E+02  0.59764381973E+01 -0.64981559325E+01  0.34723150769E+02  0.00000000000E+00 0.  1.
</event>
<event>
 7    1  0.2746803E-013  0.5052887E+02  0.7816164E-02  0.1300439E+00
        -11   -1    0    0    0    0  0.00000000000E+00  0.00000000000E+00  0.45593999997E+02  0.45594000000E+02  0.51100000000E-03 0.  1.
         11   -1    0    0    0    0 -0.00000000000E+00 -0.00000000000E+00 -0.45593999997E+02  0.45594000000E+02  0.51100000000E-03 0. -1.
    9900012    2    1    2    0    0 -0.18996123782E+02  0.15651087746E+02  0.32362873359E+02  0.50528870171E+02  0.30000031373E+02 0.  0.
         12    1    1    2    0    0  0.18996123782E+02 -0.15651087746E+02 -0.32362873359E+02  0.40659129829E+02  0.00000000000E+00 0. -1.
         11    1    3    3    0    0 -0.15143687378E+02  0.22319315104E+01  0.74106240852E+01  0.17006767337E+02  0.51100000000E-03 0. -1.
        -11    1    3    3    0    0 -0.82649786484E+01  0.21941340479E+01  0.17131918723E+02  0.19147499463E+02  0.51100000000E-03 0.  1.
         12    1    3    3    0    0  0.44125422440E+01  0.11225022188E+02  0.78203305509E+01  0.14374603372E+02  0.00000000000E+00 0. -1.
</event>
<event>
 7    1  0.2746803E-013  0.5052886E+02  0.7816164E-02  0.1300439E+00
        -11   -1    0    0    0    0  0.00000000000E+00  0.00000000000E+00  0.45593999997E+02  0.45594000000E+02  0.51100000000E-03 0. -1.
         11   -1    0    0    0    0 -0.00000000000E+00 -0.00000000000E+00 -0.45593999997E+02  0.45594000000E+02  0.51100000000E-03 0.  1.
    9900012    2    1    2    0    0  0.19007327245E+02  0.32383686186E+02  0.15594360224E+02  0.50528859690E+02  0.29999999513E+02 0.  0.
         12    1    1    2    0    0 -0.19007327245E+02 -0.32383686186E+02 -0.15594360224E+02  0.40659140310E+02  0.00000000000E+00 0. -1.
         11    1    3    3    0    0  0.21144799956E+02  0.16080845930E+02  0.16839732347E+02  0.31452706669E+02  0.51100000000E-03 0. -1.
        -11    1    3    3    0    0  0.15178174396E+01 -0.32952745349E+00 -0.13328019530E+01  0.20466361253E+01  0.51100000000E-03 0.  1.
        -12    1    3    3    0    0 -0.36552901510E+01  0.16632367709E+02  0.87429829215E-01  0.17029516895E+02  0.00000000000E+00 0.  1.
</event>
<event>
 7    1  0.2746803E-013  0.5052878E+02  0.7816164E-02  0.1300439E+00
        -11   -1    0    0    0    0  0.00000000000E+00  0.00000000000E+00  0.45593999997E+02  0.45594000000E+02  0.51100000000E-03 0.  1.
         11   -1    0    0    0    0 -0.00000000000E+00 -0.00000000000E+00 -0.45593999997E+02  0.45594000000E+02  0.51100000000E-03 0. -1.
    9900012    2    1    2    0    0 -0.34816128012E+02 -0.18535884453E+02  0.98706893317E+01  0.50528778536E+02  0.29999752837E+02 0.  0.
         12    1    1    2    0    0  0.34816128012E+02  0.18535884453E+02 -0.98706893317E+01  0.40659221464E+02  0.00000000000E+00 0. -1.
         11    1    3    3    0    0  0.14432935233E+01 -0.45455379214E+00  0.28039258355E+01  0.31861757165E+01  0.51100000000E-03 0. -1.
        -11    1    3    3    0    0 -0.29222437079E+02 -0.84327148975E+01  0.14055813263E+02  0.33505632305E+02  0.51100000000E-03 0.  1.
        -12    1    3    3    0    0 -0.70369844559E+01 -0.96486157634E+01 -0.69890497669E+01  0.13836970515E+02  0.00000000000E+00 0.  1.
</event>
<event>
 7    1  0.2746803E-013  0.5052887E+02  0.7816164E-02  0.1300439E+00
        -11   -1    0    0    0    0  0.00000000000E+00  0.00000000000E+00  0.45593999997E+02  0.45594000000E+02  0.51100000000E-03 0.  1.
         11   -1    0    0    0    0 -0.00000000000E+00 -0.00000000000E+00 -0.45593999997E+02  0.45594000000E+02  0.51100000000E-03 0. -1.
    9900012    2    1    2    0    0  0.94668378391E+01 -0.33088168029E+02  0.21649872917E+02  0.50528869666E+02  0.30000029837E+02 0.  0.
         12    1    1    2    0    0 -0.94668378391E+01  0.33088168029E+02 -0.21649872917E+02  0.40659130334E+02  0.00000000000E+00 0. -1.
         11    1    3    3    0    0 -0.34099207756E+01 -0.12228822409E+02  0.40236262668E+01  0.13317703473E+02  0.51100000000E-03 0. -1.
        -11    1    3    3    0    0  0.91446016792E+01 -0.71680986288E+01 -0.31614401855E+01  0.12041597989E+02  0.51100000000E-03 0.  1.
        -12    1    3    3    0    0  0.37321569355E+01 -0.13691246991E+02  0.20787686836E+02  0.25169568204E+02  0.00000000000E+00 0.  1.
</event>
<event>
 7    1  0.2746803E-013  0.5052888E+02  0.7816164E-02  0.1300439E+00
        -11   -1    0    0    0    0  0.00000000000E+00  0.00000000000E+00  0.45593999997E+02  0.45594000000E+02  0.51100000000E-03 0.  1.
         11   -1    0    0    0    0 -0.00000000000E+00 -0.00000000000E+00 -0.45593999997E+02  0.45594000000E+02  0.51100000000E-03 0. -1.
    9900012    2    1    2    0    0  0.15979404484E+02 -0.37216863202E+02 -0.35676081452E+01  0.50528879226E+02  0.30000058894E+02 0.  0.
         12    1    1    2    0    0 -0.15979404484E+02  0.37216863202E+02  0.35676081452E+01  0.40659120774E+02  0.00000000000E+00 0. -1.
         11    1    3    3    0    0  0.13541101115E+01 -0.12463100264E+02 -0.52232809645E+01  0.13581058378E+02  0.51100000000E-03 0. -1.
        -11    1    3    3    0    0  0.13250386953E+02 -0.26810211359E+02  0.73011117949E+01  0.30784191093E+02  0.51100000000E-03 0.  1.
        -12    1    3    3    0    0  0.13749074189E+01  0.20564484211E+01 -0.56454389756E+01  0.61636297541E+01  0.00000000000E+00 0.  1.
</event>
<event>
 7    1  0.2746803E-013  0.5052883E+02  0.7816164E-02  0.1300439E+00
        -11   -1    0    0    0    0  0.00000000000E+00  0.00000000000E+00  0.45593999997E+02  0.45594000000E+02  0.51100000000E-03 0.  1.
         11   -1    0    0    0    0 -0.00000000000E+00 -0.00000000000E+00 -0.45593999997E+02  0.45594000000E+02  0.51100000000E-03 0. -1.
    9900012    2    1    2    0    0  0.15891280673E+02 -0.37396237950E+02 -0.14686980120E+01  0.50528825291E+02  0.29999894953E+02 0.  0.
         12    1    1    2    0    0 -0.15891280673E+02  0.37396237950E+02  0.14686980120E+01  0.40659174709E+02  0.00000000000E+00 0. -1.
         11    1    3    3    0    0  0.66291622251E+01 -0.90768211506E+01 -0.58663007487E+01  0.12678641834E+02  0.51100000000E-03 0. -1.
        -11    1    3    3    0    0 -0.65587375026E+01 -0.13657333021E+02  0.58272903251E+01  0.16232593621E+02  0.51100000000E-03 0.  1.
         12    1    3    3    0    0  0.15820855950E+02 -0.14662083778E+02 -0.14296875883E+01  0.21617589836E+02  0.00000000000E+00 0. -1.
</event>
<event>
 7    1  0.2746803E-013  0.5052886E+02  0.7816164E-02  0.1300439E+00
        -11   -1    0    0    0    0  0.00000000000E+00  0.00000000000E+00  0.45593999997E+02  0.45594000000E+02  0.51100000000E-03 0.  1.
         11   -1    0    0    0    0 -0.00000000000E+00 -0.00000000000E+00 -0.45593999997E+02  0.45594000000E+02  0.51100000000E-03 0. -1.
    9900012    2    1    2    0    0 -0.20948623621E+02 -0.20344514166E+02  0.28291722802E+02  0.50528859977E+02  0.30000000388E+02 0.  0.
         12    1    1    2    0    0  0.20948623621E+02  0.20344514166E+02 -0.28291722802E+02  0.40659140023E+02  0.00000000000E+00 0. -1.
         11    1    3    3    0    0 -0.70575287636E+01 -0.16661311256E+02  0.25140640790E+02  0.30975148500E+02  0.51100000000E-03 0. -1.
        -11    1    3    3    0    0 -0.13522157299E+01 -0.57338437027E+01 -0.14044822864E+01  0.60562382500E+01  0.51100000000E-03 0.  1.
         12    1    3    3    0    0 -0.12538879128E+02  0.20506407923E+01  0.45555642976E+01  0.13497473227E+02  0.00000000000E+00 0. -1.
</event>
<event>
 7    1  0.2746803E-013  0.5052886E+02  0.7816164E-02  0.1300439E+00
        -11   -1    0    0    0    0  0.00000000000E+00  0.00000000000E+00  0.45593999997E+02  0.45594000000E+02  0.51100000000E-03 0.  1.
         11   -1    0    0    0    0 -0.00000000000E+00 -0.00000000000E+00 -0.45593999997E+02  0.45594000000E+02  0.51100000000E-03 0. -1.
    9900012    2    1    2    0    0  0.39027690696E+02 -0.14605917145E+01  0.11308043591E+02  0.50528858112E+02  0.29999994716E+02 0.  0.
         12    1    1    2    0    0 -0.39027690696E+02  0.14605917145E+01 -0.11308043591E+02  0.40659141888E+02  0.00000000000E+00 0. -1.
         11    1    3    3    0    0  0.11890419285E+01 -0.10181070429E+01  0.10658350989E+02  0.10772688092E+02  0.51100000000E-03 0. -1.
        -11    1    3    3    0    0  0.64885172666E+01  0.15482973441E+01 -0.43269321360E+01  0.79511271500E+01  0.51100000000E-03 0.  1.
        -12    1    3    3    0    0  0.31350131501E+02 -0.19907820157E+01  0.49766247382E+01  0.31805042870E+02  0.00000000000E+00 0.  1.
</event>
<event>
 7    1  0.2746803E-013  0.5052887E+02  0.7816164E-02  0.1300439E+00
        -11   -1    0    0    0    0  0.00000000000E+00  0.00000000000E+00  0.45593999997E+02  0.45594000000E+02  0.51100000000E-03 0.  1.
         11   -1    0    0    0    0 -0.00000000000E+00 -0.00000000000E+00 -0.45593999997E+02  0.45594000000E+02  0.51100000000E-03 0. -1.
    9900012    2    1    2    0    0 -0.44121722672E+01 -0.18142869085E+02  0.36118332276E+02  0.50528869547E+02  0.30000029476E+02 0.  0.
         12    1    1    2    0    0  0.44121722672E+01  0.18142869085E+02 -0.36118332276E+02  0.40659130453E+02  0.00000000000E+00 0. -1.
         11    1    3    3    0    0 -0.79833363352E+01 -0.68149400489E+01  0.12284689634E+02  0.16158300238E+02  0.51100000000E-03 0. -1.
        -11    1    3    3    0    0  0.45780463021E+01 -0.11341011219E+01  0.23660158162E+02  0.24125666370E+02  0.51100000000E-03 0.  1.
         12    1    3    3    0    0 -0.10068822342E+01 -0.10193827914E+02  0.17348448044E+00  0.10244902939E+02  0.00000000000E+00 0. -1.
</event>
<event>
 7    1  0.2746803E-013  0.5052895E+02  0.7816164E-02  0.1300438E+00
        -11   -1    0    0    0    0  0.00000000000E+00  0.00000000000E+00  0.45593999997E+02  0.45594000000E+02  0.51100000000E-03 0.  1.
         11   -1    0    0    0    0 -0.00000000000E+00 -0.00000000000E+00 -0.45593999997E+02  0.45594000000E+02  0.51100000000E-03 0. -1.
    9900012    2    1    2    0    0 -0.20841996039E+02 -0.30486301479E+02  0.17010437998E+02  0.50528949622E+02  0.30000272870E+02 0.  0.
         12    1    1    2    0    0  0.20841996039E+02  0.30486301479E+02 -0.17010437998E+02  0.40659050378E+02  0.00000000000E+00 0. -1.
         11    1    3    3    0    0 -0.22398121547E+02 -0.14610780899E+02  0.37048871450E+01  0.26997721317E+02  0.51100000000E-03 0. -1.
        -11    1    3    3    0    0  0.40543323676E+00 -0.29817910208E+01 -0.19022133575E+01  0.35600378818E+01  0.51100000000E-03 0.  1.
         12    1    3    3    0    0  0.11506922706E+01 -0.12893729559E+02  0.15207764210E+02  0.19971190423E+02  0.00000000000E+00 0. -1.
</event>
<event>
 7    1  0.2746803E-013  0.5052886E+02  0.7816164E-02  0.1300439E+00
        -11   -1    0    0    0    0  0.00000000000E+00  0.00000000000E+00  0.45593999997E+02  0.45594000000E+02  0.51100000000E-03 0. -1.
         11   -1    0    0    0    0 -0.00000000000E+00 -0.00000000000E+00 -0.45593999997E+02  0.45594000000E+02  0.51100000000E-03 0.  1.
    9900012    2    1    2    0    0  0.34702843044E+02 -0.66171564505E+01 -0.20126883670E+02  0.50528861776E+02  0.30000005854E+02 0.  0.
         12    1    1    2    0    0 -0.34702843044E+02  0.66171564505E+01  0.20126883670E+02  0.40659138224E+02  0.00000000000E+00 0. -1.
         11    1    3    3    0    0  0.89853920958E+01  0.59426330360E+01 -0.14037171854E+01  0.10863819803E+02  0.51100000000E-03 0. -1.
        -11    1    3    3    0    0  0.13898893461E+02  0.26536783738E+01 -0.22705980065E+01  0.14330975679E+02  0.51100000000E-03 0.  1.
        -12    1    3    3    0    0  0.11818557488E+02 -0.15213467860E+02 -0.16452568478E+02  0.25334066293E+02  0.00000000000E+00 0.  1.
</event>
<event>
 7    1  0.2746803E-013  0.5052887E+02  0.7816164E-02  0.1300439E+00
        -11   -1    0    0    0    0  0.00000000000E+00  0.00000000000E+00  0.45593999997E+02  0.45594000000E+02  0.51100000000E-03 0. -1.
         11   -1    0    0    0    0 -0.00000000000E+00 -0.00000000000E+00 -0.45593999997E+02  0.45594000000E+02  0.51100000000E-03 0.  1.
    9900012    2    1    2    0    0 -0.78997833195E+01  0.11322034924E+02 -0.38243556821E+02  0.50528872001E+02  0.30000036933E+02 0.  0.
         12    1    1    2    0    0  0.78997833195E+01 -0.11322034924E+02  0.38243556821E+02  0.40659127999E+02  0.00000000000E+00 0. -1.
         11    1    3    3    0    0 -0.10390554991E+02  0.14329786784E+02 -0.27560619722E+02  0.32755063456E+02  0.51100000000E-03 0. -1.
        -11    1    3    3    0    0 -0.10844620947E+01 -0.74634916919E+00 -0.12920988129E+02  0.12987880105E+02  0.51100000000E-03 0.  1.
         12    1    3    3    0    0  0.35752337662E+01 -0.22614026914E+01  0.22380510300E+01  0.47859284396E+01  0.00000000000E+00 0. -1.
</event>
<event>
 7    1  0.2746803E-013  0.5052886E+02  0.7816164E-02  0.1300439E+00
        -11   -1    0    0    0    0  0.00000000000E+00  0.00000000000E+00  0.45593999997E+02  0.45594000000E+02  0.51100000000E-03 0.  1.
         11   -1    0    0    0    0 -0.00000000000E+00 -0.00000000000E+00 -0.45593999997E+02  0.45594000000E+02  0.51100000000E-03 0. -1.
    9900012    2    1    2    0    0  0.62848376172E+01  0.79893903440E+01  0.39367958369E+02  0.50528859723E+02  0.29999999613E+02 0.  0.
         12    1    1    2    0    0 -0.62848376172E+01 -0.79893903440E+01 -0.39367958369E+02  0.40659140277E+02  0.00000000000E+00 0. -1.
         11    1    3    3    0    0  0.13896013795E+02  0.66047506157E+01  0.91281678359E+01  0.17889812140E+02  0.51100000000E-03 0. -1.
        -11    1    3    3    0    0 -0.49860487112E+00  0.91447147845E+00  0.20720969251E+02  0.20747130689E+02  0.51100000000E-03 0.  1.
        -12    1    3    3    0    0 -0.71125713071E+01  0.47016824988E+00  0.95188212828E+01  0.11891916893E+02  0.00000000000E+00 0.  1.
</event>
<event>
 7    1  0.2746803E-013  0.5052886E+02  0.7816164E-02  0.1300439E+00
        -11   -1    0    0    0    0  0.00000000000E+00  0.00000000000E+00  0.45593999997E+02  0.45594000000E+02  0.51100000000E-03 0. -1.
         11   -1    0    0    0    0 -0.00000000000E+00 -0.00000000000E+00 -0.45593999997E+02  0.45594000000E+02  0.51100000000E-03 0.  1.
    9900012    2    1    2    0    0 -0.23272530774E+02  0.16202846495E+01 -0.33300601116E+02  0.50528855325E+02  0.29999986247E+02 0.  0.
         12    1    1    2    0    0  0.23272530774E+02 -0.16202846495E+01  0.33300601116E+02  0.40659144675E+02  0.00000000000E+00 0. -1.
         11    1    3    3    0    0  0.21744150845E+01 -0.10070600190E+01 -0.38750065155E+01  0.45560867636E+01  0.51100000000E-03 0. -1.
        -11    1    3    3    0    0 -0.17561407305E+02 -0.86374994868E+01 -0.24521669818E+02  0.31373901811E+02  0.51100000000E-03 0.  1.
        -12    1    3    3    0    0 -0.78855385539E+01  0.11264844155E+02 -0.49039247823E+01  0.14598866750E+02  0.00000000000E+00 0.  1.
</event>
<event>
 7    1  0.2746803E-013  0.5052886E+02  0.7816164E-02  0.1300439E+00
        -11   -1    0    0    0    0  0.00000000000E+00  0.00000000000E+00  0.45593999997E+02  0.45594000000E+02  0.51100000000E-03 0. -1.
         11   -1    0    0    0    0 -0.00000000000E+00 -0.00000000000E+00 -0.45593999997E+02  0.45594000000E+02  0.51100000000E-03 0.  1.
    9900012    2    1    2    0    0 -0.33156204813E+02 -0.37345264489E+01 -0.23235429603E+02  0.50528858418E+02  0.29999995648E+02 0.  0.
         12    1    1    2    0    0  0.33156204813E+02  0.37345264489E+01  0.23235429603E+02  0.40659141582E+02  0.00000000000E+00 0. -1.
         11    1    3    3    0    0  0.57881894074E+00  0.13523095826E+01 -0.64892013710E+01  0.66538340277E+01  0.51100000000E-03 0. -1.
        -11    1    3    3    0    0 -0.23236451165E+02 -0.89726266144E+01 -0.20296631017E+02  0.32130887352E+02  0.51100000000E-03 0.  1.
        -12    1    3    3    0    0 -0.10498572588E+02  0.38857905830E+01  0.35504027855E+01  0.11744137039E+02  0.00000000000E+00 0.  1.
</event>
<event>
 7    1  0.2746803E-013  0.5052883E+02  0.7816164E-02  0.1300439E+00
        -11   -1    0    0    0    0  0.00000000000E+00  0.00000000000E+00  0.45593999997E+02  0.45594000000E+02  0.51100000000E-03 0.  1.
         11   -1    0    0    0    0 -0.00000000000E+00 -0.00000000000E+00 -0.45593999997E+02  0.45594000000E+02  0.51100000000E-03 0. -1.
    9900012    2    1    2    0    0  0.36760867471E+02  0.11474250393E+02  0.13044083170E+02  0.50528832460E+02  0.29999916746E+02 0.  0.
         12    1    1    2    0    0 -0.36760867471E+02 -0.11474250393E+02 -0.13044083170E+02  0.40659167540E+02  0.00000000000E+00 0. -1.
         11    1    3    3    0    0  0.61089400842E+01  0.19539156857E+01 -0.44059404917E+01  0.77813396878E+01  0.51100000000E-03 0. -1.
        -11    1    3    3    0    0  0.22468487073E+02  0.95866411337E+01  0.10873198204E+01  0.24452379521E+02  0.51100000000E-03 0.  1.
         12    1    3    3    0    0  0.81834403132E+01 -0.66306426108E-01  0.16362703841E+02  0.18295113252E+02  0.00000000000E+00 0. -1.
</event>
<event>
 7    1  0.2746803E-013  0.5052885E+02  0.7816164E-02  0.1300439E+00
        -11   -1    0    0    0    0  0.00000000000E+00  0.00000000000E+00  0.45593999997E+02  0.45594000000E+02  0.51100000000E-03 0. -1.
         11   -1    0    0    0    0 -0.00000000000E+00 -0.00000000000E+00 -0.45593999997E+02  0.45594000000E+02  0.51100000000E-03 0.  1.
    9900012    2    1    2    0    0  0.35691228152E+02 -0.18525414892E+02 -0.60092739642E+01  0.50528854196E+02  0.29999982815E+02 0.  0.
         12    1    1    2    0    0 -0.35691228152E+02  0.18525414892E+02  0.60092739642E+01  0.40659145804E+02  0.00000000000E+00 0. -1.
         11    1    3    3    0    0  0.10231347850E+00 -0.36369813827E+01  0.15479817469E+01  0.39540295112E+01  0.51100000000E-03 0. -1.
        -11    1    3    3    0    0  0.16053726260E+01 -0.25620988919E+01  0.69836069552E+01  0.76100156613E+01  0.51100000000E-03 0.  1.
        -12    1    3    3    0    0  0.33983542047E+02 -0.12326334618E+02 -0.14540862666E+02  0.38964809024E+02  0.00000000000E+00 0.  1.
</event>
<event>
 7    1  0.2746803E-013  0.5052886E+02  0.7816164E-02  0.1300439E+00
        -11   -1    0    0    0    0  0.00000000000E+00  0.00000000000E+00  0.45593999997E+02  0.45594000000E+02  0.51100000000E-03 0.  1.
         11   -1    0    0    0    0 -0.00000000000E+00 -0.00000000000E+00 -0.45593999997E+02  0.45594000000E+02  0.51100000000E-03 0. -1.
    9900012    2    1    2    0    0  0.19483987084E+02  0.35227747969E+02 -0.57048886712E+01  0.50528859153E+02  0.29999997881E+02 0.  0.
         12    1    1    2    0    0 -0.19483987084E+02 -0.35227747969E+02  0.57048886712E+01  0.40659140847E+02  0.00000000000E+00 0. -1.
         11    1    3    3    0    0  0.12689023793E+02  0.14108739643E+02  0.45680334671E+01  0.19517550798E+02  0.51100000000E-03 0. -1.
        -11    1    3    3    0    0  0.81322667137E+01  0.80393656648E+00 -0.61783271910E+01  0.10244598725E+02  0.51100000000E-03 0.  1.
         12    1    3    3    0    0 -0.13373034226E+01  0.20315071760E+02 -0.40945949473E+01  0.20766709630E+02  0.00000000000E+00 0. -1.
</event>
<event>
 7    1  0.2746803E-013  0.5052886E+02  0.7816164E-02  0.1300439E+00
        -11   -1    0    0    0    0  0.00000000000E+00  0.00000000000E+00  0.45593999997E+02  0.45594000000E+02  0.51100000000E-03 0.  1.
         11   -1    0    0    0    0 -0.00000000000E+00 -0.00000000000E+00 -0.45593999997E+02  0.45594000000E+02  0.51100000000E-03 0. -1.
    9900012    2    1    2    0    0 -0.12530169547E+02  0.33982309128E+02  0.18476026481E+02  0.50528855431E+02  0.29999986569E+02 0.  0.
         12    1    1    2    0    0  0.12530169547E+02 -0.33982309128E+02 -0.18476026481E+02  0.40659144569E+02  0.00000000000E+00 0. -1.
         11    1    3    3    0    0 -0.93798021286E+01  0.20089722127E+00  0.54315714524E+01  0.10840803308E+02  0.51100000000E-03 0. -1.
        -11    1    3    3    0    0  0.20808145741E+01  0.11179837136E+01  0.51699869507E+01  0.56840515662E+01  0.51100000000E-03 0.  1.
         12    1    3    3    0    0 -0.52311819928E+01  0.32663428193E+02  0.78744680777E+01  0.34004000557E+02  0.00000000000E+00 0. -1.
</event>
<event>
 7    1  0.2746803E-013  0.5052886E+02  0.7816164E-02  0.1300439E+00
        -11   -1    0    0    0    0  0.00000000000E+00  0.00000000000E+00  0.45593999997E+02  0.45594000000E+02  0.51100000000E-03 0.  1.
         11   -1    0    0    0    0 -0.00000000000E+00 -0.00000000000E+00 -0.45593999997E+02  0.45594000000E+02  0.51100000000E-03 0. -1.
    9900012    2    1    2    0    0  0.29869331622E+01 -0.28910934440E+02  0.28432401372E+02  0.50528863909E+02  0.30000012337E+02 0.  0.
         12    1    1    2    0    0 -0.29869331622E+01  0.28910934440E+02 -0.28432401372E+02  0.40659136091E+02  0.00000000000E+00 0. -1.
         11    1    3    3    0    0 -0.28846028987E+01 -0.24890834858E+02  0.49502957382E+01  0.25541730990E+02  0.51100000000E-03 0. -1.
        -11    1    3    3    0    0  0.22823951016E+01 -0.79111965599E+00  0.25784913000E+01  0.35332443102E+01  0.51100000000E-03 0.  1.
         12    1    3    3    0    0  0.35891409592E+01 -0.32289799254E+01  0.20903614334E+02  0.21453888608E+02  0.00000000000E+00 0. -1.
</event>
<event>
 7    1  0.2746803E-013  0.5052886E+02  0.7816164E-02  0.1300439E+00
        -11   -1    0    0    0    0  0.00000000000E+00  0.00000000000E+00  0.45593999997E+02  0.45594000000E+02  0.51100000000E-03 0.  1.
         11   -1    0    0    0    0 -0.00000000000E+00 -0.00000000000E+00 -0.45593999997E+02  0.45594000000E+02  0.51100000000E-03 0. -1.
    9900012    2    1    2    0    0  0.28499295676E+02  0.21807993211E+01  0.28917116462E+02  0.50528863706E+02  0.30000011720E+02 0.  0.
         12    1    1    2    0    0 -0.28499295676E+02 -0.21807993211E+01 -0.28917116462E+02  0.40659136294E+02  0.00000000000E+00 0. -1.
         11    1    3    3    0    0  0.19077480336E+02  0.45308274104E+01  0.80307219410E+01  0.21188939288E+02  0.51100000000E-03 0. -1.
        -11    1    3    3    0    0  0.68833126843E+01  0.56007451827E+01  0.18720517957E+02  0.20717290676E+02  0.51100000000E-03 0.  1.
        -12    1    3    3    0    0  0.25385026558E+01 -0.79507732721E+01  0.21658765641E+01  0.86226337420E+01  0.00000000000E+00 0.  1.
</event>
<event>
 7    1  0.2746803E-013  0.5052885E+02  0.7816164E-02  0.1300439E+00
        -11   -1    0    0    0    0  0.00000000000E+00  0.00000000000E+00  0.45593999997E+02  0.45594000000E+02  0.51100000000E-03 0.  1.
         11   -1    0    0    0    0 -0.00000000000E+00 -0.00000000000E+00 -0.45593999997E+02  0.45594000000E+02  0.51100000000E-03 0. -1.
    9900012    2    1    2    0    0  0.10265019961E+02  0.26079598850E+02  0.29455911154E+02  0.50528845891E+02  0.29999957569E+02 0.  0.
         12    1    1    2    0    0 -0.10265019961E+02 -0.26079598850E+02 -0.29455911154E+02  0.40659154109E+02  0.00000000000E+00 0. -1.
         11    1    3    3    0    0  0.52827056215E+01  0.39502349621E+01 -0.31138311471E+01  0.72943320196E+01  0.51100000000E-03 0. -1.
        -11    1    3    3    0    0 -0.13661449945E+01  0.40106432941E+01 -0.11870646197E+01  0.44000834596E+01  0.51100000000E-03 0.  1.
        -12    1    3    3    0    0  0.63484593342E+01  0.18118720593E+02  0.33756806921E+02  0.38834430411E+02  0.00000000000E+00 0.  1.
</event>
<event>
 7    1  0.2746803E-013  0.5052887E+02  0.7816164E-02  0.1300439E+00
        -11   -1    0    0    0    0  0.00000000000E+00  0.00000000000E+00  0.45593999997E+02  0.45594000000E+02  0.51100000000E-03 0.  1.
         11   -1    0    0    0    0 -0.00000000000E+00 -0.00000000000E+00 -0.45593999997E+02  0.45594000000E+02  0.51100000000E-03 0. -1.
    9900012    2    1    2    0    0  0.11998569191E+02 -0.26080974096E+02  0.28792047032E+02  0.50528870094E+02  0.30000031138E+02 0.  0.
         12    1    1    2    0    0 -0.11998569191E+02  0.26080974096E+02 -0.28792047032E+02  0.40659129906E+02  0.00000000000E+00 0. -1.
         11    1    3    3    0    0  0.56771890619E+01 -0.10564400787E+02  0.31656376042E+01  0.12403963130E+02  0.51100000000E-03 0. -1.
        -11    1    3    3    0    0  0.95131312120E+01 -0.75745838224E+01  0.26853027707E+02  0.29478111928E+02  0.51100000000E-03 0.  1.
         12    1    3    3    0    0 -0.31917510834E+01 -0.79419894874E+01 -0.12266182794E+01  0.86467950363E+01  0.00000000000E+00 0. -1.
</event>
<event>
 7    1  0.2746803E-013  0.5052883E+02  0.7816164E-02  0.1300439E+00
        -11   -1    0    0    0    0  0.00000000000E+00  0.00000000000E+00  0.45593999997E+02  0.45594000000E+02  0.51100000000E-03 0.  1.
         11   -1    0    0    0    0 -0.00000000000E+00 -0.00000000000E+00 -0.45593999997E+02  0.45594000000E+02  0.51100000000E-03 0. -1.
    9900012    2    1    2    0    0 -0.28700049987E+02  0.14586761396E+02  0.24833473091E+02  0.50528832977E+02  0.29999918317E+02 0.  0.
         12    1    1    2    0    0  0.28700049987E+02 -0.14586761396E+02 -0.24833473091E+02  0.40659167023E+02  0.00000000000E+00 0. -1.
         11    1    3    3    0    0 -0.12118898516E+01 -0.19500846416E+01  0.57069143402E+01  0.61514533786E+01  0.51100000000E-03 0. -1.
        -11    1    3    3    0    0 -0.48595554284E+01  0.13427786472E+02  0.15797083446E+02  0.21294801576E+02  0.51100000000E-03 0.  1.
        -12    1    3    3    0    0 -0.22628604706E+02  0.31090595651E+01  0.33294753045E+01  0.23082578022E+02  0.00000000000E+00 0.  1.
</event>
<event>
 7    1  0.2746803E-013  0.5052886E+02  0.7816164E-02  0.1300439E+00
        -11   -1    0    0    0    0  0.00000000000E+00  0.00000000000E+00  0.45593999997E+02  0.45594000000E+02  0.51100000000E-03 0.  1.
         11   -1    0    0    0    0 -0.00000000000E+00 -0.00000000000E+00 -0.45593999997E+02  0.45594000000E+02  0.51100000000E-03 0. -1.
    9900012    2    1    2    0    0 -0.23700646515E+01  0.19547938160E+02  0.35572833555E+02  0.50528861053E+02  0.30000003657E+02 0.  0.
         12    1    1    2    0    0  0.23700646515E+01 -0.19547938160E+02 -0.35572833555E+02  0.40659138947E+02  0.00000000000E+00 0. -1.
         11    1    3    3    0    0  0.56158786292E+01  0.21640874553E+01 -0.15782300674E+01  0.62219110970E+01  0.51100000000E-03 0. -1.
        -11    1    3    3    0    0  0.38871116876E+01  0.83380095516E+01  0.14991129061E+02  0.17588803010E+02  0.51100000000E-03 0.  1.
         12    1    3    3    0    0 -0.11873054968E+02  0.90458411532E+01  0.22159934561E+02  0.26718146946E+02  0.00000000000E+00 0. -1.
</event>
<event>
 7    1  0.2746803E-013  0.5052886E+02  0.7816164E-02  0.1300439E+00
        -11   -1    0    0    0    0  0.00000000000E+00  0.00000000000E+00  0.45593999997E+02  0.45594000000E+02  0.51100000000E-03 0.  1.
         11   -1    0    0    0    0 -0.00000000000E+00 -0.00000000000E+00 -0.45593999997E+02  0.45594000000E+02  0.51100000000E-03 0. -1.
    9900012    2    1    2    0    0  0.74328074737E+01 -0.39012799795E+02  0.87132392423E+01  0.50528859418E+02  0.29999998686E+02 0.  0.
         12    1    1    2    0    0 -0.74328074737E+01  0.39012799795E+02 -0.87132392423E+01  0.40659140582E+02  0.00000000000E+00 0. -1.
         11    1    3    3    0    0 -0.25631533811E+01 -0.86816732269E+01 -0.40565814635E+01  0.99195291574E+01  0.51100000000E-03 0. -1.
        -11    1    3    3    0    0 -0.15635398272E+01 -0.62209268407E+01  0.12294320426E+02  0.13867043757E+02  0.51100000000E-03 0.  1.
        -12    1    3    3    0    0  0.11559500682E+02 -0.24110199727E+02  0.47550027936E+00  0.26742286503E+02  0.00000000000E+00 0.  1.
</event>
<event>
 7    1  0.2746803E-013  0.5052885E+02  0.7816164E-02  0.1300439E+00
        -11   -1    0    0    0    0  0.00000000000E+00  0.00000000000E+00  0.45593999997E+02  0.45594000000E+02  0.51100000000E-03 0.  1.
         11   -1    0    0    0    0 -0.00000000000E+00 -0.00000000000E+00 -0.45593999997E+02  0.45594000000E+02  0.51100000000E-03 0. -1.
    9900012    2    1    2    0    0  0.18348705654E+02 -0.25312145535E+02  0.25995896591E+02  0.50528851579E+02  0.29999974859E+02 0.  0.
         12    1    1    2    0    0 -0.18348705654E+02  0.25312145535E+02 -0.25995896591E+02  0.40659148421E+02  0.00000000000E+00 0. -1.
         11    1    3    3    0    0  0.63645571924E-01 -0.81874965609E+01  0.82744914883E+01  0.11640719924E+02  0.51100000000E-03 0. -1.
        -11    1    3    3    0    0 -0.32121974700E+01  0.35088576460E+01  0.32606697755E+01  0.57673444679E+01  0.51100000000E-03 0.  1.
        -12    1    3    3    0    0  0.21497257552E+02 -0.20633506620E+02  0.14460735327E+02  0.33120787187E+02  0.00000000000E+00 0.  1.
</event>
<event>
 7    1  0.2746803E-013  0.5052885E+02  0.7816164E-02  0.1300439E+00
        -11   -1    0    0    0    0  0.00000000000E+00  0.00000000000E+00  0.45593999997E+02  0.45594000000E+02  0.51100000000E-03 0.  1.
         11   -1    0    0    0    0 -0.00000000000E+00 -0.00000000000E+00 -0.45593999997E+02  0.45594000000E+02  0.51100000000E-03 0. -1.
    9900012    2    1    2    0    0  0.15804263216E+02  0.36329037503E+02  0.91428971928E+01  0.50528852557E+02  0.29999977833E+02 0.  0.
         12    1    1    2    0    0 -0.15804263216E+02 -0.36329037503E+02 -0.91428971928E+01  0.40659147443E+02  0.00000000000E+00 0. -1.
         11    1    3    3    0    0 -0.28931896757E+01  0.74576408473E+01 -0.56134033260E+01  0.97722694738E+01  0.51100000000E-03 0. -1.
        -11    1    3    3    0    0  0.26855765843E+01  0.18517403648E+02  0.51574765376E+01  0.19408918671E+02  0.51100000000E-03 0.  1.
        -12    1    3    3    0    0  0.16011876307E+02  0.10353993008E+02  0.95988239812E+01  0.21347664413E+02  0.00000000000E+00 0.  1.
</event>
<event>
 7    1  0.2746803E-013  0.5052888E+02  0.7816164E-02  0.1300439E+00
        -11   -1    0    0    0    0  0.00000000000E+00  0.00000000000E+00  0.45593999997E+02  0.45594000000E+02  0.51100000000E-03 0. -1.
         11   -1    0    0    0    0 -0.00000000000E+00 -0.00000000000E+00 -0.45593999997E+02  0.45594000000E+02  0.51100000000E-03 0.  1.
    9900012    2    1    2    0    0 -0.20586301470E+02 -0.21570978160E+02 -0.27641654633E+02  0.50528880754E+02  0.30000063541E+02 0.  0.
         12    1    1    2    0    0  0.20586301470E+02  0.21570978160E+02  0.27641654633E+02  0.40659119246E+02  0.00000000000E+00 0. -1.
         11    1    3    3    0    0 -0.13828316642E+02 -0.12694118323E+00 -0.17568471431E+02  0.22358212001E+02  0.51100000000E-03 0. -1.
        -11    1    3    3    0    0  0.38114833875E+01 -0.60792592645E+01 -0.46095266015E+00  0.71900818100E+01  0.51100000000E-03 0.  1.
        -12    1    3    3    0    0 -0.10569468215E+02 -0.15364777712E+02 -0.96122305420E+01  0.20980586943E+02  0.00000000000E+00 0.  1.
</event>
<event>
 7    1  0.2746803E-013  0.5052889E+02  0.7816164E-02  0.1300439E+00
        -11   -1    0    0    0    0  0.00000000000E+00  0.00000000000E+00  0.45593999997E+02  0.45594000000E+02  0.51100000000E-03 0.  1.
         11   -1    0    0    0    0 -0.00000000000E+00 -0.00000000000E+00 -0.45593999997E+02  0.45594000000E+02  0.51100000000E-03 0. -1.
    9900012    2    1    2    0    0  0.18626114768E+02 -0.10783890872E+02  0.34495484584E+02  0.50528893881E+02  0.30000103440E+02 0.  0.
         12    1    1    2    0    0 -0.18626114768E+02  0.10783890872E+02 -0.34495484584E+02  0.40659106119E+02  0.00000000000E+00 0. -1.
         11    1    3    3    0    0  0.28605952644E+01  0.40873243560E+00  0.24743841906E+02  0.24912000722E+02  0.51100000000E-03 0. -1.
        -11    1    3    3    0    0  0.93719935765E+01 -0.43919298371E+01  0.12168565010E+02  0.15974895491E+02  0.51100000000E-03 0.  1.
         12    1    3    3    0    0  0.63935259270E+01 -0.68006934708E+01 -0.24169223312E+01  0.96419976674E+01  0.00000000000E+00 0. -1.
</event>
<event>
 7    1  0.2746803E-013  0.5052886E+02  0.7816164E-02  0.1300439E+00
        -11   -1    0    0    0    0  0.00000000000E+00  0.00000000000E+00  0.45593999997E+02  0.45594000000E+02  0.51100000000E-03 0.  1.
         11   -1    0    0    0    0 -0.00000000000E+00 -0.00000000000E+00 -0.45593999997E+02  0.45594000000E+02  0.51100000000E-03 0. -1.
    9900012    2    1    2    0    0 -0.10867440063E+02 -0.31288844354E+01  0.39054763119E+02  0.50528859654E+02  0.29999999406E+02 0.  0.
         12    1    1    2    0    0  0.10867440063E+02  0.31288844354E+01 -0.39054763119E+02  0.40659140346E+02  0.00000000000E+00 0. -1.
         11    1    3    3    0    0  0.44808395656E+01  0.33380106784E+01  0.44805745525E+01  0.71621077263E+01  0.51100000000E-03 0. -1.
        -11    1    3    3    0    0 -0.11021424658E+00 -0.53640392412E+01  0.24466625051E+02  0.25047970094E+02  0.51100000000E-03 0.  1.
        -12    1    3    3    0    0 -0.15238065383E+02 -0.11028558726E+01  0.10107563516E+02  0.18318781834E+02  0.00000000000E+00 0.  1.
</event>
<event>
 7    1  0.2746803E-013  0.5052887E+02  0.7816164E-02  0.1300439E+00
        -11   -1    0    0    0    0  0.00000000000E+00  0.00000000000E+00  0.45593999997E+02  0.45594000000E+02  0.51100000000E-03 0.  1.
         11   -1    0    0    0    0 -0.00000000000E+00 -0.00000000000E+00 -0.45593999997E+02  0.45594000000E+02  0.51100000000E-03 0. -1.
    9900012    2    1    2    0    0 -0.36143181362E+02 -0.16392761771E+02  0.88381444072E+01  0.50528868258E+02  0.30000025557E+02 0.  0.
         12    1    1    2    0    0  0.36143181362E+02  0.16392761771E+02 -0.88381444072E+01  0.40659131742E+02  0.00000000000E+00 0. -1.
         11    1    3    3    0    0 -0.27465169569E+00  0.28741674847E+00 -0.24369694482E+01  0.24691825153E+01  0.51100000000E-03 0. -1.
        -11    1    3    3    0    0 -0.25989438822E+01 -0.10871497727E+02  0.87449431287E+01  0.14192181041E+02  0.51100000000E-03 0.  1.
         12    1    3    3    0    0 -0.33269585784E+02 -0.58086807929E+01  0.25301707268E+01  0.33867504701E+02  0.00000000000E+00 0. -1.
</event>
<event>
 7    1  0.2746803E-013  0.5052886E+02  0.7816164E-02  0.1300439E+00
        -11   -1    0    0    0    0  0.00000000000E+00  0.00000000000E+00  0.45593999997E+02  0.45594000000E+02  0.51100000000E-03 0. -1.
         11   -1    0    0    0    0 -0.00000000000E+00 -0.00000000000E+00 -0.45593999997E+02  0.45594000000E+02  0.51100000000E-03 0.  1.
    9900012    2    1    2    0    0 -0.14103361496E+02 -0.12662069613E+02 -0.35971280930E+02  0.50528857558E+02  0.29999993034E+02 0.  0.
         12    1    1    2    0    0  0.14103361496E+02  0.12662069613E+02  0.35971280930E+02  0.40659142442E+02  0.00000000000E+00 0. -1.
         11    1    3    3    0    0  0.34462100133E+01 -0.33635012980E+01 -0.38117050588E+01  0.61415470489E+01  0.51100000000E-03 0. -1.
        -11    1    3    3    0    0  0.29468440859E+01 -0.89493761008E+01 -0.14699737533E+02  0.17460169142E+02  0.51100000000E-03 0.  1.
         12    1    3    3    0    0 -0.20496415595E+02 -0.34919221382E+00 -0.17459838338E+02  0.26927141368E+02  0.00000000000E+00 0. -1.
</event>
<event>
 7    1  0.2746803E-013  0.5052886E+02  0.7816164E-02  0.1300439E+00
        -11   -1    0    0    0    0  0.00000000000E+00  0.00000000000E+00  0.45593999997E+02  0.45594000000E+02  0.51100000000E-03 0.  1.
         11   -1    0    0    0    0 -0.00000000000E+00 -0.00000000000E+00 -0.45593999997E+02  0.45594000000E+02  0.51100000000E-03 0. -1.
    9900012    2    1    2    0    0  0.39843868559E+02 -0.47168779441E+01 -0.65865522410E+01  0.50528862408E+02  0.30000007777E+02 0.  0.
         12    1    1    2    0    0 -0.39843868559E+02  0.47168779441E+01  0.65865522410E+01  0.40659137592E+02  0.00000000000E+00 0. -1.
         11    1    3    3    0    0  0.59090841910E+00  0.23423452333E+01 -0.21493444312E+01  0.32334866162E+01  0.51100000000E-03 0. -1.
        -11    1    3    3    0    0  0.23174301096E+02 -0.10286951553E+02 -0.13324268531E+02  0.28642725703E+02  0.51100000000E-03 0.  1.
         12    1    3    3    0    0  0.16078659043E+02  0.32277283753E+01  0.88870607211E+01  0.18652650089E+02  0.00000000000E+00 0. -1.
</event>
<event>
 7    1  0.2746803E-013  0.5052886E+02  0.7816164E-02  0.1300439E+00
        -11   -1    0    0    0    0  0.00000000000E+00  0.00000000000E+00  0.45593999997E+02  0.45594000000E+02  0.51100000000E-03 0.  1.
         11   -1    0    0    0    0 -0.00000000000E+00 -0.00000000000E+00 -0.45593999997E+02  0.45594000000E+02  0.51100000000E-03 0. -1.
    9900012    2    1    2    0    0  0.44964324212E+01 -0.13391643867E+02  0.38126257664E+02  0.50528861378E+02  0.30000004645E+02 0.  0.
         12    1    1    2    0    0 -0.44964324212E+01  0.13391643867E+02 -0.38126257664E+02  0.40659138622E+02  0.00000000000E+00 0. -1.
         11    1    3    3    0    0  0.45449427170E+01  0.42538424579E+01  0.22998181582E+01  0.66363275823E+01  0.51100000000E-03 0. -1.
        -11    1    3    3    0    0  0.16132135640E+01 -0.14721958556E+02  0.10050947698E+02  0.17898605298E+02  0.51100000000E-03 0.  1.
         12    1    3    3    0    0 -0.16617238598E+01 -0.29235277692E+01  0.25775491809E+02  0.25993928498E+02  0.00000000000E+00 0. -1.
</event>
<event>
 7    1  0.2746803E-013  0.5052884E+02  0.7816164E-02  0.1300439E+00
        -11   -1    0    0    0    0  0.00000000000E+00  0.00000000000E+00  0.45593999997E+02  0.45594000000E+02  0.51100000000E-03 0.  1.
         11   -1    0    0    0    0 -0.00000000000E+00 -0.00000000000E+00 -0.45593999997E+02  0.45594000000E+02  0.51100000000E-03 0. -1.
    9900012    2    1    2    0    0 -0.89040468908E+01  0.39572974053E+02  0.28044397977E+01  0.50528841019E+02  0.29999942761E+02 0.  0.
         12    1    1    2    0    0  0.89040468908E+01 -0.39572974053E+02 -0.28044397977E+01  0.40659158981E+02  0.00000000000E+00 0. -1.
         11    1    3    3    0    0  0.69459450261E+01  0.63060643634E+01 -0.62490502267E+01  0.11272232656E+02  0.51100000000E-03 0. -1.
        -11    1    3    3    0    0 -0.87410712833E+00  0.29956719464E+01  0.40531865648E+01  0.51153137999E+01  0.51100000000E-03 0.  1.
         12    1    3    3    0    0 -0.14975884789E+02  0.30271237744E+02  0.50003034597E+01  0.34141294563E+02  0.00000000000E+00 0. -1.
</event>
<event>
 7    1  0.2746803E-013  0.5052884E+02  0.7816164E-02  0.1300439E+00
        -11   -1    0    0    0    0  0.00000000000E+00  0.00000000000E+00  0.45593999997E+02  0.45594000000E+02  0.51100000000E-03 0. -1.
         11   -1    0    0    0    0 -0.00000000000E+00 -0.00000000000E+00 -0.45593999997E+02  0.45594000000E+02  0.51100000000E-03 0.  1.
    9900012    2    1    2    0    0 -0.29060463708E+02  0.22773834911E+02  0.17029655631E+02  0.50528840166E+02  0.29999940169E+02 0.  0.
         12    1    1    2    0    0  0.29060463708E+02 -0.22773834911E+02 -0.17029655631E+02  0.40659159834E+02  0.00000000000E+00 0. -1.
         11    1    3    3    0    0  0.10335622802E+01  0.14794562653E+01  0.36565355795E+01  0.40776579716E+01  0.51100000000E-03 0. -1.
        -11    1    3    3    0    0 -0.51218163716E+01  0.13475727529E+02 -0.40977634730E+01  0.14987324682E+02  0.51100000000E-03 0.  1.
        -12    1    3    3    0    0 -0.24972209617E+02  0.78186511163E+01  0.17470883524E+02  0.31463857512E+02  0.00000000000E+00 0.  1.
</event>
<event>
 7    1  0.2746803E-013  0.5052886E+02  0.7816164E-02  0.1300439E+00
        -11   -1    0    0    0    0  0.00000000000E+00  0.00000000000E+00  0.45593999997E+02  0.45594000000E+02  0.51100000000E-03 0.  1.
         11   -1    0    0    0    0 -0.00000000000E+00 -0.00000000000E+00 -0.45593999997E+02  0.45594000000E+02  0.51100000000E-03 0. -1.
    9900012    2    1    2    0    0 -0.11289295732E+02  0.33685679032E+02  0.19773529631E+02  0.50528860264E+02  0.30000001259E+02 0.  0.
         12    1    1    2    0    0  0.11289295732E+02 -0.33685679032E+02 -0.19773529631E+02  0.40659139736E+02  0.00000000000E+00 0. -1.
         11    1    3    3    0    0 -0.10608728547E+02  0.96669567348E+01  0.19106331848E+01  0.14479146844E+02  0.51100000000E-03 0. -1.
        -11    1    3    3    0    0  0.76890712401E+01  0.24201930546E+01  0.34498529240E+01  0.87681603780E+01  0.51100000000E-03 0.  1.
         12    1    3    3    0    0 -0.83696384248E+01  0.21598529243E+02  0.14413043522E+02  0.27281553042E+02  0.00000000000E+00 0. -1.
</event>
<event>
 7    1  0.2746803E-013  0.5052879E+02  0.7816164E-02  0.1300439E+00
        -11   -1    0    0    0    0  0.00000000000E+00  0.00000000000E+00  0.45593999997E+02  0.45594000000E+02  0.51100000000E-03 0. -1.
         11   -1    0    0    0    0 -0.00000000000E+00 -0.00000000000E+00 -0.45593999997E+02  0.45594000000E+02  0.51100000000E-03 0.  1.
    9900012    2    1    2    0    0 -0.24853289898E+02 -0.24838941764E+02 -0.20457570647E+02  0.50528791407E+02  0.29999791959E+02 0.  0.
         12    1    1    2    0    0  0.24853289898E+02  0.24838941764E+02  0.20457570647E+02  0.40659208593E+02  0.00000000000E+00 0. -1.
         11    1    3    3    0    0 -0.18548087805E+01 -0.11713187187E+02  0.43294398627E+01  0.12624702748E+02  0.51100000000E-03 0. -1.
        -11    1    3    3    0    0 -0.39653337207E+01  0.14153680884E+01 -0.14240466768E+01  0.44446650652E+01  0.51100000000E-03 0.  1.
        -12    1    3    3    0    0 -0.19033147396E+02 -0.14541122665E+02 -0.23362963833E+02  0.33459423594E+02  0.00000000000E+00 0.  1.
</event>
<event>
 7    1  0.2746803E-013  0.5052885E+02  0.7816164E-02  0.1300439E+00
        -11   -1    0    0    0    0  0.00000000000E+00  0.00000000000E+00  0.45593999997E+02  0.45594000000E+02  0.51100000000E-03 0. -1.
         11   -1    0    0    0    0 -0.00000000000E+00 -0.00000000000E+00 -0.45593999997E+02  0.45594000000E+02  0.51100000000E-03 0.  1.
    9900012    2    1    2    0    0 -0.56511486428E+01 -0.39699783514E+02 -0.67199599708E+01  0.50528853993E+02  0.29999982197E+02 0.  0.
         12    1    1    2    0    0  0.56511486428E+01  0.39699783514E+02  0.67199599708E+01  0.40659146007E+02  0.00000000000E+00 0. -1.
         11    1    3    3    0    0 -0.13350631919E+01 -0.12277501450E+02 -0.14912370897E+02  0.19362289162E+02  0.51100000000E-03 0. -1.
        -11    1    3    3    0    0  0.31585756658E+01 -0.16710994050E+02  0.44462521946E+01  0.17578483473E+02  0.51100000000E-03 0.  1.
        -12    1    3    3    0    0 -0.74746611167E+01 -0.10711288014E+02  0.37461587316E+01  0.13588081357E+02  0.00000000000E+00 0.  1.
</event>
<event>
 7    1  0.2746803E-013  0.5052885E+02  0.7816164E-02  0.1300439E+00
        -11   -1    0    0    0    0  0.00000000000E+00  0.00000000000E+00  0.45593999997E+02  0.45594000000E+02  0.51100000000E-03 0. -1.
         11   -1    0    0    0    0 -0.00000000000E+00 -0.00000000000E+00 -0.45593999997E+02  0.45594000000E+02  0.51100000000E-03 0.  1.
    9900012    2    1    2    0    0 -0.25901471780E+01  0.34113926674E+02 -0.21970371359E+02  0.50528854987E+02  0.29999985218E+02 0.  0.
         12    1    1    2    0    0  0.25901471780E+01 -0.34113926674E+02  0.21970371359E+02  0.40659145013E+02  0.00000000000E+00 0. -1.
         11    1    3    3    0    0  0.18304855685E+01  0.79404131874E+01  0.67478326950E+01  0.10579890611E+02  0.51100000000E-03 0. -1.
        -11    1    3    3    0    0 -0.28946983806E+01  0.14456754148E+02 -0.10005817723E+02  0.17818344698E+02  0.51100000000E-03 0.  1.
        -12    1    3    3    0    0 -0.15259343660E+01  0.11716759339E+02 -0.18712386331E+02  0.22130619678E+02  0.00000000000E+00 0.  1.
</event>
<event>
 7    1  0.2746803E-013  0.5052886E+02  0.7816164E-02  0.1300439E+00
        -11   -1    0    0    0    0  0.00000000000E+00  0.00000000000E+00  0.45593999997E+02  0.45594000000E+02  0.51100000000E-03 0.  1.
         11   -1    0    0    0    0 -0.00000000000E+00 -0.00000000000E+00 -0.45593999997E+02  0.45594000000E+02  0.51100000000E-03 0. -1.
    9900012    2    1    2    0    0  0.17434945701E+02  0.70797923706E+01  0.36042541885E+02  0.50528860595E+02  0.30000002265E+02 0.  0.
         12    1    1    2    0    0 -0.17434945701E+02 -0.70797923706E+01 -0.36042541885E+02  0.40659139405E+02  0.00000000000E+00 0. -1.
         11    1    3    3    0    0  0.19018332224E+02  0.62635747994E+01  0.12849200543E+02  0.23791411995E+02  0.51100000000E-03 0. -1.
        -11    1    3    3    0    0  0.31072182343E+01 -0.37007629037E+00  0.21321165751E+02  0.21549567765E+02  0.51100000000E-03 0.  1.
        -12    1    3    3    0    0 -0.46906047574E+01  0.11862938616E+01  0.18721755911E+01  0.51878808352E+01  0.00000000000E+00 0.  1.
</event>
<event>
 7    1  0.2746803E-013  0.5052884E+02  0.7816164E-02  0.1300439E+00
        -11   -1    0    0    0    0  0.00000000000E+00  0.00000000000E+00  0.45593999997E+02  0.45594000000E+02  0.51100000000E-03 0.  1.
         11   -1    0    0    0    0 -0.00000000000E+00 -0.00000000000E+00 -0.45593999997E+02  0.45594000000E+02  0.51100000000E-03 0. -1.
    9900012    2    1    2    0    0  0.16532838791E+02  0.33693377964E+02  0.15639333884E+02  0.50528840621E+02  0.29999941551E+02 0.  0.
         12    1    1    2    0    0 -0.16532838791E+02 -0.33693377964E+02 -0.15639333884E+02  0.40659159379E+02  0.00000000000E+00 0. -1.
         11    1    3    3    0    0 -0.52916686859E+00 -0.10563192031E+01  0.29067927703E+01  0.31377176904E+01  0.51100000000E-03 0. -1.
        -11    1    3    3    0    0 -0.49257621411E+01  0.13660265524E+02  0.41093533987E+00  0.14527038755E+02  0.51100000000E-03 0.  1.
        -12    1    3    3    0    0  0.21987767801E+02  0.21089431643E+02  0.12321605773E+02  0.32864084176E+02  0.00000000000E+00 0.  1.
</event>
<event>
 7    1  0.2746803E-013  0.5052887E+02  0.7816164E-02  0.1300439E+00
        -11   -1    0    0    0    0  0.00000000000E+00  0.00000000000E+00  0.45593999997E+02  0.45594000000E+02  0.51100000000E-03 0.  1.
         11   -1    0    0    0    0 -0.00000000000E+00 -0.00000000000E+00 -0.45593999997E+02  0.45594000000E+02  0.51100000000E-03 0. -1.
    9900012    2    1    2    0    0  0.35527205052E+02 -0.12477056019E+02  0.15339677310E+02  0.50528869098E+02  0.30000028111E+02 0.  0.
         12    1    1    2    0    0 -0.35527205052E+02  0.12477056019E+02 -0.15339677310E+02  0.40659130902E+02  0.00000000000E+00 0. -1.
         11    1    3    3    0    0  0.33472549354E+01 -0.77344390524E+01 -0.32373443296E+01  0.90280707589E+01  0.51100000000E-03 0.  1.
        -11    1    3    3    0    0  0.64435245314E+01  0.56364080856E+01  0.92221919289E+00  0.86103770530E+01  0.51100000000E-03 0. -1.
        -12    1    3    3    0    0  0.25736425586E+02 -0.10379025052E+02  0.17654802446E+02  0.32890421286E+02  0.00000000000E+00 0.  1.
</event>
<event>
 7    1  0.2746803E-013  0.5052886E+02  0.7816164E-02  0.1300439E+00
        -11   -1    0    0    0    0  0.00000000000E+00  0.00000000000E+00  0.45593999997E+02  0.45594000000E+02  0.51100000000E-03 0.  1.
         11   -1    0    0    0    0 -0.00000000000E+00 -0.00000000000E+00 -0.45593999997E+02  0.45594000000E+02  0.51100000000E-03 0. -1.
    9900012    2    1    2    0    0  0.27090064668E+02 -0.30311399747E+02  0.71621239718E+00  0.50528861808E+02  0.30000005951E+02 0.  0.
         12    1    1    2    0    0 -0.27090064668E+02  0.30311399747E+02 -0.71621239718E+00  0.40659138192E+02  0.00000000000E+00 0. -1.
         11    1    3    3    0    0  0.32688591085E+01 -0.80514046659E+01  0.30172577153E+01  0.91986086637E+01  0.51100000000E-03 0.  1.
        -11    1    3    3    0    0 -0.40876213375E+01  0.15168585385E+01  0.11361533666E+01  0.45055912773E+01  0.51100000000E-03 0. -1.
         12    1    3    3    0    0  0.27908826896E+02 -0.23776853620E+02 -0.34371986847E+01  0.36824661867E+02  0.00000000000E+00 0. -1.
</event>
<event>
 7    1  0.2746803E-013  0.5052888E+02  0.7816164E-02  0.1300439E+00
        -11   -1    0    0    0    0  0.00000000000E+00  0.00000000000E+00  0.45593999997E+02  0.45594000000E+02  0.51100000000E-03 0. -1.
         11   -1    0    0    0    0 -0.00000000000E+00 -0.00000000000E+00 -0.45593999997E+02  0.45594000000E+02  0.51100000000E-03 0.  1.
    9900012    2    1    2    0    0  0.31683252676E+02 -0.25325286330E+02 -0.28223270563E+01  0.50528878540E+02  0.30000056811E+02 0.  0.
         12    1    1    2    0    0 -0.31683252676E+02  0.25325286330E+02  0.28223270563E+01  0.40659121460E+02  0.00000000000E+00 0. -1.
         11    1    3    3    0    0 -0.34100672257E+01  0.21200664853E+01  0.15683745400E+01  0.43108049533E+01  0.51100000000E-03 0. -1.
        -11    1    3    3    0    0  0.44907670505E+01 -0.94862800320E+01 -0.29767199573E+00  0.10499766970E+02  0.51100000000E-03 0.  1.
        -12    1    3    3    0    0  0.30602552851E+02 -0.17959072784E+02 -0.40930296006E+01  0.35718306617E+02  0.00000000000E+00 0.  1.
</event>
<event>
 7    1  0.2746803E-013  0.5052879E+02  0.7816164E-02  0.1300439E+00
        -11   -1    0    0    0    0  0.00000000000E+00  0.00000000000E+00  0.45593999997E+02  0.45594000000E+02  0.51100000000E-03 0.  1.
         11   -1    0    0    0    0 -0.00000000000E+00 -0.00000000000E+00 -0.45593999997E+02  0.45594000000E+02  0.51100000000E-03 0. -1.
    9900012    2    1    2    0    0  0.23605552347E+01  0.21052121523E+02  0.34704567891E+02  0.50528793488E+02  0.29999798287E+02 0.  0.
         12    1    1    2    0    0 -0.23605552347E+01 -0.21052121523E+02 -0.34704567891E+02  0.40659206512E+02  0.00000000000E+00 0. -1.
         11    1    3    3    0    0 -0.73294861700E+01  0.12802717928E+02  0.89125089974E+01  0.17235538017E+02  0.51100000000E-03 0. -1.
        -11    1    3    3    0    0  0.16047329483E+01 -0.35988574872E+01  0.14534160782E+02  0.15058843679E+02  0.51100000000E-03 0.  1.
        -12    1    3    3    0    0  0.80853084563E+01  0.11848261082E+02  0.11257898112E+02  0.18234411792E+02  0.00000000000E+00 0.  1.
</event>
<event>
 7    1  0.2746803E-013  0.5052886E+02  0.7816164E-02  0.1300439E+00
        -11   -1    0    0    0    0  0.00000000000E+00  0.00000000000E+00  0.45593999997E+02  0.45594000000E+02  0.51100000000E-03 0.  1.
         11   -1    0    0    0    0 -0.00000000000E+00 -0.00000000000E+00 -0.45593999997E+02  0.45594000000E+02  0.51100000000E-03 0. -1.
    9900012    2    1    2    0    0 -0.16878638168E+02 -0.26344690477E+02  0.25966025906E+02  0.50528860264E+02  0.30000001258E+02 0.  0.
         12    1    1    2    0    0  0.16878638168E+02  0.26344690477E+02 -0.25966025906E+02  0.40659139736E+02  0.00000000000E+00 0. -1.
         11    1    3    3    0    0  0.17298263422E+01 -0.14557767991E+02  0.18537416283E+01  0.14776916672E+02  0.51100000000E-03 0. -1.
        -11    1    3    3    0    0 -0.13159341495E+02 -0.42436931462E+01  0.53816040457E+01  0.14837077289E+02  0.51100000000E-03 0.  1.
        -12    1    3    3    0    0 -0.54491230148E+01 -0.75432293399E+01  0.18730680232E+02  0.20914866303E+02  0.00000000000E+00 0.  1.
</event>
<event>
 7    1  0.2746803E-013  0.5052887E+02  0.7816164E-02  0.1300439E+00
        -11   -1    0    0    0    0  0.00000000000E+00  0.00000000000E+00  0.45593999997E+02  0.45594000000E+02  0.51100000000E-03 0.  1.
         11   -1    0    0    0    0 -0.00000000000E+00 -0.00000000000E+00 -0.45593999997E+02  0.45594000000E+02  0.51100000000E-03 0. -1.
    9900012    2    1    2    0    0 -0.15736355395E+02 -0.90707797275E+01  0.36376547563E+02  0.50528866480E+02  0.30000020154E+02 0.  0.
         12    1    1    2    0    0  0.15736355395E+02  0.90707797275E+01 -0.36376547563E+02  0.40659133520E+02  0.00000000000E+00 0. -1.
         11    1    3    3    0    0 -0.53597855392E+01 -0.10048049147E+02  0.35269786184E+01  0.11921835896E+02  0.51100000000E-03 0. -1.
        -11    1    3    3    0    0  0.36862802236E+01  0.10248376567E+01  0.12593435476E+01  0.40280144664E+01  0.51100000000E-03 0.  1.
        -12    1    3    3    0    0 -0.14062850079E+02 -0.47568237086E-01  0.31590225397E+02  0.34579016118E+02  0.00000000000E+00 0.  1.
</event>
<event>
 7    1  0.2746803E-013  0.5052886E+02  0.7816164E-02  0.1300439E+00
        -11   -1    0    0    0    0  0.00000000000E+00  0.00000000000E+00  0.45593999997E+02  0.45594000000E+02  0.51100000000E-03 0. -1.
         11   -1    0    0    0    0 -0.00000000000E+00 -0.00000000000E+00 -0.45593999997E+02  0.45594000000E+02  0.51100000000E-03 0.  1.
    9900012    2    1    2    0    0  0.22368045698E+02 -0.23993899284E+02 -0.24023504261E+02  0.50528862919E+02  0.30000009330E+02 0.  0.
         12    1    1    2    0    0 -0.22368045698E+02  0.23993899284E+02  0.24023504261E+02  0.40659137081E+02  0.00000000000E+00 0. -1.
         11    1    3    3    0    0  0.16961263538E+01 -0.47109860344E+01  0.11885976603E+01  0.51461634917E+01  0.51100000000E-03 0. -1.
        -11    1    3    3    0    0 -0.38910868747E+01 -0.21869378088E+01 -0.11746554259E+02  0.12566017319E+02  0.51100000000E-03 0.  1.
        -12    1    3    3    0    0  0.24563006219E+02 -0.17095975440E+02 -0.13465547662E+02  0.32816682108E+02  0.00000000000E+00 0.  1.
</event>
<event>
 7    1  0.2746803E-013  0.5052886E+02  0.7816164E-02  0.1300439E+00
        -11   -1    0    0    0    0  0.00000000000E+00  0.00000000000E+00  0.45593999997E+02  0.45594000000E+02  0.51100000000E-03 0. -1.
         11   -1    0    0    0    0 -0.00000000000E+00 -0.00000000000E+00 -0.45593999997E+02  0.45594000000E+02  0.51100000000E-03 0.  1.
    9900012    2    1    2    0    0 -0.56657463419E+01  0.44129441921E+01 -0.40019884550E+02  0.50528856902E+02  0.29999991039E+02 0.  0.
         12    1    1    2    0    0  0.56657463419E+01 -0.44129441921E+01  0.40019884550E+02  0.40659143098E+02  0.00000000000E+00 0. -1.
         11    1    3    3    0    0  0.38758213156E+01  0.31939181445E+01  0.22825223536E+01  0.55166124152E+01  0.51100000000E-03 0.  1.
        -11    1    3    3    0    0 -0.87704981274E+01  0.30750686515E-01 -0.13037172253E+02  0.15712747806E+02  0.51100000000E-03 0. -1.
        -12    1    3    3    0    0 -0.77106953006E+00  0.11882753610E+01 -0.29265234651E+02  0.29299496680E+02  0.00000000000E+00 0.  1.
</event>
<event>
 7    1  0.2746803E-013  0.5052886E+02  0.7816164E-02  0.1300439E+00
        -11   -1    0    0    0    0  0.00000000000E+00  0.00000000000E+00  0.45593999997E+02  0.45594000000E+02  0.51100000000E-03 0. -1.
         11   -1    0    0    0    0 -0.00000000000E+00 -0.00000000000E+00 -0.45593999997E+02  0.45594000000E+02  0.51100000000E-03 0.  1.
    9900012    2    1    2    0    0  0.24959666679E+02 -0.11518912038E+02 -0.29958229461E+02  0.50528858252E+02  0.29999995142E+02 0.  0.
         12    1    1    2    0    0 -0.24959666679E+02  0.11518912038E+02  0.29958229461E+02  0.40659141748E+02  0.00000000000E+00 0. -1.
         11    1    3    3    0    0  0.94232770912E+01 -0.22638756820E+00 -0.18164858612E+02  0.20464884342E+02  0.51100000000E-03 0.  1.
        -11    1    3    3    0    0  0.11389131053E+02 -0.17378645442E+01 -0.15229120778E+02  0.19096036218E+02  0.51100000000E-03 0. -1.
        -12    1    3    3    0    0  0.41472585339E+01 -0.95546599254E+01  0.34357499284E+01  0.10967937692E+02  0.00000000000E+00 0.  1.
</event>
<event>
 7    1  0.2746803E-013  0.5052886E+02  0.7816164E-02  0.1300439E+00
        -11   -1    0    0    0    0  0.00000000000E+00  0.00000000000E+00  0.45593999997E+02  0.45594000000E+02  0.51100000000E-03 0.  1.
         11   -1    0    0    0    0 -0.00000000000E+00 -0.00000000000E+00 -0.45593999997E+02  0.45594000000E+02  0.51100000000E-03 0. -1.
    9900012    2    1    2    0    0 -0.28319995315E+02  0.23149315858E+02  0.17755354291E+02  0.50528861232E+02  0.30000004202E+02 0.  0.
         12    1    1    2    0    0  0.28319995315E+02 -0.23149315858E+02 -0.17755354291E+02  0.40659138768E+02  0.00000000000E+00 0. -1.
         11    1    3    3    0    0 -0.13689294846E+02  0.11413957249E+02  0.20070971238E+01  0.17936099146E+02  0.51100000000E-03 0.  1.
        -11    1    3    3    0    0 -0.10220692552E+02  0.81292070506E+00  0.17890691143E+02  0.20620383753E+02  0.51100000000E-03 0. -1.
         12    1    3    3    0    0 -0.44100079167E+01  0.10922437904E+02 -0.21424339756E+01  0.11972378333E+02  0.00000000000E+00 0. -1.
</event>
<event>
 7    1  0.2746803E-013  0.5052886E+02  0.7816164E-02  0.1300439E+00
        -11   -1    0    0    0    0  0.00000000000E+00  0.00000000000E+00  0.45593999997E+02  0.45594000000E+02  0.51100000000E-03 0. -1.
         11   -1    0    0    0    0 -0.00000000000E+00 -0.00000000000E+00 -0.45593999997E+02  0.45594000000E+02  0.51100000000E-03 0.  1.
    9900012    2    1    2    0    0 -0.30733542230E+02  0.24067557413E+02 -0.11373978295E+02  0.50528864248E+02  0.30000013367E+02 0.  0.
         12    1    1    2    0    0  0.30733542230E+02 -0.24067557413E+02  0.11373978295E+02  0.40659135752E+02  0.00000000000E+00 0. -1.
         11    1    3    3    0    0  0.13373950859E+01 -0.21956159535E+01 -0.21664937617E+01  0.33620009684E+01  0.51100000000E-03 0. -1.
        -11    1    3    3    0    0  0.14396442900E+01 -0.19639956872E+01 -0.27220309445E+00  0.24502958040E+01  0.51100000000E-03 0.  1.
        -12    1    3    3    0    0 -0.33510581606E+02  0.28227169054E+02 -0.89352814392E+01  0.44716567475E+02  0.00000000000E+00 0.  1.
</event>
<event>
 7    1  0.2746803E-013  0.5052886E+02  0.7816164E-02  0.1300439E+00
        -11   -1    0    0    0    0  0.00000000000E+00  0.00000000000E+00  0.45593999997E+02  0.45594000000E+02  0.51100000000E-03 0. -1.
         11   -1    0    0    0    0 -0.00000000000E+00 -0.00000000000E+00 -0.45593999997E+02  0.45594000000E+02  0.51100000000E-03 0.  1.
    9900012    2    1    2    0    0 -0.19449257599E+02  0.32203074305E+02 -0.15422515286E+02  0.50528860884E+02  0.30000003144E+02 0.  0.
         12    1    1    2    0    0  0.19449257599E+02 -0.32203074305E+02  0.15422515286E+02  0.40659139116E+02  0.00000000000E+00 0. -1.
         11    1    3    3    0    0 -0.47805541504E+01  0.80638894642E+01 -0.82253721576E+01  0.12471437715E+02  0.51100000000E-03 0.  1.
        -11    1    3    3    0    0 -0.82338053550E+01  0.14608622530E+01  0.66796866679E+01  0.10702704489E+02  0.51100000000E-03 0. -1.
         12    1    3    3    0    0 -0.64348980940E+01  0.22678322588E+02 -0.13876829797E+02  0.27354718680E+02  0.00000000000E+00 0. -1.
</event>
<event>
 7    1  0.2746803E-013  0.5052888E+02  0.7816164E-02  0.1300439E+00
        -11   -1    0    0    0    0  0.00000000000E+00  0.00000000000E+00  0.45593999997E+02  0.45594000000E+02  0.51100000000E-03 0. -1.
         11   -1    0    0    0    0 -0.00000000000E+00 -0.00000000000E+00 -0.45593999997E+02  0.45594000000E+02  0.51100000000E-03 0.  1.
    9900012    2    1    2    0    0 -0.26994639181E+01  0.43374803706E+01 -0.40336873812E+02  0.50528877650E+02  0.30000054103E+02 0.  0.
         12    1    1    2    0    0  0.26994639181E+01 -0.43374803706E+01  0.40336873812E+02  0.40659122350E+02  0.00000000000E+00 0. -1.
         11    1    3    3    0    0 -0.81761405137E+01 -0.45202689348E+01 -0.12971800279E+02  0.15985922172E+02  0.51100000000E-03 0. -1.
        -11    1    3    3    0    0  0.38090057556E+01 -0.53145432332E+01 -0.11298893831E+02  0.13054420580E+02  0.51100000000E-03 0.  1.
        -12    1    3    3    0    0  0.16676708400E+01  0.14172292539E+02 -0.16066179702E+02  0.21488534898E+02  0.00000000000E+00 0.  1.
</event>
<event>
 7    1  0.2746803E-013  0.5052887E+02  0.7816164E-02  0.1300439E+00
        -11   -1    0    0    0    0  0.00000000000E+00  0.00000000000E+00  0.45593999997E+02  0.45594000000E+02  0.51100000000E-03 0.  1.
         11   -1    0    0    0    0 -0.00000000000E+00 -0.00000000000E+00 -0.45593999997E+02  0.45594000000E+02  0.51100000000E-03 0. -1.
    9900012    2    1    2    0    0  0.32816407919E+02 -0.15968918409E+02 -0.17923222840E+02  0.50528869404E+02  0.30000029039E+02 0.  0.
         12    1    1    2    0    0 -0.32816407919E+02  0.15968918409E+02  0.17923222840E+02  0.40659130596E+02  0.00000000000E+00 0. -1.
         11    1    3    3    0    0  0.15245871527E+01  0.13355885209E+01 -0.11808544867E+02  0.11981230939E+02  0.51100000000E-03 0. -1.
        -11    1    3    3    0    0  0.12434827963E+02 -0.15648017972E+01 -0.62049417431E+01  0.13984807951E+02  0.51100000000E-03 0.  1.
        -12    1    3    3    0    0  0.18856992804E+02 -0.15739705133E+02  0.90263770215E-01  0.24562830513E+02  0.00000000000E+00 0.  1.
</event>
<event>
 7    1  0.2746803E-013  0.5052888E+02  0.7816164E-02  0.1300439E+00
        -11   -1    0    0    0    0  0.00000000000E+00  0.00000000000E+00  0.45593999997E+02  0.45594000000E+02  0.51100000000E-03 0. -1.
         11   -1    0    0    0    0 -0.00000000000E+00 -0.00000000000E+00 -0.45593999997E+02  0.45594000000E+02  0.51100000000E-03 0.  1.
    9900012    2    1    2    0    0 -0.21874391505E+02  0.23621583556E+02 -0.24833362534E+02  0.50528879152E+02  0.30000058670E+02 0.  0.
         12    1    1    2    0    0  0.21874391505E+02 -0.23621583556E+02  0.24833362534E+02  0.40659120848E+02  0.00000000000E+00 0. -1.
         11    1    3    3    0    0 -0.91250127616E+01  0.22775890044E+02 -0.17238452220E+02  0.29986184493E+02  0.51100000000E-03 0. -1.
        -11    1    3    3    0    0 -0.11940881793E+02  0.62688159107E+01 -0.64139296934E+01  0.14933894512E+02  0.51100000000E-03 0.  1.
        -12    1    3    3    0    0 -0.80849694981E+00 -0.54231223988E+01 -0.11809806201E+01  0.56088001475E+01  0.00000000000E+00 0.  1.
</event>
<event>
 7    1  0.2746803E-013  0.5052886E+02  0.7816164E-02  0.1300439E+00
        -11   -1    0    0    0    0  0.00000000000E+00  0.00000000000E+00  0.45593999997E+02  0.45594000000E+02  0.51100000000E-03 0. -1.
         11   -1    0    0    0    0 -0.00000000000E+00 -0.00000000000E+00 -0.45593999997E+02  0.45594000000E+02  0.51100000000E-03 0.  1.
    9900012    2    1    2    0    0  0.13604963889E+02  0.20826948673E+01 -0.38258764173E+02  0.50528859621E+02  0.29999999304E+02 0.  0.
         12    1    1    2    0    0 -0.13604963889E+02 -0.20826948673E+01  0.38258764173E+02  0.40659140379E+02  0.00000000000E+00 0. -1.
         11    1    3    3    0    0 -0.34731105773E+01  0.39576588867E+01 -0.17748322286E+02  0.18512928056E+02  0.51100000000E-03 0. -1.
        -11    1    3    3    0    0 -0.12858589916E+01 -0.55860247645E+01 -0.35377393276E+01  0.67359265010E+01  0.51100000000E-03 0.  1.
         12    1    3    3    0    0  0.18363933458E+02  0.37110607451E+01 -0.16972702559E+02  0.25280005064E+02  0.00000000000E+00 0. -1.
</event>
<event>
 7    1  0.2746803E-013  0.5052886E+02  0.7816164E-02  0.1300439E+00
        -11   -1    0    0    0    0  0.00000000000E+00  0.00000000000E+00  0.45593999997E+02  0.45594000000E+02  0.51100000000E-03 0.  1.
         11   -1    0    0    0    0 -0.00000000000E+00 -0.00000000000E+00 -0.45593999997E+02  0.45594000000E+02  0.51100000000E-03 0. -1.
    9900012    2    1    2    0    0  0.10815478652E+01 -0.39794121755E+02  0.82718537829E+01  0.50528862810E+02  0.30000008997E+02 0.  0.
         12    1    1    2    0    0 -0.10815478652E+01  0.39794121755E+02 -0.82718537829E+01  0.40659137190E+02  0.00000000000E+00 0. -1.
         11    1    3    3    0    0 -0.63447302054E+01 -0.47735946616E+01  0.76060452652E+01  0.10995214059E+02  0.51100000000E-03 0. -1.
        -11    1    3    3    0    0 -0.45202736785E+01 -0.13009498555E+02  0.38183276746E+01  0.14291940151E+02  0.51100000000E-03 0.  1.
        -12    1    3    3    0    0  0.11946551749E+02 -0.22011028538E+02 -0.31525191570E+01  0.25241708600E+02  0.00000000000E+00 0.  1.
</event>
<event>
 7    1  0.2746803E-013  0.5052888E+02  0.7816164E-02  0.1300439E+00
        -11   -1    0    0    0    0  0.00000000000E+00  0.00000000000E+00  0.45593999997E+02  0.45594000000E+02  0.51100000000E-03 0.  1.
         11   -1    0    0    0    0 -0.00000000000E+00 -0.00000000000E+00 -0.45593999997E+02  0.45594000000E+02  0.51100000000E-03 0. -1.
    9900012    2    1    2    0    0 -0.22322155481E+02  0.76818939898E+01  0.33103989665E+02  0.50528877379E+02  0.30000053282E+02 0.  0.
         12    1    1    2    0    0  0.22322155481E+02 -0.76818939898E+01 -0.33103989665E+02  0.40659122621E+02  0.00000000000E+00 0. -1.
         11    1    3    3    0    0 -0.76786745515E+01 -0.15337069907E+01  0.38872551064E+00  0.78399877414E+01  0.51100000000E-03 0. -1.
        -11    1    3    3    0    0 -0.15301647813E+02 -0.19639834321E+01  0.23855161125E+02  0.28408913554E+02  0.51100000000E-03 0.  1.
         12    1    3    3    0    0  0.65816688392E+00  0.11179584413E+02  0.88601030287E+01  0.14279976084E+02  0.00000000000E+00 0. -1.
</event>
<event>
 7    1  0.2746803E-013  0.5052886E+02  0.7816164E-02  0.1300439E+00
        -11   -1    0    0    0    0  0.00000000000E+00  0.00000000000E+00  0.45593999997E+02  0.45594000000E+02  0.51100000000E-03 0.  1.
         11   -1    0    0    0    0 -0.00000000000E+00 -0.00000000000E+00 -0.45593999997E+02  0.45594000000E+02  0.51100000000E-03 0. -1.
    9900012    2    1    2    0    0  0.29506775076E+02  0.21618748719E+02  0.17752329258E+02  0.50528864918E+02  0.30000015404E+02 0.  0.
         12    1    1    2    0    0 -0.29506775076E+02 -0.21618748719E+02 -0.17752329258E+02  0.40659135082E+02  0.00000000000E+00 0. -1.
         11    1    3    3    0    0  0.28104726565E+02  0.13181425988E+02  0.12045333399E+02  0.33297382830E+02  0.51100000000E-03 0. -1.
        -11    1    3    3    0    0  0.53937706194E+01  0.10357869684E+02  0.51629447515E+01  0.12768485605E+02  0.51100000000E-03 0.  1.
         12    1    3    3    0    0 -0.39917221093E+01 -0.19205469522E+01  0.54405110758E+00  0.44629964823E+01  0.00000000000E+00 0. -1.
</event>
<event>
 7    1  0.2746803E-013  0.5052886E+02  0.7816164E-02  0.1300439E+00
        -11   -1    0    0    0    0  0.00000000000E+00  0.00000000000E+00  0.45593999997E+02  0.45594000000E+02  0.51100000000E-03 0.  1.
         11   -1    0    0    0    0 -0.00000000000E+00 -0.00000000000E+00 -0.45593999997E+02  0.45594000000E+02  0.51100000000E-03 0. -1.
    9900012    2    1    2    0    0 -0.55782644781E+01  0.22718263042E+01  0.40210542541E+02  0.50528856369E+02  0.29999989420E+02 0.  0.
         12    1    1    2    0    0  0.55782644781E+01 -0.22718263042E+01 -0.40210542541E+02  0.40659143631E+02  0.00000000000E+00 0. -1.
         11    1    3    3    0    0 -0.20393637129E+01  0.13187387706E+02  0.18567580229E+02  0.22865284487E+02  0.51100000000E-03 0. -1.
        -11    1    3    3    0    0  0.60326657147E+00 -0.33968500896E+01 -0.87977685829E+00  0.35604113061E+01  0.51100000000E-03 0.  1.
        -12    1    3    3    0    0 -0.41421673366E+01 -0.75187113119E+01  0.22522739170E+02  0.24103160576E+02  0.00000000000E+00 0.  1.
</event>
<event>
 7    1  0.2746803E-013  0.5052886E+02  0.7816164E-02  0.1300439E+00
        -11   -1    0    0    0    0  0.00000000000E+00  0.00000000000E+00  0.45593999997E+02  0.45594000000E+02  0.51100000000E-03 0. -1.
         11   -1    0    0    0    0 -0.00000000000E+00 -0.00000000000E+00 -0.45593999997E+02  0.45594000000E+02  0.51100000000E-03 0.  1.
    9900012    2    1    2    0    0  0.22280983835E+01  0.37827348455E+02 -0.14740855937E+02  0.50528861454E+02  0.30000004876E+02 0.  0.
         12    1    1    2    0    0 -0.22280983835E+01 -0.37827348455E+02  0.14740855937E+02  0.40659138546E+02  0.00000000000E+00 0. -1.
         11    1    3    3    0    0  0.34234407476E+01  0.72485623037E+01  0.29455408211E+00  0.80217432264E+01  0.51100000000E-03 0. -1.
        -11    1    3    3    0    0 -0.67509952862E+01  0.90331796797E+01  0.52119703340E+01  0.12423321114E+02  0.51100000000E-03 0.  1.
        -12    1    3    3    0    0  0.55556529221E+01  0.21545606471E+02 -0.20247380353E+02  0.30083797114E+02  0.00000000000E+00 0.  1.
</event>
<event>
 7    1  0.2746803E-013  0.5052885E+02  0.7816164E-02  0.1300439E+00
        -11   -1    0    0    0    0  0.00000000000E+00  0.00000000000E+00  0.45593999997E+02  0.45594000000E+02  0.51100000000E-03 0.  1.
         11   -1    0    0    0    0 -0.00000000000E+00 -0.00000000000E+00 -0.45593999997E+02  0.45594000000E+02  0.51100000000E-03 0. -1.
    9900012    2    1    2    0    0 -0.81583637327E+01 -0.38198661395E+02  0.11290239801E+02  0.50528854092E+02  0.29999982498E+02 0.  0.
         12    1    1    2    0    0  0.81583637327E+01  0.38198661395E+02 -0.11290239801E+02  0.40659145908E+02  0.00000000000E+00 0. -1.
         11    1    3    3    0    0 -0.56274158840E+01 -0.94463259441E+01  0.81878340677E+01  0.13709176137E+02  0.51100000000E-03 0. -1.
        -11    1    3    3    0    0 -0.77927553827E+01 -0.17914296142E+02  0.10994442915E+02  0.22417109939E+02  0.51100000000E-03 0.  1.
         12    1    3    3    0    0  0.52618075341E+01 -0.10838039309E+02 -0.78920371815E+01  0.14402568016E+02  0.00000000000E+00 0. -1.
</event>
<event>
 7    1  0.2746803E-013  0.5052885E+02  0.7816164E-02  0.1300439E+00
        -11   -1    0    0    0    0  0.00000000000E+00  0.00000000000E+00  0.45593999997E+02  0.45594000000E+02  0.51100000000E-03 0.  1.
         11   -1    0    0    0    0 -0.00000000000E+00 -0.00000000000E+00 -0.45593999997E+02  0.45594000000E+02  0.51100000000E-03 0. -1.
    9900012    2    1    2    0    0  0.35291961887E+01 -0.26957335534E+02  0.30232648341E+02  0.50528853544E+02  0.29999980833E+02 0.  0.
         12    1    1    2    0    0 -0.35291961887E+01  0.26957335534E+02 -0.30232648341E+02  0.40659146456E+02  0.00000000000E+00 0. -1.
         11    1    3    3    0    0  0.62033414121E+01 -0.10941030021E+02  0.30963822880E+01  0.12952805338E+02  0.51100000000E-03 0. -1.
        -11    1    3    3    0    0  0.58707760307E+01 -0.12868164663E+02  0.24159786344E+02  0.27995552316E+02  0.51100000000E-03 0.  1.
         12    1    3    3    0    0 -0.85449212540E+01 -0.31481408492E+01  0.29764797091E+01  0.95804958903E+01  0.00000000000E+00 0. -1.
</event>
<event>
 7    1  0.2746803E-013  0.5052887E+02  0.7816164E-02  0.1300439E+00
        -11   -1    0    0    0    0  0.00000000000E+00  0.00000000000E+00  0.45593999997E+02  0.45594000000E+02  0.51100000000E-03 0.  1.
         11   -1    0    0    0    0 -0.00000000000E+00 -0.00000000000E+00 -0.45593999997E+02  0.45594000000E+02  0.51100000000E-03 0. -1.
    9900012    2    1    2    0    0  0.37799074994E+02 -0.57121112782E+01  0.13847992138E+02  0.50528866070E+02  0.30000018907E+02 0.  0.
         12    1    1    2    0    0 -0.37799074994E+02  0.57121112782E+01 -0.13847992138E+02  0.40659133930E+02  0.00000000000E+00 0. -1.
         11    1    3    3    0    0  0.23390939389E+01  0.22879829769E+01 -0.27626186432E+01  0.42823228027E+01  0.51100000000E-03 0. -1.
        -11    1    3    3    0    0  0.21396090028E+01 -0.14985539834E+01  0.11647621304E+02  0.11936945716E+02  0.51100000000E-03 0.  1.
        -12    1    3    3    0    0  0.33320372052E+02 -0.65015402718E+01  0.49629894771E+01  0.34309597552E+02  0.00000000000E+00 0.  1.
</event>
<event>
 7    1  0.2746803E-013  0.5052886E+02  0.7816164E-02  0.1300439E+00
        -11   -1    0    0    0    0  0.00000000000E+00  0.00000000000E+00  0.45593999997E+02  0.45594000000E+02  0.51100000000E-03 0.  1.
         11   -1    0    0    0    0 -0.00000000000E+00 -0.00000000000E+00 -0.45593999997E+02  0.45594000000E+02  0.51100000000E-03 0. -1.
    9900012    2    1    2    0    0 -0.14128663018E+02 -0.49715268124E+01  0.37799874807E+02  0.50528859171E+02  0.29999997936E+02 0.  0.
         12    1    1    2    0    0  0.14128663018E+02  0.49715268124E+01 -0.37799874807E+02  0.40659140829E+02  0.00000000000E+00 0. -1.
         11    1    3    3    0    0 -0.13647130169E+02 -0.75288245282E+01  0.34552726752E+01  0.15964531630E+02  0.51100000000E-03 0. -1.
        -11    1    3    3    0    0 -0.53704559484E+00 -0.55464316302E+00  0.60532532295E+01  0.61022882537E+01  0.51100000000E-03 0.  1.
         12    1    3    3    0    0  0.55512745977E-01  0.31119408788E+01  0.28291348902E+02  0.28462039288E+02  0.00000000000E+00 0. -1.
</event>
<event>
 7    1  0.2746803E-013  0.5052884E+02  0.7816164E-02  0.1300439E+00
        -11   -1    0    0    0    0  0.00000000000E+00  0.00000000000E+00  0.45593999997E+02  0.45594000000E+02  0.51100000000E-03 0.  1.
         11   -1    0    0    0    0 -0.00000000000E+00 -0.00000000000E+00 -0.45593999997E+02  0.45594000000E+02  0.51100000000E-03 0. -1.
    9900012    2    1    2    0    0  0.37669961613E+02  0.87758304409E+01 -0.12535010003E+02  0.50528835182E+02  0.29999925020E+02 0.  0.
         12    1    1    2    0    0 -0.37669961613E+02 -0.87758304409E+01  0.12535010003E+02  0.40659164818E+02  0.00000000000E+00 0. -1.
         11    1    3    3    0    0  0.93004423740E+01 -0.39763250272E+01 -0.78121654845E+01  0.12780427180E+02  0.51100000000E-03 0. -1.
        -11    1    3    3    0    0  0.16193877069E+02  0.10393455119E+00 -0.10459855493E+02  0.19278512239E+02  0.51100000000E-03 0.  1.
        -12    1    3    3    0    0  0.12175642170E+02  0.12648220917E+02  0.57370109749E+01  0.18469895764E+02  0.00000000000E+00 0.  1.
</event>
<event>
 7    1  0.2746803E-013  0.5052889E+02  0.7816164E-02  0.1300439E+00
        -11   -1    0    0    0    0  0.00000000000E+00  0.00000000000E+00  0.45593999997E+02  0.45594000000E+02  0.51100000000E-03 0. -1.
         11   -1    0    0    0    0 -0.00000000000E+00 -0.00000000000E+00 -0.45593999997E+02  0.45594000000E+02  0.51100000000E-03 0.  1.
    9900012    2    1    2    0    0  0.35543746639E+02  0.15043435433E+02 -0.12786714144E+02  0.50528893599E+02  0.30000102582E+02 0.  0.
         12    1    1    2    0    0 -0.35543746639E+02 -0.15043435433E+02  0.12786714144E+02  0.40659106401E+02  0.00000000000E+00 0. -1.
         11    1    3    3    0    0  0.89600148774E+01 -0.44149567890E+01 -0.21335047494E+00  0.99909573484E+01  0.51100000000E-03 0. -1.
        -11    1    3    3    0    0 -0.11553082895E+01  0.45005531803E+01 -0.71986331317E+01  0.85679656511E+01  0.51100000000E-03 0.  1.
        -12    1    3    3    0    0  0.27739040051E+02  0.14957839041E+02 -0.53747305375E+01  0.31969970599E+02  0.00000000000E+00 0.  1.
</event>
<event>
 7    1  0.2746803E-013  0.5052884E+02  0.7816164E-02  0.1300439E+00
        -11   -1    0    0    0    0  0.00000000000E+00  0.00000000000E+00  0.45593999997E+02  0.45594000000E+02  0.51100000000E-03 0.  1.
         11   -1    0    0    0    0 -0.00000000000E+00 -0.00000000000E+00 -0.45593999997E+02  0.45594000000E+02  0.51100000000E-03 0. -1.
    9900012    2    1    2    0    0  0.69989288484E+01 -0.10395460315E+01  0.40038748293E+02  0.50528843272E+02  0.29999949609E+02 0.  0.
         12    1    1    2    0    0 -0.69989288484E+01  0.10395460315E+01 -0.40038748293E+02  0.40659156728E+02  0.00000000000E+00 0. -1.
         11    1    3    3    0    0 -0.16717968473E+01 -0.32873272746E+01 -0.11334666561E+01  0.38582602595E+01  0.51100000000E-03 0. -1.
        -11    1    3    3    0    0  0.13543990899E+01  0.51515803400E+00  0.38741728034E+02  0.38768818347E+02  0.51100000000E-03 0.  1.
         12    1    3    3    0    0  0.73163266058E+01  0.17326232091E+01  0.24304869152E+01  0.79017646657E+01  0.00000000000E+00 0. -1.
</event>
<event>
 7    1  0.2746803E-013  0.5052885E+02  0.7816164E-02  0.1300439E+00
        -11   -1    0    0    0    0  0.00000000000E+00  0.00000000000E+00  0.45593999997E+02  0.45594000000E+02  0.51100000000E-03 0.  1.
         11   -1    0    0    0    0 -0.00000000000E+00 -0.00000000000E+00 -0.45593999997E+02  0.45594000000E+02  0.51100000000E-03 0. -1.
    9900012    2    1    2    0    0 -0.18032648737E+02  0.36425639292E+02 -0.10783320798E+01  0.50528850742E+02  0.29999972315E+02 0.  0.
         12    1    1    2    0    0  0.18032648737E+02 -0.36425639292E+02  0.10783320798E+01  0.40659149258E+02  0.00000000000E+00 0. -1.
         11    1    3    3    0    0 -0.21283132984E+02  0.13259154697E+02 -0.21532561297E+01  0.25167706393E+02  0.51100000000E-03 0.  1.
        -11    1    3    3    0    0  0.20173071307E+01  0.17249731726E+02 -0.35800186993E+01  0.17732436573E+02  0.51100000000E-03 0. -1.
        -12    1    3    3    0    0  0.12331771160E+01  0.59167528700E+01  0.46549427492E+01  0.76287077754E+01  0.00000000000E+00 0.  1.
</event>
<event>
 7    1  0.2746803E-013  0.5052891E+02  0.7816164E-02  0.1300439E+00
        -11   -1    0    0    0    0  0.00000000000E+00  0.00000000000E+00  0.45593999997E+02  0.45594000000E+02  0.51100000000E-03 0.  1.
         11   -1    0    0    0    0 -0.00000000000E+00 -0.00000000000E+00 -0.45593999997E+02  0.45594000000E+02  0.51100000000E-03 0. -1.
    9900012    2    1    2    0    0  0.79787765938E+01  0.32470471492E+01  0.39736094891E+02  0.50528912106E+02  0.30000158838E+02 0.  0.
         12    1    1    2    0    0 -0.79787765938E+01 -0.32470471492E+01 -0.39736094891E+02  0.40659087894E+02  0.00000000000E+00 0. -1.
         11    1    3    3    0    0 -0.46195847492E+00  0.18050494527E+01  0.94176906206E-01  0.18656041139E+01  0.51100000000E-03 0. -1.
        -11    1    3    3    0    0  0.16751048250E+02 -0.50292968167E+01  0.27489300489E+02  0.32581483784E+02  0.51100000000E-03 0.  1.
        -12    1    3    3    0    0 -0.83103131816E+01  0.64712945132E+01  0.12152617497E+02  0.16081824208E+02  0.00000000000E+00 0.  1.
</event>
<event>
 7    1  0.2746803E-013  0.5052886E+02  0.7816164E-02  0.1300439E+00
        -11   -1    0    0    0    0  0.00000000000E+00  0.00000000000E+00  0.45593999997E+02  0.45594000000E+02  0.51100000000E-03 0. -1.
         11   -1    0    0    0    0 -0.00000000000E+00 -0.00000000000E+00 -0.45593999997E+02  0.45594000000E+02  0.51100000000E-03 0.  1.
    9900012    2    1    2    0    0  0.19815734125E+02  0.33004891330E+02 -0.13083545205E+02  0.50528864178E+02  0.30000013157E+02 0.  0.
         12    1    1    2    0    0 -0.19815734125E+02 -0.33004891330E+02  0.13083545205E+02  0.40659135822E+02  0.00000000000E+00 0. -1.
         11    1    3    3    0    0  0.48100390097E+01 -0.28914082580E+01 -0.58833438515E+00  0.56429473326E+01  0.51100000000E-03 0. -1.
        -11    1    3    3    0    0 -0.35354511381E+01  0.10027709953E+02 -0.66086144902E+01  0.12519112085E+02  0.51100000000E-03 0.  1.
        -12    1    3    3    0    0  0.18541146253E+02  0.25868589635E+02 -0.58865963298E+01  0.32366804761E+02  0.00000000000E+00 0.  1.
</event>
<event>
 7    1  0.2746803E-013  0.5052884E+02  0.7816164E-02  0.1300439E+00
        -11   -1    0    0    0    0  0.00000000000E+00  0.00000000000E+00  0.45593999997E+02  0.45594000000E+02  0.51100000000E-03 0.  1.
         11   -1    0    0    0    0 -0.00000000000E+00 -0.00000000000E+00 -0.45593999997E+02  0.45594000000E+02  0.51100000000E-03 0. -1.
    9900012    2    1    2    0    0 -0.91054656822E+01 -0.34090802693E+02  0.20200859087E+02  0.50528843081E+02  0.29999949028E+02 0.  0.
         12    1    1    2    0    0  0.91054656822E+01  0.34090802693E+02 -0.20200859087E+02  0.40659156919E+02  0.00000000000E+00 0. -1.
         11    1    3    3    0    0  0.51158900748E+00 -0.78377516115E+01 -0.31343616089E+01  0.84567308455E+01  0.51100000000E-03 0. -1.
        -11    1    3    3    0    0  0.46243064069E+01 -0.46771464526E+01  0.12330745832E+02  0.13975235301E+02  0.51100000000E-03 0.  1.
         12    1    3    3    0    0 -0.14241361097E+02 -0.21575904629E+02  0.11004474864E+02  0.28096876934E+02  0.00000000000E+00 0. -1.
</event>
<event>
 7    1  0.2746803E-013  0.5052886E+02  0.7816164E-02  0.1300439E+00
        -11   -1    0    0    0    0  0.00000000000E+00  0.00000000000E+00  0.45593999997E+02  0.45594000000E+02  0.51100000000E-03 0. -1.
         11   -1    0    0    0    0 -0.00000000000E+00 -0.00000000000E+00 -0.45593999997E+02  0.45594000000E+02  0.51100000000E-03 0.  1.
    9900012    2    1    2    0    0 -0.45704476681E+01  0.11704386660E+02 -0.38668901376E+02  0.50528860897E+02  0.30000003182E+02 0.  0.
         12    1    1    2    0    0  0.45704476681E+01 -0.11704386660E+02  0.38668901376E+02  0.40659139103E+02  0.00000000000E+00 0. -1.
         11    1    3    3    0    0 -0.44224068693E+01 -0.15703535307E+01 -0.27546512755E+00  0.47010184031E+01  0.51100000000E-03 0. -1.
        -11    1    3    3    0    0  0.11354207931E+01  0.10528152929E+02 -0.40287627663E+01  0.11329700533E+02  0.51100000000E-03 0.  1.
        -12    1    3    3    0    0 -0.12834615919E+01  0.27465872617E+01 -0.34364673482E+02  0.34498141961E+02  0.00000000000E+00 0.  1.
</event>
<event>
 7    1  0.2746803E-013  0.5052885E+02  0.7816164E-02  0.1300439E+00
        -11   -1    0    0    0    0  0.00000000000E+00  0.00000000000E+00  0.45593999997E+02  0.45594000000E+02  0.51100000000E-03 0. -1.
         11   -1    0    0    0    0 -0.00000000000E+00 -0.00000000000E+00 -0.45593999997E+02  0.45594000000E+02  0.51100000000E-03 0.  1.
    9900012    2    1    2    0    0  0.44612313921E+01  0.62432982385E+01 -0.39928496179E+02  0.50528853852E+02  0.29999981767E+02 0.  0.
         12    1    1    2    0    0 -0.44612313921E+01 -0.62432982385E+01  0.39928496179E+02  0.40659146148E+02  0.00000000000E+00 0. -1.
         11    1    3    3    0    0  0.12187202463E+02 -0.48321888397E-01 -0.16019185912E+02  0.20128203010E+02  0.51100000000E-03 0. -1.
        -11    1    3    3    0    0  0.22993263060E+01  0.82194275121E+01 -0.10004125662E+02  0.13150225116E+02  0.51100000000E-03 0.  1.
         12    1    3    3    0    0 -0.10025297377E+02 -0.19278073852E+01 -0.13905184605E+02  0.17250425725E+02  0.00000000000E+00 0. -1.
</event>
<event>
 7    1  0.2746803E-013  0.5052886E+02  0.7816164E-02  0.1300439E+00
        -11   -1    0    0    0    0  0.00000000000E+00  0.00000000000E+00  0.45593999997E+02  0.45594000000E+02  0.51100000000E-03 0.  1.
         11   -1    0    0    0    0 -0.00000000000E+00 -0.00000000000E+00 -0.45593999997E+02  0.45594000000E+02  0.51100000000E-03 0. -1.
    9900012    2    1    2    0    0  0.13408896173E+00  0.19796686351E+02  0.35513924200E+02  0.50528861022E+02  0.30000003562E+02 0.  0.
         12    1    1    2    0    0 -0.13408896173E+00 -0.19796686351E+02 -0.35513924200E+02  0.40659138978E+02  0.00000000000E+00 0. -1.
         11    1    3    3    0    0  0.96183527826E+01  0.52001972632E+01  0.95454479431E+01  0.14514487195E+02  0.51100000000E-03 0. -1.
        -11    1    3    3    0    0  0.19016608743E+01  0.11033422600E+02  0.19390454311E+02  0.22390677681E+02  0.51100000000E-03 0.  1.
         12    1    3    3    0    0 -0.11385924695E+02  0.35630664883E+01  0.65780219460E+01  0.13623696146E+02  0.00000000000E+00 0. -1.
</event>
<event>
 7    1  0.2746803E-013  0.5052889E+02  0.7816164E-02  0.1300439E+00
        -11   -1    0    0    0    0  0.00000000000E+00  0.00000000000E+00  0.45593999997E+02  0.45594000000E+02  0.51100000000E-03 0. -1.
         11   -1    0    0    0    0 -0.00000000000E+00 -0.00000000000E+00 -0.45593999997E+02  0.45594000000E+02  0.51100000000E-03 0.  1.
    9900012    2    1    2    0    0 -0.29137895024E+02  0.23267519992E+02 -0.16210149841E+02  0.50528888218E+02  0.30000086229E+02 0.  0.
         12    1    1    2    0    0  0.29137895024E+02 -0.23267519992E+02  0.16210149841E+02  0.40659111782E+02  0.00000000000E+00 0. -1.
         11    1    3    3    0    0  0.40784570969E+01  0.72309578976E+01 -0.15650111134E+01  0.84480663145E+01  0.51100000000E-03 0. -1.
        -11    1    3    3    0    0 -0.13133417551E+02  0.13459778067E+02 -0.40823432687E+01  0.19243643340E+02  0.51100000000E-03 0.  1.
        -12    1    3    3    0    0 -0.20082934570E+02  0.25767840279E+01 -0.10562795459E+02  0.22837178564E+02  0.00000000000E+00 0.  1.
</event>
<event>
 7    1  0.2746803E-013  0.5052886E+02  0.7816164E-02  0.1300439E+00
        -11   -1    0    0    0    0  0.00000000000E+00  0.00000000000E+00  0.45593999997E+02  0.45594000000E+02  0.51100000000E-03 0. -1.
         11   -1    0    0    0    0 -0.00000000000E+00 -0.00000000000E+00 -0.45593999997E+02  0.45594000000E+02  0.51100000000E-03 0.  1.
    9900012    2    1    2    0    0  0.29215100935E+02  0.25832525396E+02  0.11503225768E+02  0.50528859649E+02  0.29999999390E+02 0.  0.
         12    1    1    2    0    0 -0.29215100935E+02 -0.25832525396E+02 -0.11503225768E+02  0.40659140351E+02  0.00000000000E+00 0. -1.
         11    1    3    3    0    0  0.14201016988E+02  0.57656969338E+01  0.12439310077E+02  0.19739518233E+02  0.51100000000E-03 0. -1.
        -11    1    3    3    0    0  0.13336225104E+02  0.75220921086E+01 -0.69046394862E+01  0.16796154810E+02  0.51100000000E-03 0.  1.
         12    1    3    3    0    0  0.16778588425E+01  0.12544736354E+02  0.59685551770E+01  0.13993186606E+02  0.00000000000E+00 0. -1.
</event>
<event>
 7    1  0.2746803E-013  0.5052882E+02  0.7816164E-02  0.1300439E+00
        -11   -1    0    0    0    0  0.00000000000E+00  0.00000000000E+00  0.45593999997E+02  0.45594000000E+02  0.51100000000E-03 0. -1.
         11   -1    0    0    0    0 -0.00000000000E+00 -0.00000000000E+00 -0.45593999997E+02  0.45594000000E+02  0.51100000000E-03 0.  1.
    9900012    2    1    2    0    0  0.40640640518E+02 -0.12259313283E+01 -0.63533732722E-01  0.50528823842E+02  0.29999890550E+02 0.  0.
         12    1    1    2    0    0 -0.40640640518E+02  0.12259313283E+01  0.63533732722E-01  0.40659176158E+02  0.00000000000E+00 0. -1.
         11    1    3    3    0    0 -0.16688108913E+01  0.45523617791E+01 -0.18965630754E+01  0.52063306963E+01  0.51100000000E-03 0. -1.
        -11    1    3    3    0    0  0.21687608962E+02  0.43806566515E+01  0.28687722874E+01  0.22310813295E+02  0.51100000000E-03 0.  1.
        -12    1    3    3    0    0  0.20621842447E+02 -0.10158949759E+02 -0.10357429447E+01  0.23011679851E+02  0.00000000000E+00 0.  1.
</event>
<event>
 7    1  0.2746803E-013  0.5052879E+02  0.7816164E-02  0.1300439E+00
        -11   -1    0    0    0    0  0.00000000000E+00  0.00000000000E+00  0.45593999997E+02  0.45594000000E+02  0.51100000000E-03 0.  1.
         11   -1    0    0    0    0 -0.00000000000E+00 -0.00000000000E+00 -0.45593999997E+02  0.45594000000E+02  0.51100000000E-03 0. -1.
    9900012    2    1    2    0    0 -0.30916439065E+02 -0.24944431276E+02  0.86672133560E+01  0.50528788946E+02  0.29999784480E+02 0.  0.
         12    1    1    2    0    0  0.30916439065E+02  0.24944431276E+02 -0.86672133560E+01  0.40659211054E+02  0.00000000000E+00 0. -1.
         11    1    3    3    0    0  0.22931222701E+01 -0.96166915945E+01 -0.19178458690E+01  0.10070615672E+02  0.51100000000E-03 0. -1.
        -11    1    3    3    0    0 -0.15109716183E+02 -0.10167810515E+02 -0.12002455838E+01  0.18251807678E+02  0.51100000000E-03 0.  1.
        -12    1    3    3    0    0 -0.18099845152E+02 -0.51599291665E+01  0.11785304809E+02  0.22206365596E+02  0.00000000000E+00 0.  1.
</event>
<event>
 7    1  0.2746803E-013  0.5052886E+02  0.7816164E-02  0.1300439E+00
        -11   -1    0    0    0    0  0.00000000000E+00  0.00000000000E+00  0.45593999997E+02  0.45594000000E+02  0.51100000000E-03 0. -1.
         11   -1    0    0    0    0 -0.00000000000E+00 -0.00000000000E+00 -0.45593999997E+02  0.45594000000E+02  0.51100000000E-03 0.  1.
    9900012    2    1    2    0    0  0.27961096880E+02 -0.20196403414E+02 -0.21527842537E+02  0.50528860143E+02  0.30000000891E+02 0.  0.
         12    1    1    2    0    0 -0.27961096880E+02  0.20196403414E+02  0.21527842537E+02  0.40659139857E+02  0.00000000000E+00 0. -1.
         11    1    3    3    0    0 -0.15997163400E+01 -0.76782377348E+01  0.82822859604E+00  0.78867223832E+01  0.51100000000E-03 0. -1.
        -11    1    3    3    0    0  0.98694571745E+01 -0.13286221539E+02 -0.90416691521E+01  0.18859524093E+02  0.51100000000E-03 0.  1.
         12    1    3    3    0    0  0.19691356046E+02  0.76805585975E+00 -0.13314401980E+02  0.23782613667E+02  0.00000000000E+00 0. -1.
</event>
<event>
 7    1  0.2746803E-013  0.5052884E+02  0.7816164E-02  0.1300439E+00
        -11   -1    0    0    0    0  0.00000000000E+00  0.00000000000E+00  0.45593999997E+02  0.45594000000E+02  0.51100000000E-03 0.  1.
         11   -1    0    0    0    0 -0.00000000000E+00 -0.00000000000E+00 -0.45593999997E+02  0.45594000000E+02  0.51100000000E-03 0. -1.
    9900012    2    1    2    0    0 -0.39542231611E+02  0.65811847429E+01 -0.68019978360E+01  0.50528840541E+02  0.29999941308E+02 0.  0.
         12    1    1    2    0    0  0.39542231611E+02 -0.65811847429E+01  0.68019978360E+01  0.40659159459E+02  0.00000000000E+00 0. -1.
         11    1    3    3    0    0 -0.10360796549E+02  0.13928622251E+02  0.26651710250E+01  0.17562908637E+02  0.51100000000E-03 0. -1.
        -11    1    3    3    0    0 -0.70257301177E+01 -0.25673575360E+01 -0.68626928261E+01  0.10151293587E+02  0.51100000000E-03 0.  1.
        -12    1    3    3    0    0 -0.22155704944E+02 -0.47800799720E+01 -0.26044760349E+01  0.22814638317E+02  0.00000000000E+00 0.  1.
</event>
<event>
 7    1  0.2746803E-013  0.5052886E+02  0.7816164E-02  0.1300439E+00
        -11   -1    0    0    0    0  0.00000000000E+00  0.00000000000E+00  0.45593999997E+02  0.45594000000E+02  0.51100000000E-03 0. -1.
         11   -1    0    0    0    0 -0.00000000000E+00 -0.00000000000E+00 -0.45593999997E+02  0.45594000000E+02  0.51100000000E-03 0.  1.
    9900012    2    1    2    0    0 -0.39152159966E+02  0.10814122175E+02 -0.18245625868E+01  0.50528857153E+02  0.29999991802E+02 0.  0.
         12    1    1    2    0    0  0.39152159966E+02 -0.10814122175E+02  0.18245625868E+01  0.40659142847E+02  0.00000000000E+00 0. -1.
         11    1    3    3    0    0 -0.13660495815E+02  0.14682035617E+01 -0.73497782259E+01  0.15581527776E+02  0.51100000000E-03 0. -1.
        -11    1    3    3    0    0 -0.28136443453E+02  0.45097360797E+01  0.67869123924E+01  0.29292650098E+02  0.51100000000E-03 0.  1.
         12    1    3    3    0    0  0.26447793015E+01  0.48361825332E+01 -0.12616967533E+01  0.56546792787E+01  0.00000000000E+00 0. -1.
</event>
<event>
 7    1  0.2746803E-013  0.5052886E+02  0.7816164E-02  0.1300439E+00
        -11   -1    0    0    0    0  0.00000000000E+00  0.00000000000E+00  0.45593999997E+02  0.45594000000E+02  0.51100000000E-03 0.  1.
         11   -1    0    0    0    0 -0.00000000000E+00 -0.00000000000E+00 -0.45593999997E+02  0.45594000000E+02  0.51100000000E-03 0. -1.
    9900012    2    1    2    0    0 -0.28984328161E+01  0.42572065498E+01  0.40331635085E+02  0.50528861925E+02  0.30000006307E+02 0.  0.
         12    1    1    2    0    0  0.28984328161E+01 -0.42572065498E+01 -0.40331635085E+02  0.40659138075E+02  0.00000000000E+00 0. -1.
         11    1    3    3    0    0  0.76455819732E+01 -0.12936966063E+01  0.39468786427E+01  0.87009439660E+01  0.51100000000E-03 0. -1.
        -11    1    3    3    0    0  0.43969281968E+01  0.26071449246E+01  0.63377617977E+01  0.81423219718E+01  0.51100000000E-03 0.  1.
         12    1    3    3    0    0 -0.14940942986E+02  0.29437582315E+01  0.30046994644E+02  0.33685595987E+02  0.00000000000E+00 0. -1.
</event>
<event>
 7    1  0.2746803E-013  0.5052886E+02  0.7816164E-02  0.1300439E+00
        -11   -1    0    0    0    0  0.00000000000E+00  0.00000000000E+00  0.45593999997E+02  0.45594000000E+02  0.51100000000E-03 0.  1.
         11   -1    0    0    0    0 -0.00000000000E+00 -0.00000000000E+00 -0.45593999997E+02  0.45594000000E+02  0.51100000000E-03 0. -1.
    9900012    2    1    2    0    0  0.11836283994E+02 -0.38345731981E+02 -0.65324395324E+01  0.50528861468E+02  0.30000004917E+02 0.  0.
         12    1    1    2    0    0 -0.11836283994E+02  0.38345731981E+02  0.65324395324E+01  0.40659138532E+02  0.00000000000E+00 0. -1.
         11    1    3    3    0    0 -0.57227368075E+00  0.18696749446E+01 -0.22964899437E+01  0.30161312781E+01  0.51100000000E-03 0. -1.
        -11    1    3    3    0    0  0.12968349796E+02 -0.15920105018E+02 -0.95358165522E+01  0.22639779985E+02  0.51100000000E-03 0.  1.
        -12    1    3    3    0    0 -0.55979212171E+00 -0.24295301908E+02  0.52998669636E+01  0.24872950204E+02  0.00000000000E+00 0.  1.
</event>
<event>
 7    1  0.2746803E-013  0.5052886E+02  0.7816164E-02  0.1300439E+00
        -11   -1    0    0    0    0  0.00000000000E+00  0.00000000000E+00  0.45593999997E+02  0.45594000000E+02  0.51100000000E-03 0. -1.
         11   -1    0    0    0    0 -0.00000000000E+00 -0.00000000000E+00 -0.45593999997E+02  0.45594000000E+02  0.51100000000E-03 0.  1.
    9900012    2    1    2    0    0 -0.28614102961E+02  0.53738268613E+01 -0.28381702286E+02  0.50528856772E+02  0.29999990644E+02 0.  0.
         12    1    1    2    0    0  0.28614102961E+02 -0.53738268613E+01  0.28381702286E+02  0.40659143228E+02  0.00000000000E+00 0. -1.
         11    1    3    3    0    0  0.54281815635E+00  0.60237532359E+01 -0.64955925911E+01  0.88754142421E+01  0.51100000000E-03 0. -1.
        -11    1    3    3    0    0 -0.17680385634E+02  0.39240590477E+01 -0.19710785549E+01  0.18217558192E+02  0.51100000000E-03 0.  1.
        -12    1    3    3    0    0 -0.11476535483E+02 -0.45739854224E+01 -0.19915031141E+02  0.23435884337E+02  0.00000000000E+00 0.  1.
</event>
<event>
 7    1  0.2746803E-013  0.5052886E+02  0.7816164E-02  0.1300439E+00
        -11   -1    0    0    0    0  0.00000000000E+00  0.00000000000E+00  0.45593999997E+02  0.45594000000E+02  0.51100000000E-03 0.  1.
         11   -1    0    0    0    0 -0.00000000000E+00 -0.00000000000E+00 -0.45593999997E+02  0.45594000000E+02  0.51100000000E-03 0. -1.
    9900012    2    1    2    0    0 -0.16063584128E+02  0.32776264871E+02  0.17912097676E+02  0.50528861826E+02  0.30000006006E+02 0.  0.
         12    1    1    2    0    0  0.16063584128E+02 -0.32776264871E+02 -0.17912097676E+02  0.40659138174E+02  0.00000000000E+00 0. -1.
         11    1    3    3    0    0 -0.15815173234E+02  0.14757951143E+02  0.11405782785E+02  0.24454216560E+02  0.51100000000E-03 0. -1.
        -11    1    3    3    0    0 -0.82325512211E+01  0.14141452037E+02  0.45848713840E+01  0.16993428471E+02  0.51100000000E-03 0.  1.
         12    1    3    3    0    0  0.79841403269E+01  0.38768616910E+01  0.19214435072E+01  0.90812167952E+01  0.00000000000E+00 0. -1.
</event>
<event>
 7    1  0.2746803E-013  0.5052888E+02  0.7816164E-02  0.1300439E+00
        -11   -1    0    0    0    0  0.00000000000E+00  0.00000000000E+00  0.45593999997E+02  0.45594000000E+02  0.51100000000E-03 0.  1.
         11   -1    0    0    0    0 -0.00000000000E+00 -0.00000000000E+00 -0.45593999997E+02  0.45594000000E+02  0.51100000000E-03 0. -1.
    9900012    2    1    2    0    0  0.34135041620E+02  0.21550846956E+02  0.48501457841E+01  0.50528880665E+02  0.30000063269E+02 0.  0.
         12    1    1    2    0    0 -0.34135041620E+02 -0.21550846956E+02 -0.48501457841E+01  0.40659119335E+02  0.00000000000E+00 0. -1.
         11    1    3    3    0    0  0.87265472864E+01 -0.24136495529E+01  0.68512546720E+01  0.11354207262E+02  0.51100000000E-03 0. -1.
        -11    1    3    3    0    0  0.15429054175E+02  0.11830264372E+02  0.74720014873E+01  0.20828866371E+02  0.51100000000E-03 0.  1.
         12    1    3    3    0    0  0.99794401595E+01  0.12134232137E+02 -0.94731103752E+01  0.18345807032E+02  0.00000000000E+00 0. -1.
</event>
<event>
 7    1  0.2746803E-013  0.5052887E+02  0.7816164E-02  0.1300439E+00
        -11   -1    0    0    0    0  0.00000000000E+00  0.00000000000E+00  0.45593999997E+02  0.45594000000E+02  0.51100000000E-03 0.  1.
         11   -1    0    0    0    0 -0.00000000000E+00 -0.00000000000E+00 -0.45593999997E+02  0.45594000000E+02  0.51100000000E-03 0. -1.
    9900012    2    1    2    0    0 -0.17095150530E+02  0.26823793659E+02  0.25325970141E+02  0.50528870134E+02  0.30000031258E+02 0.  0.
         12    1    1    2    0    0  0.17095150530E+02 -0.26823793659E+02 -0.25325970141E+02  0.40659129866E+02  0.00000000000E+00 0. -1.
         11    1    3    3    0    0 -0.67627899549E+00 -0.13822614249E+01  0.26885795591E+01  0.30978153969E+01  0.51100000000E-03 0. -1.
        -11    1    3    3    0    0 -0.12391481984E+02  0.19746973601E+02  0.28158242294E+02  0.36556509701E+02  0.51100000000E-03 0.  1.
         12    1    3    3    0    0 -0.40273895510E+01  0.84590814825E+01 -0.55208517116E+01  0.10874545036E+02  0.00000000000E+00 0. -1.
</event>
<event>
 7    1  0.2746803E-013  0.5052887E+02  0.7816164E-02  0.1300439E+00
        -11   -1    0    0    0    0  0.00000000000E+00  0.00000000000E+00  0.45593999997E+02  0.45594000000E+02  0.51100000000E-03 0.  1.
         11   -1    0    0    0    0 -0.00000000000E+00 -0.00000000000E+00 -0.45593999997E+02  0.45594000000E+02  0.51100000000E-03 0. -1.
    9900012    2    1    2    0    0 -0.24323646741E+02  0.23052657882E+02  0.23023908626E+02  0.50528865791E+02  0.30000018058E+02 0.  0.
         12    1    1    2    0    0  0.24323646741E+02 -0.23052657882E+02 -0.23023908626E+02  0.40659134209E+02  0.00000000000E+00 0. -1.
         11    1    3    3    0    0 -0.17606382891E+02 -0.81516834644E-01  0.13054372038E+02  0.21918211447E+02  0.51100000000E-03 0. -1.
        -11    1    3    3    0    0 -0.24416008515E+01  0.10565135750E+02 -0.16490588638E+01  0.10968268028E+02  0.51100000000E-03 0.  1.
        -12    1    3    3    0    0 -0.42756629984E+01  0.12569038966E+02  0.11618595452E+02  0.17642386315E+02  0.00000000000E+00 0.  1.
</event>
<event>
 7    1  0.2746803E-013  0.5052887E+02  0.7816164E-02  0.1300439E+00
        -11   -1    0    0    0    0  0.00000000000E+00  0.00000000000E+00  0.45593999997E+02  0.45594000000E+02  0.51100000000E-03 0. -1.
         11   -1    0    0    0    0 -0.00000000000E+00 -0.00000000000E+00 -0.45593999997E+02  0.45594000000E+02  0.51100000000E-03 0.  1.
    9900012    2    1    2    0    0 -0.25915528930E+02  0.30841896073E+02 -0.55070552563E+01  0.50528870020E+02  0.30000030913E+02 0.  0.
         12    1    1    2    0    0  0.25915528930E+02 -0.30841896073E+02  0.55070552563E+01  0.40659129980E+02  0.00000000000E+00 0. -1.
         11    1    3    3    0    0 -0.64434352827E+01 -0.11756232022E+00 -0.99919946105E+01  0.11889980475E+02  0.51100000000E-03 0. -1.
        -11    1    3    3    0    0 -0.72548576290E+01  0.11143511147E+02 -0.39613553515E+01  0.13874549953E+02  0.51100000000E-03 0.  1.
         12    1    3    3    0    0 -0.12217236018E+02  0.19815947246E+02  0.84462947058E+01  0.24764339592E+02  0.00000000000E+00 0. -1.
</event>
<event>
 7    1  0.2746803E-013  0.5052885E+02  0.7816164E-02  0.1300439E+00
        -11   -1    0    0    0    0  0.00000000000E+00  0.00000000000E+00  0.45593999997E+02  0.45594000000E+02  0.51100000000E-03 0.  1.
         11   -1    0    0    0    0 -0.00000000000E+00 -0.00000000000E+00 -0.45593999997E+02  0.45594000000E+02  0.51100000000E-03 0. -1.
    9900012    2    1    2    0    0 -0.38570310641E+02 -0.10048564910E+02  0.80326575342E+01  0.50528854574E+02  0.29999983962E+02 0.  0.
         12    1    1    2    0    0  0.38570310641E+02  0.10048564910E+02 -0.80326575342E+01  0.40659145426E+02  0.00000000000E+00 0. -1.
         11    1    3    3    0    0 -0.12417292273E+02 -0.11292366012E+02 -0.39531056506E+01  0.17243367481E+02  0.51100000000E-03 0. -1.
        -11    1    3    3    0    0  0.16596243130E+01  0.24041827818E+01 -0.13453185489E+00  0.29244737629E+01  0.51100000000E-03 0.  1.
        -12    1    3    3    0    0 -0.27812642681E+02 -0.11603816801E+01  0.12120295040E+02  0.30361013330E+02  0.00000000000E+00 0.  1.
</event>
<event>
 7    1  0.2746803E-013  0.5052886E+02  0.7816164E-02  0.1300439E+00
        -11   -1    0    0    0    0  0.00000000000E+00  0.00000000000E+00  0.45593999997E+02  0.45594000000E+02  0.51100000000E-03 0.  1.
         11   -1    0    0    0    0 -0.00000000000E+00 -0.00000000000E+00 -0.45593999997E+02  0.45594000000E+02  0.51100000000E-03 0. -1.
    9900012    2    1    2    0    0 -0.21592871810E+02 -0.50065965969E+01  0.34085881708E+02  0.50528862598E+02  0.30000008352E+02 0.  0.
         12    1    1    2    0    0  0.21592871810E+02  0.50065965969E+01 -0.34085881708E+02  0.40659137402E+02  0.00000000000E+00 0. -1.
         11    1    3    3    0    0 -0.23770584107E+01 -0.27541622471E+01 -0.37389719562E+01  0.52168695519E+01  0.51100000000E-03 0. -1.
        -11    1    3    3    0    0 -0.96986148064E+01 -0.89836103616E+01  0.18376196812E+02  0.22637424629E+02  0.51100000000E-03 0.  1.
        -12    1    3    3    0    0 -0.95171985934E+01  0.67311760118E+01  0.19448656851E+02  0.22674568417E+02  0.00000000000E+00 0.  1.
</event>
<event>
 7    1  0.2746803E-013  0.5052882E+02  0.7816164E-02  0.1300439E+00
        -11   -1    0    0    0    0  0.00000000000E+00  0.00000000000E+00  0.45593999997E+02  0.45594000000E+02  0.51100000000E-03 0.  1.
         11   -1    0    0    0    0 -0.00000000000E+00 -0.00000000000E+00 -0.45593999997E+02  0.45594000000E+02  0.51100000000E-03 0. -1.
    9900012    2    1    2    0    0 -0.25052962104E+02 -0.29661989003E+02  0.12069995131E+02  0.50528815499E+02  0.29999865191E+02 0.  0.
         12    1    1    2    0    0  0.25052962104E+02  0.29661989003E+02 -0.12069995131E+02  0.40659184501E+02  0.00000000000E+00 0. -1.
         11    1    3    3    0    0 -0.22169965942E+02 -0.16139530924E+02  0.98775190455E+01  0.29147165060E+02  0.51100000000E-03 0. -1.
        -11    1    3    3    0    0 -0.37651936137E+01 -0.65191492835E+00  0.67025260894E+01  0.77152791435E+01  0.51100000000E-03 0.  1.
        -12    1    3    3    0    0  0.88219745156E+00 -0.12870543151E+02 -0.45100500040E+01  0.13666371295E+02  0.00000000000E+00 0.  1.
</event>
<event>
 7    1  0.2746803E-013  0.5052889E+02  0.7816164E-02  0.1300439E+00
        -11   -1    0    0    0    0  0.00000000000E+00  0.00000000000E+00  0.45593999997E+02  0.45594000000E+02  0.51100000000E-03 0.  1.
         11   -1    0    0    0    0 -0.00000000000E+00 -0.00000000000E+00 -0.45593999997E+02  0.45594000000E+02  0.51100000000E-03 0. -1.
    9900012    2    1    2    0    0  0.89719855922E+01  0.40449838605E+01  0.39450027326E+02  0.50528891846E+02  0.30000097254E+02 0.  0.
         12    1    1    2    0    0 -0.89719855922E+01 -0.40449838605E+01 -0.39450027326E+02  0.40659108154E+02  0.00000000000E+00 0. -1.
         11    1    3    3    0    0  0.21587246287E+01 -0.27803793103E+01  0.37289409673E+00  0.35397247633E+01  0.51100000000E-03 0. -1.
        -11    1    3    3    0    0  0.15148696444E+01 -0.62902004412E+01  0.28765845912E+02  0.29484493262E+02  0.51100000000E-03 0.  1.
        -12    1    3    3    0    0  0.52983913192E+01  0.13115563612E+02  0.10311287317E+02  0.17504673821E+02  0.00000000000E+00 0.  1.
</event>
<event>
 7    1  0.2746803E-013  0.5052889E+02  0.7816164E-02  0.1300439E+00
        -11   -1    0    0    0    0  0.00000000000E+00  0.00000000000E+00  0.45593999997E+02  0.45594000000E+02  0.51100000000E-03 0.  1.
         11   -1    0    0    0    0 -0.00000000000E+00 -0.00000000000E+00 -0.45593999997E+02  0.45594000000E+02  0.51100000000E-03 0. -1.
    9900012    2    1    2    0    0  0.23558434719E+02  0.69735102257E+01  0.32396500572E+02  0.50528893510E+02  0.30000102313E+02 0.  0.
         12    1    1    2    0    0 -0.23558434719E+02 -0.69735102257E+01 -0.32396500572E+02  0.40659106490E+02  0.00000000000E+00 0. -1.
         11    1    3    3    0    0 -0.23438470717E+01  0.13655743716E+01  0.14218729836E+02  0.14475174985E+02  0.51100000000E-03 0. -1.
        -11    1    3    3    0    0  0.77209106460E+01  0.86483004364E+01  0.11814303876E+02  0.16552442055E+02  0.51100000000E-03 0.  1.
         12    1    3    3    0    0  0.18181371144E+02 -0.30403645822E+01  0.63634668603E+01  0.19501276470E+02  0.00000000000E+00 0. -1.
</event>
<event>
 7    1  0.2746803E-013  0.5052886E+02  0.7816164E-02  0.1300439E+00
        -11   -1    0    0    0    0  0.00000000000E+00  0.00000000000E+00  0.45593999997E+02  0.45594000000E+02  0.51100000000E-03 0.  1.
         11   -1    0    0    0    0 -0.00000000000E+00 -0.00000000000E+00 -0.45593999997E+02  0.45594000000E+02  0.51100000000E-03 0. -1.
    9900012    2    1    2    0    0  0.37598154832E+02  0.15097823613E+02  0.34059546671E+01  0.50528855250E+02  0.29999986018E+02 0.  0.
         12    1    1    2    0    0 -0.37598154832E+02 -0.15097823613E+02 -0.34059546671E+01  0.40659144750E+02  0.00000000000E+00 0. -1.
         11    1    3    3    0    0  0.89096897170E+01  0.90775775249E+01  0.61015015026E+01  0.14107207570E+02  0.51100000000E-03 0. -1.
        -11    1    3    3    0    0  0.16571844088E+01  0.65023736689E+01 -0.62294953151E+01  0.91560764324E+01  0.51100000000E-03 0.  1.
        -12    1    3    3    0    0  0.27031280706E+02 -0.48212758071E+00  0.35339484796E+01  0.27265571248E+02  0.00000000000E+00 0.  1.
</event>
<event>
 7    1  0.2746803E-013  0.5052886E+02  0.7816164E-02  0.1300439E+00
        -11   -1    0    0    0    0  0.00000000000E+00  0.00000000000E+00  0.45593999997E+02  0.45594000000E+02  0.51100000000E-03 0.  1.
         11   -1    0    0    0    0 -0.00000000000E+00 -0.00000000000E+00 -0.45593999997E+02  0.45594000000E+02  0.51100000000E-03 0. -1.
    9900012    2    1    2    0    0 -0.28073878142E+02  0.14790459191E+01  0.29374059632E+02  0.50528860929E+02  0.30000003280E+02 0.  0.
         12    1    1    2    0    0  0.28073878142E+02 -0.14790459191E+01 -0.29374059632E+02  0.40659139071E+02  0.00000000000E+00 0. -1.
         11    1    3    3    0    0 -0.32157917175E+01  0.53520794018E+01 -0.29929305257E+01  0.69241392018E+01  0.51100000000E-03 0. -1.
        -11    1    3    3    0    0 -0.20295214251E+02 -0.32763817691E+01  0.14506286699E+02  0.25160738324E+02  0.51100000000E-03 0.  1.
         12    1    3    3    0    0 -0.45628721739E+01 -0.59665171359E+00  0.17860703458E+02  0.18443983403E+02  0.00000000000E+00 0. -1.
</event>
<event>
 7    1  0.2746803E-013  0.5052886E+02  0.7816164E-02  0.1300439E+00
        -11   -1    0    0    0    0  0.00000000000E+00  0.00000000000E+00  0.45593999997E+02  0.45594000000E+02  0.51100000000E-03 0.  1.
         11   -1    0    0    0    0 -0.00000000000E+00 -0.00000000000E+00 -0.45593999997E+02  0.45594000000E+02  0.51100000000E-03 0. -1.
    9900012    2    1    2    0    0  0.29439666144E+02 -0.11221013798E+02  0.25701370497E+02  0.50528861559E+02  0.30000005194E+02 0.  0.
         12    1    1    2    0    0 -0.29439666144E+02  0.11221013798E+02 -0.25701370497E+02  0.40659138441E+02  0.00000000000E+00 0. -1.
         11    1    3    3    0    0  0.21981394841E+02 -0.14984127010E+02  0.11271818684E+02  0.28892207914E+02  0.51100000000E-03 0. -1.
        -11    1    3    3    0    0  0.11503442133E+02  0.18777797877E+01  0.10642700366E+02  0.15783608877E+02  0.51100000000E-03 0.  1.
         12    1    3    3    0    0 -0.40451708305E+01  0.18853334247E+01  0.37868514469E+01  0.58530447675E+01  0.00000000000E+00 0. -1.
</event>
<event>
 7    1  0.2746803E-013  0.5052886E+02  0.7816164E-02  0.1300439E+00
        -11   -1    0    0    0    0  0.00000000000E+00  0.00000000000E+00  0.45593999997E+02  0.45594000000E+02  0.51100000000E-03 0. -1.
         11   -1    0    0    0    0 -0.00000000000E+00 -0.00000000000E+00 -0.45593999997E+02  0.45594000000E+02  0.51100000000E-03 0.  1.
    9900012    2    1    2    0    0 -0.36965367738E+02 -0.15093192457E+02 -0.76761048831E+01  0.50528862568E+02  0.30000008261E+02 0.  0.
         12    1    1    2    0    0  0.36965367738E+02  0.15093192457E+02  0.76761048831E+01  0.40659137432E+02  0.00000000000E+00 0. -1.
         11    1    3    3    0    0 -0.14591453125E+02 -0.16429175300E+02 -0.32850916544E+00  0.21975809971E+02  0.51100000000E-03 0. -1.
        -11    1    3    3    0    0 -0.27854776238E+01  0.32212927794E+01  0.39951073414E+01  0.58392204697E+01  0.51100000000E-03 0.  1.
        -12    1    3    3    0    0 -0.19588436989E+02 -0.18853099368E+01 -0.11342703059E+02  0.22713832128E+02  0.00000000000E+00 0.  1.
</event>
<event>
 7    1  0.2746803E-013  0.5052885E+02  0.7816164E-02  0.1300439E+00
        -11   -1    0    0    0    0  0.00000000000E+00  0.00000000000E+00  0.45593999997E+02  0.45594000000E+02  0.51100000000E-03 0. -1.
         11   -1    0    0    0    0 -0.00000000000E+00 -0.00000000000E+00 -0.45593999997E+02  0.45594000000E+02  0.51100000000E-03 0.  1.
    9900012    2    1    2    0    0 -0.40272763779E+02 -0.13125959328E+01  0.54358172424E+01  0.50528849498E+02  0.29999968534E+02 0.  0.
         12    1    1    2    0    0  0.40272763779E+02  0.13125959328E+01 -0.54358172424E+01  0.40659150502E+02  0.00000000000E+00 0. -1.
         11    1    3    3    0    0 -0.62784789916E+01 -0.55995477964E+01  0.35530638060E+01  0.91322777358E+01  0.51100000000E-03 0. -1.
        -11    1    3    3    0    0 -0.11778677733E+02 -0.52584018689E+00 -0.10256544800E+02  0.15627234833E+02  0.51100000000E-03 0.  1.
         12    1    3    3    0    0 -0.22215607054E+02  0.48127920505E+01  0.12139298236E+02  0.25769336929E+02  0.00000000000E+00 0. -1.
</event>
<event>
 7    1  0.2746803E-013  0.5052886E+02  0.7816164E-02  0.1300439E+00
        -11   -1    0    0    0    0  0.00000000000E+00  0.00000000000E+00  0.45593999997E+02  0.45594000000E+02  0.51100000000E-03 0.  1.
         11   -1    0    0    0    0 -0.00000000000E+00 -0.00000000000E+00 -0.45593999997E+02  0.45594000000E+02  0.51100000000E-03 0. -1.
    9900012    2    1    2    0    0 -0.34823991662E+02  0.16371408798E+02 -0.13131342054E+02  0.50528861231E+02  0.30000004198E+02 0.  0.
         12    1    1    2    0    0  0.34823991662E+02 -0.16371408798E+02  0.13131342054E+02  0.40659138769E+02  0.00000000000E+00 0. -1.
         11    1    3    3    0    0 -0.15178180339E+02  0.43792868222E+01 -0.12352565607E+02  0.20053458276E+02  0.51100000000E-03 0. -1.
        -11    1    3    3    0    0 -0.94628141560E+01  0.13848284289E+02 -0.72454297636E+01  0.18270634423E+02  0.51100000000E-03 0.  1.
        -12    1    3    3    0    0 -0.10182997167E+02 -0.18561623134E+01  0.64666533159E+01  0.12204768533E+02  0.00000000000E+00 0.  1.
</event>
<event>
 7    1  0.2746803E-013  0.5052886E+02  0.7816164E-02  0.1300439E+00
        -11   -1    0    0    0    0  0.00000000000E+00  0.00000000000E+00  0.45593999997E+02  0.45594000000E+02  0.51100000000E-03 0.  1.
         11   -1    0    0    0    0 -0.00000000000E+00 -0.00000000000E+00 -0.45593999997E+02  0.45594000000E+02  0.51100000000E-03 0. -1.
    9900012    2    1    2    0    0 -0.32432504798E+02 -0.22455015066E+02  0.98524557482E+01  0.50528856461E+02  0.29999989698E+02 0.  0.
         12    1    1    2    0    0  0.32432504798E+02  0.22455015066E+02 -0.98524557482E+01  0.40659143539E+02  0.00000000000E+00 0. -1.
         11    1    3    3    0    0 -0.22651956864E+02 -0.14222625255E+02  0.12539721290E+01  0.26776233217E+02  0.51100000000E-03 0. -1.
        -11    1    3    3    0    0 -0.54815192308E+01 -0.12885851206E+02  0.10070669026E+02  0.17248495276E+02  0.51100000000E-03 0.  1.
         12    1    3    3    0    0 -0.42990287038E+01  0.46534613960E+01 -0.14721854066E+01  0.65041279685E+01  0.00000000000E+00 0. -1.
</event>
<event>
 7    1  0.2746803E-013  0.5052885E+02  0.7816164E-02  0.1300439E+00
        -11   -1    0    0    0    0  0.00000000000E+00  0.00000000000E+00  0.45593999997E+02  0.45594000000E+02  0.51100000000E-03 0.  1.
         11   -1    0    0    0    0 -0.00000000000E+00 -0.00000000000E+00 -0.45593999997E+02  0.45594000000E+02  0.51100000000E-03 0. -1.
    9900012    2    1    2    0    0 -0.15793243633E+02  0.36151504163E+02  0.98391210332E+01  0.50528854652E+02  0.29999984201E+02 0.  0.
         12    1    1    2    0    0  0.15793243633E+02 -0.36151504163E+02 -0.98391210332E+01  0.40659145348E+02  0.00000000000E+00 0. -1.
         11    1    3    3    0    0 -0.13239172125E+02  0.24510761978E+02 -0.23925072110E+01  0.27960279367E+02  0.51100000000E-03 0. -1.
        -11    1    3    3    0    0  0.54286249102E+01  0.63607837626E+01  0.20811623534E+01  0.86174692047E+01  0.51100000000E-03 0.  1.
        -12    1    3    3    0    0 -0.79826964186E+01  0.52799584226E+01  0.10150465891E+02  0.13951106080E+02  0.00000000000E+00 0.  1.
</event>
<event>
 7    1  0.2746803E-013  0.5052886E+02  0.7816164E-02  0.1300439E+00
        -11   -1    0    0    0    0  0.00000000000E+00  0.00000000000E+00  0.45593999997E+02  0.45594000000E+02  0.51100000000E-03 0. -1.
         11   -1    0    0    0    0 -0.00000000000E+00 -0.00000000000E+00 -0.45593999997E+02  0.45594000000E+02  0.51100000000E-03 0.  1.
    9900012    2    1    2    0    0 -0.31571634651E+02 -0.25611209794E+02 -0.68065111586E+00  0.50528862434E+02  0.30000007855E+02 0.  0.
         12    1    1    2    0    0  0.31571634651E+02  0.25611209794E+02  0.68065111586E+00  0.40659137566E+02  0.00000000000E+00 0. -1.
         11    1    3    3    0    0  0.18683681749E+01 -0.26901123922E+01  0.55765824581E+01  0.64672850945E+01  0.51100000000E-03 0. -1.
        -11    1    3    3    0    0 -0.95197325218E+01 -0.15167703226E+01 -0.70669015534E+01  0.11952698328E+02  0.51100000000E-03 0.  1.
        -12    1    3    3    0    0 -0.23920270304E+02 -0.21404327079E+02  0.80966797935E+00  0.32108879012E+02  0.00000000000E+00 0.  1.
</event>
<event>
 7    1  0.2746803E-013  0.5052886E+02  0.7816164E-02  0.1300439E+00
        -11   -1    0    0    0    0  0.00000000000E+00  0.00000000000E+00  0.45593999997E+02  0.45594000000E+02  0.51100000000E-03 0.  1.
         11   -1    0    0    0    0 -0.00000000000E+00 -0.00000000000E+00 -0.45593999997E+02  0.45594000000E+02  0.51100000000E-03 0. -1.
    9900012    2    1    2    0    0 -0.38772577630E+02  0.23066368210E+01 -0.12022170172E+02  0.50528856808E+02  0.29999990753E+02 0.  0.
         12    1    1    2    0    0  0.38772577630E+02 -0.23066368210E+01  0.12022170172E+02  0.40659143192E+02  0.00000000000E+00 0. -1.
         11    1    3    3    0    0  0.10176302635E+01 -0.36939830627E+01 -0.34369272770E+01  0.51471887074E+01  0.51100000000E-03 0. -1.
        -11    1    3    3    0    0 -0.16593517603E+02 -0.68807615718E+01 -0.46735576632E+01  0.18561569107E+02  0.51100000000E-03 0.  1.
        -12    1    3    3    0    0 -0.23196690291E+02  0.12881381456E+02 -0.39116852318E+01  0.26820098993E+02  0.00000000000E+00 0.  1.
</event>
<event>
 7    1  0.2746803E-013  0.5052886E+02  0.7816164E-02  0.1300439E+00
        -11   -1    0    0    0    0  0.00000000000E+00  0.00000000000E+00  0.45593999997E+02  0.45594000000E+02  0.51100000000E-03 0.  1.
         11   -1    0    0    0    0 -0.00000000000E+00 -0.00000000000E+00 -0.45593999997E+02  0.45594000000E+02  0.51100000000E-03 0. -1.
    9900012    2    1    2    0    0 -0.59193460678E+01 -0.16692986348E+02  0.36598788317E+02  0.50528858870E+02  0.29999997022E+02 0.  0.
         12    1    1    2    0    0  0.59193460678E+01  0.16692986348E+02 -0.36598788317E+02  0.40659141130E+02  0.00000000000E+00 0. -1.
         11    1    3    3    0    0 -0.53153353286E+01 -0.78354023980E+01  0.12075923428E+02  0.15345170161E+02  0.51100000000E-03 0. -1.
        -11    1    3    3    0    0 -0.21390055867E+01 -0.11305777205E+01  0.26858112079E+02  0.26966863659E+02  0.51100000000E-03 0.  1.
         12    1    3    3    0    0  0.15349948474E+01 -0.77270062300E+01 -0.23352471897E+01  0.82168250497E+01  0.00000000000E+00 0. -1.
</event>
<event>
 7    1  0.2746803E-013  0.5052886E+02  0.7816164E-02  0.1300439E+00
        -11   -1    0    0    0    0  0.00000000000E+00  0.00000000000E+00  0.45593999997E+02  0.45594000000E+02  0.51100000000E-03 0.  1.
         11   -1    0    0    0    0 -0.00000000000E+00 -0.00000000000E+00 -0.45593999997E+02  0.45594000000E+02  0.51100000000E-03 0. -1.
    9900012    2    1    2    0    0 -0.26140778850E+02  0.14907458781E+02  0.27342153335E+02  0.50528855946E+02  0.29999988133E+02 0.  0.
         12    1    1    2    0    0  0.26140778850E+02 -0.14907458781E+02 -0.27342153335E+02  0.40659144054E+02  0.00000000000E+00 0. -1.
         11    1    3    3    0    0  0.17926025487E+01  0.31526809159E+00  0.11147926535E+02  0.11295533815E+02  0.51100000000E-03 0. -1.
        -11    1    3    3    0    0 -0.21637912329E+02  0.43007825943E+01  0.15849120740E+02  0.27164141977E+02  0.51100000000E-03 0.  1.
         12    1    3    3    0    0 -0.62954690707E+01  0.10291408095E+02  0.34510606026E+00  0.12069180154E+02  0.00000000000E+00 0. -1.
</event>
<event>
 7    1  0.2746803E-013  0.5052884E+02  0.7816164E-02  0.1300439E+00
        -11   -1    0    0    0    0  0.00000000000E+00  0.00000000000E+00  0.45593999997E+02  0.45594000000E+02  0.51100000000E-03 0.  1.
         11   -1    0    0    0    0 -0.00000000000E+00 -0.00000000000E+00 -0.45593999997E+02  0.45594000000E+02  0.51100000000E-03 0. -1.
    9900012    2    1    2    0    0  0.35891662765E+02 -0.49697298370E+01  0.18446082901E+02  0.50528835657E+02  0.29999926462E+02 0.  0.
         12    1    1    2    0    0 -0.35891662765E+02  0.49697298370E+01 -0.18446082901E+02  0.40659164343E+02  0.00000000000E+00 0. -1.
         11    1    3    3    0    0  0.11871183659E+02 -0.39130751497E+01  0.13973722455E+01  0.12577352983E+02  0.51100000000E-03 0. -1.
        -11    1    3    3    0    0  0.27120399964E+02 -0.62355209893E+01  0.13265615127E+02  0.30828142357E+02  0.51100000000E-03 0.  1.
        -12    1    3    3    0    0 -0.30999208580E+01  0.51788663020E+01  0.37830955288E+01  0.71233403176E+01  0.00000000000E+00 0.  1.
</event>
<event>
 7    1  0.2746803E-013  0.5052885E+02  0.7816164E-02  0.1300439E+00
        -11   -1    0    0    0    0  0.00000000000E+00  0.00000000000E+00  0.45593999997E+02  0.45594000000E+02  0.51100000000E-03 0.  1.
         11   -1    0    0    0    0 -0.00000000000E+00 -0.00000000000E+00 -0.45593999997E+02  0.45594000000E+02  0.51100000000E-03 0. -1.
    9900012    2    1    2    0    0 -0.14606847752E+02 -0.13198074018E+02  0.35575510949E+02  0.50528854186E+02  0.29999982783E+02 0.  0.
         12    1    1    2    0    0  0.14606847752E+02  0.13198074018E+02 -0.35575510949E+02  0.40659145814E+02  0.00000000000E+00 0. -1.
         11    1    3    3    0    0 -0.10580016646E+02 -0.46098129256E+01  0.39977202859E+01  0.12213471873E+02  0.51100000000E-03 0. -1.
        -11    1    3    3    0    0  0.48986321840E+00  0.58018651550E+01  0.13947319426E+02  0.15113878545E+02  0.51100000000E-03 0.  1.
        -12    1    3    3    0    0 -0.45166943245E+01 -0.14390126247E+02  0.17630471238E+02  0.23201503768E+02  0.00000000000E+00 0.  1.
</event>
<event>
 7    1  0.2746803E-013  0.5052886E+02  0.7816164E-02  0.1300439E+00
        -11   -1    0    0    0    0  0.00000000000E+00  0.00000000000E+00  0.45593999997E+02  0.45594000000E+02  0.51100000000E-03 0. -1.
         11   -1    0    0    0    0 -0.00000000000E+00 -0.00000000000E+00 -0.45593999997E+02  0.45594000000E+02  0.51100000000E-03 0.  1.
    9900012    2    1    2    0    0  0.34992610931E+02  0.44967635924E+01 -0.20210442419E+02  0.50528859757E+02  0.29999999716E+02 0.  0.
         12    1    1    2    0    0 -0.34992610931E+02 -0.44967635924E+01  0.20210442419E+02  0.40659140243E+02  0.00000000000E+00 0. -1.
         11    1    3    3    0    0  0.23087366954E+01 -0.28166310371E+01 -0.12947546667E+01  0.38652380827E+01  0.51100000000E-03 0. -1.
        -11    1    3    3    0    0  0.14402880714E+02  0.82775292717E+01 -0.22541684128E+02  0.28001571157E+02  0.51100000000E-03 0.  1.
         12    1    3    3    0    0  0.18280993522E+02 -0.96413464214E+00  0.36259963761E+01  0.18662050516E+02  0.00000000000E+00 0. -1.
</event>
<event>
 7    1  0.2746803E-013  0.5052889E+02  0.7816164E-02  0.1300439E+00
        -11   -1    0    0    0    0  0.00000000000E+00  0.00000000000E+00  0.45593999997E+02  0.45594000000E+02  0.51100000000E-03 0.  1.
         11   -1    0    0    0    0 -0.00000000000E+00 -0.00000000000E+00 -0.45593999997E+02  0.45594000000E+02  0.51100000000E-03 0. -1.
    9900012    2    1    2    0    0  0.13512515981E+02 -0.22489908564E+02  0.31060894537E+02  0.50528889769E+02  0.30000090942E+02 0.  0.
         12    1    1    2    0    0 -0.13512515981E+02  0.22489908564E+02 -0.31060894537E+02  0.40659110231E+02  0.00000000000E+00 0. -1.
         11    1    3    3    0    0  0.13871722656E+02 -0.55729229444E+01  0.89666459898E+01  0.17432237382E+02  0.51100000000E-03 0. -1.
        -11    1    3    3    0    0  0.33155316968E+01 -0.15763482893E+02  0.70788916570E+01  0.17595193966E+02  0.51100000000E-03 0.  1.
        -12    1    3    3    0    0 -0.36747383714E+01 -0.11535027264E+01  0.15015356890E+02  0.15501458421E+02  0.00000000000E+00 0.  1.
</event>
<event>
 7    1  0.2746803E-013  0.5052886E+02  0.7816164E-02  0.1300439E+00
        -11   -1    0    0    0    0  0.00000000000E+00  0.00000000000E+00  0.45593999997E+02  0.45594000000E+02  0.51100000000E-03 0.  1.
         11   -1    0    0    0    0 -0.00000000000E+00 -0.00000000000E+00 -0.45593999997E+02  0.45594000000E+02  0.51100000000E-03 0. -1.
    9900012    2    1    2    0    0  0.16131160850E+02  0.16388967395E+02  0.33531376606E+02  0.50528858104E+02  0.29999994692E+02 0.  0.
         12    1    1    2    0    0 -0.16131160850E+02 -0.16388967395E+02 -0.33531376606E+02  0.40659141896E+02  0.00000000000E+00 0. -1.
         11    1    3    3    0    0 -0.54941297318E+01  0.38625049332E+01  0.52280109727E+01  0.85109638032E+01  0.51100000000E-03 0. -1.
        -11    1    3    3    0    0  0.59616240712E+01  0.96117242468E+01  0.23311160184E+01  0.11548173306E+02  0.51100000000E-03 0.  1.
        -12    1    3    3    0    0  0.15663666511E+02  0.29147382156E+01  0.25972249614E+02  0.30469720994E+02  0.00000000000E+00 0.  1.
</event>
<event>
 7    1  0.2746803E-013  0.5052886E+02  0.7816164E-02  0.1300439E+00
        -11   -1    0    0    0    0  0.00000000000E+00  0.00000000000E+00  0.45593999997E+02  0.45594000000E+02  0.51100000000E-03 0.  1.
         11   -1    0    0    0    0 -0.00000000000E+00 -0.00000000000E+00 -0.45593999997E+02  0.45594000000E+02  0.51100000000E-03 0. -1.
    9900012    2    1    2    0    0  0.18080571753E+02 -0.25090255214E+00  0.36416966652E+02  0.50528862194E+02  0.30000007126E+02 0.  0.
         12    1    1    2    0    0 -0.18080571753E+02  0.25090255214E+00 -0.36416966652E+02  0.40659137806E+02  0.00000000000E+00 0. -1.
         11    1    3    3    0    0  0.42438537081E+01 -0.20652746359E+01  0.22450527188E-01  0.47197624839E+01  0.51100000000E-03 0. -1.
        -11    1    3    3    0    0  0.93836805328E+01 -0.37565483371E+01  0.15302668504E+01  0.10222858340E+02  0.51100000000E-03 0.  1.
         12    1    3    3    0    0  0.44530375118E+01  0.55709204209E+01  0.34864249274E+02  0.35586241370E+02  0.00000000000E+00 0. -1.
</event>
<event>
 7    1  0.2746803E-013  0.5052886E+02  0.7816164E-02  0.1300439E+00
        -11   -1    0    0    0    0  0.00000000000E+00  0.00000000000E+00  0.45593999997E+02  0.45594000000E+02  0.51100000000E-03 0.  1.
         11   -1    0    0    0    0 -0.00000000000E+00 -0.00000000000E+00 -0.45593999997E+02  0.45594000000E+02  0.51100000000E-03 0. -1.
    9900012    2    1    2    0    0 -0.14335275000E+02  0.36857461257E+02  0.94442114529E+01  0.50528859704E+02  0.29999999557E+02 0.  0.
         12    1    1    2    0    0  0.14335275000E+02 -0.36857461257E+02 -0.94442114529E+01  0.40659140296E+02  0.00000000000E+00 0. -1.
         11    1    3    3    0    0 -0.10969984397E+02  0.80507261828E+01  0.30598463178E+01  0.13946949827E+02  0.51100000000E-03 0. -1.
        -11    1    3    3    0    0 -0.74618454706E+01  0.26043432099E+02 -0.16588442578E+01  0.27142056994E+02  0.51100000000E-03 0.  1.
         12    1    3    3    0    0  0.40965548671E+01  0.27633029747E+01  0.80432093929E+01  0.94398528827E+01  0.00000000000E+00 0. -1.
</event>
<event>
 7    1  0.2746803E-013  0.5052886E+02  0.7816164E-02  0.1300439E+00
        -11   -1    0    0    0    0  0.00000000000E+00  0.00000000000E+00  0.45593999997E+02  0.45594000000E+02  0.51100000000E-03 0.  1.
         11   -1    0    0    0    0 -0.00000000000E+00 -0.00000000000E+00 -0.45593999997E+02  0.45594000000E+02  0.51100000000E-03 0. -1.
    9900012    2    1    2    0    0 -0.78042945590E+01 -0.33792263448E+01  0.39759769467E+02  0.50528862622E+02  0.30000008425E+02 0.  0.
         12    1    1    2    0    0  0.78042945590E+01  0.33792263448E+01 -0.39759769467E+02  0.40659137378E+02  0.00000000000E+00 0. -1.
         11    1    3    3    0    0 -0.63448925499E+01  0.56657137124E+01  0.81788336943E+01  0.11800478558E+02  0.51100000000E-03 0.  1.
        -11    1    3    3    0    0 -0.66611286668E+01 -0.13269970150E+02  0.26277664354E+02  0.30182418509E+02  0.51100000000E-03 0. -1.
         12    1    3    3    0    0  0.52017266577E+01  0.42250300932E+01  0.53032714193E+01  0.85459655544E+01  0.00000000000E+00 0. -1.
</event>
<event>
 7    1  0.2746803E-013  0.5052886E+02  0.7816164E-02  0.1300439E+00
        -11   -1    0    0    0    0  0.00000000000E+00  0.00000000000E+00  0.45593999997E+02  0.45594000000E+02  0.51100000000E-03 0. -1.
         11   -1    0    0    0    0 -0.00000000000E+00 -0.00000000000E+00 -0.45593999997E+02  0.45594000000E+02  0.51100000000E-03 0.  1.
    9900012    2    1    2    0    0  0.97992946449E+01  0.13880155625E+02 -0.36938878499E+02  0.50528860308E+02  0.30000001393E+02 0.  0.
         12    1    1    2    0    0 -0.97992946449E+01 -0.13880155625E+02  0.36938878499E+02  0.40659139692E+02  0.00000000000E+00 0. -1.
         11    1    3    3    0    0 -0.46845947291E+01  0.36806215431E+01 -0.21540663207E+02  0.22349330513E+02  0.51100000000E-03 0.  1.
        -11    1    3    3    0    0  0.14047231973E+01  0.10133230896E+01  0.32112975615E+01  0.36486303231E+01  0.51100000000E-03 0. -1.
        -12    1    3    3    0    0  0.13079166177E+02  0.91862109921E+01 -0.18609512854E+02  0.24530899472E+02  0.00000000000E+00 0.  1.
</event>
<event>
 7    1  0.2746803E-013  0.5052886E+02  0.7816164E-02  0.1300439E+00
        -11   -1    0    0    0    0  0.00000000000E+00  0.00000000000E+00  0.45593999997E+02  0.45594000000E+02  0.51100000000E-03 0.  1.
         11   -1    0    0    0    0 -0.00000000000E+00 -0.00000000000E+00 -0.45593999997E+02  0.45594000000E+02  0.51100000000E-03 0. -1.
    9900012    2    1    2    0    0  0.12780828607E+01  0.35385990285E+02  0.19984092704E+02  0.50528858771E+02  0.29999996721E+02 0.  0.
         12    1    1    2    0    0 -0.12780828607E+01 -0.35385990285E+02 -0.19984092704E+02  0.40659141229E+02  0.00000000000E+00 0. -1.
         11    1    3    3    0    0 -0.54817557773E+01  0.10890328753E+02  0.17328721211E+01  0.12314696618E+02  0.51100000000E-03 0. -1.
        -11    1    3    3    0    0 -0.39135033451E+01  0.13822359197E+02  0.18114179684E+02  0.23119183119E+02  0.51100000000E-03 0.  1.
         12    1    3    3    0    0  0.10673341983E+02  0.10673302335E+02  0.13704089852E+00  0.15094979034E+02  0.00000000000E+00 0. -1.
</event>
<event>
 7    1  0.2746803E-013  0.5052887E+02  0.7816164E-02  0.1300439E+00
        -11   -1    0    0    0    0  0.00000000000E+00  0.00000000000E+00  0.45593999997E+02  0.45594000000E+02  0.51100000000E-03 0.  1.
         11   -1    0    0    0    0 -0.00000000000E+00 -0.00000000000E+00 -0.45593999997E+02  0.45594000000E+02  0.51100000000E-03 0. -1.
    9900012    2    1    2    0    0  0.12181503182E+02 -0.83408608616E+01  0.37884115712E+02  0.50528865689E+02  0.30000017747E+02 0.  0.
         12    1    1    2    0    0 -0.12181503182E+02  0.83408608616E+01 -0.37884115712E+02  0.40659134311E+02  0.00000000000E+00 0. -1.
         11    1    3    3    0    0  0.55592786094E+01  0.87075556100E+01  0.14722020047E+02  0.17985132135E+02  0.51100000000E-03 0. -1.
        -11    1    3    3    0    0  0.10214204534E+02 -0.76901614730E+01  0.11895478735E+02  0.17463418117E+02  0.51100000000E-03 0.  1.
         12    1    3    3    0    0 -0.35919799605E+01 -0.93582549985E+01  0.11266616929E+02  0.15080315437E+02  0.00000000000E+00 0. -1.
</event>
<event>
 7    1  0.2746803E-013  0.5052886E+02  0.7816164E-02  0.1300439E+00
        -11   -1    0    0    0    0  0.00000000000E+00  0.00000000000E+00  0.45593999997E+02  0.45594000000E+02  0.51100000000E-03 0. -1.
         11   -1    0    0    0    0 -0.00000000000E+00 -0.00000000000E+00 -0.45593999997E+02  0.45594000000E+02  0.51100000000E-03 0.  1.
    9900012    2    1    2    0    0 -0.11493355856E+02  0.66188679217E+01 -0.38435123315E+02  0.50528863934E+02  0.30000012414E+02 0.  0.
         12    1    1    2    0    0  0.11493355856E+02 -0.66188679217E+01  0.38435123315E+02  0.40659136066E+02  0.00000000000E+00 0. -1.
         11    1    3    3    0    0 -0.14938071063E+01 -0.35873895909E+01 -0.11458380381E+02  0.12099392752E+02  0.51100000000E-03 0. -1.
        -11    1    3    3    0    0 -0.16431330687E+02  0.62118099124E+01 -0.25087496293E+02  0.30626094773E+02  0.51100000000E-03 0.  1.
         12    1    3    3    0    0  0.64317819367E+01  0.39944476001E+01 -0.18892466402E+01  0.78033764089E+01  0.00000000000E+00 0. -1.
</event>
<event>
 7    1  0.2746803E-013  0.5052886E+02  0.7816164E-02  0.1300439E+00
        -11   -1    0    0    0    0  0.00000000000E+00  0.00000000000E+00  0.45593999997E+02  0.45594000000E+02  0.51100000000E-03 0.  1.
         11   -1    0    0    0    0 -0.00000000000E+00 -0.00000000000E+00 -0.45593999997E+02  0.45594000000E+02  0.51100000000E-03 0. -1.
    9900012    2    1    2    0    0  0.13609347851E+02 -0.28381255002E+02  0.25738209153E+02  0.50528863329E+02  0.30000010575E+02 0.  0.
         12    1    1    2    0    0 -0.13609347851E+02  0.28381255002E+02 -0.25738209153E+02  0.40659136671E+02  0.00000000000E+00 0. -1.
         11    1    3    3    0    0 -0.69996305614E+01 -0.27977782309E+01  0.50147597709E+01  0.90537399370E+01  0.51100000000E-03 0. -1.
        -11    1    3    3    0    0 -0.94219550359E-01  0.16643209896E+01  0.13907351800E+01  0.21709413355E+01  0.51100000000E-03 0.  1.
         12    1    3    3    0    0  0.20703197962E+02 -0.27247797761E+02  0.19332714202E+02  0.39304182056E+02  0.00000000000E+00 0. -1.
</event>
<event>
 7    1  0.2746803E-013  0.5052885E+02  0.7816164E-02  0.1300439E+00
        -11   -1    0    0    0    0  0.00000000000E+00  0.00000000000E+00  0.45593999997E+02  0.45594000000E+02  0.51100000000E-03 0.  1.
         11   -1    0    0    0    0 -0.00000000000E+00 -0.00000000000E+00 -0.45593999997E+02  0.45594000000E+02  0.51100000000E-03 0. -1.
    9900012    2    1    2    0    0 -0.16452955392E+02 -0.13863141382E+01  0.37155682162E+02  0.50528851891E+02  0.29999975806E+02 0.  0.
         12    1    1    2    0    0  0.16452955392E+02  0.13863141382E+01 -0.37155682162E+02  0.40659148109E+02  0.00000000000E+00 0. -1.
         11    1    3    3    0    0 -0.73461259010E+01 -0.42003294674E+01  0.51422992438E+01  0.99020995330E+01  0.51100000000E-03 0. -1.
        -11    1    3    3    0    0 -0.16170936664E+02 -0.22576187869E+00  0.26914185939E+02  0.31399419836E+02  0.51100000000E-03 0.  1.
        -12    1    3    3    0    0  0.70641071728E+01  0.30397772079E+01  0.50991969794E+01  0.92273325212E+01  0.00000000000E+00 0.  1.
</event>
<event>
 7    1  0.2746803E-013  0.5052887E+02  0.7816164E-02  0.1300439E+00
        -11   -1    0    0    0    0  0.00000000000E+00  0.00000000000E+00  0.45593999997E+02  0.45594000000E+02  0.51100000000E-03 0.  1.
         11   -1    0    0    0    0 -0.00000000000E+00 -0.00000000000E+00 -0.45593999997E+02  0.45594000000E+02  0.51100000000E-03 0. -1.
    9900012    2    1    2    0    0 -0.18040411859E+02  0.47631241802E+01  0.36125073258E+02  0.50528871506E+02  0.30000035428E+02 0.  0.
         12    1    1    2    0    0  0.18040411859E+02 -0.47631241802E+01 -0.36125073258E+02  0.40659128494E+02  0.00000000000E+00 0. -1.
         11    1    3    3    0    0 -0.10820711957E+02 -0.40542712120E+01  0.24798678668E+02  0.27358716824E+02  0.51100000000E-03 0. -1.
        -11    1    3    3    0    0 -0.11116947447E+02  0.26786973393E+01  0.11037600422E+02  0.15893097977E+02  0.51100000000E-03 0.  1.
         12    1    3    3    0    0  0.38972475442E+01  0.61386980529E+01  0.28879416795E+00  0.72770567042E+01  0.00000000000E+00 0. -1.
</event>
<event>
 7    1  0.2746803E-013  0.5052886E+02  0.7816164E-02  0.1300439E+00
        -11   -1    0    0    0    0  0.00000000000E+00  0.00000000000E+00  0.45593999997E+02  0.45594000000E+02  0.51100000000E-03 0. -1.
         11   -1    0    0    0    0 -0.00000000000E+00 -0.00000000000E+00 -0.45593999997E+02  0.45594000000E+02  0.51100000000E-03 0.  1.
    9900012    2    1    2    0    0 -0.66185579643E+01  0.31703395020E+02 -0.24581608649E+02  0.50528855283E+02  0.29999986118E+02 0.  0.
         12    1    1    2    0    0  0.66185579643E+01 -0.31703395020E+02  0.24581608649E+02  0.40659144717E+02  0.00000000000E+00 0. -1.
         11    1    3    3    0    0 -0.35827031631E+01 -0.47840582803E+00 -0.13140371382E+01  0.38459495515E+01  0.51100000000E-03 0. -1.
        -11    1    3    3    0    0 -0.29291252438E+01  0.14020130975E+02  0.31107578709E+01  0.14656761650E+02  0.51100000000E-03 0.  1.
        -12    1    3    3    0    0 -0.10672955736E+00  0.18161669873E+02 -0.26378329382E+02  0.32026144082E+02  0.00000000000E+00 0.  1.
</event>
<event>
 7    1  0.2746803E-013  0.5052886E+02  0.7816164E-02  0.1300439E+00
        -11   -1    0    0    0    0  0.00000000000E+00  0.00000000000E+00  0.45593999997E+02  0.45594000000E+02  0.51100000000E-03 0.  1.
         11   -1    0    0    0    0 -0.00000000000E+00 -0.00000000000E+00 -0.45593999997E+02  0.45594000000E+02  0.51100000000E-03 0. -1.
    9900012    2    1    2    0    0  0.13226378061E+02 -0.36229673149E+02  0.12870089823E+02  0.50528861972E+02  0.30000006451E+02 0.  0.
         12    1    1    2    0    0 -0.13226378061E+02  0.36229673149E+02 -0.12870089823E+02  0.40659138028E+02  0.00000000000E+00 0. -1.
         11    1    3    3    0    0 -0.41523393833E+01 -0.62282151574E-01  0.22567849552E+01  0.47264024390E+01  0.51100000000E-03 0. -1.
        -11    1    3    3    0    0  0.14688268056E+02 -0.94506396467E+01  0.65056215094E+01  0.18638211279E+02  0.51100000000E-03 0.  1.
        -12    1    3    3    0    0  0.26904493892E+01 -0.26716751350E+02  0.41076833586E+01  0.27164248254E+02  0.00000000000E+00 0.  1.
</event>
<event>
 7    1  0.2746803E-013  0.5052893E+02  0.7816164E-02  0.1300439E+00
        -11   -1    0    0    0    0  0.00000000000E+00  0.00000000000E+00  0.45593999997E+02  0.45594000000E+02  0.51100000000E-03 0. -1.
         11   -1    0    0    0    0 -0.00000000000E+00 -0.00000000000E+00 -0.45593999997E+02  0.45594000000E+02  0.51100000000E-03 0.  1.
    9900012    2    1    2    0    0 -0.50496492902E+01 -0.31632466610E+02 -0.25040927270E+02  0.50528930405E+02  0.30000214458E+02 0.  0.
         12    1    1    2    0    0  0.50496492902E+01  0.31632466610E+02  0.25040927270E+02  0.40659069595E+02  0.00000000000E+00 0. -1.
         11    1    3    3    0    0  0.33284229451E+01  0.22865461471E+01 -0.20920149002E+01  0.45478807360E+01  0.51100000000E-03 0. -1.
        -11    1    3    3    0    0  0.17675633329E+01  0.18466317529E+01 -0.68081117940E+00  0.26453417719E+01  0.51100000000E-03 0.  1.
        -12    1    3    3    0    0 -0.10145635568E+02 -0.35765644510E+02 -0.22268101190E+02  0.43335707897E+02  0.00000000000E+00 0.  1.
</event>
<event>
 7    1  0.2746803E-013  0.5052886E+02  0.7816164E-02  0.1300439E+00
        -11   -1    0    0    0    0  0.00000000000E+00  0.00000000000E+00  0.45593999997E+02  0.45594000000E+02  0.51100000000E-03 0. -1.
         11   -1    0    0    0    0 -0.00000000000E+00 -0.00000000000E+00 -0.45593999997E+02  0.45594000000E+02  0.51100000000E-03 0.  1.
    9900012    2    1    2    0    0 -0.21581381924E+02  0.26051002238E+02 -0.22555587669E+02  0.50528864514E+02  0.30000014178E+02 0.  0.
         12    1    1    2    0    0  0.21581381924E+02 -0.26051002238E+02  0.22555587669E+02  0.40659135486E+02  0.00000000000E+00 0. -1.
         11    1    3    3    0    0 -0.31317170696E+01  0.22746621533E+01  0.28111566890E+01  0.47837581363E+01  0.51100000000E-03 0. -1.
        -11    1    3    3    0    0 -0.10254550905E+02 -0.15510168076E+01 -0.12306147557E+02  0.16093561922E+02  0.51100000000E-03 0.  1.
        -12    1    3    3    0    0 -0.81951139489E+01  0.25327356892E+02 -0.13060596802E+02  0.29651544455E+02  0.00000000000E+00 0.  1.
</event>
<event>
 7    1  0.2746803E-013  0.5052885E+02  0.7816164E-02  0.1300439E+00
        -11   -1    0    0    0    0  0.00000000000E+00  0.00000000000E+00  0.45593999997E+02  0.45594000000E+02  0.51100000000E-03 0.  1.
         11   -1    0    0    0    0 -0.00000000000E+00 -0.00000000000E+00 -0.45593999997E+02  0.45594000000E+02  0.51100000000E-03 0. -1.
    9900012    2    1    2    0    0 -0.10202154492E+02  0.30635753941E+02  0.24708965762E+02  0.50528851400E+02  0.29999974316E+02 0.  0.
         12    1    1    2    0    0  0.10202154492E+02 -0.30635753941E+02 -0.24708965762E+02  0.40659148600E+02  0.00000000000E+00 0. -1.
         11    1    3    3    0    0  0.60977992168E+01  0.62766743774E+01  0.81780658388E+00  0.87891185223E+01  0.51100000000E-03 0. -1.
        -11    1    3    3    0    0 -0.30752630908E+01  0.18134741077E+02  0.77370629012E+01  0.19954654084E+02  0.51100000000E-03 0.  1.
        -12    1    3    3    0    0 -0.13224690618E+02  0.62243384871E+01  0.16154096277E+02  0.21785078794E+02  0.00000000000E+00 0.  1.
</event>
<event>
 7    1  0.2746803E-013  0.5052885E+02  0.7816164E-02  0.1300439E+00
        -11   -1    0    0    0    0  0.00000000000E+00  0.00000000000E+00  0.45593999997E+02  0.45594000000E+02  0.51100000000E-03 0. -1.
         11   -1    0    0    0    0 -0.00000000000E+00 -0.00000000000E+00 -0.45593999997E+02  0.45594000000E+02  0.51100000000E-03 0.  1.
    9900012    2    1    2    0    0 -0.21281763052E+02  0.60752343675E+01 -0.34107832758E+02  0.50528853837E+02  0.29999981723E+02 0.  0.
         12    1    1    2    0    0  0.21281763052E+02 -0.60752343675E+01  0.34107832758E+02  0.40659146163E+02  0.00000000000E+00 0. -1.
         11    1    3    3    0    0 -0.46326385298E+01 -0.56160491603E+01  0.10196860965E+01  0.73512657356E+01  0.51100000000E-03 0. -1.
        -11    1    3    3    0    0 -0.80114068105E+01 -0.25604564485E+01 -0.12815593599E+02  0.15328992657E+02  0.51100000000E-03 0.  1.
         12    1    3    3    0    0 -0.86377177119E+01  0.14251739976E+02 -0.22311925256E+02  0.27848595444E+02  0.00000000000E+00 0. -1.
</event>
<event>
 7    1  0.2746803E-013  0.5052886E+02  0.7816164E-02  0.1300439E+00
        -11   -1    0    0    0    0  0.00000000000E+00  0.00000000000E+00  0.45593999997E+02  0.45594000000E+02  0.51100000000E-03 0.  1.
         11   -1    0    0    0    0 -0.00000000000E+00 -0.00000000000E+00 -0.45593999997E+02  0.45594000000E+02  0.51100000000E-03 0. -1.
    9900012    2    1    2    0    0  0.16513772008E+02  0.33613227852E+01  0.37002194953E+02  0.50528860952E+02  0.30000003348E+02 0.  0.
         12    1    1    2    0    0 -0.16513772008E+02 -0.33613227852E+01 -0.37002194953E+02  0.40659139048E+02  0.00000000000E+00 0. -1.
         11    1    3    3    0    0 -0.22020942632E+00  0.56183338574E+00 -0.22306854311E+01  0.23108670880E+01  0.51100000000E-03 0. -1.
        -11    1    3    3    0    0  0.15512701084E+02 -0.57137620682E+01  0.14350735108E+02  0.21891426868E+02  0.51100000000E-03 0.  1.
         12    1    3    3    0    0  0.12212803506E+01  0.85132514677E+01  0.24882145276E+02  0.26326566996E+02  0.00000000000E+00 0. -1.
</event>
<event>
 7    1  0.2746803E-013  0.5052886E+02  0.7816164E-02  0.1300439E+00
        -11   -1    0    0    0    0  0.00000000000E+00  0.00000000000E+00  0.45593999997E+02  0.45594000000E+02  0.51100000000E-03 0. -1.
         11   -1    0    0    0    0 -0.00000000000E+00 -0.00000000000E+00 -0.45593999997E+02  0.45594000000E+02  0.51100000000E-03 0.  1.
    9900012    2    1    2    0    0 -0.26587196474E+02  0.30714965958E+02  0.16962372460E+01  0.50528863623E+02  0.30000011468E+02 0.  0.
         12    1    1    2    0    0  0.26587196474E+02 -0.30714965958E+02 -0.16962372460E+01  0.40659136377E+02  0.00000000000E+00 0. -1.
         11    1    3    3    0    0  0.23199459567E+01 -0.16528495084E+01 -0.43335520875E+01  0.51859169580E+01  0.51100000000E-03 0. -1.
        -11    1    3    3    0    0 -0.14131964016E+02  0.10968437602E+02 -0.23011389393E+01  0.18036470582E+02  0.51100000000E-03 0.  1.
        -12    1    3    3    0    0 -0.14775178415E+02  0.21399377864E+02  0.83309282728E+01  0.27306476083E+02  0.00000000000E+00 0.  1.
</event>
<event>
 7    1  0.2746803E-013  0.5052884E+02  0.7816164E-02  0.1300439E+00
        -11   -1    0    0    0    0  0.00000000000E+00  0.00000000000E+00  0.45593999997E+02  0.45594000000E+02  0.51100000000E-03 0.  1.
         11   -1    0    0    0    0 -0.00000000000E+00 -0.00000000000E+00 -0.45593999997E+02  0.45594000000E+02  0.51100000000E-03 0. -1.
    9900012    2    1    2    0    0 -0.75264995462E+01 -0.23820029508E+01  0.39885403676E+02  0.50528836705E+02  0.29999929648E+02 0.  0.
         12    1    1    2    0    0  0.75264995462E+01  0.23820029508E+01 -0.39885403676E+02  0.40659163295E+02  0.00000000000E+00 0. -1.
         11    1    3    3    0    0 -0.50659783862E+01 -0.12467288651E+01  0.27052008118E+01  0.58767832669E+01  0.51100000000E-03 0. -1.
        -11    1    3    3    0    0 -0.99445935158E+01  0.80121534023E+01  0.16950389664E+02  0.21222753176E+02  0.51100000000E-03 0.  1.
         12    1    3    3    0    0  0.74840723558E+01 -0.91474274880E+01  0.20229813200E+02  0.23429300262E+02  0.00000000000E+00 0. -1.
</event>
<event>
 7    1  0.2746803E-013  0.5052886E+02  0.7816164E-02  0.1300439E+00
        -11   -1    0    0    0    0  0.00000000000E+00  0.00000000000E+00  0.45593999997E+02  0.45594000000E+02  0.51100000000E-03 0.  1.
         11   -1    0    0    0    0 -0.00000000000E+00 -0.00000000000E+00 -0.45593999997E+02  0.45594000000E+02  0.51100000000E-03 0. -1.
    9900012    2    1    2    0    0  0.84446226976E+01  0.64667534215E+01  0.39243281927E+02  0.50528859223E+02  0.29999998094E+02 0.  0.
         12    1    1    2    0    0 -0.84446226976E+01 -0.64667534215E+01 -0.39243281927E+02  0.40659140777E+02  0.00000000000E+00 0. -1.
         11    1    3    3    0    0  0.20590361362E+01 -0.11742255139E+01  0.47620643094E+00  0.24176865375E+01  0.51100000000E-03 0. -1.
        -11    1    3    3    0    0  0.12732620910E+01 -0.98372654611E+01  0.10156649908E+02  0.14196849148E+02  0.51100000000E-03 0.  1.
        -12    1    3    3    0    0  0.51123244704E+01  0.17478244397E+02  0.28610425588E+02  0.33914323537E+02  0.00000000000E+00 0.  1.
</event>
<event>
 7    1  0.2746803E-013  0.5052886E+02  0.7816164E-02  0.1300439E+00
        -11   -1    0    0    0    0  0.00000000000E+00  0.00000000000E+00  0.45593999997E+02  0.45594000000E+02  0.51100000000E-03 0.  1.
         11   -1    0    0    0    0 -0.00000000000E+00 -0.00000000000E+00 -0.45593999997E+02  0.45594000000E+02  0.51100000000E-03 0. -1.
    9900012    2    1    2    0    0  0.14303109735E+02 -0.17980674694E+02  0.33545218798E+02  0.50528864314E+02  0.30000013568E+02 0.  0.
         12    1    1    2    0    0 -0.14303109735E+02  0.17980674694E+02 -0.33545218798E+02  0.40659135686E+02  0.00000000000E+00 0. -1.
         11    1    3    3    0    0  0.53823986530E+01 -0.92554346052E+01  0.15205390980E+02  0.18596698635E+02  0.51100000000E-03 0. -1.
        -11    1    3    3    0    0  0.12858027632E+02 -0.11205809136E+02  0.49542428684E+01  0.17760730718E+02  0.51100000000E-03 0.  1.
         12    1    3    3    0    0 -0.39373165502E+01  0.24805690473E+01  0.13385584949E+02  0.14171434961E+02  0.00000000000E+00 0. -1.
</event>
<event>
 7    1  0.2746803E-013  0.5052885E+02  0.7816164E-02  0.1300439E+00
        -11   -1    0    0    0    0  0.00000000000E+00  0.00000000000E+00  0.45593999997E+02  0.45594000000E+02  0.51100000000E-03 0.  1.
         11   -1    0    0    0    0 -0.00000000000E+00 -0.00000000000E+00 -0.45593999997E+02  0.45594000000E+02  0.51100000000E-03 0. -1.
    9900012    2    1    2    0    0 -0.22649355294E+02  0.24330665886E+02  0.23413489718E+02  0.50528854676E+02  0.29999984274E+02 0.  0.
         12    1    1    2    0    0  0.22649355294E+02 -0.24330665886E+02 -0.23413489718E+02  0.40659145324E+02  0.00000000000E+00 0. -1.
         11    1    3    3    0    0 -0.19937352475E+02  0.14458094495E+02  0.43032583618E+01  0.25001051036E+02  0.51100000000E-03 0. -1.
        -11    1    3    3    0    0 -0.76413727105E+01  0.83493455729E+01  0.10223453186E+02  0.15251922623E+02  0.51100000000E-03 0.  1.
         12    1    3    3    0    0  0.49293698916E+01  0.15232258184E+01  0.88867781710E+01  0.10275881017E+02  0.00000000000E+00 0. -1.
</event>
<event>
 7    1  0.2746803E-013  0.5052883E+02  0.7816164E-02  0.1300439E+00
        -11   -1    0    0    0    0  0.00000000000E+00  0.00000000000E+00  0.45593999997E+02  0.45594000000E+02  0.51100000000E-03 0. -1.
         11   -1    0    0    0    0 -0.00000000000E+00 -0.00000000000E+00 -0.45593999997E+02  0.45594000000E+02  0.51100000000E-03 0.  1.
    9900012    2    1    2    0    0  0.12381249263E+02 -0.17313703332E+02 -0.34642581169E+02  0.50528830230E+02  0.29999909966E+02 0.  0.
         12    1    1    2    0    0 -0.12381249263E+02  0.17313703332E+02  0.34642581169E+02  0.40659169770E+02  0.00000000000E+00 0. -1.
         11    1    3    3    0    0  0.11236511526E+02 -0.55277565734E+01 -0.46058389719E+01  0.13342752223E+02  0.51100000000E-03 0. -1.
        -11    1    3    3    0    0  0.83090386322E+01 -0.21464700587E+01 -0.65119929349E+01  0.10772813419E+02  0.51100000000E-03 0.  1.
         12    1    3    3    0    0 -0.71643008949E+01 -0.96394766997E+01 -0.23524749262E+02  0.26413264588E+02  0.00000000000E+00 0. -1.
</event>
<event>
 7    1  0.2746803E-013  0.5052886E+02  0.7816164E-02  0.1300439E+00
        -11   -1    0    0    0    0  0.00000000000E+00  0.00000000000E+00  0.45593999997E+02  0.45594000000E+02  0.51100000000E-03 0. -1.
         11   -1    0    0    0    0 -0.00000000000E+00 -0.00000000000E+00 -0.45593999997E+02  0.45594000000E+02  0.51100000000E-03 0.  1.
    9900012    2    1    2    0    0  0.15616500859E+02  0.36783921581E+02  0.74989302301E+01  0.50528856618E+02  0.29999990177E+02 0.  0.
         12    1    1    2    0    0 -0.15616500859E+02 -0.36783921581E+02 -0.74989302301E+01  0.40659143382E+02  0.00000000000E+00 0. -1.
         11    1    3    3    0    0 -0.18604021348E+01  0.79222531687E+01  0.46557008629E+01  0.93754329050E+01  0.51100000000E-03 0. -1.
        -11    1    3    3    0    0  0.28093017462E+00  0.18495510211E+02 -0.56659844943E+01  0.19345960826E+02  0.51100000000E-03 0.  1.
        -12    1    3    3    0    0  0.17195972819E+02  0.10366158201E+02  0.85092138615E+01  0.21807462887E+02  0.00000000000E+00 0.  1.
</event>
<event>
 7    1  0.2746803E-013  0.5052885E+02  0.7816164E-02  0.1300439E+00
        -11   -1    0    0    0    0  0.00000000000E+00  0.00000000000E+00  0.45593999997E+02  0.45594000000E+02  0.51100000000E-03 0.  1.
         11   -1    0    0    0    0 -0.00000000000E+00 -0.00000000000E+00 -0.45593999997E+02  0.45594000000E+02  0.51100000000E-03 0. -1.
    9900012    2    1    2    0    0  0.68507519526E+01  0.81586981962E+01  0.39238620626E+02  0.50528849650E+02  0.29999968995E+02 0.  0.
         12    1    1    2    0    0 -0.68507519526E+01 -0.81586981962E+01 -0.39238620626E+02  0.40659150350E+02  0.00000000000E+00 0. -1.
         11    1    3    3    0    0  0.81766720665E+01  0.10815178931E+00  0.26206061059E+02  0.27452273119E+02  0.51100000000E-03 0. -1.
        -11    1    3    3    0    0 -0.75411357969E+01 -0.90313687942E+00  0.81288142825E+01  0.11124837402E+02  0.51100000000E-03 0.  1.
         12    1    3    3    0    0  0.62152156829E+01  0.89536832863E+01  0.49037452848E+01  0.11951739128E+02  0.00000000000E+00 0. -1.
</event>
<event>
 7    1  0.2746803E-013  0.5052884E+02  0.7816164E-02  0.1300439E+00
        -11   -1    0    0    0    0  0.00000000000E+00  0.00000000000E+00  0.45593999997E+02  0.45594000000E+02  0.51100000000E-03 0.  1.
         11   -1    0    0    0    0 -0.00000000000E+00 -0.00000000000E+00 -0.45593999997E+02  0.45594000000E+02  0.51100000000E-03 0. -1.
    9900012    2    1    2    0    0  0.74006683104E+01  0.31803800984E+02  0.24226333984E+02  0.50528844736E+02  0.29999954060E+02 0.  0.
         12    1    1    2    0    0 -0.74006683104E+01 -0.31803800984E+02 -0.24226333984E+02  0.40659155264E+02  0.00000000000E+00 0. -1.
         11    1    3    3    0    0  0.56357849185E+01  0.41480545573E+01  0.18638615718E+02  0.19908953373E+02  0.51100000000E-03 0. -1.
        -11    1    3    3    0    0 -0.10701543963E+01  0.12379389584E+02  0.81681437793E+01  0.14869871888E+02  0.51100000000E-03 0.  1.
         12    1    3    3    0    0  0.28350377882E+01  0.15276356842E+02 -0.25804255133E+01  0.15750019475E+02  0.00000000000E+00 0. -1.
</event>
<event>
 7    1  0.2746803E-013  0.5052890E+02  0.7816164E-02  0.1300439E+00
        -11   -1    0    0    0    0  0.00000000000E+00  0.00000000000E+00  0.45593999997E+02  0.45594000000E+02  0.51100000000E-03 0. -1.
         11   -1    0    0    0    0 -0.00000000000E+00 -0.00000000000E+00 -0.45593999997E+02  0.45594000000E+02  0.51100000000E-03 0.  1.
    9900012    2    1    2    0    0  0.16736834317E+02 -0.14575154356E+02 -0.34067664464E+02  0.50528898811E+02  0.30000118427E+02 0.  0.
         12    1    1    2    0    0 -0.16736834317E+02  0.14575154356E+02  0.34067664464E+02  0.40659101189E+02  0.00000000000E+00 0. -1.
         11    1    3    3    0    0  0.32205063076E+01  0.33433638212E+01 -0.47357296905E+01  0.66315065016E+01  0.51100000000E-03 0. -1.
        -11    1    3    3    0    0 -0.25053452094E+01 -0.24540900024E+01  0.30164088214E+01  0.46258009898E+01  0.51100000000E-03 0.  1.
        -12    1    3    3    0    0  0.16021673219E+02 -0.15464428174E+02 -0.32348343594E+02  0.39271591320E+02  0.00000000000E+00 0.  1.
</event>
<event>
 7    1  0.2746803E-013  0.5052886E+02  0.7816164E-02  0.1300439E+00
        -11   -1    0    0    0    0  0.00000000000E+00  0.00000000000E+00  0.45593999997E+02  0.45594000000E+02  0.51100000000E-03 0.  1.
         11   -1    0    0    0    0 -0.00000000000E+00 -0.00000000000E+00 -0.45593999997E+02  0.45594000000E+02  0.51100000000E-03 0. -1.
    9900012    2    1    2    0    0 -0.63113981361E+01 -0.34505136903E+02  0.20560330980E+02  0.50528862907E+02  0.30000009292E+02 0.  0.
         12    1    1    2    0    0  0.63113981361E+01  0.34505136903E+02 -0.20560330980E+02  0.40659137093E+02  0.00000000000E+00 0. -1.
         11    1    3    3    0    0  0.63066933221E+01 -0.14556739514E+02  0.10540185856E+02  0.19046484298E+02  0.51100000000E-03 0. -1.
        -11    1    3    3    0    0  0.34161068253E+01 -0.20177250097E+00  0.41467116841E+01  0.53764036340E+01  0.51100000000E-03 0.  1.
        -12    1    3    3    0    0 -0.16034198283E+02 -0.19746624888E+02  0.58734334394E+01  0.26105974975E+02  0.00000000000E+00 0.  1.
</event>
<event>
 7    1  0.2746803E-013  0.5052885E+02  0.7816164E-02  0.1300439E+00
        -11   -1    0    0    0    0  0.00000000000E+00  0.00000000000E+00  0.45593999997E+02  0.45594000000E+02  0.51100000000E-03 0. -1.
         11   -1    0    0    0    0 -0.00000000000E+00 -0.00000000000E+00 -0.45593999997E+02  0.45594000000E+02  0.51100000000E-03 0.  1.
    9900012    2    1    2    0    0  0.31742670403E+02 -0.13642091101E+02 -0.21435083422E+02  0.50528848813E+02  0.29999966453E+02 0.  0.
         12    1    1    2    0    0 -0.31742670403E+02  0.13642091101E+02  0.21435083422E+02  0.40659151187E+02  0.00000000000E+00 0. -1.
         11    1    3    3    0    0  0.14672569306E+02 -0.92423076203E+01 -0.13921601412E+02  0.22237705060E+02  0.51100000000E-03 0.  1.
        -11    1    3    3    0    0  0.73446726946E+01  0.13856411292E+01 -0.13543228191E+02  0.15468783030E+02  0.51100000000E-03 0. -1.
        -12    1    3    3    0    0  0.97254284019E+01 -0.57854246101E+01  0.60297461811E+01  0.12822360724E+02  0.00000000000E+00 0.  1.
</event>
<event>
 7    1  0.2746803E-013  0.5052887E+02  0.7816164E-02  0.1300439E+00
        -11   -1    0    0    0    0  0.00000000000E+00  0.00000000000E+00  0.45593999997E+02  0.45594000000E+02  0.51100000000E-03 0.  1.
         11   -1    0    0    0    0 -0.00000000000E+00 -0.00000000000E+00 -0.45593999997E+02  0.45594000000E+02  0.51100000000E-03 0. -1.
    9900012    2    1    2    0    0  0.35264107765E+02 -0.14784767345E+02  0.13820944976E+02  0.50528866193E+02  0.30000019279E+02 0.  0.
         12    1    1    2    0    0 -0.35264107765E+02  0.14784767345E+02 -0.13820944976E+02  0.40659133807E+02  0.00000000000E+00 0. -1.
         11    1    3    3    0    0  0.28218087928E+01 -0.80330319673E+01  0.36295663863E+01  0.92555907356E+01  0.51100000000E-03 0. -1.
        -11    1    3    3    0    0  0.23525720932E+02 -0.10170557393E+02  0.15886669687E+02  0.30154370447E+02  0.51100000000E-03 0.  1.
        -12    1    3    3    0    0  0.89165780407E+01  0.34188220152E+01 -0.56952910977E+01  0.11118905010E+02  0.00000000000E+00 0.  1.
</event>
<event>
 7    1  0.2746803E-013  0.5052887E+02  0.7816164E-02  0.1300439E+00
        -11   -1    0    0    0    0  0.00000000000E+00  0.00000000000E+00  0.45593999997E+02  0.45594000000E+02  0.51100000000E-03 0.  1.
         11   -1    0    0    0    0 -0.00000000000E+00 -0.00000000000E+00 -0.45593999997E+02  0.45594000000E+02  0.51100000000E-03 0. -1.
    9900012    2    1    2    0    0 -0.15225304894E+02 -0.35054922797E+02  0.13874711200E+02  0.50528866558E+02  0.30000020389E+02 0.  0.
         12    1    1    2    0    0  0.15225304894E+02  0.35054922797E+02 -0.13874711200E+02  0.40659133442E+02  0.00000000000E+00 0. -1.
         11    1    3    3    0    0 -0.11025612696E+02 -0.77555414052E+01 -0.12907964186E+01  0.13541739676E+02  0.51100000000E-03 0. -1.
        -11    1    3    3    0    0 -0.99743056638E+01 -0.17575746402E+02  0.30913376556E+01  0.20443825568E+02  0.51100000000E-03 0.  1.
        -12    1    3    3    0    0  0.57746134654E+01 -0.97236349891E+01  0.12074169963E+02  0.16543301314E+02  0.00000000000E+00 0.  1.
</event>
<event>
 7    1  0.2746803E-013  0.5052886E+02  0.7816164E-02  0.1300439E+00
        -11   -1    0    0    0    0  0.00000000000E+00  0.00000000000E+00  0.45593999997E+02  0.45594000000E+02  0.51100000000E-03 0.  1.
         11   -1    0    0    0    0 -0.00000000000E+00 -0.00000000000E+00 -0.45593999997E+02  0.45594000000E+02  0.51100000000E-03 0. -1.
    9900012    2    1    2    0    0 -0.61320358663E+01 -0.38528748498E+02  0.11449876089E+02  0.50528856045E+02  0.29999988434E+02 0.  0.
         12    1    1    2    0    0  0.61320358663E+01  0.38528748498E+02 -0.11449876089E+02  0.40659143955E+02  0.00000000000E+00 0. -1.
         11    1    3    3    0    0 -0.77195530376E+01 -0.46751622015E+01 -0.35371594864E+01  0.96933037817E+01  0.51100000000E-03 0. -1.
        -11    1    3    3    0    0  0.34179002450E+01 -0.81435473865E+01 -0.30861993650E+01  0.93554279914E+01  0.51100000000E-03 0.  1.
        -12    1    3    3    0    0 -0.18303830737E+01 -0.25710038910E+02  0.18073234940E+02  0.31480124272E+02  0.00000000000E+00 0.  1.
</event>
<event>
 7    1  0.2746803E-013  0.5052888E+02  0.7816164E-02  0.1300439E+00
        -11   -1    0    0    0    0  0.00000000000E+00  0.00000000000E+00  0.45593999997E+02  0.45594000000E+02  0.51100000000E-03 0.  1.
         11   -1    0    0    0    0 -0.00000000000E+00 -0.00000000000E+00 -0.45593999997E+02  0.45594000000E+02  0.51100000000E-03 0. -1.
    9900012    2    1    2    0    0  0.29554374922E+02 -0.26799066394E+02 -0.78430330573E+01  0.50528877971E+02  0.30000055081E+02 0.  0.
         12    1    1    2    0    0 -0.29554374922E+02  0.26799066394E+02  0.78430330573E+01  0.40659122029E+02  0.00000000000E+00 0. -1.
         11    1    3    3    0    0  0.62439827893E+01 -0.11142779660E+02 -0.14082745370E+02  0.19012432170E+02  0.51100000000E-03 0. -1.
        -11    1    3    3    0    0  0.70974782202E+01  0.15175278041E+01  0.19111539794E+01  0.75053046252E+01  0.51100000000E-03 0.  1.
        -12    1    3    3    0    0  0.16212913912E+02 -0.17173814538E+02  0.43285583330E+01  0.24011141176E+02  0.00000000000E+00 0.  1.
</event>
<event>
 7    1  0.2746803E-013  0.5052885E+02  0.7816164E-02  0.1300439E+00
        -11   -1    0    0    0    0  0.00000000000E+00  0.00000000000E+00  0.45593999997E+02  0.45594000000E+02  0.51100000000E-03 0. -1.
         11   -1    0    0    0    0 -0.00000000000E+00 -0.00000000000E+00 -0.45593999997E+02  0.45594000000E+02  0.51100000000E-03 0.  1.
    9900012    2    1    2    0    0  0.26035302234E+02 -0.28300670245E+02 -0.13206112546E+02  0.50528852108E+02  0.29999976468E+02 0.  0.
         12    1    1    2    0    0 -0.26035302234E+02  0.28300670245E+02  0.13206112546E+02  0.40659147892E+02  0.00000000000E+00 0. -1.
         11    1    3    3    0    0 -0.35396768520E+01 -0.98346451756E+01 -0.24052839013E+01  0.10725434670E+02  0.51100000000E-03 0. -1.
        -11    1    3    3    0    0  0.70801212007E+01  0.73091699148E+00 -0.70077003778E+01  0.99885044282E+01  0.51100000000E-03 0.  1.
        -12    1    3    3    0    0  0.22494857886E+02 -0.19196942060E+02 -0.37931282667E+01  0.29814913010E+02  0.00000000000E+00 0.  1.
</event>
<event>
 7    1  0.2746803E-013  0.5052882E+02  0.7816164E-02  0.1300439E+00
        -11   -1    0    0    0    0  0.00000000000E+00  0.00000000000E+00  0.45593999997E+02  0.45594000000E+02  0.51100000000E-03 0.  1.
         11   -1    0    0    0    0 -0.00000000000E+00 -0.00000000000E+00 -0.45593999997E+02  0.45594000000E+02  0.51100000000E-03 0. -1.
    9900012    2    1    2    0    0  0.39964898421E+01 -0.18394048618E+02  0.36039649410E+02  0.50528815487E+02  0.29999865155E+02 0.  0.
         12    1    1    2    0    0 -0.39964898421E+01  0.18394048618E+02 -0.36039649410E+02  0.40659184513E+02  0.00000000000E+00 0. -1.
         11    1    3    3    0    0 -0.47822938958E+01  0.29281123663E+01  0.62375151191E+01  0.83875367098E+01  0.51100000000E-03 0. -1.
        -11    1    3    3    0    0  0.53027989127E+01 -0.23511282850E+02  0.29395825056E+02  0.38013348032E+02  0.51100000000E-03 0.  1.
         12    1    3    3    0    0  0.34759848252E+01  0.21891218655E+01  0.40630923467E+00  0.41279307457E+01  0.00000000000E+00 0. -1.
</event>
<event>
 7    1  0.2746803E-013  0.5052886E+02  0.7816164E-02  0.1300439E+00
        -11   -1    0    0    0    0  0.00000000000E+00  0.00000000000E+00  0.45593999997E+02  0.45594000000E+02  0.51100000000E-03 0.  1.
         11   -1    0    0    0    0 -0.00000000000E+00 -0.00000000000E+00 -0.45593999997E+02  0.45594000000E+02  0.51100000000E-03 0. -1.
    9900012    2    1    2    0    0 -0.82345999973E+01  0.18144231765E+02  0.35442116962E+02  0.50528862795E+02  0.30000008952E+02 0.  0.
         12    1    1    2    0    0  0.82345999973E+01 -0.18144231765E+02 -0.35442116962E+02  0.40659137205E+02  0.00000000000E+00 0. -1.
         11    1    3    3    0    0 -0.11433246487E+02  0.32733950950E+00  0.37819843218E+01  0.12046978130E+02  0.51100000000E-03 0. -1.
        -11    1    3    3    0    0  0.80759760996E+00  0.30539698915E+01  0.17844033208E+02  0.18121491864E+02  0.51100000000E-03 0.  1.
        -12    1    3    3    0    0  0.23910488799E+01  0.14762922364E+02  0.13816099432E+02  0.20360392801E+02  0.00000000000E+00 0.  1.
</event>
<event>
 7    1  0.2746803E-013  0.5052887E+02  0.7816164E-02  0.1300439E+00
        -11   -1    0    0    0    0  0.00000000000E+00  0.00000000000E+00  0.45593999997E+02  0.45594000000E+02  0.51100000000E-03 0.  1.
         11   -1    0    0    0    0 -0.00000000000E+00 -0.00000000000E+00 -0.45593999997E+02  0.45594000000E+02  0.51100000000E-03 0. -1.
    9900012    2    1    2    0    0  0.33881777250E+02 -0.54023516512E+01  0.21817537280E+02  0.50528866143E+02  0.30000019129E+02 0.  0.
         12    1    1    2    0    0 -0.33881777250E+02  0.54023516512E+01 -0.21817537280E+02  0.40659133857E+02  0.00000000000E+00 0. -1.
         11    1    3    3    0    0  0.98677070221E+01 -0.92489012755E-02 -0.27722238259E+01  0.10249729392E+02  0.51100000000E-03 0. -1.
        -11    1    3    3    0    0  0.26947976091E+02 -0.76421224065E+01  0.23046954949E+02  0.36273372920E+02  0.51100000000E-03 0.  1.
         12    1    3    3    0    0 -0.29339058634E+01  0.22490196566E+01  0.15428061570E+01  0.40057638309E+01  0.00000000000E+00 0. -1.
</event>
<event>
 7    1  0.2746803E-013  0.5052886E+02  0.7816164E-02  0.1300439E+00
        -11   -1    0    0    0    0  0.00000000000E+00  0.00000000000E+00  0.45593999997E+02  0.45594000000E+02  0.51100000000E-03 0.  1.
         11   -1    0    0    0    0 -0.00000000000E+00 -0.00000000000E+00 -0.45593999997E+02  0.45594000000E+02  0.51100000000E-03 0. -1.
    9900012    2    1    2    0    0 -0.33821233625E+02 -0.22564547088E+02 -0.36240868129E+00  0.50528856265E+02  0.29999989102E+02 0.  0.
         12    1    1    2    0    0  0.33821233625E+02  0.22564547088E+02  0.36240868129E+00  0.40659143735E+02  0.00000000000E+00 0. -1.
         11    1    3    3    0    0 -0.16425045657E+02 -0.17274387243E+02 -0.12300778678E+02  0.26823417676E+02  0.51100000000E-03 0. -1.
        -11    1    3    3    0    0 -0.22334894756E+01  0.16906655406E+01 -0.55467398519E+00  0.28556065378E+01  0.51100000000E-03 0.  1.
         12    1    3    3    0    0 -0.15162698492E+02 -0.69808253857E+01  0.12493043982E+02  0.20849832051E+02  0.00000000000E+00 0. -1.
</event>
<event>
 7    1  0.2746803E-013  0.5052892E+02  0.7816164E-02  0.1300439E+00
        -11   -1    0    0    0    0  0.00000000000E+00  0.00000000000E+00  0.45593999997E+02  0.45594000000E+02  0.51100000000E-03 0. -1.
         11   -1    0    0    0    0 -0.00000000000E+00 -0.00000000000E+00 -0.45593999997E+02  0.45594000000E+02  0.51100000000E-03 0.  1.
    9900012    2    1    2    0    0  0.37479031785E+02  0.10260595876E+02 -0.11966751785E+02  0.50528919838E+02  0.30000182340E+02 0.  0.
         12    1    1    2    0    0 -0.37479031785E+02 -0.10260595876E+02  0.11966751785E+02  0.40659080162E+02  0.00000000000E+00 0. -1.
         11    1    3    3    0    0 -0.32107579691E+00 -0.16800533896E+01 -0.32021239341E+01  0.36303260198E+01  0.51100000000E-03 0. -1.
        -11    1    3    3    0    0 -0.28856623343E+01 -0.28032380929E-01  0.15172192011E+01  0.32603354562E+01  0.51100000000E-03 0.  1.
        -12    1    3    3    0    0  0.40685769917E+02  0.11968681647E+02 -0.10281847052E+02  0.43638258362E+02  0.00000000000E+00 0.  1.
</event>
<event>
 7    1  0.2746803E-013  0.5052887E+02  0.7816164E-02  0.1300439E+00
        -11   -1    0    0    0    0  0.00000000000E+00  0.00000000000E+00  0.45593999997E+02  0.45594000000E+02  0.51100000000E-03 0.  1.
         11   -1    0    0    0    0 -0.00000000000E+00 -0.00000000000E+00 -0.45593999997E+02  0.45594000000E+02  0.51100000000E-03 0. -1.
    9900012    2    1    2    0    0 -0.96799709609E+01  0.38988980499E+02  0.62707820350E+01  0.50528866395E+02  0.30000019894E+02 0.  0.
         12    1    1    2    0    0  0.96799709609E+01 -0.38988980499E+02 -0.62707820350E+01  0.40659133605E+02  0.00000000000E+00 0. -1.
         11    1    3    3    0    0 -0.37862015640E+01  0.41825042866E+01 -0.68297841675E+00  0.56828799186E+01  0.51100000000E-03 0. -1.
        -11    1    3    3    0    0 -0.87462302993E+01  0.38168603507E+02  0.86844820295E+01  0.40109338894E+02  0.51100000000E-03 0.  1.
         12    1    3    3    0    0  0.28524609023E+01 -0.33621272941E+01 -0.17307215777E+01  0.47366475825E+01  0.00000000000E+00 0. -1.
</event>
<event>
 7    1  0.2746803E-013  0.5052886E+02  0.7816164E-02  0.1300439E+00
        -11   -1    0    0    0    0  0.00000000000E+00  0.00000000000E+00  0.45593999997E+02  0.45594000000E+02  0.51100000000E-03 0.  1.
         11   -1    0    0    0    0 -0.00000000000E+00 -0.00000000000E+00 -0.45593999997E+02  0.45594000000E+02  0.51100000000E-03 0. -1.
    9900012    2    1    2    0    0 -0.33014640829E+02 -0.23108048271E+02 -0.54053005252E+01  0.50528859850E+02  0.30000000000E+02 0.  0.
         12    1    1    2    0    0  0.33014640829E+02  0.23108048271E+02  0.54053005252E+01  0.40659140150E+02  0.00000000000E+00 0. -1.
         11    1    3    3    0    0 -0.16909955935E-01 -0.60302869111E+01 -0.69690672035E+01  0.92158854227E+01  0.51100000000E-03 0. -1.
        -11    1    3    3    0    0 -0.18747036601E+02  0.30408752633E+00 -0.36897534738E+00  0.18753132901E+02  0.51100000000E-03 0.  1.
         12    1    3    3    0    0 -0.14250694273E+02 -0.17381848886E+02  0.19327420256E+01  0.22559841526E+02  0.00000000000E+00 0. -1.
</event>
<event>
 7    1  0.2746803E-013  0.5052886E+02  0.7816164E-02  0.1300439E+00
        -11   -1    0    0    0    0  0.00000000000E+00  0.00000000000E+00  0.45593999997E+02  0.45594000000E+02  0.51100000000E-03 0.  1.
         11   -1    0    0    0    0 -0.00000000000E+00 -0.00000000000E+00 -0.45593999997E+02  0.45594000000E+02  0.51100000000E-03 0. -1.
    9900012    2    1    2    0    0  0.51749515150E+01  0.34808455789E+02  0.20365585034E+02  0.50528858699E+02  0.29999996502E+02 0.  0.
         12    1    1    2    0    0 -0.51749515150E+01 -0.34808455789E+02 -0.20365585034E+02  0.40659141301E+02  0.00000000000E+00 0. -1.
         11    1    3    3    0    0 -0.22123102614E+00  0.19159828223E+02  0.16862759843E+02  0.25524510387E+02  0.51100000000E-03 0. -1.
        -11    1    3    3    0    0  0.42039435576E+01  0.19860242589E+02  0.36448990311E+01  0.20624928274E+02  0.51100000000E-03 0.  1.
         12    1    3    3    0    0  0.11922389835E+01 -0.42116150228E+01 -0.14207384070E+00  0.43794200381E+01  0.00000000000E+00 0. -1.
</event>
<event>
 7    1  0.2746803E-013  0.5052886E+02  0.7816164E-02  0.1300439E+00
        -11   -1    0    0    0    0  0.00000000000E+00  0.00000000000E+00  0.45593999997E+02  0.45594000000E+02  0.51100000000E-03 0.  1.
         11   -1    0    0    0    0 -0.00000000000E+00 -0.00000000000E+00 -0.45593999997E+02  0.45594000000E+02  0.51100000000E-03 0. -1.
    9900012    2    1    2    0    0  0.17280898238E+02 -0.14583465336E+02  0.33791403717E+02  0.50528857482E+02  0.29999992802E+02 0.  0.
         12    1    1    2    0    0 -0.17280898238E+02  0.14583465336E+02 -0.33791403717E+02  0.40659142518E+02  0.00000000000E+00 0. -1.
         11    1    3    3    0    0  0.72285926726E+01  0.46949296070E+01  0.11560910112E+02  0.14420456266E+02  0.51100000000E-03 0. -1.
        -11    1    3    3    0    0  0.60767575081E+01  0.17574606890E+01  0.87942269467E+01  0.10833008711E+02  0.51100000000E-03 0.  1.
         12    1    3    3    0    0  0.39755480575E+01 -0.21035855632E+02  0.13436266658E+02  0.25275392504E+02  0.00000000000E+00 0. -1.
</event>
<event>
 7    1  0.2746803E-013  0.5052886E+02  0.7816164E-02  0.1300439E+00
        -11   -1    0    0    0    0  0.00000000000E+00  0.00000000000E+00  0.45593999997E+02  0.45594000000E+02  0.51100000000E-03 0. -1.
         11   -1    0    0    0    0 -0.00000000000E+00 -0.00000000000E+00 -0.45593999997E+02  0.45594000000E+02  0.51100000000E-03 0.  1.
    9900012    2    1    2    0    0  0.18263611446E+02  0.22606587844E+02 -0.28434981927E+02  0.50528861861E+02  0.30000006114E+02 0.  0.
         12    1    1    2    0    0 -0.18263611446E+02 -0.22606587844E+02  0.28434981927E+02  0.40659138139E+02  0.00000000000E+00 0. -1.
         11    1    3    3    0    0  0.51401138321E+01  0.33188009238E+00 -0.12107377727E+02  0.13157488753E+02  0.51100000000E-03 0. -1.
        -11    1    3    3    0    0  0.13131054882E+02  0.19118282693E+02 -0.21294532725E+02  0.31486353547E+02  0.51100000000E-03 0.  1.
         12    1    3    3    0    0 -0.75572683692E-02  0.31564250589E+01  0.49669285250E+01  0.58850195613E+01  0.00000000000E+00 0. -1.
</event>
<event>
 7    1  0.2746803E-013  0.5052886E+02  0.7816164E-02  0.1300439E+00
        -11   -1    0    0    0    0  0.00000000000E+00  0.00000000000E+00  0.45593999997E+02  0.45594000000E+02  0.51100000000E-03 0.  1.
         11   -1    0    0    0    0 -0.00000000000E+00 -0.00000000000E+00 -0.45593999997E+02  0.45594000000E+02  0.51100000000E-03 0. -1.
    9900012    2    1    2    0    0  0.14268941286E+02  0.28950666780E+02  0.24726943101E+02  0.50528861943E+02  0.30000006363E+02 0.  0.
         12    1    1    2    0    0 -0.14268941286E+02 -0.28950666780E+02 -0.24726943101E+02  0.40659138057E+02  0.00000000000E+00 0. -1.
         11    1    3    3    0    0 -0.15895968750E+01  0.14551830620E+02  0.59032722507E+01  0.15783891033E+02  0.51100000000E-03 0.  1.
        -11    1    3    3    0    0  0.14039735953E+02 -0.51012451003E+00  0.10772121127E+02  0.17703474419E+02  0.51100000000E-03 0. -1.
         12    1    3    3    0    0  0.18188022074E+01  0.14908960670E+02  0.80515497230E+01  0.17041496492E+02  0.00000000000E+00 0. -1.
</event>
<event>
 7    1  0.2746803E-013  0.5052886E+02  0.7816164E-02  0.1300439E+00
        -11   -1    0    0    0    0  0.00000000000E+00  0.00000000000E+00  0.45593999997E+02  0.45594000000E+02  0.51100000000E-03 0.  1.
         11   -1    0    0    0    0 -0.00000000000E+00 -0.00000000000E+00 -0.45593999997E+02  0.45594000000E+02  0.51100000000E-03 0. -1.
    9900012    2    1    2    0    0  0.36895980741E+02 -0.11404323078E+02 -0.12719814096E+02  0.50528860187E+02  0.30000001025E+02 0.  0.
         12    1    1    2    0    0 -0.36895980741E+02  0.11404323078E+02  0.12719814096E+02  0.40659139813E+02  0.00000000000E+00 0. -1.
         11    1    3    3    0    0  0.21715846077E-01  0.20854144820E+01  0.39553776178E+01  0.44715140054E+01  0.51100000000E-03 0. -1.
        -11    1    3    3    0    0  0.12754946114E+02 -0.98334635273E+01  0.67849380243E+00  0.16119739744E+02  0.51100000000E-03 0.  1.
         12    1    3    3    0    0  0.24119318781E+02 -0.36562740326E+01 -0.17353685516E+02  0.29937606438E+02  0.00000000000E+00 0. -1.
</event>
<event>
 7    1  0.2746803E-013  0.5052886E+02  0.7816164E-02  0.1300439E+00
        -11   -1    0    0    0    0  0.00000000000E+00  0.00000000000E+00  0.45593999997E+02  0.45594000000E+02  0.51100000000E-03 0.  1.
         11   -1    0    0    0    0 -0.00000000000E+00 -0.00000000000E+00 -0.45593999997E+02  0.45594000000E+02  0.51100000000E-03 0. -1.
    9900012    2    1    2    0    0  0.85252351315E+01  0.87119370852E+01  0.38789025365E+02  0.50528856248E+02  0.29999989053E+02 0.  0.
         12    1    1    2    0    0 -0.85252351315E+01 -0.87119370852E+01 -0.38789025365E+02  0.40659143752E+02  0.00000000000E+00 0. -1.
         11    1    3    3    0    0  0.68592927629E+01  0.23057224861E+01  0.12090463551E+01  0.73367599620E+01  0.51100000000E-03 0. -1.
        -11    1    3    3    0    0  0.87086934115E+01 -0.35983655424E+00  0.28692900005E+02  0.29987552988E+02  0.51100000000E-03 0.  1.
         12    1    3    3    0    0 -0.70427510428E+01  0.67660511534E+01  0.88870790053E+01  0.13204543298E+02  0.00000000000E+00 0. -1.
</event>
<event>
 7    1  0.2746803E-013  0.5052887E+02  0.7816164E-02  0.1300439E+00
        -11   -1    0    0    0    0  0.00000000000E+00  0.00000000000E+00  0.45593999997E+02  0.45594000000E+02  0.51100000000E-03 0.  1.
         11   -1    0    0    0    0 -0.00000000000E+00 -0.00000000000E+00 -0.45593999997E+02  0.45594000000E+02  0.51100000000E-03 0. -1.
    9900012    2    1    2    0    0  0.25310018926E+02  0.15159514205E+02  0.27977795128E+02  0.50528868810E+02  0.30000027233E+02 0.  0.
         12    1    1    2    0    0 -0.25310018926E+02 -0.15159514205E+02 -0.27977795128E+02  0.40659131190E+02  0.00000000000E+00 0. -1.
         11    1    3    3    0    0  0.10508163942E+02  0.19404996566E+01  0.22934784485E+02  0.25302003636E+02  0.51100000000E-03 0. -1.
        -11    1    3    3    0    0  0.36699724358E+01  0.12300790494E+02 -0.31083338203E+00  0.12840356775E+02  0.51100000000E-03 0.  1.
         12    1    3    3    0    0  0.11131882548E+02  0.91822405470E+00  0.53538440249E+01  0.12386508399E+02  0.00000000000E+00 0. -1.
</event>
<event>
 7    1  0.2746803E-013  0.5052886E+02  0.7816164E-02  0.1300439E+00
        -11   -1    0    0    0    0  0.00000000000E+00  0.00000000000E+00  0.45593999997E+02  0.45594000000E+02  0.51100000000E-03 0.  1.
         11   -1    0    0    0    0 -0.00000000000E+00 -0.00000000000E+00 -0.45593999997E+02  0.45594000000E+02  0.51100000000E-03 0. -1.
    9900012    2    1    2    0    0 -0.22381121000E+02 -0.30383587691E+02  0.15135678529E+02  0.50528859051E+02  0.29999997572E+02 0.  0.
         12    1    1    2    0    0  0.22381121000E+02  0.30383587691E+02 -0.15135678529E+02  0.40659140949E+02  0.00000000000E+00 0. -1.
         11    1    3    3    0    0  0.47137237394E+01 -0.49503392853E+01  0.13166891246E+01  0.69612298513E+01  0.51100000000E-03 0. -1.
        -11    1    3    3    0    0 -0.29341099916E+01 -0.90120006067E+01  0.10534754824E+02  0.14170610990E+02  0.51100000000E-03 0.  1.
         12    1    3    3    0    0 -0.24160734748E+02 -0.16421247799E+02  0.32842345802E+01  0.29397018209E+02  0.00000000000E+00 0. -1.
</event>
<event>
 7    1  0.2746803E-013  0.5052887E+02  0.7816164E-02  0.1300439E+00
        -11   -1    0    0    0    0  0.00000000000E+00  0.00000000000E+00  0.45593999997E+02  0.45594000000E+02  0.51100000000E-03 0.  1.
         11   -1    0    0    0    0 -0.00000000000E+00 -0.00000000000E+00 -0.45593999997E+02  0.45594000000E+02  0.51100000000E-03 0. -1.
    9900012    2    1    2    0    0 -0.14344257235E+02 -0.34583944033E+02  0.15854282287E+02  0.50528866126E+02  0.30000019077E+02 0.  0.
         12    1    1    2    0    0  0.14344257235E+02  0.34583944033E+02 -0.15854282287E+02  0.40659133874E+02  0.00000000000E+00 0. -1.
         11    1    3    3    0    0  0.20037840623E+01 -0.13499964568E+01  0.79926808762E+00  0.25448911055E+01  0.51100000000E-03 0. -1.
        -11    1    3    3    0    0 -0.21085513720E+02 -0.17912399773E+02  0.15925805284E+02  0.31923098670E+02  0.51100000000E-03 0.  1.
        -12    1    3    3    0    0  0.47374724227E+01 -0.15321547804E+02 -0.87079108451E+00  0.16060876351E+02  0.00000000000E+00 0.  1.
</event>
<event>
 7    1  0.2746803E-013  0.5052888E+02  0.7816164E-02  0.1300439E+00
        -11   -1    0    0    0    0  0.00000000000E+00  0.00000000000E+00  0.45593999997E+02  0.45594000000E+02  0.51100000000E-03 0.  1.
         11   -1    0    0    0    0 -0.00000000000E+00 -0.00000000000E+00 -0.45593999997E+02  0.45594000000E+02  0.51100000000E-03 0. -1.
    9900012    2    1    2    0    0 -0.18388692192E+01 -0.39720538636E+02 -0.84888978278E+01  0.50528880287E+02  0.30000062120E+02 0.  0.
         12    1    1    2    0    0  0.18388692192E+01  0.39720538636E+02  0.84888978278E+01  0.40659119713E+02  0.00000000000E+00 0. -1.
         11    1    3    3    0    0 -0.51210319879E+00  0.46238917524E+00 -0.13217426792E+01  0.14909920881E+01  0.51100000000E-03 0. -1.
        -11    1    3    3    0    0 -0.59796369601E+01 -0.29731521514E+02  0.67025766315E+01  0.31058717995E+02  0.51100000000E-03 0.  1.
        -12    1    3    3    0    0  0.46528709397E+01 -0.10451406297E+02 -0.13869731780E+02  0.17979170204E+02  0.00000000000E+00 0.  1.
</event>
<event>
 7    1  0.2746803E-013  0.5052881E+02  0.7816164E-02  0.1300439E+00
        -11   -1    0    0    0    0  0.00000000000E+00  0.00000000000E+00  0.45593999997E+02  0.45594000000E+02  0.51100000000E-03 0.  1.
         11   -1    0    0    0    0 -0.00000000000E+00 -0.00000000000E+00 -0.45593999997E+02  0.45594000000E+02  0.51100000000E-03 0. -1.
    9900012    2    1    2    0    0  0.33285921215E+02 -0.22389277812E+01  0.23242294570E+02  0.50528811547E+02  0.29999853179E+02 0.  0.
         12    1    1    2    0    0 -0.33285921215E+02  0.22389277812E+01 -0.23242294570E+02  0.40659188453E+02  0.00000000000E+00 0. -1.
         11    1    3    3    0    0 -0.51965895144E+00 -0.40916984994E+01 -0.19836743072E+01  0.45767899290E+01  0.51100000000E-03 0. -1.
        -11    1    3    3    0    0  0.18455975719E+02  0.17471886149E+01  0.27600167555E+01  0.18742822641E+02  0.51100000000E-03 0.  1.
        -12    1    3    3    0    0  0.15349604448E+02  0.10558210322E+00  0.22465952121E+02  0.27209198978E+02  0.00000000000E+00 0.  1.
</event>
<event>
 7    1  0.2746803E-013  0.5052885E+02  0.7816164E-02  0.1300439E+00
        -11   -1    0    0    0    0  0.00000000000E+00  0.00000000000E+00  0.45593999997E+02  0.45594000000E+02  0.51100000000E-03 0.  1.
         11   -1    0    0    0    0 -0.00000000000E+00 -0.00000000000E+00 -0.45593999997E+02  0.45594000000E+02  0.51100000000E-03 0. -1.
    9900012    2    1    2    0    0  0.11858540400E+01  0.22423205544E+02  0.33896318092E+02  0.50528846333E+02  0.29999958915E+02 0.  0.
         12    1    1    2    0    0 -0.11858540400E+01 -0.22423205544E+02 -0.33896318092E+02  0.40659153667E+02  0.00000000000E+00 0. -1.
         11    1    3    3    0    0 -0.57114851220E+01  0.20462980423E+01 -0.16351038735E+01  0.62834674277E+01  0.51100000000E-03 0. -1.
        -11    1    3    3    0    0  0.44166995487E+01 -0.12556801298E+01  0.62117711926E+01  0.77246403865E+01  0.51100000000E-03 0.  1.
        -12    1    3    3    0    0  0.24806396134E+01  0.21632587631E+02  0.29319650773E+02  0.36520738519E+02  0.00000000000E+00 0.  1.
</event>
<event>
 7    1  0.2746803E-013  0.5052885E+02  0.7816164E-02  0.1300439E+00
        -11   -1    0    0    0    0  0.00000000000E+00  0.00000000000E+00  0.45593999997E+02  0.45594000000E+02  0.51100000000E-03 0.  1.
         11   -1    0    0    0    0 -0.00000000000E+00 -0.00000000000E+00 -0.45593999997E+02  0.45594000000E+02  0.51100000000E-03 0. -1.
    9900012    2    1    2    0    0  0.24183170723E+01  0.36591918892E+01  0.40421880158E+02  0.50528851727E+02  0.29999975310E+02 0.  0.
         12    1    1    2    0    0 -0.24183170723E+01 -0.36591918892E+01 -0.40421880158E+02  0.40659148273E+02  0.00000000000E+00 0. -1.
         11    1    3    3    0    0  0.42798659259E+01 -0.81443360632E+00 -0.20064637180E+00  0.43612857818E+01  0.51100000000E-03 0. -1.
        -11    1    3    3    0    0  0.24988226931E+01 -0.13931975685E+01 -0.16264057975E+01  0.32909436937E+01  0.51100000000E-03 0.  1.
        -12    1    3    3    0    0 -0.43603715467E+01  0.58668230640E+01  0.42248932328E+02  0.42876622252E+02  0.00000000000E+00 0.  1.
</event>
<event>
 7    1  0.2746803E-013  0.5052886E+02  0.7816164E-02  0.1300439E+00
        -11   -1    0    0    0    0  0.00000000000E+00  0.00000000000E+00  0.45593999997E+02  0.45594000000E+02  0.51100000000E-03 0.  1.
         11   -1    0    0    0    0 -0.00000000000E+00 -0.00000000000E+00 -0.45593999997E+02  0.45594000000E+02  0.51100000000E-03 0. -1.
    9900012    2    1    2    0    0 -0.14423403554E+02 -0.21220866357E+01  0.37955603401E+02  0.50528860175E+02  0.30000000987E+02 0.  0.
         12    1    1    2    0    0  0.14423403554E+02  0.21220866357E+01 -0.37955603401E+02  0.40659139825E+02  0.00000000000E+00 0. -1.
         11    1    3    3    0    0 -0.17645210127E+01  0.15592470280E+01  0.10685395100E+02  0.10941775651E+02  0.51100000000E-03 0. -1.
        -11    1    3    3    0    0  0.37316368799E+01 -0.98799837101E+01  0.14340519971E+02  0.17809820471E+02  0.51100000000E-03 0.  1.
         12    1    3    3    0    0 -0.16390519421E+02  0.61986500464E+01  0.12929688330E+02  0.21777264053E+02  0.00000000000E+00 0. -1.
</event>
<event>
 7    1  0.2746803E-013  0.5052885E+02  0.7816164E-02  0.1300439E+00
        -11   -1    0    0    0    0  0.00000000000E+00  0.00000000000E+00  0.45593999997E+02  0.45594000000E+02  0.51100000000E-03 0. -1.
         11   -1    0    0    0    0 -0.00000000000E+00 -0.00000000000E+00 -0.45593999997E+02  0.45594000000E+02  0.51100000000E-03 0.  1.
    9900012    2    1    2    0    0  0.30025412567E+01 -0.22432600301E+02 -0.33777645454E+02  0.50528854132E+02  0.29999982621E+02 0.  0.
         12    1    1    2    0    0 -0.30025412567E+01  0.22432600301E+02  0.33777645454E+02  0.40659145868E+02  0.00000000000E+00 0. -1.
         11    1    3    3    0    0  0.62087004041E+00  0.39610471863E+01 -0.80412503446E+01  0.89853815604E+01  0.51100000000E-03 0. -1.
        -11    1    3    3    0    0  0.10177744844E+02 -0.16806387937E+02 -0.11805402005E+02  0.22921794920E+02  0.51100000000E-03 0.  1.
         12    1    3    3    0    0 -0.77960736279E+01 -0.95872595506E+01 -0.13930993105E+02  0.18621677652E+02  0.00000000000E+00 0. -1.
</event>
<event>
 7    1  0.2746803E-013  0.5052886E+02  0.7816164E-02  0.1300439E+00
        -11   -1    0    0    0    0  0.00000000000E+00  0.00000000000E+00  0.45593999997E+02  0.45594000000E+02  0.51100000000E-03 0.  1.
         11   -1    0    0    0    0 -0.00000000000E+00 -0.00000000000E+00 -0.45593999997E+02  0.45594000000E+02  0.51100000000E-03 0. -1.
    9900012    2    1    2    0    0 -0.22809751701E+02  0.12012716744E+02  0.31441623237E+02  0.50528858248E+02  0.29999995130E+02 0.  0.
         12    1    1    2    0    0  0.22809751701E+02 -0.12012716744E+02 -0.31441623237E+02  0.40659141752E+02  0.00000000000E+00 0. -1.
         11    1    3    3    0    0 -0.15377428127E+02  0.79903267827E+01  0.18772506651E+01  0.17430854489E+02  0.51100000000E-03 0. -1.
        -11    1    3    3    0    0 -0.18414049888E+01 -0.42637187550E+01  0.67888631877E+01  0.82254929091E+01  0.51100000000E-03 0.  1.
         12    1    3    3    0    0 -0.55909185859E+01  0.82861087163E+01  0.22775509384E+02  0.24872510850E+02  0.00000000000E+00 0. -1.
</event>
<event>
 7    1  0.2746803E-013  0.5052886E+02  0.7816164E-02  0.1300439E+00
        -11   -1    0    0    0    0  0.00000000000E+00  0.00000000000E+00  0.45593999997E+02  0.45594000000E+02  0.51100000000E-03 0. -1.
         11   -1    0    0    0    0 -0.00000000000E+00 -0.00000000000E+00 -0.45593999997E+02  0.45594000000E+02  0.51100000000E-03 0.  1.
    9900012    2    1    2    0    0  0.14871194775E+02  0.16731596091E+02 -0.33942116101E+02  0.50528856044E+02  0.29999988432E+02 0.  0.
         12    1    1    2    0    0 -0.14871194775E+02 -0.16731596091E+02  0.33942116101E+02  0.40659143956E+02  0.00000000000E+00 0. -1.
         11    1    3    3    0    0 -0.17367883479E+01 -0.24650984239E+01 -0.25870792657E+01  0.39731754798E+01  0.51100000000E-03 0. -1.
        -11    1    3    3    0    0  0.14176866488E+01  0.93321383470E+01 -0.26012090144E+02  0.27671781213E+02  0.51100000000E-03 0.  1.
         12    1    3    3    0    0  0.15190296475E+02  0.98645561676E+01 -0.53429466911E+01  0.18883899351E+02  0.00000000000E+00 0. -1.
</event>
<event>
 7    1  0.2746803E-013  0.5052886E+02  0.7816164E-02  0.1300439E+00
        -11   -1    0    0    0    0  0.00000000000E+00  0.00000000000E+00  0.45593999997E+02  0.45594000000E+02  0.51100000000E-03 0.  1.
         11   -1    0    0    0    0 -0.00000000000E+00 -0.00000000000E+00 -0.45593999997E+02  0.45594000000E+02  0.51100000000E-03 0. -1.
    9900012    2    1    2    0    0  0.19684871810E+02 -0.30891453922E+02 -0.17646227935E+02  0.50528862480E+02  0.30000007993E+02 0.  0.
         12    1    1    2    0    0 -0.19684871810E+02  0.30891453922E+02  0.17646227935E+02  0.40659137520E+02  0.00000000000E+00 0. -1.
         11    1    3    3    0    0  0.24308671383E+01 -0.11152650001E+02  0.29544046306E+01  0.11790641377E+02  0.51100000000E-03 0. -1.
        -11    1    3    3    0    0 -0.16092252391E+01 -0.12475380018E+02 -0.73465121260E+01  0.14566947283E+02  0.51100000000E-03 0.  1.
         12    1    3    3    0    0  0.18863229910E+02 -0.72634239026E+01 -0.13254120440E+02  0.24171273820E+02  0.00000000000E+00 0. -1.
</event>
<event>
 7    1  0.2746803E-013  0.5052889E+02  0.7816164E-02  0.1300439E+00
        -11   -1    0    0    0    0  0.00000000000E+00  0.00000000000E+00  0.45593999997E+02  0.45594000000E+02  0.51100000000E-03 0. -1.
         11   -1    0    0    0    0 -0.00000000000E+00 -0.00000000000E+00 -0.45593999997E+02  0.45594000000E+02  0.51100000000E-03 0.  1.
    9900012    2    1    2    0    0  0.10317108458E+02 -0.18358777005E+02 -0.34780398512E+02  0.50528886130E+02  0.30000079880E+02 0.  0.
         12    1    1    2    0    0 -0.10317108458E+02  0.18358777005E+02  0.34780398512E+02  0.40659113870E+02  0.00000000000E+00 0. -1.
         11    1    3    3    0    0  0.47018761561E+00 -0.11522506634E+02 -0.37766340423E+01  0.12134751768E+02  0.51100000000E-03 0. -1.
        -11    1    3    3    0    0 -0.78832626738E+00  0.26299621862E+01 -0.20545079594E+02  0.20727721900E+02  0.51100000000E-03 0.  1.
         12    1    3    3    0    0  0.10635247110E+02 -0.94662325564E+01 -0.10458684876E+02  0.17666412461E+02  0.00000000000E+00 0. -1.
</event>
<event>
 7    1  0.2746803E-013  0.5052888E+02  0.7816164E-02  0.1300439E+00
        -11   -1    0    0    0    0  0.00000000000E+00  0.00000000000E+00  0.45593999997E+02  0.45594000000E+02  0.51100000000E-03 0. -1.
         11   -1    0    0    0    0 -0.00000000000E+00 -0.00000000000E+00 -0.45593999997E+02  0.45594000000E+02  0.51100000000E-03 0.  1.
    9900012    2    1    2    0    0  0.35688586979E+02  0.84952870166E+01 -0.17530503564E+02  0.50528884205E+02  0.30000074029E+02 0.  0.
         12    1    1    2    0    0 -0.35688586979E+02 -0.84952870166E+01  0.17530503564E+02  0.40659115795E+02  0.00000000000E+00 0. -1.
         11    1    3    3    0    0  0.91401982064E+00  0.52196322872E+01  0.19794485570E+01  0.56566960584E+01  0.51100000000E-03 0. -1.
        -11    1    3    3    0    0  0.10716028991E+02 -0.24745184061E+01  0.30290373801E+01  0.11407523236E+02  0.51100000000E-03 0.  1.
        -12    1    3    3    0    0  0.24058538167E+02  0.57501731355E+01 -0.22538989501E+02  0.33464664910E+02  0.00000000000E+00 0.  1.
</event>
<event>
 7    1  0.2746803E-013  0.5052891E+02  0.7816164E-02  0.1300439E+00
        -11   -1    0    0    0    0  0.00000000000E+00  0.00000000000E+00  0.45593999997E+02  0.45594000000E+02  0.51100000000E-03 0. -1.
         11   -1    0    0    0    0 -0.00000000000E+00 -0.00000000000E+00 -0.45593999997E+02  0.45594000000E+02  0.51100000000E-03 0.  1.
    9900012    2    1    2    0    0 -0.11791222338E+02 -0.38343104943E+02 -0.66283167378E+01  0.50528914869E+02  0.30000167236E+02 0.  0.
         12    1    1    2    0    0  0.11791222338E+02  0.38343104943E+02  0.66283167378E+01  0.40659085131E+02  0.00000000000E+00 0. -1.
         11    1    3    3    0    0  0.17595088529E+01 -0.14242500487E+02  0.49445998637E+01  0.15178727206E+02  0.51100000000E-03 0. -1.
        -11    1    3    3    0    0  0.40780412238E+01 -0.92597806776E+01 -0.55143346285E+01  0.11523100498E+02  0.51100000000E-03 0.  1.
         12    1    3    3    0    0 -0.17628772415E+02 -0.14840823778E+02 -0.60585819730E+01  0.23827087166E+02  0.00000000000E+00 0. -1.
</event>
<event>
 7    1  0.2746803E-013  0.5052876E+02  0.7816164E-02  0.1300439E+00
        -11   -1    0    0    0    0  0.00000000000E+00  0.00000000000E+00  0.45593999997E+02  0.45594000000E+02  0.51100000000E-03 0. -1.
         11   -1    0    0    0    0 -0.00000000000E+00 -0.00000000000E+00 -0.45593999997E+02  0.45594000000E+02  0.51100000000E-03 0.  1.
    9900012    2    1    2    0    0 -0.14873582152E+02 -0.17457145123E+02 -0.33573772830E+02  0.50528762625E+02  0.29999704473E+02 0.  0.
         12    1    1    2    0    0  0.14873582152E+02  0.17457145123E+02  0.33573772830E+02  0.40659237375E+02  0.00000000000E+00 0. -1.
         11    1    3    3    0    0  0.42503725902E+01 -0.42521798318E+01 -0.10387007959E+02  0.12001526364E+02  0.51100000000E-03 0. -1.
        -11    1    3    3    0    0 -0.13365059309E+01  0.24662604139E+01  0.23672897718E+01  0.36705244390E+01  0.51100000000E-03 0.  1.
        -12    1    3    3    0    0 -0.17787448811E+02 -0.15671225706E+02 -0.25554054643E+02  0.34856711822E+02  0.00000000000E+00 0.  1.
</event>
<event>
 7    1  0.2746803E-013  0.5052887E+02  0.7816164E-02  0.1300439E+00
        -11   -1    0    0    0    0  0.00000000000E+00  0.00000000000E+00  0.45593999997E+02  0.45594000000E+02  0.51100000000E-03 0.  1.
         11   -1    0    0    0    0 -0.00000000000E+00 -0.00000000000E+00 -0.45593999997E+02  0.45594000000E+02  0.51100000000E-03 0. -1.
    9900012    2    1    2    0    0  0.37748889632E+02 -0.54004697281E+01  0.14107493681E+02  0.50528866713E+02  0.30000020860E+02 0.  0.
         12    1    1    2    0    0 -0.37748889632E+02  0.54004697281E+01 -0.14107493681E+02  0.40659133287E+02  0.00000000000E+00 0. -1.
         11    1    3    3    0    0  0.10929747277E+02  0.13586569305E+00 -0.36583832970E+01  0.11526560790E+02  0.51100000000E-03 0. -1.
        -11    1    3    3    0    0  0.48102270156E+01  0.41767527612E+01 -0.31658950287E+01  0.71138202932E+01  0.51100000000E-03 0.  1.
        -12    1    3    3    0    0  0.22008915339E+02 -0.97130881823E+01  0.20931772006E+02  0.31888485630E+02  0.00000000000E+00 0.  1.
</event>
<event>
 7    1  0.2746803E-013  0.5052887E+02  0.7816164E-02  0.1300439E+00
        -11   -1    0    0    0    0  0.00000000000E+00  0.00000000000E+00  0.45593999997E+02  0.45594000000E+02  0.51100000000E-03 0.  1.
         11   -1    0    0    0    0 -0.00000000000E+00 -0.00000000000E+00 -0.45593999997E+02  0.45594000000E+02  0.51100000000E-03 0. -1.
    9900012    2    1    2    0    0 -0.23269974927E+02  0.21046246595E+02  0.25859794479E+02  0.50528865733E+02  0.30000017882E+02 0.  0.
         12    1    1    2    0    0  0.23269974927E+02 -0.21046246595E+02 -0.25859794479E+02  0.40659134267E+02  0.00000000000E+00 0. -1.
         11    1    3    3    0    0  0.29098347960E+01 -0.32599818139E+00  0.55985057073E+01  0.63179648440E+01  0.51100000000E-03 0. -1.
        -11    1    3    3    0    0 -0.68870331321E+01  0.18455401683E+02  0.11625390894E+02  0.22873189335E+02  0.51100000000E-03 0.  1.
         12    1    3    3    0    0 -0.19292776591E+02  0.29168430938E+01  0.86358978775E+01  0.21337711554E+02  0.00000000000E+00 0. -1.
</event>
<event>
 7    1  0.2746803E-013  0.5052886E+02  0.7816164E-02  0.1300439E+00
        -11   -1    0    0    0    0  0.00000000000E+00  0.00000000000E+00  0.45593999997E+02  0.45594000000E+02  0.51100000000E-03 0.  1.
         11   -1    0    0    0    0 -0.00000000000E+00 -0.00000000000E+00 -0.45593999997E+02  0.45594000000E+02  0.51100000000E-03 0. -1.
    9900012    2    1    2    0    0 -0.13702215924E+01  0.30736709005E+02  0.26580872850E+02  0.50528860940E+02  0.30000003312E+02 0.  0.
         12    1    1    2    0    0  0.13702215924E+01 -0.30736709005E+02 -0.26580872850E+02  0.40659139060E+02  0.00000000000E+00 0. -1.
         11    1    3    3    0    0  0.61127216550E+01  0.40008228770E+01  0.50930183164E+01  0.89056603100E+01  0.51100000000E-03 0. -1.
        -11    1    3    3    0    0 -0.56183158070E+01  0.30680387621E+02  0.17812652895E+02  0.35918550368E+02  0.51100000000E-03 0.  1.
         12    1    3    3    0    0 -0.18646274404E+01 -0.39445014936E+01  0.36752016386E+01  0.57046502618E+01  0.00000000000E+00 0. -1.
</event>
<event>
 7    1  0.2746803E-013  0.5052889E+02  0.7816164E-02  0.1300439E+00
        -11   -1    0    0    0    0  0.00000000000E+00  0.00000000000E+00  0.45593999997E+02  0.45594000000E+02  0.51100000000E-03 0.  1.
         11   -1    0    0    0    0 -0.00000000000E+00 -0.00000000000E+00 -0.45593999997E+02  0.45594000000E+02  0.51100000000E-03 0. -1.
    9900012    2    1    2    0    0 -0.63229990793E+01 -0.21707400321E+02  0.33793070955E+02  0.50528890435E+02  0.30000092967E+02 0.  0.
         12    1    1    2    0    0  0.63229990793E+01  0.21707400321E+02 -0.33793070955E+02  0.40659109565E+02  0.00000000000E+00 0. -1.
         11    1    3    3    0    0 -0.46282775869E+01  0.66580458651E+00  0.15180678623E+02  0.15884497250E+02  0.51100000000E-03 0. -1.
        -11    1    3    3    0    0  0.80085658307E+01 -0.60789740804E+01  0.84200080882E+01  0.13114403875E+02  0.51100000000E-03 0.  1.
        -12    1    3    3    0    0 -0.97032873231E+01 -0.16294230827E+02  0.10192384243E+02  0.21529989310E+02  0.00000000000E+00 0.  1.
</event>
<event>
 7    1  0.2746803E-013  0.5052887E+02  0.7816164E-02  0.1300439E+00
        -11   -1    0    0    0    0  0.00000000000E+00  0.00000000000E+00  0.45593999997E+02  0.45594000000E+02  0.51100000000E-03 0.  1.
         11   -1    0    0    0    0 -0.00000000000E+00 -0.00000000000E+00 -0.45593999997E+02  0.45594000000E+02  0.51100000000E-03 0. -1.
    9900012    2    1    2    0    0  0.23258197766E+02 -0.17970085740E+02  0.28094438848E+02  0.50528865245E+02  0.30000016400E+02 0.  0.
         12    1    1    2    0    0 -0.23258197766E+02  0.17970085740E+02 -0.28094438848E+02  0.40659134755E+02  0.00000000000E+00 0. -1.
         11    1    3    3    0    0  0.16597088187E+02 -0.10427458116E+01  0.27568590874E+01  0.16856776898E+02  0.51100000000E-03 0. -1.
        -11    1    3    3    0    0  0.82490783559E+01 -0.43375383493E+01  0.87174665115E+01  0.12761495026E+02  0.51100000000E-03 0.  1.
         12    1    3    3    0    0 -0.15879687769E+01 -0.12589801579E+02  0.16620113249E+02  0.20910593321E+02  0.00000000000E+00 0. -1.
</event>
<event>
 7    1  0.2746803E-013  0.5052886E+02  0.7816164E-02  0.1300439E+00
        -11   -1    0    0    0    0  0.00000000000E+00  0.00000000000E+00  0.45593999997E+02  0.45594000000E+02  0.51100000000E-03 0. -1.
         11   -1    0    0    0    0 -0.00000000000E+00 -0.00000000000E+00 -0.45593999997E+02  0.45594000000E+02  0.51100000000E-03 0.  1.
    9900012    2    1    2    0    0  0.83126953429E+01  0.39110951311E+02 -0.73755404198E+01  0.50528855729E+02  0.29999987475E+02 0.  0.
         12    1    1    2    0    0 -0.83126953429E+01 -0.39110951311E+02  0.73755404198E+01  0.40659144271E+02  0.00000000000E+00 0. -1.
         11    1    3    3    0    0 -0.62519467981E+01  0.65095259479E+01  0.37744648727E+01  0.97830134503E+01  0.51100000000E-03 0. -1.
        -11    1    3    3    0    0  0.27778351870E+01  0.20181936118E+02 -0.10915058530E+00  0.20372501759E+02  0.51100000000E-03 0.  1.
         12    1    3    3    0    0  0.11786806954E+02  0.12419489245E+02 -0.11040854707E+02  0.20373340520E+02  0.00000000000E+00 0. -1.
</event>
<event>
 7    1  0.2746803E-013  0.5052886E+02  0.7816164E-02  0.1300439E+00
        -11   -1    0    0    0    0  0.00000000000E+00  0.00000000000E+00  0.45593999997E+02  0.45594000000E+02  0.51100000000E-03 0. -1.
         11   -1    0    0    0    0 -0.00000000000E+00 -0.00000000000E+00 -0.45593999997E+02  0.45594000000E+02  0.51100000000E-03 0.  1.
    9900012    2    1    2    0    0  0.23554566292E+02 -0.13727253927E+02 -0.30164728367E+02  0.50528856735E+02  0.29999990532E+02 0.  0.
         12    1    1    2    0    0 -0.23554566292E+02  0.13727253927E+02  0.30164728367E+02  0.40659143265E+02  0.00000000000E+00 0. -1.
         11    1    3    3    0    0  0.32487582783E+01 -0.57142580666E+01 -0.17291872779E+01  0.67968569579E+01  0.51100000000E-03 0.  1.
        -11    1    3    3    0    0  0.21944689980E+02 -0.32622025760E+01 -0.94883515568E+01  0.24129653945E+02  0.51100000000E-03 0. -1.
         12    1    3    3    0    0 -0.16388819670E+01 -0.47507932848E+01 -0.18947189532E+02  0.19602345832E+02  0.00000000000E+00 0. -1.
</event>
<event>
 7    1  0.2746803E-013  0.5052890E+02  0.7816164E-02  0.1300439E+00
        -11   -1    0    0    0    0  0.00000000000E+00  0.00000000000E+00  0.45593999997E+02  0.45594000000E+02  0.51100000000E-03 0.  1.
         11   -1    0    0    0    0 -0.00000000000E+00 -0.00000000000E+00 -0.45593999997E+02  0.45594000000E+02  0.51100000000E-03 0. -1.
    9900012    2    1    2    0    0  0.13220878477E+02  0.11272354251E+02  0.36760093644E+02  0.50528904059E+02  0.30000134377E+02 0.  0.
         12    1    1    2    0    0 -0.13220878477E+02 -0.11272354251E+02 -0.36760093644E+02  0.40659095941E+02  0.00000000000E+00 0. -1.
         11    1    3    3    0    0 -0.55964244257E+00  0.94390432868E+01  0.97427513315E+01  0.13576816328E+02  0.51100000000E-03 0. -1.
        -11    1    3    3    0    0  0.12954932638E+02  0.69790052944E+01  0.28016312867E+02  0.31645703998E+02  0.51100000000E-03 0.  1.
         12    1    3    3    0    0  0.82558828200E+00 -0.51456943304E+01 -0.99897055539E+00  0.53063837332E+01  0.00000000000E+00 0. -1.
</event>
<event>
 7    1  0.2746803E-013  0.5052887E+02  0.7816164E-02  0.1300439E+00
        -11   -1    0    0    0    0  0.00000000000E+00  0.00000000000E+00  0.45593999997E+02  0.45594000000E+02  0.51100000000E-03 0. -1.
         11   -1    0    0    0    0 -0.00000000000E+00 -0.00000000000E+00 -0.45593999997E+02  0.45594000000E+02  0.51100000000E-03 0.  1.
    9900012    2    1    2    0    0  0.10465941056E+02 -0.38639055513E+01 -0.39098586259E+02  0.50528866515E+02  0.30000020258E+02 0.  0.
         12    1    1    2    0    0 -0.10465941056E+02  0.38639055513E+01  0.39098586259E+02  0.40659133485E+02  0.00000000000E+00 0. -1.
         11    1    3    3    0    0  0.13474539067E+02  0.68499328927E+01 -0.16120730100E+02  0.22098930357E+02  0.51100000000E-03 0. -1.
        -11    1    3    3    0    0 -0.14142480301E+01  0.24264782077E+01 -0.78040591042E+01  0.82940480313E+01  0.51100000000E-03 0.  1.
        -12    1    3    3    0    0 -0.15943499808E+01 -0.13140316652E+02 -0.15173797055E+02  0.20135888126E+02  0.00000000000E+00 0.  1.
</event>
<event>
 7    1  0.2746803E-013  0.5052886E+02  0.7816164E-02  0.1300439E+00
        -11   -1    0    0    0    0  0.00000000000E+00  0.00000000000E+00  0.45593999997E+02  0.45594000000E+02  0.51100000000E-03 0.  1.
         11   -1    0    0    0    0 -0.00000000000E+00 -0.00000000000E+00 -0.45593999997E+02  0.45594000000E+02  0.51100000000E-03 0. -1.
    9900012    2    1    2    0    0  0.53982208477E+01 -0.16538450334E+02  0.36749214610E+02  0.50528857089E+02  0.29999991608E+02 0.  0.
         12    1    1    2    0    0 -0.53982208477E+01  0.16538450334E+02 -0.36749214610E+02  0.40659142911E+02  0.00000000000E+00 0. -1.
         11    1    3    3    0    0  0.39145967122E+01 -0.12608801723E+02  0.57552664872E+01  0.14402397054E+02  0.51100000000E-03 0. -1.
        -11    1    3    3    0    0  0.77667399010E+01 -0.44163278466E+00  0.52173734499E+01  0.93668710989E+01  0.51100000000E-03 0.  1.
        -12    1    3    3    0    0 -0.62831157656E+01 -0.34880158270E+01  0.25776574673E+02  0.26759588936E+02  0.00000000000E+00 0.  1.
</event>
<event>
 7    1  0.2746803E-013  0.5052887E+02  0.7816164E-02  0.1300439E+00
        -11   -1    0    0    0    0  0.00000000000E+00  0.00000000000E+00  0.45593999997E+02  0.45594000000E+02  0.51100000000E-03 0. -1.
         11   -1    0    0    0    0 -0.00000000000E+00 -0.00000000000E+00 -0.45593999997E+02  0.45594000000E+02  0.51100000000E-03 0.  1.
    9900012    2    1    2    0    0  0.27252202005E+02 -0.73440201977E+01 -0.29266841100E+02  0.50528866527E+02  0.30000020296E+02 0.  0.
         12    1    1    2    0    0 -0.27252202005E+02  0.73440201977E+01  0.29266841100E+02  0.40659133473E+02  0.00000000000E+00 0. -1.
         11    1    3    3    0    0 -0.25527943019E+01 -0.39087451946E+01 -0.30011381964E+01  0.55499440069E+01  0.51100000000E-03 0. -1.
        -11    1    3    3    0    0  0.14726493045E+02 -0.10095937505E+02 -0.59572636953E+01  0.18822500963E+02  0.51100000000E-03 0.  1.
         12    1    3    3    0    0  0.15078503262E+02  0.66606625021E+01 -0.20308439208E+02  0.26156421557E+02  0.00000000000E+00 0. -1.
</event>
<event>
 7    1  0.2746803E-013  0.5052886E+02  0.7816164E-02  0.1300439E+00
        -11   -1    0    0    0    0  0.00000000000E+00  0.00000000000E+00  0.45593999997E+02  0.45594000000E+02  0.51100000000E-03 0. -1.
         11   -1    0    0    0    0 -0.00000000000E+00 -0.00000000000E+00 -0.45593999997E+02  0.45594000000E+02  0.51100000000E-03 0.  1.
    9900012    2    1    2    0    0  0.30279051065E+02  0.18530169884E+02 -0.19823664752E+02  0.50528858180E+02  0.29999994924E+02 0.  0.
         12    1    1    2    0    0 -0.30279051065E+02 -0.18530169884E+02  0.19823664752E+02  0.40659141820E+02  0.00000000000E+00 0. -1.
         11    1    3    3    0    0 -0.16007438565E+01  0.38447297487E+01 -0.15860150581E+01  0.44564303832E+01  0.51100000000E-03 0. -1.
        -11    1    3    3    0    0  0.96713002133E+01  0.90989465445E+01 -0.18975499873E+02  0.23160191530E+02  0.51100000000E-03 0.  1.
        -12    1    3    3    0    0  0.22208494708E+02  0.55864935905E+01  0.73785017874E+00  0.22912236267E+02  0.00000000000E+00 0.  1.
</event>
<event>
 7    1  0.2746803E-013  0.5052885E+02  0.7816164E-02  0.1300439E+00
        -11   -1    0    0    0    0  0.00000000000E+00  0.00000000000E+00  0.45593999997E+02  0.45594000000E+02  0.51100000000E-03 0. -1.
         11   -1    0    0    0    0 -0.00000000000E+00 -0.00000000000E+00 -0.45593999997E+02  0.45594000000E+02  0.51100000000E-03 0.  1.
    9900012    2    1    2    0    0 -0.38401420034E+02 -0.10222613026E+02 -0.86020480157E+01  0.50528854562E+02  0.29999983926E+02 0.  0.
         12    1    1    2    0    0  0.38401420034E+02  0.10222613026E+02  0.86020480157E+01  0.40659145438E+02  0.00000000000E+00 0. -1.
         11    1    3    3    0    0 -0.61410021516E+00 -0.55277376719E+01 -0.64360355604E+01  0.85062069596E+01  0.51100000000E-03 0. -1.
        -11    1    3    3    0    0 -0.16375381273E+02 -0.36635306568E+01 -0.96015168521E+01  0.19332969116E+02  0.51100000000E-03 0.  1.
         12    1    3    3    0    0 -0.21411938546E+02 -0.10313446969E+01  0.74355043969E+01  0.22689678486E+02  0.00000000000E+00 0. -1.
</event>
<event>
 7    1  0.2746803E-013  0.5052882E+02  0.7816164E-02  0.1300439E+00
        -11   -1    0    0    0    0  0.00000000000E+00  0.00000000000E+00  0.45593999997E+02  0.45594000000E+02  0.51100000000E-03 0. -1.
         11   -1    0    0    0    0 -0.00000000000E+00 -0.00000000000E+00 -0.45593999997E+02  0.45594000000E+02  0.51100000000E-03 0.  1.
    9900012    2    1    2    0    0 -0.38771369511E+02  0.10893868020E+02  0.55923012427E+01  0.50528815461E+02  0.29999865074E+02 0.  0.
         12    1    1    2    0    0  0.38771369511E+02 -0.10893868020E+02 -0.55923012427E+01  0.40659184539E+02  0.00000000000E+00 0. -1.
         11    1    3    3    0    0 -0.10762091001E+01  0.66866006213E+01  0.92009196810E+00  0.68348682056E+01  0.51100000000E-03 0. -1.
        -11    1    3    3    0    0 -0.20380604295E+01 -0.40730315772E+01 -0.40147972397E+01  0.60713980005E+01  0.51100000000E-03 0.  1.
         12    1    3    3    0    0 -0.35657099982E+02  0.82802989757E+01  0.86870065143E+01  0.37622549255E+02  0.00000000000E+00 0. -1.
</event>
<event>
 7    1  0.2746803E-013  0.5052886E+02  0.7816164E-02  0.1300439E+00
        -11   -1    0    0    0    0  0.00000000000E+00  0.00000000000E+00  0.45593999997E+02  0.45594000000E+02  0.51100000000E-03 0. -1.
         11   -1    0    0    0    0 -0.00000000000E+00 -0.00000000000E+00 -0.45593999997E+02  0.45594000000E+02  0.51100000000E-03 0.  1.
    9900012    2    1    2    0    0  0.36555791381E+02  0.71070387407E+01  0.16319609122E+02  0.50528861727E+02  0.30000005707E+02 0.  0.
         12    1    1    2    0    0 -0.36555791381E+02 -0.71070387407E+01 -0.16319609122E+02  0.40659138273E+02  0.00000000000E+00 0. -1.
         11    1    3    3    0    0  0.47110902781E+01 -0.19651064857E+01  0.70620755126E+01  0.87137205553E+01  0.51100000000E-03 0. -1.
        -11    1    3    3    0    0  0.21509745192E+02  0.15989878971E+02  0.11522905118E+02  0.29174007444E+02  0.51100000000E-03 0.  1.
         12    1    3    3    0    0  0.10334955911E+02 -0.69177337449E+01 -0.22653715085E+01  0.12641133728E+02  0.00000000000E+00 0. -1.
</event>
<event>
 7    1  0.2746803E-013  0.5052882E+02  0.7816164E-02  0.1300439E+00
        -11   -1    0    0    0    0  0.00000000000E+00  0.00000000000E+00  0.45593999997E+02  0.45594000000E+02  0.51100000000E-03 0.  1.
         11   -1    0    0    0    0 -0.00000000000E+00 -0.00000000000E+00 -0.45593999997E+02  0.45594000000E+02  0.51100000000E-03 0. -1.
    9900012    2    1    2    0    0 -0.19213789206E+02 -0.46588551002E+01  0.35528778910E+02  0.50528821979E+02  0.29999884889E+02 0.  0.
         12    1    1    2    0    0  0.19213789206E+02  0.46588551002E+01 -0.35528778910E+02  0.40659178021E+02  0.00000000000E+00 0. -1.
         11    1    3    3    0    0 -0.17080882019E+02 -0.44198440316E+00  0.77650686153E+01  0.18768275670E+02  0.51100000000E-03 0. -1.
        -11    1    3    3    0    0  0.29829762708E+01  0.23630197911E+01  0.13096600711E+01  0.40245769626E+01  0.51100000000E-03 0.  1.
        -12    1    3    3    0    0 -0.51158834574E+01 -0.65798904881E+01  0.26454050223E+02  0.27735969347E+02  0.00000000000E+00 0.  1.
</event>
<event>
 7    1  0.2746803E-013  0.5052891E+02  0.7816164E-02  0.1300439E+00
        -11   -1    0    0    0    0  0.00000000000E+00  0.00000000000E+00  0.45593999997E+02  0.45594000000E+02  0.51100000000E-03 0.  1.
         11   -1    0    0    0    0 -0.00000000000E+00 -0.00000000000E+00 -0.45593999997E+02  0.45594000000E+02  0.51100000000E-03 0. -1.
    9900012    2    1    2    0    0  0.38219300285E+02  0.12110862178E+02  0.67656163684E+01  0.50528911695E+02  0.30000157588E+02 0.  0.
         12    1    1    2    0    0 -0.38219300285E+02 -0.12110862178E+02 -0.67656163684E+01  0.40659088305E+02  0.00000000000E+00 0. -1.
         11    1    3    3    0    0  0.36010856703E+01  0.12352177518E+01 -0.33247477730E+01  0.50544563421E+01  0.51100000000E-03 0. -1.
        -11    1    3    3    0    0  0.44049971747E+01 -0.67640692626E+01  0.63871744505E+01  0.10293329433E+02  0.51100000000E-03 0.  1.
        -12    1    3    3    0    0  0.30213217440E+02  0.17639713689E+02  0.37031896909E+01  0.35181125920E+02  0.00000000000E+00 0.  1.
</event>
<event>
 7    1  0.2746803E-013  0.5052886E+02  0.7816164E-02  0.1300439E+00
        -11   -1    0    0    0    0  0.00000000000E+00  0.00000000000E+00  0.45593999997E+02  0.45594000000E+02  0.51100000000E-03 0.  1.
         11   -1    0    0    0    0 -0.00000000000E+00 -0.00000000000E+00 -0.45593999997E+02  0.45594000000E+02  0.51100000000E-03 0. -1.
    9900012    2    1    2    0    0  0.25597471781E+02  0.31220750867E+02  0.48165954170E+01  0.50528862802E+02  0.30000008973E+02 0.  0.
         12    1    1    2    0    0 -0.25597471781E+02 -0.31220750867E+02 -0.48165954170E+01  0.40659137198E+02  0.00000000000E+00 0. -1.
         11    1    3    3    0    0  0.15216468303E+02  0.25179738444E+02  0.15921145063E+01  0.29463451335E+02  0.51100000000E-03 0.  1.
        -11    1    3    3    0    0  0.38622225199E+01  0.65949844205E+01 -0.60278475218E+01  0.97337314688E+01  0.51100000000E-03 0. -1.
        -12    1    3    3    0    0  0.65187809579E+01 -0.55397199744E+00  0.92523284326E+01  0.11331679998E+02  0.00000000000E+00 0.  1.
</event>
<event>
 7    1  0.2746803E-013  0.5052884E+02  0.7816164E-02  0.1300439E+00
        -11   -1    0    0    0    0  0.00000000000E+00  0.00000000000E+00  0.45593999997E+02  0.45594000000E+02  0.51100000000E-03 0.  1.
         11   -1    0    0    0    0 -0.00000000000E+00 -0.00000000000E+00 -0.45593999997E+02  0.45594000000E+02  0.51100000000E-03 0. -1.
    9900012    2    1    2    0    0 -0.10647015649E+02  0.31618096729E+02 -0.23240144129E+02  0.50528840120E+02  0.29999940030E+02 0.  0.
         12    1    1    2    0    0  0.10647015649E+02 -0.31618096729E+02  0.23240144129E+02  0.40659159880E+02  0.00000000000E+00 0. -1.
         11    1    3    3    0    0 -0.24469505515E+01  0.18157552115E+01 -0.14765708622E+02  0.15076826104E+02  0.51100000000E-03 0.  1.
        -11    1    3    3    0    0 -0.28447703125E+01  0.55843366425E+00 -0.46460247532E+01  0.54763229047E+01  0.51100000000E-03 0. -1.
        -12    1    3    3    0    0 -0.53552947849E+01  0.29243907853E+02 -0.38284107541E+01  0.29975691112E+02  0.00000000000E+00 0.  1.
</event>
<event>
 7    1  0.2746803E-013  0.5052886E+02  0.7816164E-02  0.1300439E+00
        -11   -1    0    0    0    0  0.00000000000E+00  0.00000000000E+00  0.45593999997E+02  0.45594000000E+02  0.51100000000E-03 0. -1.
         11   -1    0    0    0    0 -0.00000000000E+00 -0.00000000000E+00 -0.45593999997E+02  0.45594000000E+02  0.51100000000E-03 0.  1.
    9900012    2    1    2    0    0  0.33497488285E+02 -0.10744179564E+02 -0.20387419912E+02  0.50528855806E+02  0.29999987707E+02 0.  0.
         12    1    1    2    0    0 -0.33497488285E+02  0.10744179564E+02  0.20387419912E+02  0.40659144194E+02  0.00000000000E+00 0. -1.
         11    1    3    3    0    0  0.43046762845E+01 -0.84394757360E+01 -0.11361989659E+02  0.14793572857E+02  0.51100000000E-03 0. -1.
        -11    1    3    3    0    0  0.13023787204E+02 -0.99760712987E+01 -0.20740977061E+01  0.16536109375E+02  0.51100000000E-03 0.  1.
         12    1    3    3    0    0  0.16169024796E+02  0.76713674707E+01 -0.69513325478E+01  0.19199173574E+02  0.00000000000E+00 0. -1.
</event>
<event>
 7    1  0.2746803E-013  0.5052886E+02  0.7816164E-02  0.1300439E+00
        -11   -1    0    0    0    0  0.00000000000E+00  0.00000000000E+00  0.45593999997E+02  0.45594000000E+02  0.51100000000E-03 0.  1.
         11   -1    0    0    0    0 -0.00000000000E+00 -0.00000000000E+00 -0.45593999997E+02  0.45594000000E+02  0.51100000000E-03 0. -1.
    9900012    2    1    2    0    0  0.15064080553E+02 -0.28768961377E+01  0.37655844819E+02  0.50528859535E+02  0.29999999043E+02 0.  0.
         12    1    1    2    0    0 -0.15064080553E+02  0.28768961377E+01 -0.37655844819E+02  0.40659140465E+02  0.00000000000E+00 0. -1.
         11    1    3    3    0    0  0.10377946229E+02  0.40019220452E+01  0.14449443492E+02  0.18234680296E+02  0.51100000000E-03 0.  1.
        -11    1    3    3    0    0 -0.76118046192E+01  0.41394762439E+00  0.11590444635E+02  0.13872610760E+02  0.51100000000E-03 0. -1.
         12    1    3    3    0    0  0.12297938944E+02 -0.72927658073E+01  0.11615956692E+02  0.18421568480E+02  0.00000000000E+00 0. -1.
</event>
<event>
 7    1  0.2746803E-013  0.5052886E+02  0.7816164E-02  0.1300439E+00
        -11   -1    0    0    0    0  0.00000000000E+00  0.00000000000E+00  0.45593999997E+02  0.45594000000E+02  0.51100000000E-03 0. -1.
         11   -1    0    0    0    0 -0.00000000000E+00 -0.00000000000E+00 -0.45593999997E+02  0.45594000000E+02  0.51100000000E-03 0.  1.
    9900012    2    1    2    0    0 -0.58212004542E+01 -0.14772766600E+02 -0.37430530511E+02  0.50528860534E+02  0.30000002079E+02 0.  0.
         12    1    1    2    0    0  0.58212004542E+01  0.14772766600E+02  0.37430530511E+02  0.40659139466E+02  0.00000000000E+00 0. -1.
         11    1    3    3    0    0 -0.49947657762E+00  0.26100456005E+01 -0.53687908739E+01  0.59904699813E+01  0.51100000000E-03 0. -1.
        -11    1    3    3    0    0 -0.82152067255E+01 -0.16715789391E+01 -0.26221151251E+02  0.27528758979E+02  0.51100000000E-03 0.  1.
        -12    1    3    3    0    0  0.28934828490E+01 -0.15711233261E+02 -0.58405883862E+01  0.17009631574E+02  0.00000000000E+00 0.  1.
</event>
<event>
 7    1  0.2746803E-013  0.5052886E+02  0.7816164E-02  0.1300439E+00
        -11   -1    0    0    0    0  0.00000000000E+00  0.00000000000E+00  0.45593999997E+02  0.45594000000E+02  0.51100000000E-03 0.  1.
         11   -1    0    0    0    0 -0.00000000000E+00 -0.00000000000E+00 -0.45593999997E+02  0.45594000000E+02  0.51100000000E-03 0. -1.
    9900012    2    1    2    0    0 -0.85283282981E+01  0.35812273476E+02 -0.17260190199E+02  0.50528862272E+02  0.30000007362E+02 0.  0.
         12    1    1    2    0    0  0.85283282981E+01 -0.35812273476E+02  0.17260190199E+02  0.40659137728E+02  0.00000000000E+00 0. -1.
         11    1    3    3    0    0 -0.86556417981E+01  0.94938887940E+00 -0.59535200112E+01  0.10548264074E+02  0.51100000000E-03 0. -1.
        -11    1    3    3    0    0 -0.56645863542E+01  0.21000968803E+02 -0.12184474085E+02  0.24931699465E+02  0.51100000000E-03 0.  1.
         12    1    3    3    0    0  0.57918998542E+01  0.13861915794E+02  0.87780389772E+00  0.15048898733E+02  0.00000000000E+00 0. -1.
</event>
<event>
 7    1  0.2746803E-013  0.5052887E+02  0.7816164E-02  0.1300439E+00
        -11   -1    0    0    0    0  0.00000000000E+00  0.00000000000E+00  0.45593999997E+02  0.45594000000E+02  0.51100000000E-03 0.  1.
         11   -1    0    0    0    0 -0.00000000000E+00 -0.00000000000E+00 -0.45593999997E+02  0.45594000000E+02  0.51100000000E-03 0. -1.
    9900012    2    1    2    0    0  0.29133781136E+02  0.22852021850E+02 -0.16798006277E+02  0.50528866699E+02  0.30000020817E+02 0.  0.
         12    1    1    2    0    0 -0.29133781136E+02 -0.22852021850E+02  0.16798006277E+02  0.40659133301E+02  0.00000000000E+00 0. -1.
         11    1    3    3    0    0  0.72294224397E+00 -0.31987616899E+00 -0.22917455082E+01  0.24242656593E+01  0.51100000000E-03 0. -1.
        -11    1    3    3    0    0  0.53572992721E-01 -0.55010509173E+01 -0.11227788821E+01  0.56147185093E+01  0.51100000000E-03 0.  1.
        -12    1    3    3    0    0  0.28357265900E+02  0.28672948936E+02 -0.13383481887E+02  0.42489882530E+02  0.00000000000E+00 0.  1.
</event>
<event>
 7    1  0.2746803E-013  0.5052886E+02  0.7816164E-02  0.1300439E+00
        -11   -1    0    0    0    0  0.00000000000E+00  0.00000000000E+00  0.45593999997E+02  0.45594000000E+02  0.51100000000E-03 0. -1.
         11   -1    0    0    0    0 -0.00000000000E+00 -0.00000000000E+00 -0.45593999997E+02  0.45594000000E+02  0.51100000000E-03 0.  1.
    9900012    2    1    2    0    0 -0.37629793491E+01  0.18452681782E+02 -0.36034767270E+02  0.50528856739E+02  0.29999990543E+02 0.  0.
         12    1    1    2    0    0  0.37629793491E+01 -0.18452681782E+02  0.36034767270E+02  0.40659143261E+02  0.00000000000E+00 0. -1.
         11    1    3    3    0    0  0.41673241479E+01 -0.49832229040E+01 -0.12320508861E+02  0.13928174321E+02  0.51100000000E-03 0. -1.
        -11    1    3    3    0    0  0.30570336281E+01  0.52330168330E+01 -0.24706403424E+01  0.65447676613E+01  0.51100000000E-03 0.  1.
         12    1    3    3    0    0 -0.10987337125E+02  0.18202887853E+02 -0.21243618067E+02  0.30055914757E+02  0.00000000000E+00 0. -1.
</event>
<event>
 7    1  0.2746803E-013  0.5052881E+02  0.7816164E-02  0.1300439E+00
        -11   -1    0    0    0    0  0.00000000000E+00  0.00000000000E+00  0.45593999997E+02  0.45594000000E+02  0.51100000000E-03 0.  1.
         11   -1    0    0    0    0 -0.00000000000E+00 -0.00000000000E+00 -0.45593999997E+02  0.45594000000E+02  0.51100000000E-03 0. -1.
    9900012    2    1    2    0    0  0.29637028856E+02 -0.26872674210E+02  0.72578233621E+01  0.50528805486E+02  0.29999834754E+02 0.  0.
         12    1    1    2    0    0 -0.29637028856E+02  0.26872674210E+02 -0.72578233621E+01  0.40659194514E+02  0.00000000000E+00 0. -1.
         11    1    3    3    0    0  0.13073066201E+02 -0.25074535512E+02  0.78724539362E+01  0.29353243812E+02  0.51100000000E-03 0. -1.
        -11    1    3    3    0    0 -0.78929410709E+00  0.33240572336E-01 -0.34127693921E+01  0.35030108918E+01  0.51100000000E-03 0.  1.
         12    1    3    3    0    0  0.17353256762E+02 -0.18313792699E+01  0.27981388180E+01  0.17672550782E+02  0.00000000000E+00 0. -1.
</event>
<event>
 7    1  0.2746803E-013  0.5052887E+02  0.7816164E-02  0.1300439E+00
        -11   -1    0    0    0    0  0.00000000000E+00  0.00000000000E+00  0.45593999997E+02  0.45594000000E+02  0.51100000000E-03 0.  1.
         11   -1    0    0    0    0 -0.00000000000E+00 -0.00000000000E+00 -0.45593999997E+02  0.45594000000E+02  0.51100000000E-03 0. -1.
    9900012    2    1    2    0    0 -0.39878738000E+02  0.18048764539E+01 -0.77196961319E+01  0.50528867793E+02  0.30000024143E+02 0.  0.
         12    1    1    2    0    0  0.39878738000E+02 -0.18048764539E+01  0.77196961319E+01  0.40659132207E+02  0.00000000000E+00 0. -1.
         11    1    3    3    0    0 -0.15908284754E+02 -0.64552220315E+01 -0.78953855336E+01  0.18896574511E+02  0.51100000000E-03 0. -1.
        -11    1    3    3    0    0  0.22837901858E+01 -0.84693879104E+00 -0.27689232946E+01  0.36878095668E+01  0.51100000000E-03 0.  1.
        -12    1    3    3    0    0 -0.26254243432E+02  0.91070372764E+01  0.29446126963E+01  0.27944483715E+02  0.00000000000E+00 0.  1.
</event>
<event>
 7    1  0.2746803E-013  0.5052891E+02  0.7816164E-02  0.1300439E+00
        -11   -1    0    0    0    0  0.00000000000E+00  0.00000000000E+00  0.45593999997E+02  0.45594000000E+02  0.51100000000E-03 0. -1.
         11   -1    0    0    0    0 -0.00000000000E+00 -0.00000000000E+00 -0.45593999997E+02  0.45594000000E+02  0.51100000000E-03 0.  1.
    9900012    2    1    2    0    0  0.36356887571E+01 -0.12355776732E+01 -0.40477362350E+02  0.50528908179E+02  0.30000146901E+02 0.  0.
         12    1    1    2    0    0 -0.36356887571E+01  0.12355776732E+01  0.40477362350E+02  0.40659091821E+02  0.00000000000E+00 0. -1.
         11    1    3    3    0    0  0.71483833598E+01 -0.87264471261E+00 -0.26041180376E+02  0.27018585623E+02  0.51100000000E-03 0. -1.
        -11    1    3    3    0    0  0.82872767581E+00  0.75299120278E+01 -0.11978728734E+02  0.14173083894E+02  0.51100000000E-03 0.  1.
         12    1    3    3    0    0 -0.43414222786E+01 -0.78928449885E+01 -0.24574532396E+01  0.93372386624E+01  0.00000000000E+00 0. -1.
</event>
<event>
 7    1  0.2746803E-013  0.5052886E+02  0.7816164E-02  0.1300439E+00
        -11   -1    0    0    0    0  0.00000000000E+00  0.00000000000E+00  0.45593999997E+02  0.45594000000E+02  0.51100000000E-03 0.  1.
         11   -1    0    0    0    0 -0.00000000000E+00 -0.00000000000E+00 -0.45593999997E+02  0.45594000000E+02  0.51100000000E-03 0. -1.
    9900012    2    1    2    0    0 -0.27378670054E+02 -0.25099470256E+02 -0.16540580953E+02  0.50528858355E+02  0.29999995455E+02 0.  0.
         12    1    1    2    0    0  0.27378670054E+02  0.25099470256E+02  0.16540580953E+02  0.40659141645E+02  0.00000000000E+00 0. -1.
         11    1    3    3    0    0 -0.60033304671E+01 -0.26557753025E+01  0.52027330570E+01  0.83762492011E+01  0.51100000000E-03 0. -1.
        -11    1    3    3    0    0 -0.19962006647E+02 -0.94633676928E+01 -0.88371362780E+01  0.23793528854E+02  0.51100000000E-03 0.  1.
         12    1    3    3    0    0 -0.14133329397E+01 -0.12980327261E+02 -0.12906177732E+02  0.18359080299E+02  0.00000000000E+00 0. -1.
</event>
<event>
 7    1  0.2746803E-013  0.5052885E+02  0.7816164E-02  0.1300439E+00
        -11   -1    0    0    0    0  0.00000000000E+00  0.00000000000E+00  0.45593999997E+02  0.45594000000E+02  0.51100000000E-03 0.  1.
         11   -1    0    0    0    0 -0.00000000000E+00 -0.00000000000E+00 -0.45593999997E+02  0.45594000000E+02  0.51100000000E-03 0. -1.
    9900012    2    1    2    0    0 -0.68200562143E+01  0.30842733914E+02  0.25600368270E+02  0.50528852719E+02  0.29999978325E+02 0.  0.
         12    1    1    2    0    0  0.68200562143E+01 -0.30842733914E+02 -0.25600368270E+02  0.40659147281E+02  0.00000000000E+00 0. -1.
         11    1    3    3    0    0  0.10538469116E+02  0.91020326816E+01  0.71260860098E+01  0.15642488047E+02  0.51100000000E-03 0. -1.
        -11    1    3    3    0    0 -0.29392964314E+01  0.10211798893E+02  0.37382631550E+01  0.11264764170E+02  0.51100000000E-03 0.  1.
        -12    1    3    3    0    0 -0.14419228899E+02  0.11528902339E+02  0.14736019105E+02  0.23621600501E+02  0.00000000000E+00 0.  1.
</event>
<event>
 7    1  0.2746803E-013  0.5052884E+02  0.7816164E-02  0.1300439E+00
        -11   -1    0    0    0    0  0.00000000000E+00  0.00000000000E+00  0.45593999997E+02  0.45594000000E+02  0.51100000000E-03 0.  1.
         11   -1    0    0    0    0 -0.00000000000E+00 -0.00000000000E+00 -0.45593999997E+02  0.45594000000E+02  0.51100000000E-03 0. -1.
    9900012    2    1    2    0    0 -0.39182728940E+00  0.49614740134E+01  0.40353403716E+02  0.50528844272E+02  0.29999952650E+02 0.  0.
         12    1    1    2    0    0  0.39182728940E+00 -0.49614740134E+01 -0.40353403716E+02  0.40659155728E+02  0.00000000000E+00 0. -1.
         11    1    3    3    0    0 -0.12202429943E+01 -0.57234848262E+01  0.82134667981E+01  0.10085053724E+02  0.51100000000E-03 0. -1.
        -11    1    3    3    0    0 -0.11757681680E+01  0.38805604859E+01  0.33045022639E+02  0.33292862628E+02  0.51100000000E-03 0.  1.
        -12    1    3    3    0    0  0.20041838729E+01  0.68043983536E+01 -0.90508572156E+00  0.71509279198E+01  0.00000000000E+00 0.  1.
</event>
<event>
 7    1  0.2746803E-013  0.5052887E+02  0.7816164E-02  0.1300439E+00
        -11   -1    0    0    0    0  0.00000000000E+00  0.00000000000E+00  0.45593999997E+02  0.45594000000E+02  0.51100000000E-03 0. -1.
         11   -1    0    0    0    0 -0.00000000000E+00 -0.00000000000E+00 -0.45593999997E+02  0.45594000000E+02  0.51100000000E-03 0.  1.
    9900012    2    1    2    0    0  0.26049902614E+02  0.11017149827E+01 -0.31198610487E+02  0.50528874352E+02  0.30000044081E+02 0.  0.
         12    1    1    2    0    0 -0.26049902614E+02 -0.11017149827E+01  0.31198610487E+02  0.40659125648E+02  0.00000000000E+00 0. -1.
         11    1    3    3    0    0  0.81405733067E+01  0.94701261264E+01 -0.11240170413E+02  0.16801596763E+02  0.51100000000E-03 0. -1.
        -11    1    3    3    0    0  0.17099566666E+02  0.14541131518E+01 -0.10825272558E+02  0.20290296978E+02  0.51100000000E-03 0.  1.
         12    1    3    3    0    0  0.80976264088E+00 -0.98225242955E+01 -0.91331675161E+01  0.13436980611E+02  0.00000000000E+00 0. -1.
</event>
<event>
 7    1  0.2746803E-013  0.5052886E+02  0.7816164E-02  0.1300439E+00
        -11   -1    0    0    0    0  0.00000000000E+00  0.00000000000E+00  0.45593999997E+02  0.45594000000E+02  0.51100000000E-03 0. -1.
         11   -1    0    0    0    0 -0.00000000000E+00 -0.00000000000E+00 -0.45593999997E+02  0.45594000000E+02  0.51100000000E-03 0.  1.
    9900012    2    1    2    0    0  0.37638382589E+02 -0.46498096598E+01 -0.14659369598E+02  0.50528859689E+02  0.29999999512E+02 0.  0.
         12    1    1    2    0    0 -0.37638382589E+02  0.46498096598E+01  0.14659369598E+02  0.40659140311E+02  0.00000000000E+00 0. -1.
         11    1    3    3    0    0  0.18545315934E+02 -0.58163084455E+01  0.10950061093E+01  0.19466823718E+02  0.51100000000E-03 0. -1.
        -11    1    3    3    0    0  0.21806479836E+02  0.45666566093E+01 -0.11944473454E+02  0.25279386104E+02  0.51100000000E-03 0.  1.
         12    1    3    3    0    0 -0.27134131807E+01 -0.34001578236E+01 -0.38099022533E+01  0.57826498679E+01  0.00000000000E+00 0. -1.
</event>
<event>
 7    1  0.2746803E-013  0.5052886E+02  0.7816164E-02  0.1300439E+00
        -11   -1    0    0    0    0  0.00000000000E+00  0.00000000000E+00  0.45593999997E+02  0.45594000000E+02  0.51100000000E-03 0.  1.
         11   -1    0    0    0    0 -0.00000000000E+00 -0.00000000000E+00 -0.45593999997E+02  0.45594000000E+02  0.51100000000E-03 0. -1.
    9900012    2    1    2    0    0  0.78208653774E+01 -0.18049497690E+02  0.35583921788E+02  0.50528858446E+02  0.29999995732E+02 0.  0.
         12    1    1    2    0    0 -0.78208653774E+01  0.18049497690E+02 -0.35583921788E+02  0.40659141554E+02  0.00000000000E+00 0. -1.
         11    1    3    3    0    0 -0.46616742027E+01  0.54136474909E+00  0.14196621878E+01  0.49030320366E+01  0.51100000000E-03 0. -1.
        -11    1    3    3    0    0  0.85365399089E+01 -0.83732605167E+01  0.26298688013E+01  0.12243374350E+02  0.51100000000E-03 0.  1.
         12    1    3    3    0    0  0.39459996711E+01 -0.10217601922E+02  0.31534390799E+02  0.33382452059E+02  0.00000000000E+00 0. -1.
</event>
<event>
 7    1  0.2746803E-013  0.5052882E+02  0.7816164E-02  0.1300439E+00
        -11   -1    0    0    0    0  0.00000000000E+00  0.00000000000E+00  0.45593999997E+02  0.45594000000E+02  0.51100000000E-03 0.  1.
         11   -1    0    0    0    0 -0.00000000000E+00 -0.00000000000E+00 -0.45593999997E+02  0.45594000000E+02  0.51100000000E-03 0. -1.
    9900012    2    1    2    0    0 -0.81702376991E+01 -0.12023210408E+02  0.37971811276E+02  0.50528821157E+02  0.29999882388E+02 0.  0.
         12    1    1    2    0    0  0.81702376991E+01  0.12023210408E+02 -0.37971811276E+02  0.40659178843E+02  0.00000000000E+00 0. -1.
         11    1    3    3    0    0  0.35872509309E+00 -0.37001254013E+01  0.28079607752E+02  0.28324617975E+02  0.51100000000E-03 0. -1.
        -11    1    3    3    0    0  0.20633551650E+01 -0.63805105773E+01 -0.11232878763E+01  0.67992739082E+01  0.51100000000E-03 0.  1.
         12    1    3    3    0    0 -0.10592317957E+02 -0.19425744295E+01  0.11015491401E+02  0.15404929274E+02  0.00000000000E+00 0. -1.
</event>
<event>
 7    1  0.2746803E-013  0.5052886E+02  0.7816164E-02  0.1300439E+00
        -11   -1    0    0    0    0  0.00000000000E+00  0.00000000000E+00  0.45593999997E+02  0.45594000000E+02  0.51100000000E-03 0.  1.
         11   -1    0    0    0    0 -0.00000000000E+00 -0.00000000000E+00 -0.45593999997E+02  0.45594000000E+02  0.51100000000E-03 0. -1.
    9900012    2    1    2    0    0 -0.18714588981E+02 -0.36071211477E+02 -0.13407581653E+01  0.50528858708E+02  0.29999996529E+02 0.  0.
         12    1    1    2    0    0  0.18714588981E+02  0.36071211477E+02  0.13407581653E+01  0.40659141292E+02  0.00000000000E+00 0. -1.
         11    1    3    3    0    0 -0.17550706640E+02 -0.33495227540E+02 -0.67435945838E+01  0.38411373832E+02  0.51100000000E-03 0. -1.
        -11    1    3    3    0    0 -0.37643302865E+01 -0.56690759447E+01  0.33462214927E+01  0.75832580803E+01  0.51100000000E-03 0.  1.
         12    1    3    3    0    0  0.26004479455E+01  0.30930920074E+01  0.20566149259E+01  0.45342267959E+01  0.00000000000E+00 0. -1.
</event>
<event>
 7    1  0.2746803E-013  0.5052887E+02  0.7816164E-02  0.1300439E+00
        -11   -1    0    0    0    0  0.00000000000E+00  0.00000000000E+00  0.45593999997E+02  0.45594000000E+02  0.51100000000E-03 0.  1.
         11   -1    0    0    0    0 -0.00000000000E+00 -0.00000000000E+00 -0.45593999997E+02  0.45594000000E+02  0.51100000000E-03 0. -1.
    9900012    2    1    2    0    0 -0.69631772614E+00  0.15502031052E+02  0.37581468963E+02  0.50528872679E+02  0.30000038994E+02 0.  0.
         12    1    1    2    0    0  0.69631772614E+00 -0.15502031052E+02 -0.37581468963E+02  0.40659127321E+02  0.00000000000E+00 0. -1.
         11    1    3    3    0    0 -0.15113388525E+01  0.13072908522E+01 -0.33658281678E+01  0.39143267640E+01  0.51100000000E-03 0. -1.
        -11    1    3    3    0    0 -0.72153494319E+01  0.65734089371E+01  0.11105433550E+02  0.14785182686E+02  0.51100000000E-03 0.  1.
        -12    1    3    3    0    0  0.80303705583E+01  0.76213312629E+01  0.29841863581E+02  0.31829363228E+02  0.00000000000E+00 0.  1.
</event>
<event>
 7    1  0.2746803E-013  0.5052886E+02  0.7816164E-02  0.1300439E+00
        -11   -1    0    0    0    0  0.00000000000E+00  0.00000000000E+00  0.45593999997E+02  0.45594000000E+02  0.51100000000E-03 0.  1.
         11   -1    0    0    0    0 -0.00000000000E+00 -0.00000000000E+00 -0.45593999997E+02  0.45594000000E+02  0.51100000000E-03 0. -1.
    9900012    2    1    2    0    0 -0.89368749859E+01  0.11485213768E+02  0.37965614147E+02  0.50528859240E+02  0.29999998144E+02 0.  0.
         12    1    1    2    0    0  0.89368749859E+01 -0.11485213768E+02 -0.37965614147E+02  0.40659140760E+02  0.00000000000E+00 0. -1.
         11    1    3    3    0    0  0.49061151186E+01 -0.61509542773E+01  0.11995973871E+02  0.14345995729E+02  0.51100000000E-03 0. -1.
        -11    1    3    3    0    0  0.58148252693E+00  0.66575439026E+01  0.43710045691E+01  0.79854050585E+01  0.51100000000E-03 0.  1.
         12    1    3    3    0    0 -0.14424472631E+02  0.10978624142E+02  0.21598635707E+02  0.28197458452E+02  0.00000000000E+00 0. -1.
</event>
<event>
 7    1  0.2746803E-013  0.5052886E+02  0.7816164E-02  0.1300439E+00
        -11   -1    0    0    0    0  0.00000000000E+00  0.00000000000E+00  0.45593999997E+02  0.45594000000E+02  0.51100000000E-03 0.  1.
         11   -1    0    0    0    0 -0.00000000000E+00 -0.00000000000E+00 -0.45593999997E+02  0.45594000000E+02  0.51100000000E-03 0. -1.
    9900012    2    1    2    0    0  0.15870954525E+02  0.68807456767E+01  0.36795835167E+02  0.50528863951E+02  0.30000012466E+02 0.  0.
         12    1    1    2    0    0 -0.15870954525E+02 -0.68807456767E+01 -0.36795835167E+02  0.40659136049E+02  0.00000000000E+00 0. -1.
         11    1    3    3    0    0  0.28801268183E+01 -0.25470117658E+01  0.12212947202E+01  0.40340997111E+01  0.51100000000E-03 0. -1.
        -11    1    3    3    0    0  0.11401276776E+02 -0.16316433466E+01  0.33106057060E+02  0.35052280759E+02  0.51100000000E-03 0.  1.
         12    1    3    3    0    0  0.15895509310E+01  0.11059400789E+02  0.24684833871E+01  0.11442483481E+02  0.00000000000E+00 0. -1.
</event>
<event>
 7    1  0.2746803E-013  0.5052890E+02  0.7816164E-02  0.1300439E+00
        -11   -1    0    0    0    0  0.00000000000E+00  0.00000000000E+00  0.45593999997E+02  0.45594000000E+02  0.51100000000E-03 0.  1.
         11   -1    0    0    0    0 -0.00000000000E+00 -0.00000000000E+00 -0.45593999997E+02  0.45594000000E+02  0.51100000000E-03 0. -1.
    9900012    2    1    2    0    0  0.32795522139E+02 -0.38290702715E+00 -0.24030592367E+02  0.50528901883E+02  0.30000127765E+02 0.  0.
         12    1    1    2    0    0 -0.32795522139E+02  0.38290702715E+00  0.24030592367E+02  0.40659098117E+02  0.00000000000E+00 0. -1.
         11    1    3    3    0    0  0.11872629287E+02  0.74437620095E+01 -0.17892622204E+01  0.14126938047E+02  0.51100000000E-03 0.  1.
        -11    1    3    3    0    0 -0.50769507003E+00 -0.38535847559E+01 -0.11428662747E+02  0.12071545145E+02  0.51100000000E-03 0. -1.
         12    1    3    3    0    0  0.21430587922E+02 -0.39730842807E+01 -0.10812667400E+02  0.24330418691E+02  0.00000000000E+00 0. -1.
</event>
<event>
 7    1  0.2746803E-013  0.5052884E+02  0.7816164E-02  0.1300439E+00
        -11   -1    0    0    0    0  0.00000000000E+00  0.00000000000E+00  0.45593999997E+02  0.45594000000E+02  0.51100000000E-03 0.  1.
         11   -1    0    0    0    0 -0.00000000000E+00 -0.00000000000E+00 -0.45593999997E+02  0.45594000000E+02  0.51100000000E-03 0. -1.
    9900012    2    1    2    0    0 -0.21755135632E+02 -0.88880084170E+01  0.33179576395E+02  0.50528844700E+02  0.29999953949E+02 0.  0.
         12    1    1    2    0    0  0.21755135632E+02  0.88880084170E+01 -0.33179576395E+02  0.40659155300E+02  0.00000000000E+00 0. -1.
         11    1    3    3    0    0 -0.44385914212E+00  0.27358376566E+01 -0.20183199293E+01  0.34286198709E+01  0.51100000000E-03 0. -1.
        -11    1    3    3    0    0  0.72423171379E+00 -0.54863567095E+01  0.52097094342E+00  0.55584199647E+01  0.51100000000E-03 0.  1.
        -12    1    3    3    0    0 -0.22035508203E+02 -0.61374893641E+01  0.34676925381E+02  0.41541804864E+02  0.00000000000E+00 0.  1.
</event>
<event>
 7    1  0.2746803E-013  0.5052886E+02  0.7816164E-02  0.1300439E+00
        -11   -1    0    0    0    0  0.00000000000E+00  0.00000000000E+00  0.45593999997E+02  0.45594000000E+02  0.51100000000E-03 0.  1.
         11   -1    0    0    0    0 -0.00000000000E+00 -0.00000000000E+00 -0.45593999997E+02  0.45594000000E+02  0.51100000000E-03 0. -1.
    9900012    2    1    2    0    0 -0.11028772060E+02  0.16296750075E+02  0.35580164363E+02  0.50528856228E+02  0.29999988990E+02 0.  0.
         12    1    1    2    0    0  0.11028772060E+02 -0.16296750075E+02 -0.35580164363E+02  0.40659143772E+02  0.00000000000E+00 0. -1.
         11    1    3    3    0    0 -0.18543713913E+02  0.87941318583E+01  0.25757244175E+02  0.32933899080E+02  0.51100000000E-03 0.  1.
        -11    1    3    3    0    0  0.27203536037E+01  0.68443915056E+01  0.10375582730E+02  0.12723943417E+02  0.51100000000E-03 0. -1.
        -12    1    3    3    0    0  0.47945882495E+01  0.65822671130E+00 -0.55266254228E+00  0.48710137313E+01  0.00000000000E+00 0.  1.
</event>
<event>
 7    1  0.2746803E-013  0.5052887E+02  0.7816164E-02  0.1300439E+00
        -11   -1    0    0    0    0  0.00000000000E+00  0.00000000000E+00  0.45593999997E+02  0.45594000000E+02  0.51100000000E-03 0.  1.
         11   -1    0    0    0    0 -0.00000000000E+00 -0.00000000000E+00 -0.45593999997E+02  0.45594000000E+02  0.51100000000E-03 0. -1.
    9900012    2    1    2    0    0 -0.17288671630E+02 -0.23382176937E+02  0.28417250289E+02  0.50528874591E+02  0.30000044806E+02 0.  0.
         12    1    1    2    0    0  0.17288671630E+02  0.23382176937E+02 -0.28417250289E+02  0.40659125409E+02  0.00000000000E+00 0. -1.
         11    1    3    3    0    0  0.37864445306E+01 -0.68815802922E+01  0.95512434063E+01  0.12366064870E+02  0.51100000000E-03 0. -1.
        -11    1    3    3    0    0 -0.89689081347E+01 -0.15101690416E+02  0.19133735656E+02  0.25973105454E+02  0.51100000000E-03 0.  1.
        -12    1    3    3    0    0 -0.12106208026E+02 -0.13989062291E+01 -0.26772877291E+00  0.12189704266E+02  0.00000000000E+00 0.  1.
</event>
<event>
 7    1  0.2746803E-013  0.5052884E+02  0.7816164E-02  0.1300439E+00
        -11   -1    0    0    0    0  0.00000000000E+00  0.00000000000E+00  0.45593999997E+02  0.45594000000E+02  0.51100000000E-03 0.  1.
         11   -1    0    0    0    0 -0.00000000000E+00 -0.00000000000E+00 -0.45593999997E+02  0.45594000000E+02  0.51100000000E-03 0. -1.
    9900012    2    1    2    0    0 -0.39255997662E+02 -0.92166834784E+01  0.52140632508E+01  0.50528842823E+02  0.29999948245E+02 0.  0.
         12    1    1    2    0    0  0.39255997662E+02  0.92166834784E+01 -0.52140632508E+01  0.40659157177E+02  0.00000000000E+00 0. -1.
         11    1    3    3    0    0 -0.40300502983E+01  0.70844148051E+01  0.27279139189E+01  0.85948678377E+01  0.51100000000E-03 0. -1.
        -11    1    3    3    0    0 -0.14857475958E+02 -0.21465533646E+01  0.72598081039E+01  0.16675044143E+02  0.51100000000E-03 0.  1.
         12    1    3    3    0    0 -0.20368471405E+02 -0.14154544919E+02 -0.47736587721E+01  0.25258930843E+02  0.00000000000E+00 0. -1.
</event>
<event>
 7    1  0.2746803E-013  0.5052886E+02  0.7816164E-02  0.1300439E+00
        -11   -1    0    0    0    0  0.00000000000E+00  0.00000000000E+00  0.45593999997E+02  0.45594000000E+02  0.51100000000E-03 0. -1.
         11   -1    0    0    0    0 -0.00000000000E+00 -0.00000000000E+00 -0.45593999997E+02  0.45594000000E+02  0.51100000000E-03 0.  1.
    9900012    2    1    2    0    0  0.15709303399E+02  0.17964560011E+01 -0.37458727400E+02  0.50528859259E+02  0.29999998202E+02 0.  0.
         12    1    1    2    0    0 -0.15709303399E+02 -0.17964560011E+01  0.37458727400E+02  0.40659140741E+02  0.00000000000E+00 0. -1.
         11    1    3    3    0    0  0.15658991894E+02 -0.37277721969E+01 -0.35636359066E+02  0.39103074054E+02  0.51100000000E-03 0.  1.
        -11    1    3    3    0    0  0.40666662934E+01 -0.28726854074E+00  0.18751935572E+00  0.40811103546E+01  0.51100000000E-03 0. -1.
        -12    1    3    3    0    0 -0.40163547889E+01  0.58114967388E+01 -0.20098876892E+01  0.73446748504E+01  0.00000000000E+00 0.  1.
</event>
<event>
 7    1  0.2746803E-013  0.5052886E+02  0.7816164E-02  0.1300439E+00
        -11   -1    0    0    0    0  0.00000000000E+00  0.00000000000E+00  0.45593999997E+02  0.45594000000E+02  0.51100000000E-03 0.  1.
         11   -1    0    0    0    0 -0.00000000000E+00 -0.00000000000E+00 -0.45593999997E+02  0.45594000000E+02  0.51100000000E-03 0. -1.
    9900012    2    1    2    0    0 -0.57670092368E+01  0.15430644248E+01  0.40218481003E+02  0.50528860099E+02  0.30000000756E+02 0.  0.
         12    1    1    2    0    0  0.57670092368E+01 -0.15430644248E+01 -0.40218481003E+02  0.40659139901E+02  0.00000000000E+00 0. -1.
         11    1    3    3    0    0  0.33255093747E+01  0.23535591837E+00  0.65490694981E+01  0.73487901427E+01  0.51100000000E-03 0.  1.
        -11    1    3    3    0    0 -0.10052116459E+02 -0.93785995380E+01  0.27645976330E+02  0.30875608207E+02  0.51100000000E-03 0. -1.
         12    1    3    3    0    0  0.95959784765E+00  0.10686308044E+02  0.60234351740E+01  0.12304461750E+02  0.00000000000E+00 0. -1.
</event>
<event>
 7    1  0.2746803E-013  0.5052887E+02  0.7816164E-02  0.1300439E+00
        -11   -1    0    0    0    0  0.00000000000E+00  0.00000000000E+00  0.45593999997E+02  0.45594000000E+02  0.51100000000E-03 0.  1.
         11   -1    0    0    0    0 -0.00000000000E+00 -0.00000000000E+00 -0.45593999997E+02  0.45594000000E+02  0.51100000000E-03 0. -1.
    9900012    2    1    2    0    0 -0.20703468861E+02  0.25114597461E+02  0.24367767129E+02  0.50528871833E+02  0.30000036422E+02 0.  0.
         12    1    1    2    0    0  0.20703468861E+02 -0.25114597461E+02 -0.24367767129E+02  0.40659128167E+02  0.00000000000E+00 0. -1.
         11    1    3    3    0    0 -0.15481531015E+02  0.20731768600E+01  0.10262312211E+02  0.18689326286E+02  0.51100000000E-03 0. -1.
        -11    1    3    3    0    0 -0.12853125960E+01  0.46817075896E+01  0.11999955899E+02  0.12944858295E+02  0.51100000000E-03 0.  1.
         12    1    3    3    0    0 -0.39366252502E+01  0.18359713011E+02  0.21054990182E+01  0.18894687251E+02  0.00000000000E+00 0. -1.
</event>
<event>
 7    1  0.2746803E-013  0.5052886E+02  0.7816164E-02  0.1300439E+00
        -11   -1    0    0    0    0  0.00000000000E+00  0.00000000000E+00  0.45593999997E+02  0.45594000000E+02  0.51100000000E-03 0. -1.
         11   -1    0    0    0    0 -0.00000000000E+00 -0.00000000000E+00 -0.45593999997E+02  0.45594000000E+02  0.51100000000E-03 0.  1.
    9900012    2    1    2    0    0  0.13182745289E+02 -0.26285345753E+02 -0.28079559096E+02  0.50528858178E+02  0.29999994917E+02 0.  0.
         12    1    1    2    0    0 -0.13182745289E+02  0.26285345753E+02  0.28079559096E+02  0.40659141822E+02  0.00000000000E+00 0. -1.
         11    1    3    3    0    0 -0.35204939515E+01 -0.77140698898E+00  0.25610135578E+01  0.44212822924E+01  0.51100000000E-03 0. -1.
        -11    1    3    3    0    0 -0.16570560923E+01 -0.10704741825E+02 -0.10592832801E+02  0.15150757059E+02  0.51100000000E-03 0.  1.
         12    1    3    3    0    0  0.18360295333E+02 -0.14809196939E+02 -0.20047739852E+02  0.30956818827E+02  0.00000000000E+00 0. -1.
</event>
<event>
 7    1  0.2746803E-013  0.5052884E+02  0.7816164E-02  0.1300439E+00
        -11   -1    0    0    0    0  0.00000000000E+00  0.00000000000E+00  0.45593999997E+02  0.45594000000E+02  0.51100000000E-03 0.  1.
         11   -1    0    0    0    0 -0.00000000000E+00 -0.00000000000E+00 -0.45593999997E+02  0.45594000000E+02  0.51100000000E-03 0. -1.
    9900012    2    1    2    0    0 -0.39213668209E+02 -0.10003553185E+02 -0.39223227789E+01  0.50528837850E+02  0.29999933129E+02 0.  0.
         12    1    1    2    0    0  0.39213668209E+02  0.10003553185E+02  0.39223227789E+01  0.40659162150E+02  0.00000000000E+00 0. -1.
         11    1    3    3    0    0 -0.19684814023E+02  0.88378723656E+00  0.48313092423E+01  0.20288285592E+02  0.51100000000E-03 0. -1.
        -11    1    3    3    0    0 -0.17459541802E+02 -0.17749580254E+01 -0.16735378156E+00  0.17550330011E+02  0.51100000000E-03 0.  1.
         12    1    3    3    0    0 -0.20693123843E+01 -0.91123823965E+01 -0.85862782397E+01  0.12690222248E+02  0.00000000000E+00 0. -1.
</event>
<event>
 7    1  0.2746803E-013  0.5052888E+02  0.7816164E-02  0.1300439E+00
        -11   -1    0    0    0    0  0.00000000000E+00  0.00000000000E+00  0.45593999997E+02  0.45594000000E+02  0.51100000000E-03 0.  1.
         11   -1    0    0    0    0 -0.00000000000E+00 -0.00000000000E+00 -0.45593999997E+02  0.45594000000E+02  0.51100000000E-03 0. -1.
    9900012    2    1    2    0    0 -0.18009439724E+02 -0.71192361369E+01  0.35751091303E+02  0.50528880830E+02  0.30000063771E+02 0.  0.
         12    1    1    2    0    0  0.18009439724E+02  0.71192361369E+01 -0.35751091303E+02  0.40659119170E+02  0.00000000000E+00 0. -1.
         11    1    3    3    0    0  0.68280039504E+01  0.31664610060E+01  0.64099719096E+01  0.98861445160E+01  0.51100000000E-03 0. -1.
        -11    1    3    3    0    0 -0.12518300304E+02 -0.34382221911E+01  0.86221585326E+01  0.15584313664E+02  0.51100000000E-03 0.  1.
        -12    1    3    3    0    0 -0.12319143370E+02 -0.68474749519E+01  0.20718960860E+02  0.25058422650E+02  0.00000000000E+00 0.  1.
</event>
<event>
 7    1  0.2746803E-013  0.5052886E+02  0.7816164E-02  0.1300439E+00
        -11   -1    0    0    0    0  0.00000000000E+00  0.00000000000E+00  0.45593999997E+02  0.45594000000E+02  0.51100000000E-03 0.  1.
         11   -1    0    0    0    0 -0.00000000000E+00 -0.00000000000E+00 -0.45593999997E+02  0.45594000000E+02  0.51100000000E-03 0. -1.
    9900012    2    1    2    0    0 -0.63314111661E+01 -0.15911916238E+02  0.36876684397E+02  0.50528859603E+02  0.29999999250E+02 0.  0.
         12    1    1    2    0    0  0.63314111661E+01  0.15911916238E+02 -0.36876684397E+02  0.40659140397E+02  0.00000000000E+00 0. -1.
         11    1    3    3    0    0 -0.53677247065E+01 -0.11037661818E+01  0.27920016482E+01  0.61502879424E+01  0.51100000000E-03 0. -1.
        -11    1    3    3    0    0 -0.94930137570E+01 -0.16441184741E+02  0.27777919262E+02  0.33645841714E+02  0.51100000000E-03 0.  1.
         12    1    3    3    0    0  0.85293272975E+01  0.16330346852E+01  0.63067634867E+01  0.10732729947E+02  0.00000000000E+00 0. -1.
</event>
<event>
 7    1  0.2746803E-013  0.5052887E+02  0.7816164E-02  0.1300439E+00
        -11   -1    0    0    0    0  0.00000000000E+00  0.00000000000E+00  0.45593999997E+02  0.45594000000E+02  0.51100000000E-03 0.  1.
         11   -1    0    0    0    0 -0.00000000000E+00 -0.00000000000E+00 -0.45593999997E+02  0.45594000000E+02  0.51100000000E-03 0. -1.
    9900012    2    1    2    0    0  0.18044304021E+02 -0.33584657095E+01  0.36280689327E+02  0.50528872887E+02  0.30000039629E+02 0.  0.
         12    1    1    2    0    0 -0.18044304021E+02  0.33584657095E+01 -0.36280689327E+02  0.40659127113E+02  0.00000000000E+00 0. -1.
         11    1    3    3    0    0  0.10306467959E+02 -0.21882961307E+01  0.71377237224E+01  0.12726312190E+02  0.51100000000E-03 0. -1.
        -11    1    3    3    0    0  0.11575234271E+02  0.55760857939E+00  0.39241739289E+01  0.12235036454E+02  0.51100000000E-03 0.  1.
         12    1    3    3    0    0 -0.38373982091E+01 -0.17277781582E+01  0.25218791676E+02  0.25567524244E+02  0.00000000000E+00 0. -1.
</event>
<event>
 7    1  0.2746803E-013  0.5052887E+02  0.7816164E-02  0.1300439E+00
        -11   -1    0    0    0    0  0.00000000000E+00  0.00000000000E+00  0.45593999997E+02  0.45594000000E+02  0.51100000000E-03 0.  1.
         11   -1    0    0    0    0 -0.00000000000E+00 -0.00000000000E+00 -0.45593999997E+02  0.45594000000E+02  0.51100000000E-03 0. -1.
    9900012    2    1    2    0    0  0.10288349160E+02  0.92217485602E+01  0.38239692167E+02  0.50528870251E+02  0.30000031614E+02 0.  0.
         12    1    1    2    0    0 -0.10288349160E+02 -0.92217485602E+01 -0.38239692167E+02  0.40659129749E+02  0.00000000000E+00 0. -1.
         11    1    3    3    0    0  0.24720755131E+01 -0.49071014506E+01  0.10555671259E+02  0.11900125965E+02  0.51100000000E-03 0. -1.
        -11    1    3    3    0    0  0.16551214773E+01  0.81485077915E+01  0.28794451444E+02  0.29970953281E+02  0.51100000000E-03 0.  1.
         12    1    3    3    0    0  0.61611521692E+01  0.59803422193E+01 -0.11104305362E+01  0.86577910051E+01  0.00000000000E+00 0. -1.
</event>
<event>
 7    1  0.2746803E-013  0.5052886E+02  0.7816164E-02  0.1300439E+00
        -11   -1    0    0    0    0  0.00000000000E+00  0.00000000000E+00  0.45593999997E+02  0.45594000000E+02  0.51100000000E-03 0. -1.
         11   -1    0    0    0    0 -0.00000000000E+00 -0.00000000000E+00 -0.45593999997E+02  0.45594000000E+02  0.51100000000E-03 0.  1.
    9900012    2    1    2    0    0  0.25748579134E+02  0.13698137170E+02 -0.28329091147E+02  0.50528859643E+02  0.29999999370E+02 0.  0.
         12    1    1    2    0    0 -0.25748579134E+02 -0.13698137170E+02  0.28329091147E+02  0.40659140357E+02  0.00000000000E+00 0. -1.
         11    1    3    3    0    0 -0.25823225106E+01 -0.19400230821E+01  0.19357712437E+01  0.37655397590E+01  0.51100000000E-03 0. -1.
        -11    1    3    3    0    0  0.65818870875E+01  0.35538953096E+01 -0.16987872062E+02  0.18561767345E+02  0.51100000000E-03 0.  1.
         12    1    3    3    0    0  0.21749014558E+02  0.12084264943E+02 -0.13276990328E+02  0.28201552539E+02  0.00000000000E+00 0. -1.
</event>
<event>
 7    1  0.2746803E-013  0.5052887E+02  0.7816164E-02  0.1300439E+00
        -11   -1    0    0    0    0  0.00000000000E+00  0.00000000000E+00  0.45593999997E+02  0.45594000000E+02  0.51100000000E-03 0. -1.
         11   -1    0    0    0    0 -0.00000000000E+00 -0.00000000000E+00 -0.45593999997E+02  0.45594000000E+02  0.51100000000E-03 0.  1.
    9900012    2    1    2    0    0  0.12133394514E+02  0.74176963850E+01 -0.38090993101E+02  0.50528865263E+02  0.30000016454E+02 0.  0.
         12    1    1    2    0    0 -0.12133394514E+02 -0.74176963850E+01  0.38090993101E+02  0.40659134737E+02  0.00000000000E+00 0. -1.
         11    1    3    3    0    0  0.31158428571E+01  0.12503561766E+02 -0.20838933233E+01  0.13053357622E+02  0.51100000000E-03 0. -1.
        -11    1    3    3    0    0  0.14579505825E+01 -0.51090283161E+00 -0.48999772951E+01  0.51377445789E+01  0.51100000000E-03 0.  1.
         12    1    3    3    0    0  0.75596010746E+01 -0.45749625497E+01 -0.31107122483E+02  0.32337763063E+02  0.00000000000E+00 0. -1.
</event>
<event>
 7    1  0.2746803E-013  0.5052886E+02  0.7816164E-02  0.1300439E+00
        -11   -1    0    0    0    0  0.00000000000E+00  0.00000000000E+00  0.45593999997E+02  0.45594000000E+02  0.51100000000E-03 0.  1.
         11   -1    0    0    0    0 -0.00000000000E+00 -0.00000000000E+00 -0.45593999997E+02  0.45594000000E+02  0.51100000000E-03 0. -1.
    9900012    2    1    2    0    0  0.39043499040E+02 -0.11253548192E+02 -0.14589730629E+01  0.50528858758E+02  0.29999996680E+02 0.  0.
         12    1    1    2    0    0 -0.39043499040E+02  0.11253548192E+02  0.14589730629E+01  0.40659141242E+02  0.00000000000E+00 0. -1.
         11    1    3    3    0    0  0.23712114575E+02 -0.91710199862E+01 -0.77001581824E+01  0.26564344928E+02  0.51100000000E-03 0. -1.
        -11    1    3    3    0    0  0.44537694541E+01  0.28469707611E+01 -0.52079222834E+01  0.74204959158E+01  0.51100000000E-03 0.  1.
        -12    1    3    3    0    0  0.10877615011E+02 -0.49294989666E+01  0.11449107403E+02  0.16544017913E+02  0.00000000000E+00 0.  1.
</event>
<event>
 7    1  0.2746803E-013  0.5052879E+02  0.7816164E-02  0.1300439E+00
        -11   -1    0    0    0    0  0.00000000000E+00  0.00000000000E+00  0.45593999997E+02  0.45594000000E+02  0.51100000000E-03 0. -1.
         11   -1    0    0    0    0 -0.00000000000E+00 -0.00000000000E+00 -0.45593999997E+02  0.45594000000E+02  0.51100000000E-03 0.  1.
    9900012    2    1    2    0    0  0.26291133777E+02 -0.27492275116E+02 -0.14356975307E+02  0.50528786452E+02  0.29999776900E+02 0.  0.
         12    1    1    2    0    0 -0.26291133777E+02  0.27492275116E+02  0.14356975307E+02  0.40659213548E+02  0.00000000000E+00 0. -1.
         11    1    3    3    0    0 -0.34925414597E+01 -0.76206381879E+01 -0.26965056836E+01  0.88058568806E+01  0.51100000000E-03 0. -1.
        -11    1    3    3    0    0  0.41267791269E+01 -0.24474790244E+01 -0.94887699995E+01  0.10632836682E+02  0.51100000000E-03 0.  1.
        -12    1    3    3    0    0  0.25656896110E+02 -0.17424157904E+02 -0.21716996236E+01  0.31090092890E+02  0.00000000000E+00 0.  1.
</event>
<event>
 7    1  0.2746803E-013  0.5052886E+02  0.7816164E-02  0.1300439E+00
        -11   -1    0    0    0    0  0.00000000000E+00  0.00000000000E+00  0.45593999997E+02  0.45594000000E+02  0.51100000000E-03 0. -1.
         11   -1    0    0    0    0 -0.00000000000E+00 -0.00000000000E+00 -0.45593999997E+02  0.45594000000E+02  0.51100000000E-03 0.  1.
    9900012    2    1    2    0    0  0.30603917319E+02 -0.23312678466E+02 -0.13156175214E+02  0.50528859837E+02  0.29999999961E+02 0.  0.
         12    1    1    2    0    0 -0.30603917319E+02  0.23312678466E+02  0.13156175214E+02  0.40659140163E+02  0.00000000000E+00 0. -1.
         11    1    3    3    0    0  0.24821711053E+02 -0.13540789377E+02  0.33298652175E+01  0.28470305921E+02  0.51100000000E-03 0. -1.
        -11    1    3    3    0    0  0.43912743230E+01  0.17004857166E+00 -0.68831114418E+01  0.81663596589E+01  0.51100000000E-03 0.  1.
        -12    1    3    3    0    0  0.13909319421E+01 -0.99419376606E+01 -0.96029289897E+01  0.13892194258E+02  0.00000000000E+00 0.  1.
</event>
<event>
 7    1  0.2746803E-013  0.5052886E+02  0.7816164E-02  0.1300439E+00
        -11   -1    0    0    0    0  0.00000000000E+00  0.00000000000E+00  0.45593999997E+02  0.45594000000E+02  0.51100000000E-03 0.  1.
         11   -1    0    0    0    0 -0.00000000000E+00 -0.00000000000E+00 -0.45593999997E+02  0.45594000000E+02  0.51100000000E-03 0. -1.
    9900012    2    1    2    0    0 -0.37117740822E+02 -0.14306794390E+02 -0.84115588268E+01  0.50528863618E+02  0.30000011452E+02 0.  0.
         12    1    1    2    0    0  0.37117740822E+02  0.14306794390E+02  0.84115588268E+01  0.40659136382E+02  0.00000000000E+00 0. -1.
         11    1    3    3    0    0 -0.70587838678E+01  0.14644369102E+01 -0.16877697970E+01  0.74040240616E+01  0.51100000000E-03 0. -1.
        -11    1    3    3    0    0 -0.12555983962E+01 -0.87674334772E+01  0.61753871304E+01  0.10797213695E+02  0.51100000000E-03 0.  1.
         12    1    3    3    0    0 -0.28803358558E+02 -0.70037978232E+01 -0.12899176160E+02  0.32327625861E+02  0.00000000000E+00 0. -1.
</event>
<event>
 7    1  0.2746803E-013  0.5052886E+02  0.7816164E-02  0.1300439E+00
        -11   -1    0    0    0    0  0.00000000000E+00  0.00000000000E+00  0.45593999997E+02  0.45594000000E+02  0.51100000000E-03 0.  1.
         11   -1    0    0    0    0 -0.00000000000E+00 -0.00000000000E+00 -0.45593999997E+02  0.45594000000E+02  0.51100000000E-03 0. -1.
    9900012    2    1    2    0    0 -0.38108762315E+02  0.11623969744E+02 -0.81099310034E+01  0.50528863036E+02  0.30000009683E+02 0.  0.
         12    1    1    2    0    0  0.38108762315E+02 -0.11623969744E+02  0.81099310034E+01  0.40659136964E+02  0.00000000000E+00 0. -1.
         11    1    3    3    0    0 -0.23102089718E+02  0.13993261886E+02 -0.11462542676E+02  0.29341230587E+02  0.51100000000E-03 0. -1.
        -11    1    3    3    0    0 -0.52997379621E+01  0.51112216933E+01  0.48868982590E+01  0.88370574582E+01  0.51100000000E-03 0.  1.
         12    1    3    3    0    0 -0.97069346354E+01 -0.74805138353E+01 -0.15342865869E+01  0.12350574990E+02  0.00000000000E+00 0. -1.
</event>
<event>
 7    1  0.2746803E-013  0.5052886E+02  0.7816164E-02  0.1300439E+00
        -11   -1    0    0    0    0  0.00000000000E+00  0.00000000000E+00  0.45593999997E+02  0.45594000000E+02  0.51100000000E-03 0.  1.
         11   -1    0    0    0    0 -0.00000000000E+00 -0.00000000000E+00 -0.45593999997E+02  0.45594000000E+02  0.51100000000E-03 0. -1.
    9900012    2    1    2    0    0  0.43778714647E+01  0.18735587802E+02  0.35818676083E+02  0.50528861234E+02  0.30000004207E+02 0.  0.
         12    1    1    2    0    0 -0.43778714647E+01 -0.18735587802E+02 -0.35818676083E+02  0.40659138766E+02  0.00000000000E+00 0. -1.
         11    1    3    3    0    0  0.48443799609E+01  0.97145846475E+01  0.81378300372E+01  0.13567072273E+02  0.51100000000E-03 0. -1.
        -11    1    3    3    0    0 -0.89062188487E-01 -0.39293697911E+01 -0.21205768628E+01  0.44659518046E+01  0.51100000000E-03 0.  1.
         12    1    3    3    0    0 -0.37744630776E+00  0.12950372946E+02  0.29801422908E+02  0.32495837157E+02  0.00000000000E+00 0. -1.
</event>
<event>
 7    1  0.2746803E-013  0.5052887E+02  0.7816164E-02  0.1300439E+00
        -11   -1    0    0    0    0  0.00000000000E+00  0.00000000000E+00  0.45593999997E+02  0.45594000000E+02  0.51100000000E-03 0. -1.
         11   -1    0    0    0    0 -0.00000000000E+00 -0.00000000000E+00 -0.45593999997E+02  0.45594000000E+02  0.51100000000E-03 0.  1.
    9900012    2    1    2    0    0  0.32043808010E+02 -0.95889344905E+01 -0.23117344238E+02  0.50528869401E+02  0.30000029032E+02 0.  0.
         12    1    1    2    0    0 -0.32043808010E+02  0.95889344905E+01  0.23117344238E+02  0.40659130599E+02  0.00000000000E+00 0. -1.
         11    1    3    3    0    0  0.11705563784E+01  0.13356890697E+01  0.92764869495E+00  0.20036965560E+01  0.51100000000E-03 0. -1.
        -11    1    3    3    0    0  0.34840695589E+02 -0.11539009503E+02 -0.24988591010E+02  0.44401041546E+02  0.51100000000E-03 0.  1.
         12    1    3    3    0    0 -0.39674439579E+01  0.61438594243E+00  0.94359807708E+00  0.41241312996E+01  0.00000000000E+00 0. -1.
</event>
<event>
 7    1  0.2746803E-013  0.5052886E+02  0.7816164E-02  0.1300439E+00
        -11   -1    0    0    0    0  0.00000000000E+00  0.00000000000E+00  0.45593999997E+02  0.45594000000E+02  0.51100000000E-03 0. -1.
         11   -1    0    0    0    0 -0.00000000000E+00 -0.00000000000E+00 -0.45593999997E+02  0.45594000000E+02  0.51100000000E-03 0.  1.
    9900012    2    1    2    0    0 -0.28806260817E+02  0.28671406507E+02  0.11468791756E+01  0.50528861480E+02  0.30000004955E+02 0.  0.
         12    1    1    2    0    0  0.28806260817E+02 -0.28671406507E+02 -0.11468791756E+01  0.40659138520E+02  0.00000000000E+00 0. -1.
         11    1    3    3    0    0  0.22181345726E+01  0.66750283306E+01 -0.11375489468E+01  0.71253169799E+01  0.51100000000E-03 0. -1.
        -11    1    3    3    0    0 -0.13735804403E+02  0.21948214772E+02 -0.47320553919E+00  0.25896339086E+02  0.51100000000E-03 0.  1.
        -12    1    3    3    0    0 -0.17288590987E+02  0.48163403982E-01  0.27576336617E+01  0.17507205415E+02  0.00000000000E+00 0.  1.
</event>
<event>
 7    1  0.2746803E-013  0.5052886E+02  0.7816164E-02  0.1300439E+00
        -11   -1    0    0    0    0  0.00000000000E+00  0.00000000000E+00  0.45593999997E+02  0.45594000000E+02  0.51100000000E-03 0.  1.
         11   -1    0    0    0    0 -0.00000000000E+00 -0.00000000000E+00 -0.45593999997E+02  0.45594000000E+02  0.51100000000E-03 0. -1.
    9900012    2    1    2    0    0 -0.80531281437E+01  0.18189967518E+02  0.35460366229E+02  0.50528863704E+02  0.30000011715E+02 0.  0.
         12    1    1    2    0    0  0.80531281437E+01 -0.18189967518E+02 -0.35460366229E+02  0.40659136296E+02  0.00000000000E+00 0. -1.
         11    1    3    3    0    0 -0.67469284430E+00  0.36220269801E+00  0.71173582205E+01  0.71584348519E+01  0.51100000000E-03 0. -1.
        -11    1    3    3    0    0 -0.16743394185E+02  0.13408411760E+02  0.13759395766E+02  0.25484264299E+02  0.51100000000E-03 0.  1.
        -12    1    3    3    0    0  0.93649588852E+01  0.44193530603E+01  0.14583612242E+02  0.17886164553E+02  0.00000000000E+00 0.  1.
</event>
<event>
 7    1  0.2746803E-013  0.5052886E+02  0.7816164E-02  0.1300439E+00
        -11   -1    0    0    0    0  0.00000000000E+00  0.00000000000E+00  0.45593999997E+02  0.45594000000E+02  0.51100000000E-03 0.  1.
         11   -1    0    0    0    0 -0.00000000000E+00 -0.00000000000E+00 -0.45593999997E+02  0.45594000000E+02  0.51100000000E-03 0. -1.
    9900012    2    1    2    0    0 -0.11388248004E+02 -0.36212640386E+02 -0.14564281646E+02  0.50528858147E+02  0.29999994824E+02 0.  0.
         12    1    1    2    0    0  0.11388248004E+02  0.36212640386E+02  0.14564281646E+02  0.40659141853E+02  0.00000000000E+00 0. -1.
         11    1    3    3    0    0 -0.26809601038E+01  0.18879507177E+01 -0.28464248990E+01  0.43421238993E+01  0.51100000000E-03 0. -1.
        -11    1    3    3    0    0 -0.11236141305E+01 -0.77884080951E+01  0.63331426833E+01  0.10101015091E+02  0.51100000000E-03 0.  1.
         12    1    3    3    0    0 -0.75836737697E+01 -0.30312183009E+02 -0.18050999431E+02  0.36085719156E+02  0.00000000000E+00 0. -1.
</event>
<event>
 7    1  0.2746803E-013  0.5052883E+02  0.7816164E-02  0.1300439E+00
        -11   -1    0    0    0    0  0.00000000000E+00  0.00000000000E+00  0.45593999997E+02  0.45594000000E+02  0.51100000000E-03 0.  1.
         11   -1    0    0    0    0 -0.00000000000E+00 -0.00000000000E+00 -0.45593999997E+02  0.45594000000E+02  0.51100000000E-03 0. -1.
    9900012    2    1    2    0    0 -0.28903241463E+02 -0.15079525297E+02  0.24297700526E+02  0.50528834968E+02  0.29999924368E+02 0.  0.
         12    1    1    2    0    0  0.28903241463E+02  0.15079525297E+02 -0.24297700526E+02  0.40659165032E+02  0.00000000000E+00 0. -1.
         11    1    3    3    0    0 -0.15065226457E+02 -0.14877354166E+02  0.21241865712E+02  0.29991891810E+02  0.51100000000E-03 0.  1.
        -11    1    3    3    0    0  0.21466413731E+01 -0.32115723764E+01 -0.47685281971E+00  0.38922557967E+01  0.51100000000E-03 0. -1.
         12    1    3    3    0    0 -0.15984656380E+02  0.30094012456E+01  0.35326876340E+01  0.16644687361E+02  0.00000000000E+00 0. -1.
</event>
<event>
 7    1  0.2746803E-013  0.5052886E+02  0.7816164E-02  0.1300439E+00
        -11   -1    0    0    0    0  0.00000000000E+00  0.00000000000E+00  0.45593999997E+02  0.45594000000E+02  0.51100000000E-03 0.  1.
         11   -1    0    0    0    0 -0.00000000000E+00 -0.00000000000E+00 -0.45593999997E+02  0.45594000000E+02  0.51100000000E-03 0. -1.
    9900012    2    1    2    0    0  0.38567467783E+02  0.93768181412E+01  0.88199342383E+01  0.50528861672E+02  0.30000005538E+02 0.  0.
         12    1    1    2    0    0 -0.38567467783E+02 -0.93768181412E+01 -0.88199342383E+01  0.40659138328E+02  0.00000000000E+00 0. -1.
         11    1    3    3    0    0  0.12626213666E+02  0.37162817091E+01 -0.10145801382E+00  0.13162154659E+02  0.51100000000E-03 0. -1.
        -11    1    3    3    0    0  0.28066814716E+02  0.11178772134E+02  0.61265312679E+01  0.30826051002E+02  0.51100000000E-03 0.  1.
         12    1    3    3    0    0 -0.21255606002E+01 -0.55182357016E+01  0.27948609842E+01  0.65406560103E+01  0.00000000000E+00 0. -1.
</event>
<event>
 7    1  0.2746803E-013  0.5052888E+02  0.7816164E-02  0.1300439E+00
        -11   -1    0    0    0    0  0.00000000000E+00  0.00000000000E+00  0.45593999997E+02  0.45594000000E+02  0.51100000000E-03 0. -1.
         11   -1    0    0    0    0 -0.00000000000E+00 -0.00000000000E+00 -0.45593999997E+02  0.45594000000E+02  0.51100000000E-03 0.  1.
    9900012    2    1    2    0    0 -0.21373068819E+01  0.27281064331E+02 -0.30072238659E+02  0.50528879378E+02  0.30000059358E+02 0.  0.
         12    1    1    2    0    0  0.21373068819E+01 -0.27281064331E+02  0.30072238659E+02  0.40659120622E+02  0.00000000000E+00 0. -1.
         11    1    3    3    0    0  0.62398388005E+01  0.15294049338E+01 -0.41041133929E+01  0.76235434484E+01  0.51100000000E-03 0. -1.
        -11    1    3    3    0    0  0.42989273012E+00  0.24787445537E+02 -0.15704706026E+02  0.29346891754E+02  0.51100000000E-03 0.  1.
         12    1    3    3    0    0 -0.88070384124E+01  0.96421386084E+00 -0.10263419240E+02  0.13558444176E+02  0.00000000000E+00 0. -1.
</event>
<event>
 7    1  0.2746803E-013  0.5052886E+02  0.7816164E-02  0.1300439E+00
        -11   -1    0    0    0    0  0.00000000000E+00  0.00000000000E+00  0.45593999997E+02  0.45594000000E+02  0.51100000000E-03 0.  1.
         11   -1    0    0    0    0 -0.00000000000E+00 -0.00000000000E+00 -0.45593999997E+02  0.45594000000E+02  0.51100000000E-03 0. -1.
    9900012    2    1    2    0    0 -0.36764973668E+02  0.10451963572E+02 -0.13865753126E+02  0.50528856612E+02  0.29999990157E+02 0.  0.
         12    1    1    2    0    0  0.36764973668E+02 -0.10451963572E+02  0.13865753126E+02  0.40659143388E+02  0.00000000000E+00 0. -1.
         11    1    3    3    0    0  0.34178527988E+01  0.86656576128E+00  0.18777146844E+01  0.39948049602E+01  0.51100000000E-03 0. -1.
        -11    1    3    3    0    0 -0.41513056506E+01  0.35621183039E+01 -0.71552142988E+01  0.90066151987E+01  0.51100000000E-03 0.  1.
        -12    1    3    3    0    0 -0.36031520816E+02  0.60232795069E+01 -0.85882535118E+01  0.37527436453E+02  0.00000000000E+00 0.  1.
</event>
<event>
 7    1  0.2746803E-013  0.5052886E+02  0.7816164E-02  0.1300439E+00
        -11   -1    0    0    0    0  0.00000000000E+00  0.00000000000E+00  0.45593999997E+02  0.45594000000E+02  0.51100000000E-03 0.  1.
         11   -1    0    0    0    0 -0.00000000000E+00 -0.00000000000E+00 -0.45593999997E+02  0.45594000000E+02  0.51100000000E-03 0. -1.
    9900012    2    1    2    0    0 -0.11847806564E+02 -0.37307231325E+02  0.10998449659E+02  0.50528856817E+02  0.29999990780E+02 0.  0.
         12    1    1    2    0    0  0.11847806564E+02  0.37307231325E+02 -0.10998449659E+02  0.40659143183E+02  0.00000000000E+00 0. -1.
         11    1    3    3    0    0 -0.74623779752E+01 -0.17511632248E+01 -0.25630340060E+01  0.80822522395E+01  0.51100000000E-03 0. -1.
        -11    1    3    3    0    0 -0.59488325534E+01 -0.15163849408E+02 -0.24503815365E+01  0.16472258727E+02  0.51100000000E-03 0.  1.
         12    1    3    3    0    0  0.15634039650E+01 -0.20392218692E+02  0.16011865201E+02  0.25974345850E+02  0.00000000000E+00 0. -1.
</event>
<event>
 7    1  0.2746803E-013  0.5052887E+02  0.7816164E-02  0.1300439E+00
        -11   -1    0    0    0    0  0.00000000000E+00  0.00000000000E+00  0.45593999997E+02  0.45594000000E+02  0.51100000000E-03 0. -1.
         11   -1    0    0    0    0 -0.00000000000E+00 -0.00000000000E+00 -0.45593999997E+02  0.45594000000E+02  0.51100000000E-03 0.  1.
    9900012    2    1    2    0    0  0.30892273815E+02  0.26198142716E+02 -0.35340890389E+01  0.50528867587E+02  0.30000023519E+02 0.  0.
         12    1    1    2    0    0 -0.30892273815E+02 -0.26198142716E+02  0.35340890389E+01  0.40659132413E+02  0.00000000000E+00 0. -1.
         11    1    3    3    0    0  0.54530957597E+01 -0.52338061710E+00 -0.98297534100E+01  0.11253187682E+02  0.51100000000E-03 0. -1.
        -11    1    3    3    0    0  0.14923041047E+02  0.82710822588E+01 -0.21469030734E+00  0.17063236739E+02  0.51100000000E-03 0.  1.
         12    1    3    3    0    0  0.10516137008E+02  0.18450441074E+02  0.65103546784E+01  0.22212443167E+02  0.00000000000E+00 0. -1.
</event>
<event>
 7    1  0.2746803E-013  0.5052888E+02  0.7816164E-02  0.1300439E+00
        -11   -1    0    0    0    0  0.00000000000E+00  0.00000000000E+00  0.45593999997E+02  0.45594000000E+02  0.51100000000E-03 0.  1.
         11   -1    0    0    0    0 -0.00000000000E+00 -0.00000000000E+00 -0.45593999997E+02  0.45594000000E+02  0.51100000000E-03 0. -1.
    9900012    2    1    2    0    0 -0.31672036890E+02  0.18466508231E+02 -0.17579366098E+02  0.50528880981E+02  0.30000064230E+02 0.  0.
         12    1    1    2    0    0  0.31672036890E+02 -0.18466508231E+02  0.17579366098E+02  0.40659119019E+02  0.00000000000E+00 0. -1.
         11    1    3    3    0    0 -0.26706357127E+02  0.11514338669E+02 -0.18987359347E+02  0.34732251888E+02  0.51100000000E-03 0. -1.
        -11    1    3    3    0    0 -0.16028300204E+00 -0.97104502715E+00 -0.46320009675E+01  0.47354041337E+01  0.51100000000E-03 0.  1.
        -12    1    3    3    0    0 -0.48053967614E+01  0.79232145885E+01  0.60399942173E+01  0.11061224959E+02  0.00000000000E+00 0.  1.
</event>
<event>
 7    1  0.2746803E-013  0.5052886E+02  0.7816164E-02  0.1300439E+00
        -11   -1    0    0    0    0  0.00000000000E+00  0.00000000000E+00  0.45593999997E+02  0.45594000000E+02  0.51100000000E-03 0.  1.
         11   -1    0    0    0    0 -0.00000000000E+00 -0.00000000000E+00 -0.45593999997E+02  0.45594000000E+02  0.51100000000E-03 0. -1.
    9900012    2    1    2    0    0 -0.36579012783E+02  0.58830873173E+01  0.16749044306E+02  0.50528863539E+02  0.30000011212E+02 0.  0.
         12    1    1    2    0    0  0.36579012783E+02 -0.58830873173E+01 -0.16749044306E+02  0.40659136461E+02  0.00000000000E+00 0. -1.
         11    1    3    3    0    0 -0.13983961217E+02 -0.28111730155E+01 -0.37415140985E+00  0.14268631840E+02  0.51100000000E-03 0. -1.
        -11    1    3    3    0    0 -0.25375480570E+02  0.11495562601E+02  0.13741355782E+02  0.31062643684E+02  0.51100000000E-03 0.  1.
         12    1    3    3    0    0  0.27804290029E+01 -0.28013022678E+01  0.33818399339E+01  0.51975880151E+01  0.00000000000E+00 0. -1.
</event>
<event>
 7    1  0.2746803E-013  0.5052886E+02  0.7816164E-02  0.1300439E+00
        -11   -1    0    0    0    0  0.00000000000E+00  0.00000000000E+00  0.45593999997E+02  0.45594000000E+02  0.51100000000E-03 0. -1.
         11   -1    0    0    0    0 -0.00000000000E+00 -0.00000000000E+00 -0.45593999997E+02  0.45594000000E+02  0.51100000000E-03 0.  1.
    9900012    2    1    2    0    0 -0.23413286006E+02 -0.13578788169E+02 -0.30341390092E+02  0.50528863235E+02  0.30000010289E+02 0.  0.
         12    1    1    2    0    0  0.23413286006E+02  0.13578788169E+02  0.30341390092E+02  0.40659136765E+02  0.00000000000E+00 0. -1.
         11    1    3    3    0    0  0.20243580782E+01  0.32924386651E+01 -0.12825435475E+02  0.13395147382E+02  0.51100000000E-03 0. -1.
        -11    1    3    3    0    0 -0.74720007895E+01 -0.35824770225E+01 -0.11162084914E+02  0.13901693325E+02  0.51100000000E-03 0.  1.
         12    1    3    3    0    0 -0.17965643295E+02 -0.13288749812E+02 -0.63538697031E+01  0.23232022528E+02  0.00000000000E+00 0. -1.
</event>
<event>
 7    1  0.2746803E-013  0.5052885E+02  0.7816164E-02  0.1300439E+00
        -11   -1    0    0    0    0  0.00000000000E+00  0.00000000000E+00  0.45593999997E+02  0.45594000000E+02  0.51100000000E-03 0. -1.
         11   -1    0    0    0    0 -0.00000000000E+00 -0.00000000000E+00 -0.45593999997E+02  0.45594000000E+02  0.51100000000E-03 0.  1.
    9900012    2    1    2    0    0 -0.29006887477E+02  0.25853451281E+02  0.11973538960E+02  0.50528854663E+02  0.29999984235E+02 0.  0.
         12    1    1    2    0    0  0.29006887477E+02 -0.25853451281E+02 -0.11973538960E+02  0.40659145337E+02  0.00000000000E+00 0. -1.
         11    1    3    3    0    0 -0.22165456975E+02  0.91555121752E+01  0.87911083657E+01  0.25542405381E+02  0.51100000000E-03 0. -1.
        -11    1    3    3    0    0 -0.10656610450E+02  0.94553052036E+01 -0.32056991250E+01  0.14602830203E+02  0.51100000000E-03 0.  1.
         12    1    3    3    0    0  0.38151799479E+01  0.72426339025E+01  0.63881297194E+01  0.10383619080E+02  0.00000000000E+00 0. -1.
</event>
<event>
 7    1  0.2746803E-013  0.5052885E+02  0.7816164E-02  0.1300439E+00
        -11   -1    0    0    0    0  0.00000000000E+00  0.00000000000E+00  0.45593999997E+02  0.45594000000E+02  0.51100000000E-03 0.  1.
         11   -1    0    0    0    0 -0.00000000000E+00 -0.00000000000E+00 -0.45593999997E+02  0.45594000000E+02  0.51100000000E-03 0. -1.
    9900012    2    1    2    0    0 -0.39718969967E+02  0.64767312840E+01  0.57984109462E+01  0.50528853515E+02  0.29999980744E+02 0.  0.
         12    1    1    2    0    0  0.39718969967E+02 -0.64767312840E+01 -0.57984109462E+01  0.40659146485E+02  0.00000000000E+00 0. -1.
         11    1    3    3    0    0 -0.54359881326E+01 -0.12050713721E+00 -0.67819609833E+01  0.86924958434E+01  0.51100000000E-03 0. -1.
        -11    1    3    3    0    0  0.15437630376E+01 -0.15769625863E+01  0.32405151247E+01  0.39205808051E+01  0.51100000000E-03 0.  1.
        -12    1    3    3    0    0 -0.35826744872E+02  0.81742010076E+01  0.93398568048E+01  0.37915776867E+02  0.00000000000E+00 0.  1.
</event>
<event>
 7    1  0.2746803E-013  0.5052886E+02  0.7816164E-02  0.1300439E+00
        -11   -1    0    0    0    0  0.00000000000E+00  0.00000000000E+00  0.45593999997E+02  0.45594000000E+02  0.51100000000E-03 0. -1.
         11   -1    0    0    0    0 -0.00000000000E+00 -0.00000000000E+00 -0.45593999997E+02  0.45594000000E+02  0.51100000000E-03 0.  1.
    9900012    2    1    2    0    0 -0.39031542937E+02 -0.11141253563E+02 -0.23615353745E+01  0.50528859277E+02  0.29999998258E+02 0.  0.
         12    1    1    2    0    0  0.39031542937E+02  0.11141253563E+02  0.23615353745E+01  0.40659140723E+02  0.00000000000E+00 0. -1.
         11    1    3    3    0    0 -0.13231864382E+01 -0.57055727019E+01  0.35622163994E+01  0.68552000805E+01  0.51100000000E-03 0. -1.
        -11    1    3    3    0    0 -0.20659795468E+02 -0.12074277739E+02 -0.80681804819E+01  0.25252937815E+02  0.51100000000E-03 0.  1.
        -12    1    3    3    0    0 -0.17048561031E+02  0.66385968784E+01  0.21444287080E+01  0.18420721382E+02  0.00000000000E+00 0.  1.
</event>
<event>
 7    1  0.2746803E-013  0.5052887E+02  0.7816164E-02  0.1300439E+00
        -11   -1    0    0    0    0  0.00000000000E+00  0.00000000000E+00  0.45593999997E+02  0.45594000000E+02  0.51100000000E-03 0.  1.
         11   -1    0    0    0    0 -0.00000000000E+00 -0.00000000000E+00 -0.45593999997E+02  0.45594000000E+02  0.51100000000E-03 0. -1.
    9900012    2    1    2    0    0  0.28696176550E+02 -0.18500171644E+02  0.22077993358E+02  0.50528871995E+02  0.30000036916E+02 0.  0.
         12    1    1    2    0    0 -0.28696176550E+02  0.18500171644E+02 -0.22077993358E+02  0.40659128005E+02  0.00000000000E+00 0. -1.
         11    1    3    3    0    0  0.76491305123E+01  0.15124220522E+01  0.18363356329E+02  0.19950174786E+02  0.51100000000E-03 0. -1.
        -11    1    3    3    0    0  0.13213482988E+00 -0.11352672286E+01  0.20601295308E+01  0.23559340480E+01  0.51100000000E-03 0.  1.
        -12    1    3    3    0    0  0.20914911207E+02 -0.18877326468E+02  0.16545074975E+01  0.28222763161E+02  0.00000000000E+00 0.  1.
</event>
<event>
 7    1  0.2746803E-013  0.5052886E+02  0.7816164E-02  0.1300439E+00
        -11   -1    0    0    0    0  0.00000000000E+00  0.00000000000E+00  0.45593999997E+02  0.45594000000E+02  0.51100000000E-03 0. -1.
         11   -1    0    0    0    0 -0.00000000000E+00 -0.00000000000E+00 -0.45593999997E+02  0.45594000000E+02  0.51100000000E-03 0.  1.
    9900012    2    1    2    0    0  0.57101611371E+01  0.38717786385E+02  0.11022367256E+02  0.50528862002E+02  0.30000006542E+02 0.  0.
         12    1    1    2    0    0 -0.57101611371E+01 -0.38717786385E+02 -0.11022367256E+02  0.40659137998E+02  0.00000000000E+00 0. -1.
         11    1    3    3    0    0 -0.22158932124E+01  0.75718054302E+01  0.91725718071E+01  0.12098698030E+02  0.51100000000E-03 0. -1.
        -11    1    3    3    0    0  0.64413500133E+01  0.35823802797E+01 -0.62490040065E+01  0.96630476454E+01  0.51100000000E-03 0.  1.
        -12    1    3    3    0    0  0.14847043362E+01  0.27563600675E+02  0.80987994559E+01  0.28767116327E+02  0.00000000000E+00 0.  1.
</event>
<event>
 7    1  0.2746803E-013  0.5052886E+02  0.7816164E-02  0.1300439E+00
        -11   -1    0    0    0    0  0.00000000000E+00  0.00000000000E+00  0.45593999997E+02  0.45594000000E+02  0.51100000000E-03 0.  1.
         11   -1    0    0    0    0 -0.00000000000E+00 -0.00000000000E+00 -0.45593999997E+02  0.45594000000E+02  0.51100000000E-03 0. -1.
    9900012    2    1    2    0    0  0.59211848602E+01 -0.83862603173E+01  0.39341782988E+02  0.50528859810E+02  0.29999999880E+02 0.  0.
         12    1    1    2    0    0 -0.59211848602E+01  0.83862603173E+01 -0.39341782988E+02  0.40659140190E+02  0.00000000000E+00 0. -1.
         11    1    3    3    0    0  0.99649868062E+01 -0.69717064107E+01  0.15900216158E+02  0.20018055012E+02  0.51100000000E-03 0. -1.
        -11    1    3    3    0    0  0.63053465801E+01  0.41449272819E+01  0.69205781026E+01  0.10238760628E+02  0.51100000000E-03 0.  1.
         12    1    3    3    0    0 -0.10349148526E+02 -0.55594811885E+01  0.16520988728E+02  0.20272044170E+02  0.00000000000E+00 0. -1.
</event>
<event>
 7    1  0.2746803E-013  0.5052884E+02  0.7816164E-02  0.1300439E+00
        -11   -1    0    0    0    0  0.00000000000E+00  0.00000000000E+00  0.45593999997E+02  0.45594000000E+02  0.51100000000E-03 0.  1.
         11   -1    0    0    0    0 -0.00000000000E+00 -0.00000000000E+00 -0.45593999997E+02  0.45594000000E+02  0.51100000000E-03 0. -1.
    9900012    2    1    2    0    0 -0.15314066626E+02 -0.21619626661E+02  0.30842156237E+02  0.50528837503E+02  0.29999932074E+02 0.  0.
         12    1    1    2    0    0  0.15314066626E+02  0.21619626661E+02 -0.30842156237E+02  0.40659162497E+02  0.00000000000E+00 0. -1.
         11    1    3    3    0    0 -0.76868833333E+01  0.29037903480E+01  0.61819832812E+01  0.10282854240E+02  0.51100000000E-03 0. -1.
        -11    1    3    3    0    0  0.55457211893E+01 -0.25163196992E+01  0.57984724731E+01  0.84088745751E+01  0.51100000000E-03 0.  1.
         12    1    3    3    0    0 -0.13172904482E+02 -0.22007097310E+02  0.18861700483E+02  0.31837108688E+02  0.00000000000E+00 0. -1.
</event>
<event>
 7    1  0.2746803E-013  0.5052885E+02  0.7816164E-02  0.1300439E+00
        -11   -1    0    0    0    0  0.00000000000E+00  0.00000000000E+00  0.45593999997E+02  0.45594000000E+02  0.51100000000E-03 0.  1.
         11   -1    0    0    0    0 -0.00000000000E+00 -0.00000000000E+00 -0.45593999997E+02  0.45594000000E+02  0.51100000000E-03 0. -1.
    9900012    2    1    2    0    0 -0.28948172259E+02 -0.10576983846E+02  0.26519747806E+02  0.50528852344E+02  0.29999977185E+02 0.  0.
         12    1    1    2    0    0  0.28948172259E+02  0.10576983846E+02 -0.26519747806E+02  0.40659147656E+02  0.00000000000E+00 0. -1.
         11    1    3    3    0    0 -0.77076436802E+01  0.63368483456E+01  0.48239095431E+01  0.11083028539E+02  0.51100000000E-03 0. -1.
        -11    1    3    3    0    0  0.21319837317E+00 -0.15376138912E+00  0.96870228231E+01  0.96905886069E+01  0.51100000000E-03 0.  1.
         12    1    3    3    0    0 -0.21453726952E+02 -0.16760070802E+02  0.12008815440E+02  0.29755235198E+02  0.00000000000E+00 0. -1.
</event>
<event>
 7    1  0.2746803E-013  0.5052886E+02  0.7816164E-02  0.1300439E+00
        -11   -1    0    0    0    0  0.00000000000E+00  0.00000000000E+00  0.45593999997E+02  0.45594000000E+02  0.51100000000E-03 0.  1.
         11   -1    0    0    0    0 -0.00000000000E+00 -0.00000000000E+00 -0.45593999997E+02  0.45594000000E+02  0.51100000000E-03 0. -1.
    9900012    2    1    2    0    0 -0.35070144003E+02  0.61155659777E+01  0.19643075718E+02  0.50528861159E+02  0.30000003980E+02 0.  0.
         12    1    1    2    0    0  0.35070144003E+02 -0.61155659777E+01 -0.19643075718E+02  0.40659138841E+02  0.00000000000E+00 0. -1.
         11    1    3    3    0    0 -0.93686276178E+01  0.42118247717E+01 -0.30849622667E+01  0.10725094116E+02  0.51100000000E-03 0. -1.
        -11    1    3    3    0    0 -0.24876808020E+02  0.71966063578E+01  0.22714541831E+02  0.34447019191E+02  0.51100000000E-03 0.  1.
         12    1    3    3    0    0 -0.82470836476E+00 -0.52928651518E+01  0.13496154493E-01  0.53567478518E+01  0.00000000000E+00 0. -1.
</event>
<event>
 7    1  0.2746803E-013  0.5052886E+02  0.7816164E-02  0.1300439E+00
        -11   -1    0    0    0    0  0.00000000000E+00  0.00000000000E+00  0.45593999997E+02  0.45594000000E+02  0.51100000000E-03 0. -1.
         11   -1    0    0    0    0 -0.00000000000E+00 -0.00000000000E+00 -0.45593999997E+02  0.45594000000E+02  0.51100000000E-03 0.  1.
    9900012    2    1    2    0    0  0.20354825729E+02  0.32490669015E+02 -0.13535248534E+02  0.50528862573E+02  0.30000008276E+02 0.  0.
         12    1    1    2    0    0 -0.20354825729E+02 -0.32490669015E+02  0.13535248534E+02  0.40659137427E+02  0.00000000000E+00 0. -1.
         11    1    3    3    0    0  0.50472606581E+01  0.11364299087E+02 -0.37431870396E+00  0.12440347610E+02  0.51100000000E-03 0. -1.
        -11    1    3    3    0    0  0.17462153015E+02  0.63247072120E+01 -0.13767339889E+02  0.23118571693E+02  0.51100000000E-03 0.  1.
         12    1    3    3    0    0 -0.21545879449E+01  0.14801662715E+02  0.60641005932E+00  0.14969943270E+02  0.00000000000E+00 0. -1.
</event>
<event>
 7    1  0.2746803E-013  0.5052886E+02  0.7816164E-02  0.1300439E+00
        -11   -1    0    0    0    0  0.00000000000E+00  0.00000000000E+00  0.45593999997E+02  0.45594000000E+02  0.51100000000E-03 0. -1.
         11   -1    0    0    0    0 -0.00000000000E+00 -0.00000000000E+00 -0.45593999997E+02  0.45594000000E+02  0.51100000000E-03 0.  1.
    9900012    2    1    2    0    0  0.40378073045E+02  0.34577921138E+01 -0.32894965595E+01  0.50528857157E+02  0.29999991815E+02 0.  0.
         12    1    1    2    0    0 -0.40378073045E+02 -0.34577921138E+01  0.32894965595E+01  0.40659142843E+02  0.00000000000E+00 0. -1.
         11    1    3    3    0    0 -0.36168090275E+01  0.10605403238E+01 -0.12927618699E+01  0.39846313296E+01  0.51100000000E-03 0. -1.
        -11    1    3    3    0    0  0.20058818028E+02  0.13400011502E+01 -0.83314407549E+01  0.21761541514E+02  0.51100000000E-03 0.  1.
        -12    1    3    3    0    0  0.23936064044E+02  0.10572506398E+01  0.63347060653E+01  0.24782684313E+02  0.00000000000E+00 0.  1.
</event>
<event>
 7    1  0.2746803E-013  0.5052888E+02  0.7816164E-02  0.1300439E+00
        -11   -1    0    0    0    0  0.00000000000E+00  0.00000000000E+00  0.45593999997E+02  0.45594000000E+02  0.51100000000E-03 0. -1.
         11   -1    0    0    0    0 -0.00000000000E+00 -0.00000000000E+00 -0.45593999997E+02  0.45594000000E+02  0.51100000000E-03 0.  1.
    9900012    2    1    2    0    0 -0.38336349474E+02  0.43322653253E+01  0.12834308962E+02  0.50528884166E+02  0.30000073912E+02 0.  0.
         12    1    1    2    0    0  0.38336349474E+02 -0.43322653253E+01 -0.12834308962E+02  0.40659115834E+02  0.00000000000E+00 0. -1.
         11    1    3    3    0    0 -0.72261752374E+01  0.56804430992E+01 -0.81875714669E+01  0.12309401657E+02  0.51100000000E-03 0. -1.
        -11    1    3    3    0    0 -0.10291191049E+02  0.65712424553E+00  0.10825922769E+02  0.14951288558E+02  0.51100000000E-03 0.  1.
        -12    1    3    3    0    0 -0.20818983188E+02 -0.20053020194E+01  0.10195957660E+02  0.23268193952E+02  0.00000000000E+00 0.  1.
</event>
<event>
 7    1  0.2746803E-013  0.5052883E+02  0.7816164E-02  0.1300439E+00
        -11   -1    0    0    0    0  0.00000000000E+00  0.00000000000E+00  0.45593999997E+02  0.45594000000E+02  0.51100000000E-03 0.  1.
         11   -1    0    0    0    0 -0.00000000000E+00 -0.00000000000E+00 -0.45593999997E+02  0.45594000000E+02  0.51100000000E-03 0. -1.
    9900012    2    1    2    0    0 -0.59273673223E+01 -0.37263178442E+02  0.15148932246E+02  0.50528827613E+02  0.29999902012E+02 0.  0.
         12    1    1    2    0    0  0.59273673223E+01  0.37263178442E+02 -0.15148932246E+02  0.40659172387E+02  0.00000000000E+00 0. -1.
         11    1    3    3    0    0  0.46275958544E+00  0.29243625439E+01 -0.24935068588E+00  0.29712318569E+01  0.51100000000E-03 0. -1.
        -11    1    3    3    0    0 -0.21893642742E+01 -0.20426663286E+02 -0.23353826131E+01  0.20675974007E+02  0.51100000000E-03 0.  1.
        -12    1    3    3    0    0 -0.42007626335E+01 -0.19760877700E+02  0.17733665545E+02  0.26881621749E+02  0.00000000000E+00 0.  1.
</event>
<event>
 7    1  0.2746803E-013  0.5052885E+02  0.7816164E-02  0.1300439E+00
        -11   -1    0    0    0    0  0.00000000000E+00  0.00000000000E+00  0.45593999997E+02  0.45594000000E+02  0.51100000000E-03 0.  1.
         11   -1    0    0    0    0 -0.00000000000E+00 -0.00000000000E+00 -0.45593999997E+02  0.45594000000E+02  0.51100000000E-03 0. -1.
    9900012    2    1    2    0    0 -0.19026876325E+02  0.26122159175E+02  0.24673417587E+02  0.50528846565E+02  0.29999959617E+02 0.  0.
         12    1    1    2    0    0  0.19026876325E+02 -0.26122159175E+02 -0.24673417587E+02  0.40659153435E+02  0.00000000000E+00 0. -1.
         11    1    3    3    0    0 -0.51791900773E+01  0.37836976114E+01 -0.44661031836E+01  0.78157824547E+01  0.51100000000E-03 0. -1.
        -11    1    3    3    0    0 -0.16892124106E+02  0.12864311413E+02  0.20900546565E+02  0.29793744510E+02  0.51100000000E-03 0.  1.
         12    1    3    3    0    0  0.30444378589E+01  0.94741501503E+01  0.82389742058E+01  0.12919319599E+02  0.00000000000E+00 0. -1.
</event>
<event>
 7    1  0.2746803E-013  0.5052886E+02  0.7816164E-02  0.1300439E+00
        -11   -1    0    0    0    0  0.00000000000E+00  0.00000000000E+00  0.45593999997E+02  0.45594000000E+02  0.51100000000E-03 0.  1.
         11   -1    0    0    0    0 -0.00000000000E+00 -0.00000000000E+00 -0.45593999997E+02  0.45594000000E+02  0.51100000000E-03 0. -1.
    9900012    2    1    2    0    0  0.11740684780E+02 -0.14466852086E+02  0.36139068619E+02  0.50528858728E+02  0.29999996589E+02 0.  0.
         12    1    1    2    0    0 -0.11740684780E+02  0.14466852086E+02 -0.36139068619E+02  0.40659141272E+02  0.00000000000E+00 0. -1.
         11    1    3    3    0    0 -0.87922111552E+00 -0.64107424967E+01  0.14575835833E+01  0.66328877039E+01  0.51100000000E-03 0. -1.
        -11    1    3    3    0    0  0.38323985331E+01 -0.14045380486E+02  0.27336149184E+02  0.30971358446E+02  0.51100000000E-03 0.  1.
        -12    1    3    3    0    0  0.87875073623E+01  0.59892708971E+01  0.73453358514E+01  0.12924612578E+02  0.00000000000E+00 0.  1.
</event>
<event>
 7    1  0.2746803E-013  0.5052887E+02  0.7816164E-02  0.1300439E+00
        -11   -1    0    0    0    0  0.00000000000E+00  0.00000000000E+00  0.45593999997E+02  0.45594000000E+02  0.51100000000E-03 0.  1.
         11   -1    0    0    0    0 -0.00000000000E+00 -0.00000000000E+00 -0.45593999997E+02  0.45594000000E+02  0.51100000000E-03 0. -1.
    9900012    2    1    2    0    0  0.69798675518E+01 -0.33208183582E+02  0.22397833305E+02  0.50528868865E+02  0.30000027403E+02 0.  0.
         12    1    1    2    0    0 -0.69798675518E+01  0.33208183582E+02 -0.22397833305E+02  0.40659131135E+02  0.00000000000E+00 0. -1.
         11    1    3    3    0    0  0.97923217552E+01 -0.18453674125E+01 -0.12127022325E+01  0.10038206673E+02  0.51100000000E-03 0. -1.
        -11    1    3    3    0    0 -0.43371083069E+01 -0.55859517791E+01  0.49950244867E+01  0.86581542853E+01  0.51100000000E-03 0.  1.
        -12    1    3    3    0    0  0.15246541035E+01 -0.25776864391E+02  0.18615511051E+02  0.31832507907E+02  0.00000000000E+00 0.  1.
</event>
<event>
 7    1  0.2746803E-013  0.5052886E+02  0.7816164E-02  0.1300439E+00
        -11   -1    0    0    0    0  0.00000000000E+00  0.00000000000E+00  0.45593999997E+02  0.45594000000E+02  0.51100000000E-03 0.  1.
         11   -1    0    0    0    0 -0.00000000000E+00 -0.00000000000E+00 -0.45593999997E+02  0.45594000000E+02  0.51100000000E-03 0. -1.
    9900012    2    1    2    0    0  0.24985148869E+02 -0.30976899546E+02 -0.83270354891E+01  0.50528862164E+02  0.30000007035E+02 0.  0.
         12    1    1    2    0    0 -0.24985148869E+02  0.30976899546E+02  0.83270354891E+01  0.40659137836E+02  0.00000000000E+00 0. -1.
         11    1    3    3    0    0 -0.83181427954E+00 -0.54577868632E+01 -0.46346560122E+01  0.72082861384E+01  0.51100000000E-03 0. -1.
        -11    1    3    3    0    0  0.39355919781E+01 -0.15954801303E+02  0.60749430412E+01  0.17519974373E+02  0.51100000000E-03 0.  1.
         12    1    3    3    0    0  0.21881371170E+02 -0.95643113803E+01 -0.97673225181E+01  0.25800601653E+02  0.00000000000E+00 0. -1.
</event>
<event>
 7    1  0.2746803E-013  0.5052889E+02  0.7816164E-02  0.1300439E+00
        -11   -1    0    0    0    0  0.00000000000E+00  0.00000000000E+00  0.45593999997E+02  0.45594000000E+02  0.51100000000E-03 0. -1.
         11   -1    0    0    0    0 -0.00000000000E+00 -0.00000000000E+00 -0.45593999997E+02  0.45594000000E+02  0.51100000000E-03 0.  1.
    9900012    2    1    2    0    0  0.25116326842E+02  0.24878720445E+02 -0.20084389803E+02  0.50528888859E+02  0.30000088174E+02 0.  0.
         12    1    1    2    0    0 -0.25116326842E+02 -0.24878720445E+02  0.20084389803E+02  0.40659111141E+02  0.00000000000E+00 0. -1.
         11    1    3    3    0    0 -0.13942429472E+01  0.65316561819E+01 -0.20824409380E+01  0.69959278439E+01  0.51100000000E-03 0. -1.
        -11    1    3    3    0    0  0.10051433821E+02 -0.23600875303E+01  0.18128853934E+01  0.10482742423E+02  0.51100000000E-03 0.  1.
        -12    1    3    3    0    0  0.16459135969E+02  0.20707151794E+02 -0.19814834259E+02  0.33050218591E+02  0.00000000000E+00 0.  1.
</event>
<event>
 7    1  0.2746803E-013  0.5052884E+02  0.7816164E-02  0.1300439E+00
        -11   -1    0    0    0    0  0.00000000000E+00  0.00000000000E+00  0.45593999997E+02  0.45594000000E+02  0.51100000000E-03 0.  1.
         11   -1    0    0    0    0 -0.00000000000E+00 -0.00000000000E+00 -0.45593999997E+02  0.45594000000E+02  0.51100000000E-03 0. -1.
    9900012    2    1    2    0    0 -0.14726224455E+02  0.35374537824E+02  0.13599556124E+02  0.50528836953E+02  0.29999930401E+02 0.  0.
         12    1    1    2    0    0  0.14726224455E+02 -0.35374537824E+02 -0.13599556124E+02  0.40659163047E+02  0.00000000000E+00 0. -1.
         11    1    3    3    0    0 -0.46182263070E+01 -0.12816639604E+01 -0.90160391690E-02  0.47927818936E+01  0.51100000000E-03 0. -1.
        -11    1    3    3    0    0 -0.15543138404E+02  0.16061372112E+02  0.75435652045E+01  0.23589451071E+02  0.51100000000E-03 0.  1.
         12    1    3    3    0    0  0.54351402551E+01  0.20594829672E+02  0.60650069582E+01  0.22146603988E+02  0.00000000000E+00 0. -1.
</event>
<event>
 7    1  0.2746803E-013  0.5052885E+02  0.7816164E-02  0.1300439E+00
        -11   -1    0    0    0    0  0.00000000000E+00  0.00000000000E+00  0.45593999997E+02  0.45594000000E+02  0.51100000000E-03 0.  1.
         11   -1    0    0    0    0 -0.00000000000E+00 -0.00000000000E+00 -0.45593999997E+02  0.45594000000E+02  0.51100000000E-03 0. -1.
    9900012    2    1    2    0    0 -0.36266376482E+02  0.15082298388E+02  0.10509067771E+02  0.50528852282E+02  0.29999976995E+02 0.  0.
         12    1    1    2    0    0  0.36266376482E+02 -0.15082298388E+02 -0.10509067771E+02  0.40659147718E+02  0.00000000000E+00 0. -1.
         11    1    3    3    0    0 -0.75458331769E+01  0.50469818219E+01  0.86481868161E+01  0.12538052453E+02  0.51100000000E-03 0. -1.
        -11    1    3    3    0    0 -0.28045596340E+02  0.14721842784E+02 -0.22027640496E+01  0.31751225153E+02  0.51100000000E-03 0.  1.
         12    1    3    3    0    0 -0.67494696498E+00 -0.46865262185E+01  0.40636450048E+01  0.62395746752E+01  0.00000000000E+00 0. -1.
</event>
<event>
 7    1  0.2746803E-013  0.5052886E+02  0.7816164E-02  0.1300439E+00
        -11   -1    0    0    0    0  0.00000000000E+00  0.00000000000E+00  0.45593999997E+02  0.45594000000E+02  0.51100000000E-03 0.  1.
         11   -1    0    0    0    0 -0.00000000000E+00 -0.00000000000E+00 -0.45593999997E+02  0.45594000000E+02  0.51100000000E-03 0. -1.
    9900012    2    1    2    0    0 -0.36140233883E+01 -0.24259546927E+02  0.32428054765E+02  0.50528861815E+02  0.30000005972E+02 0.  0.
         12    1    1    2    0    0  0.36140233883E+01  0.24259546927E+02 -0.32428054765E+02  0.40659138185E+02  0.00000000000E+00 0. -1.
         11    1    3    3    0    0  0.11798707561E+02 -0.12802330792E+02  0.11136030392E+02  0.20666890113E+02  0.51100000000E-03 0. -1.
        -11    1    3    3    0    0 -0.63943310041E+01 -0.15139804636E+01  0.31326778826E+01  0.72796481241E+01  0.51100000000E-03 0.  1.
        -12    1    3    3    0    0 -0.90183999450E+01 -0.99432356714E+01  0.18159346490E+02  0.22582323577E+02  0.00000000000E+00 0.  1.
</event>
<event>
 7    1  0.2746803E-013  0.5052886E+02  0.7816164E-02  0.1300439E+00
        -11   -1    0    0    0    0  0.00000000000E+00  0.00000000000E+00  0.45593999997E+02  0.45594000000E+02  0.51100000000E-03 0.  1.
         11   -1    0    0    0    0 -0.00000000000E+00 -0.00000000000E+00 -0.45593999997E+02  0.45594000000E+02  0.51100000000E-03 0. -1.
    9900012    2    1    2    0    0  0.70675380705E+01  0.27362336697E+02  0.29232145790E+02  0.50528856976E+02  0.29999991265E+02 0.  0.
         12    1    1    2    0    0 -0.70675380705E+01 -0.27362336697E+02 -0.29232145790E+02  0.40659143024E+02  0.00000000000E+00 0. -1.
         11    1    3    3    0    0  0.65940801302E+01  0.40621027957E+01  0.68616111758E+01  0.10347187061E+02  0.51100000000E-03 0. -1.
        -11    1    3    3    0    0  0.64365389772E+01  0.24390778232E+02  0.11474522588E+02  0.27712880862E+02  0.51100000000E-03 0.  1.
         12    1    3    3    0    0 -0.59630810369E+01 -0.10905443303E+01  0.10896012026E+02  0.12468789054E+02  0.00000000000E+00 0. -1.
</event>
<event>
 7    1  0.2746803E-013  0.5052887E+02  0.7816164E-02  0.1300439E+00
        -11   -1    0    0    0    0  0.00000000000E+00  0.00000000000E+00  0.45593999997E+02  0.45594000000E+02  0.51100000000E-03 0. -1.
         11   -1    0    0    0    0 -0.00000000000E+00 -0.00000000000E+00 -0.45593999997E+02  0.45594000000E+02  0.51100000000E-03 0.  1.
    9900012    2    1    2    0    0  0.15787929077E+02 -0.32537837806E+02 -0.18579441850E+02  0.50528865072E+02  0.30000015874E+02 0.  0.
         12    1    1    2    0    0 -0.15787929077E+02  0.32537837806E+02  0.18579441850E+02  0.40659134928E+02  0.00000000000E+00 0. -1.
         11    1    3    3    0    0  0.90065870177E+01 -0.79895440137E+01  0.60729708881E+01  0.13484524423E+02  0.51100000000E-03 0. -1.
        -11    1    3    3    0    0 -0.23227700535E+01 -0.11414916601E+02 -0.11112788858E+02  0.16099368254E+02  0.51100000000E-03 0.  1.
        -12    1    3    3    0    0  0.91041121124E+01 -0.13133377191E+02 -0.13539623880E+02  0.20944972395E+02  0.00000000000E+00 0.  1.
</event>
<event>
 7    1  0.2746803E-013  0.5052885E+02  0.7816164E-02  0.1300439E+00
        -11   -1    0    0    0    0  0.00000000000E+00  0.00000000000E+00  0.45593999997E+02  0.45594000000E+02  0.51100000000E-03 0.  1.
         11   -1    0    0    0    0 -0.00000000000E+00 -0.00000000000E+00 -0.45593999997E+02  0.45594000000E+02  0.51100000000E-03 0. -1.
    9900012    2    1    2    0    0  0.32314800164E+02  0.15226451319E+00  0.24675838407E+02  0.50528849797E+02  0.29999969444E+02 0.  0.
         12    1    1    2    0    0 -0.32314800164E+02 -0.15226451319E+00 -0.24675838407E+02  0.40659150203E+02  0.00000000000E+00 0. -1.
         11    1    3    3    0    0  0.94381391290E+01 -0.11754541781E+02  0.61311205295E+01  0.16273855165E+02  0.51100000000E-03 0. -1.
        -11    1    3    3    0    0  0.13299717222E+02 -0.25018283443E+00  0.78932564528E+01  0.15467661987E+02  0.51100000000E-03 0.  1.
         12    1    3    3    0    0  0.95769438127E+01  0.12156989129E+02  0.10651461425E+02  0.18787332646E+02  0.00000000000E+00 0. -1.
</event>
<event>
 7    1  0.2746803E-013  0.5052886E+02  0.7816164E-02  0.1300439E+00
        -11   -1    0    0    0    0  0.00000000000E+00  0.00000000000E+00  0.45593999997E+02  0.45594000000E+02  0.51100000000E-03 0. -1.
         11   -1    0    0    0    0 -0.00000000000E+00 -0.00000000000E+00 -0.45593999997E+02  0.45594000000E+02  0.51100000000E-03 0.  1.
    9900012    2    1    2    0    0  0.29552240400E+01  0.25148247663E+02 -0.31811921351E+02  0.50528855276E+02  0.29999986098E+02 0.  0.
         12    1    1    2    0    0 -0.29552240400E+01 -0.25148247663E+02  0.31811921351E+02  0.40659144724E+02  0.00000000000E+00 0. -1.
         11    1    3    3    0    0  0.80811301765E+01  0.10987883728E+02 -0.62895133123E+01  0.15019861242E+02  0.51100000000E-03 0. -1.
        -11    1    3    3    0    0  0.75408209348E+01  0.50052393184E+01 -0.89184388871E+01  0.12706492571E+02  0.51100000000E-03 0.  1.
        -12    1    3    3    0    0 -0.12666727071E+02  0.91551246163E+01 -0.16603969151E+02  0.22802501464E+02  0.00000000000E+00 0.  1.
</event>
<event>
 7    1  0.2746803E-013  0.5052886E+02  0.7816164E-02  0.1300439E+00
        -11   -1    0    0    0    0  0.00000000000E+00  0.00000000000E+00  0.45593999997E+02  0.45594000000E+02  0.51100000000E-03 0.  1.
         11   -1    0    0    0    0 -0.00000000000E+00 -0.00000000000E+00 -0.45593999997E+02  0.45594000000E+02  0.51100000000E-03 0. -1.
    9900012    2    1    2    0    0  0.11090809896E+02 -0.35616810022E+02  0.16174127568E+02  0.50528860524E+02  0.30000002049E+02 0.  0.
         12    1    1    2    0    0 -0.11090809896E+02  0.35616810022E+02 -0.16174127568E+02  0.40659139476E+02  0.00000000000E+00 0. -1.
         11    1    3    3    0    0  0.51080257478E+01 -0.43264954853E+00 -0.29371393866E+01  0.59081215889E+01  0.51100000000E-03 0. -1.
        -11    1    3    3    0    0 -0.26226271073E+01 -0.17695784436E+02  0.84608679197E+00  0.17909070966E+02  0.51100000000E-03 0.  1.
        -12    1    3    3    0    0  0.86054112554E+01 -0.17488376038E+02  0.18265180163E+02  0.26711667969E+02  0.00000000000E+00 0.  1.
</event>
<event>
 7    1  0.2746803E-013  0.5052890E+02  0.7816164E-02  0.1300439E+00
        -11   -1    0    0    0    0  0.00000000000E+00  0.00000000000E+00  0.45593999997E+02  0.45594000000E+02  0.51100000000E-03 0.  1.
         11   -1    0    0    0    0 -0.00000000000E+00 -0.00000000000E+00 -0.45593999997E+02  0.45594000000E+02  0.51100000000E-03 0. -1.
    9900012    2    1    2    0    0 -0.30332876571E+02 -0.16020061693E+02  0.21827436113E+02  0.50528895915E+02  0.30000109622E+02 0.  0.
         12    1    1    2    0    0  0.30332876571E+02  0.16020061693E+02 -0.21827436113E+02  0.40659104085E+02  0.00000000000E+00 0. -1.
         11    1    3    3    0    0 -0.11252863222E+02 -0.34772140517E+01  0.14900141340E+01  0.11871734946E+02  0.51100000000E-03 0. -1.
        -11    1    3    3    0    0 -0.11811081260E+02  0.11348866003E+01  0.19891292446E+02  0.23161457717E+02  0.51100000000E-03 0.  1.
         12    1    3    3    0    0 -0.72689320885E+01 -0.13677734242E+02  0.44612953344E+00  0.15495703252E+02  0.00000000000E+00 0. -1.
</event>
<event>
 7    1  0.2746803E-013  0.5052885E+02  0.7816164E-02  0.1300439E+00
        -11   -1    0    0    0    0  0.00000000000E+00  0.00000000000E+00  0.45593999997E+02  0.45594000000E+02  0.51100000000E-03 0.  1.
         11   -1    0    0    0    0 -0.00000000000E+00 -0.00000000000E+00 -0.45593999997E+02  0.45594000000E+02  0.51100000000E-03 0. -1.
    9900012    2    1    2    0    0  0.34335167251E+02 -0.19491580098E+02  0.97129263620E+01  0.50528851664E+02  0.29999975118E+02 0.  0.
         12    1    1    2    0    0 -0.34335167251E+02  0.19491580098E+02 -0.97129263620E+01  0.40659148336E+02  0.00000000000E+00 0. -1.
         11    1    3    3    0    0  0.74595342611E+01  0.34956881147E+01 -0.22082523524E+01  0.85288255640E+01  0.51100000000E-03 0. -1.
        -11    1    3    3    0    0  0.14054548861E+02 -0.13067238193E+02 -0.36358475796E+01  0.19532087588E+02  0.51100000000E-03 0.  1.
        -12    1    3    3    0    0  0.12821084129E+02 -0.99200300198E+01  0.15557026294E+02  0.22467938512E+02  0.00000000000E+00 0.  1.
</event>
<event>
 7    1  0.2746803E-013  0.5052886E+02  0.7816164E-02  0.1300439E+00
        -11   -1    0    0    0    0  0.00000000000E+00  0.00000000000E+00  0.45593999997E+02  0.45594000000E+02  0.51100000000E-03 0.  1.
         11   -1    0    0    0    0 -0.00000000000E+00 -0.00000000000E+00 -0.45593999997E+02  0.45594000000E+02  0.51100000000E-03 0. -1.
    9900012    2    1    2    0    0 -0.59876841849E+01  0.24261012145E+02  0.32073611660E+02  0.50528860349E+02  0.30000001518E+02 0.  0.
         12    1    1    2    0    0  0.59876841849E+01 -0.24261012145E+02 -0.32073611660E+02  0.40659139651E+02  0.00000000000E+00 0. -1.
         11    1    3    3    0    0 -0.46963301304E+00  0.12336224355E+02  0.60955517840E+01  0.13768033205E+02  0.51100000000E-03 0. -1.
        -11    1    3    3    0    0 -0.12118239772E+02  0.13904763212E+02  0.14883393015E+02  0.23700412719E+02  0.51100000000E-03 0.  1.
        -12    1    3    3    0    0  0.66001885998E+01 -0.19799754220E+01  0.11094666860E+02  0.13060414426E+02  0.00000000000E+00 0.  1.
</event>
<event>
 7    1  0.2746803E-013  0.5052885E+02  0.7816164E-02  0.1300439E+00
        -11   -1    0    0    0    0  0.00000000000E+00  0.00000000000E+00  0.45593999997E+02  0.45594000000E+02  0.51100000000E-03 0.  1.
         11   -1    0    0    0    0 -0.00000000000E+00 -0.00000000000E+00 -0.45593999997E+02  0.45594000000E+02  0.51100000000E-03 0. -1.
    9900012    2    1    2    0    0  0.29390487679E+02  0.75421329617E+01 -0.27064400949E+02  0.50528851775E+02  0.29999975455E+02 0.  0.
         12    1    1    2    0    0 -0.29390487679E+02 -0.75421329617E+01  0.27064400949E+02  0.40659148225E+02  0.00000000000E+00 0. -1.
         11    1    3    3    0    0  0.18072802144E+01  0.44874188190E+01 -0.15639274891E+02  0.16370403441E+02  0.51100000000E-03 0. -1.
        -11    1    3    3    0    0  0.55006562987E+00  0.61035162303E+00  0.32151552721E+01  0.33184823317E+01  0.51100000000E-03 0.  1.
        -12    1    3    3    0    0  0.27033141835E+02  0.24443625197E+01 -0.14640281330E+02  0.30839966002E+02  0.00000000000E+00 0.  1.
</event>
<event>
 7    1  0.2746803E-013  0.5052886E+02  0.7816164E-02  0.1300439E+00
        -11   -1    0    0    0    0  0.00000000000E+00  0.00000000000E+00  0.45593999997E+02  0.45594000000E+02  0.51100000000E-03 0. -1.
         11   -1    0    0    0    0 -0.00000000000E+00 -0.00000000000E+00 -0.45593999997E+02  0.45594000000E+02  0.51100000000E-03 0.  1.
    9900012    2    1    2    0    0  0.30602587187E+02  0.11515726777E+02 -0.24166820883E+02  0.50528861576E+02  0.30000005247E+02 0.  0.
         12    1    1    2    0    0 -0.30602587187E+02 -0.11515726777E+02  0.24166820883E+02  0.40659138424E+02  0.00000000000E+00 0. -1.
         11    1    3    3    0    0  0.33885601477E+01  0.11376443827E+02 -0.14589788789E+02  0.18808714768E+02  0.51100000000E-03 0. -1.
        -11    1    3    3    0    0  0.14142732319E+02  0.37590666875E+01 -0.10673385604E+02  0.18112664639E+02  0.51100000000E-03 0.  1.
        -12    1    3    3    0    0  0.13071294721E+02 -0.36197837375E+01  0.10963535103E+01  0.13607482170E+02  0.00000000000E+00 0.  1.
</event>
<event>
 7    1  0.2746803E-013  0.5052887E+02  0.7816164E-02  0.1300439E+00
        -11   -1    0    0    0    0  0.00000000000E+00  0.00000000000E+00  0.45593999997E+02  0.45594000000E+02  0.51100000000E-03 0.  1.
         11   -1    0    0    0    0 -0.00000000000E+00 -0.00000000000E+00 -0.45593999997E+02  0.45594000000E+02  0.51100000000E-03 0. -1.
    9900012    2    1    2    0    0 -0.74260926375E+01  0.38179464609E+02 -0.11846809023E+02  0.50528865065E+02  0.30000015850E+02 0.  0.
         12    1    1    2    0    0  0.74260926375E+01 -0.38179464609E+02  0.11846809023E+02  0.40659134935E+02  0.00000000000E+00 0. -1.
         11    1    3    3    0    0  0.46804432655E+01  0.94011871859E+01 -0.95494873208E+01  0.14194420665E+02  0.51100000000E-03 0. -1.
        -11    1    3    3    0    0 -0.48006974498E+01  0.12347350768E+01 -0.57935926622E+01  0.76247611707E+01  0.51100000000E-03 0.  1.
         12    1    3    3    0    0 -0.73058384532E+01  0.27543542346E+02  0.34962709598E+01  0.28709683229E+02  0.00000000000E+00 0. -1.
</event>
<event>
 7    1  0.2746803E-013  0.5052885E+02  0.7816164E-02  0.1300439E+00
        -11   -1    0    0    0    0  0.00000000000E+00  0.00000000000E+00  0.45593999997E+02  0.45594000000E+02  0.51100000000E-03 0. -1.
         11   -1    0    0    0    0 -0.00000000000E+00 -0.00000000000E+00 -0.45593999997E+02  0.45594000000E+02  0.51100000000E-03 0.  1.
    9900012    2    1    2    0    0  0.15189159051E+02  0.15804812243E+02 -0.34244175517E+02  0.50528853433E+02  0.29999980496E+02 0.  0.
         12    1    1    2    0    0 -0.15189159051E+02 -0.15804812243E+02  0.34244175517E+02  0.40659146567E+02  0.00000000000E+00 0. -1.
         11    1    3    3    0    0 -0.17643998708E+01  0.85780227982E+01 -0.15013619997E+02  0.17381149781E+02  0.51100000000E-03 0. -1.
        -11    1    3    3    0    0  0.86330299517E+01  0.13786539239E+02 -0.13257164434E+02  0.20984524760E+02  0.51100000000E-03 0.  1.
         12    1    3    3    0    0  0.83205289696E+01 -0.65597497939E+01 -0.59733910857E+01  0.12163178892E+02  0.00000000000E+00 0. -1.
</event>
<event>
 7    1  0.2746803E-013  0.5052885E+02  0.7816164E-02  0.1300439E+00
        -11   -1    0    0    0    0  0.00000000000E+00  0.00000000000E+00  0.45593999997E+02  0.45594000000E+02  0.51100000000E-03 0.  1.
         11   -1    0    0    0    0 -0.00000000000E+00 -0.00000000000E+00 -0.45593999997E+02  0.45594000000E+02  0.51100000000E-03 0. -1.
    9900012    2    1    2    0    0 -0.91891285398E+01  0.39533969546E+02  0.24066658711E+01  0.50528845164E+02  0.29999955360E+02 0.  0.
         12    1    1    2    0    0  0.91891285398E+01 -0.39533969546E+02 -0.24066658711E+01  0.40659154836E+02  0.00000000000E+00 0. -1.
         11    1    3    3    0    0 -0.38044184624E+01  0.18247250231E+01  0.54547527467E+01  0.68961981581E+01  0.51100000000E-03 0. -1.
        -11    1    3    3    0    0 -0.38873026888E+01  0.86271159784E+00 -0.53670491099E+01  0.66828594109E+01  0.51100000000E-03 0.  1.
        -12    1    3    3    0    0 -0.14974073885E+01  0.36846532925E+02  0.23189622344E+01  0.36949787595E+02  0.00000000000E+00 0.  1.
</event>
<event>
 7    1  0.2746803E-013  0.5052886E+02  0.7816164E-02  0.1300439E+00
        -11   -1    0    0    0    0  0.00000000000E+00  0.00000000000E+00  0.45593999997E+02  0.45594000000E+02  0.51100000000E-03 0.  1.
         11   -1    0    0    0    0 -0.00000000000E+00 -0.00000000000E+00 -0.45593999997E+02  0.45594000000E+02  0.51100000000E-03 0. -1.
    9900012    2    1    2    0    0 -0.92733494300E+01  0.17193735192E+02  0.35658741517E+02  0.50528863437E+02  0.30000010902E+02 0.  0.
         12    1    1    2    0    0  0.92733494300E+01 -0.17193735192E+02 -0.35658741517E+02  0.40659136563E+02  0.00000000000E+00 0. -1.
         11    1    3    3    0    0 -0.40787246467E+01  0.31930984205E+01  0.24390347995E+02  0.24934332713E+02  0.51100000000E-03 0. -1.
        -11    1    3    3    0    0 -0.88110353469E+01  0.71846679217E+00  0.66938084379E+01  0.11088625257E+02  0.51100000000E-03 0.  1.
         12    1    3    3    0    0  0.36164105636E+01  0.13282169980E+02  0.45745850838E+01  0.14505905467E+02  0.00000000000E+00 0. -1.
</event>
<event>
 7    1  0.2746803E-013  0.5052886E+02  0.7816164E-02  0.1300439E+00
        -11   -1    0    0    0    0  0.00000000000E+00  0.00000000000E+00  0.45593999997E+02  0.45594000000E+02  0.51100000000E-03 0.  1.
         11   -1    0    0    0    0 -0.00000000000E+00 -0.00000000000E+00 -0.45593999997E+02  0.45594000000E+02  0.51100000000E-03 0. -1.
    9900012    2    1    2    0    0  0.31046704530E+02 -0.22971281185E+02  0.12711722329E+02  0.50528861962E+02  0.30000006419E+02 0.  0.
         12    1    1    2    0    0 -0.31046704530E+02  0.22971281185E+02 -0.12711722329E+02  0.40659138038E+02  0.00000000000E+00 0. -1.
         11    1    3    3    0    0  0.13316267930E+02 -0.23672908238E+01 -0.70421371977E+01  0.15248565637E+02  0.51100000000E-03 0. -1.
        -11    1    3    3    0    0  0.89143066662E+01 -0.48592176559E+01  0.28272321586E+01  0.10538980098E+02  0.51100000000E-03 0.  1.
        -12    1    3    3    0    0  0.88161299339E+01 -0.15744772705E+02  0.16926627368E+02  0.24741316226E+02  0.00000000000E+00 0.  1.
</event>
<event>
 7    1  0.2746803E-013  0.5052883E+02  0.7816164E-02  0.1300439E+00
        -11   -1    0    0    0    0  0.00000000000E+00  0.00000000000E+00  0.45593999997E+02  0.45594000000E+02  0.51100000000E-03 0.  1.
         11   -1    0    0    0    0 -0.00000000000E+00 -0.00000000000E+00 -0.45593999997E+02  0.45594000000E+02  0.51100000000E-03 0. -1.
    9900012    2    1    2    0    0 -0.32613956751E+02 -0.10099755525E+02  0.22079245675E+02  0.50528827281E+02  0.29999901004E+02 0.  0.
         12    1    1    2    0    0  0.32613956751E+02  0.10099755525E+02 -0.22079245675E+02  0.40659172719E+02  0.00000000000E+00 0. -1.
         11    1    3    3    0    0 -0.73812509561E+01 -0.34940802686E+00 -0.19398111833E+01  0.76398834634E+01  0.51100000000E-03 0. -1.
        -11    1    3    3    0    0 -0.14045974098E+02  0.67604602224E+01  0.10433310704E+02  0.18757590018E+02  0.51100000000E-03 0.  1.
        -12    1    3    3    0    0 -0.11186731696E+02 -0.16510807720E+02  0.13585746155E+02  0.24131353800E+02  0.00000000000E+00 0.  1.
</event>
<event>
 7    1  0.2746803E-013  0.5052886E+02  0.7816164E-02  0.1300439E+00
        -11   -1    0    0    0    0  0.00000000000E+00  0.00000000000E+00  0.45593999997E+02  0.45594000000E+02  0.51100000000E-03 0.  1.
         11   -1    0    0    0    0 -0.00000000000E+00 -0.00000000000E+00 -0.45593999997E+02  0.45594000000E+02  0.51100000000E-03 0. -1.
    9900012    2    1    2    0    0  0.24528969196E+01 -0.32971652155E+02  0.23664728444E+02  0.50528856853E+02  0.29999990890E+02 0.  0.
         12    1    1    2    0    0 -0.24528969196E+01  0.32971652155E+02 -0.23664728444E+02  0.40659143147E+02  0.00000000000E+00 0. -1.
         11    1    3    3    0    0 -0.33603177049E+01 -0.20566815130E+02  0.30280361727E+01  0.21058362306E+02  0.51100000000E-03 0. -1.
        -11    1    3    3    0    0 -0.51286698223E+01 -0.73860984812E+01  0.92488341939E+01  0.12899559649E+02  0.51100000000E-03 0.  1.
        -12    1    3    3    0    0  0.10941884447E+02 -0.50187385436E+01  0.11387858077E+02  0.16570934898E+02  0.00000000000E+00 0.  1.
</event>
<event>
 7    1  0.2746803E-013  0.5052886E+02  0.7816164E-02  0.1300439E+00
        -11   -1    0    0    0    0  0.00000000000E+00  0.00000000000E+00  0.45593999997E+02  0.45594000000E+02  0.51100000000E-03 0.  1.
         11   -1    0    0    0    0 -0.00000000000E+00 -0.00000000000E+00 -0.45593999997E+02  0.45594000000E+02  0.51100000000E-03 0. -1.
    9900012    2    1    2    0    0  0.11331894310E+02  0.17407895544E+02  0.34953097736E+02  0.50528859610E+02  0.29999999271E+02 0.  0.
         12    1    1    2    0    0 -0.11331894310E+02 -0.17407895544E+02 -0.34953097736E+02  0.40659140390E+02  0.00000000000E+00 0. -1.
         11    1    3    3    0    0  0.96896271028E+01  0.43534964945E+01  0.80775509765E+01  0.13344985394E+02  0.51100000000E-03 0. -1.
        -11    1    3    3    0    0  0.10585007662E+02  0.12835539746E+02  0.19115942902E+02  0.25341916681E+02  0.51100000000E-03 0.  1.
        -12    1    3    3    0    0 -0.89427404553E+01  0.21885930380E+00  0.77596038572E+01  0.11841957535E+02  0.00000000000E+00 0.  1.
</event>
<event>
 7    1  0.2746803E-013  0.5052886E+02  0.7816164E-02  0.1300439E+00
        -11   -1    0    0    0    0  0.00000000000E+00  0.00000000000E+00  0.45593999997E+02  0.45594000000E+02  0.51100000000E-03 0. -1.
         11   -1    0    0    0    0 -0.00000000000E+00 -0.00000000000E+00 -0.45593999997E+02  0.45594000000E+02  0.51100000000E-03 0.  1.
    9900012    2    1    2    0    0 -0.39506431077E+02  0.95037516915E+01  0.14443148948E+01  0.50528862796E+02  0.30000008954E+02 0.  0.
         12    1    1    2    0    0  0.39506431077E+02 -0.95037516915E+01 -0.14443148948E+01  0.40659137204E+02  0.00000000000E+00 0. -1.
         11    1    3    3    0    0 -0.22681369569E+01 -0.39496337294E+01 -0.50026192573E+01  0.67653715010E+01  0.51100000000E-03 0. -1.
        -11    1    3    3    0    0 -0.92635250380E+01 -0.39987319502E+01  0.34159567812E+01  0.10652300894E+02  0.51100000000E-03 0.  1.
        -12    1    3    3    0    0 -0.27974769082E+02  0.17452117371E+02  0.30309773710E+01  0.33111190401E+02  0.00000000000E+00 0.  1.
</event>
<event>
 7    1  0.2746803E-013  0.5052887E+02  0.7816164E-02  0.1300439E+00
        -11   -1    0    0    0    0  0.00000000000E+00  0.00000000000E+00  0.45593999997E+02  0.45594000000E+02  0.51100000000E-03 0.  1.
         11   -1    0    0    0    0 -0.00000000000E+00 -0.00000000000E+00 -0.45593999997E+02  0.45594000000E+02  0.51100000000E-03 0. -1.
    9900012    2    1    2    0    0  0.13517279214E+02 -0.19191560800E+02  0.33198370981E+02  0.50528872131E+02  0.30000037328E+02 0.  0.
         12    1    1    2    0    0 -0.13517279214E+02  0.19191560800E+02 -0.33198370981E+02  0.40659127869E+02  0.00000000000E+00 0. -1.
         11    1    3    3    0    0  0.29633487686E-01 -0.48191460607E+01  0.49476494756E+01  0.69068286856E+01  0.51100000000E-03 0. -1.
        -11    1    3    3    0    0  0.27143071081E+01 -0.43806226360E+01  0.28464189290E+02  0.28926931914E+02  0.51100000000E-03 0.  1.
         12    1    3    3    0    0  0.10773338618E+02 -0.99917921034E+01 -0.21346778428E+00  0.14695111531E+02  0.00000000000E+00 0. -1.
</event>
<event>
 7    1  0.2746803E-013  0.5052885E+02  0.7816164E-02  0.1300439E+00
        -11   -1    0    0    0    0  0.00000000000E+00  0.00000000000E+00  0.45593999997E+02  0.45594000000E+02  0.51100000000E-03 0. -1.
         11   -1    0    0    0    0 -0.00000000000E+00 -0.00000000000E+00 -0.45593999997E+02  0.45594000000E+02  0.51100000000E-03 0.  1.
    9900012    2    1    2    0    0  0.43142504388E+01 -0.19283666721E+02 -0.35534400609E+02  0.50528853603E+02  0.29999981012E+02 0.  0.
         12    1    1    2    0    0 -0.43142504388E+01  0.19283666721E+02  0.35534400609E+02  0.40659146397E+02  0.00000000000E+00 0. -1.
         11    1    3    3    0    0 -0.43255796141E+01 -0.45779160885E+01 -0.16170693126E+02  0.17353941084E+02  0.51100000000E-03 0. -1.
        -11    1    3    3    0    0  0.26554196273E+00 -0.17931934635E+02 -0.13627140484E+02  0.22523848480E+02  0.51100000000E-03 0.  1.
         12    1    3    3    0    0  0.83742880902E+01  0.32261840026E+01 -0.57365669987E+01  0.10651064039E+02  0.00000000000E+00 0. -1.
</event>
<event>
 7    1  0.2746803E-013  0.5052886E+02  0.7816164E-02  0.1300439E+00
        -11   -1    0    0    0    0  0.00000000000E+00  0.00000000000E+00  0.45593999997E+02  0.45594000000E+02  0.51100000000E-03 0. -1.
         11   -1    0    0    0    0 -0.00000000000E+00 -0.00000000000E+00 -0.45593999997E+02  0.45594000000E+02  0.51100000000E-03 0.  1.
    9900012    2    1    2    0    0  0.81091103917E+01  0.38614943659E+02  0.98129511120E+01  0.50528861364E+02  0.30000004601E+02 0.  0.
         12    1    1    2    0    0 -0.81091103917E+01 -0.38614943659E+02 -0.98129511120E+01  0.40659138636E+02  0.00000000000E+00 0. -1.
         11    1    3    3    0    0  0.93140605690E+01  0.40817979198E+01 -0.10599331841E+01  0.10224297392E+02  0.51100000000E-03 0. -1.
        -11    1    3    3    0    0  0.63286353196E+01  0.10271435798E+02  0.85645770167E+01  0.14795472216E+02  0.51100000000E-03 0.  1.
        -12    1    3    3    0    0 -0.75335854970E+01  0.24261709941E+02  0.23083072794E+01  0.25509091755E+02  0.00000000000E+00 0.  1.
</event>
<event>
 7    1  0.2746803E-013  0.5052886E+02  0.7816164E-02  0.1300439E+00
        -11   -1    0    0    0    0  0.00000000000E+00  0.00000000000E+00  0.45593999997E+02  0.45594000000E+02  0.51100000000E-03 0.  1.
         11   -1    0    0    0    0 -0.00000000000E+00 -0.00000000000E+00 -0.45593999997E+02  0.45594000000E+02  0.51100000000E-03 0. -1.
    9900012    2    1    2    0    0  0.92002360492E+01  0.29289854565E+02  0.26657566388E+02  0.50528858721E+02  0.29999996569E+02 0.  0.
         12    1    1    2    0    0 -0.92002360492E+01 -0.29289854565E+02 -0.26657566388E+02  0.40659141279E+02  0.00000000000E+00 0. -1.
         11    1    3    3    0    0  0.56315867398E+01  0.17421579441E+02  0.10609925036E+01  0.18339899258E+02  0.51100000000E-03 0. -1.
        -11    1    3    3    0    0  0.76571430937E+00 -0.33590485569E+01  0.20532030436E+01  0.40106319466E+01  0.51100000000E-03 0.  1.
        -12    1    3    3    0    0  0.28029350000E+01  0.15227323681E+02  0.23543370841E+02  0.28178327517E+02  0.00000000000E+00 0.  1.
</event>
<event>
 7    1  0.2746803E-013  0.5052885E+02  0.7816164E-02  0.1300439E+00
        -11   -1    0    0    0    0  0.00000000000E+00  0.00000000000E+00  0.45593999997E+02  0.45594000000E+02  0.51100000000E-03 0. -1.
         11   -1    0    0    0    0 -0.00000000000E+00 -0.00000000000E+00 -0.45593999997E+02  0.45594000000E+02  0.51100000000E-03 0.  1.
    9900012    2    1    2    0    0 -0.31889150422E+02  0.89415532317E+01 -0.23585954293E+02  0.50528849385E+02  0.29999968191E+02 0.  0.
         12    1    1    2    0    0  0.31889150422E+02 -0.89415532317E+01  0.23585954293E+02  0.40659150615E+02  0.00000000000E+00 0. -1.
         11    1    3    3    0    0 -0.25457928737E+02  0.26791479449E+01 -0.15190889723E+01  0.25643548913E+02  0.51100000000E-03 0. -1.
        -11    1    3    3    0    0 -0.42822874179E+01  0.27662291677E+00 -0.13820432534E+02  0.14471311670E+02  0.51100000000E-03 0.  1.
        -12    1    3    3    0    0 -0.21489342667E+01  0.59857823700E+01 -0.82464327865E+01  0.10413988802E+02  0.00000000000E+00 0.  1.
</event>
<event>
 7    1  0.2746803E-013  0.5052883E+02  0.7816164E-02  0.1300439E+00
        -11   -1    0    0    0    0  0.00000000000E+00  0.00000000000E+00  0.45593999997E+02  0.45594000000E+02  0.51100000000E-03 0.  1.
         11   -1    0    0    0    0 -0.00000000000E+00 -0.00000000000E+00 -0.45593999997E+02  0.45594000000E+02  0.51100000000E-03 0. -1.
    9900012    2    1    2    0    0  0.80854654422E+01  0.49648768696E+00  0.39844030352E+02  0.50528831217E+02  0.29999912966E+02 0.  0.
         12    1    1    2    0    0 -0.80854654422E+01 -0.49648768696E+00 -0.39844030352E+02  0.40659168783E+02  0.00000000000E+00 0. -1.
         11    1    3    3    0    0 -0.27273350098E+01  0.49270485420E+01 -0.74923606037E+00  0.56811546825E+01  0.51100000000E-03 0. -1.
        -11    1    3    3    0    0  0.79758612233E+01 -0.38491388291E+01  0.74352505682E+01  0.11563441670E+02  0.51100000000E-03 0.  1.
        -12    1    3    3    0    0  0.28369392287E+01 -0.58142202596E+00  0.33158015844E+02  0.33284234864E+02  0.00000000000E+00 0.  1.
</event>
<event>
 7    1  0.2746803E-013  0.5052886E+02  0.7816164E-02  0.1300439E+00
        -11   -1    0    0    0    0  0.00000000000E+00  0.00000000000E+00  0.45593999997E+02  0.45594000000E+02  0.51100000000E-03 0.  1.
         11   -1    0    0    0    0 -0.00000000000E+00 -0.00000000000E+00 -0.45593999997E+02  0.45594000000E+02  0.51100000000E-03 0. -1.
    9900012    2    1    2    0    0 -0.12602626104E+02  0.17001631660E+02  0.34717197636E+02  0.50528862337E+02  0.30000007559E+02 0.  0.
         12    1    1    2    0    0  0.12602626104E+02 -0.17001631660E+02 -0.34717197636E+02  0.40659137663E+02  0.00000000000E+00 0. -1.
         11    1    3    3    0    0  0.17753266395E+01  0.50254028305E+01 -0.26463229805E+01  0.59505868504E+01  0.51100000000E-03 0. -1.
        -11    1    3    3    0    0  0.25714125200E+01  0.51092185408E+01  0.12169701876E+02  0.13446855412E+02  0.51100000000E-03 0.  1.
        -12    1    3    3    0    0 -0.16949365264E+02  0.68670102884E+01  0.25193818740E+02  0.31131420075E+02  0.00000000000E+00 0.  1.
</event>
<event>
 7    1  0.2746803E-013  0.5052887E+02  0.7816164E-02  0.1300439E+00
        -11   -1    0    0    0    0  0.00000000000E+00  0.00000000000E+00  0.45593999997E+02  0.45594000000E+02  0.51100000000E-03 0. -1.
         11   -1    0    0    0    0 -0.00000000000E+00 -0.00000000000E+00 -0.45593999997E+02  0.45594000000E+02  0.51100000000E-03 0.  1.
    9900012    2    1    2    0    0 -0.29631982710E+02 -0.18370463151E+02 -0.20919766025E+02  0.50528869092E+02  0.30000028091E+02 0.  0.
         12    1    1    2    0    0  0.29631982710E+02  0.18370463151E+02  0.20919766025E+02  0.40659130908E+02  0.00000000000E+00 0. -1.
         11    1    3    3    0    0 -0.21200633457E+01  0.56338009545E+01  0.16808019148E+01  0.62497581651E+01  0.51100000000E-03 0. -1.
        -11    1    3    3    0    0 -0.97037955367E+01 -0.27400485723E+01 -0.38191265860E+01  0.10782265167E+02  0.51100000000E-03 0.  1.
        -12    1    3    3    0    0 -0.17808123827E+02 -0.21264215533E+02 -0.18781441354E+02  0.33496845759E+02  0.00000000000E+00 0.  1.
</event>
<event>
 7    1  0.2746803E-013  0.5052886E+02  0.7816164E-02  0.1300439E+00
        -11   -1    0    0    0    0  0.00000000000E+00  0.00000000000E+00  0.45593999997E+02  0.45594000000E+02  0.51100000000E-03 0. -1.
         11   -1    0    0    0    0 -0.00000000000E+00 -0.00000000000E+00 -0.45593999997E+02  0.45594000000E+02  0.51100000000E-03 0.  1.
    9900012    2    1    2    0    0 -0.35553179136E+02 -0.90712774152E+01 -0.17517108968E+02  0.50528859241E+02  0.29999998150E+02 0.  0.
         12    1    1    2    0    0  0.35553179136E+02  0.90712774152E+01  0.17517108968E+02  0.40659140759E+02  0.00000000000E+00 0. -1.
         11    1    3    3    0    0 -0.70208806037E+01  0.51440133661E+01  0.35832009756E+01  0.94123837287E+01  0.51100000000E-03 0. -1.
        -11    1    3    3    0    0 -0.17136098936E+01 -0.38688116910E+01 -0.89673264562E+01  0.99154983133E+01  0.51100000000E-03 0.  1.
         12    1    3    3    0    0 -0.26818688639E+02 -0.10346479090E+02 -0.12132983488E+02  0.31200977199E+02  0.00000000000E+00 0. -1.
</event>
<event>
 7    1  0.2746803E-013  0.5052886E+02  0.7816164E-02  0.1300439E+00
        -11   -1    0    0    0    0  0.00000000000E+00  0.00000000000E+00  0.45593999997E+02  0.45594000000E+02  0.51100000000E-03 0.  1.
         11   -1    0    0    0    0 -0.00000000000E+00 -0.00000000000E+00 -0.45593999997E+02  0.45594000000E+02  0.51100000000E-03 0. -1.
    9900012    2    1    2    0    0 -0.37746948194E+02 -0.14230599296E+02 -0.50816866384E+01  0.50528860887E+02  0.30000003153E+02 0.  0.
         12    1    1    2    0    0  0.37746948194E+02  0.14230599296E+02  0.50816866384E+01  0.40659139113E+02  0.00000000000E+00 0. -1.
         11    1    3    3    0    0 -0.83264973697E+00 -0.33148140355E+01 -0.22691934061E+01  0.41025037050E+01  0.51100000000E-03 0. -1.
        -11    1    3    3    0    0 -0.58296789495E+01 -0.43002466350E+00  0.96920633874E+01  0.11318399659E+02  0.51100000000E-03 0.  1.
        -12    1    3    3    0    0 -0.31084619508E+02 -0.10485760597E+02 -0.12504556620E+02  0.35107957524E+02  0.00000000000E+00 0.  1.
</event>
<event>
 7    1  0.2746803E-013  0.5052880E+02  0.7816164E-02  0.1300439E+00
        -11   -1    0    0    0    0  0.00000000000E+00  0.00000000000E+00  0.45593999997E+02  0.45594000000E+02  0.51100000000E-03 0.  1.
         11   -1    0    0    0    0 -0.00000000000E+00 -0.00000000000E+00 -0.45593999997E+02  0.45594000000E+02  0.51100000000E-03 0. -1.
    9900012    2    1    2    0    0  0.19886563214E+02 -0.35355945208E+02  0.27663172847E+01  0.50528797237E+02  0.29999809680E+02 0.  0.
         12    1    1    2    0    0 -0.19886563214E+02  0.35355945208E+02 -0.27663172847E+01  0.40659202763E+02  0.00000000000E+00 0. -1.
         11    1    3    3    0    0  0.32978744636E+01 -0.18203267269E+02  0.57571367504E+01  0.19374713910E+02  0.51100000000E-03 0. -1.
        -11    1    3    3    0    0  0.72311452190E+01 -0.18747765831E+02  0.24013575386E+01  0.20236963782E+02  0.51100000000E-03 0.  1.
         12    1    3    3    0    0  0.93575435311E+01  0.15950878916E+01 -0.53921770043E+01  0.10917119545E+02  0.00000000000E+00 0. -1.
</event>
<event>
 7    1  0.2746803E-013  0.5052886E+02  0.7816164E-02  0.1300439E+00
        -11   -1    0    0    0    0  0.00000000000E+00  0.00000000000E+00  0.45593999997E+02  0.45594000000E+02  0.51100000000E-03 0.  1.
         11   -1    0    0    0    0 -0.00000000000E+00 -0.00000000000E+00 -0.45593999997E+02  0.45594000000E+02  0.51100000000E-03 0. -1.
    9900012    2    1    2    0    0  0.36161481131E+02 -0.18213112147E+02  0.37142134217E+01  0.50528861383E+02  0.30000004661E+02 0.  0.
         12    1    1    2    0    0 -0.36161481131E+02  0.18213112147E+02 -0.37142134217E+01  0.40659138617E+02  0.00000000000E+00 0. -1.
         11    1    3    3    0    0  0.42040533270E+01 -0.17728192477E+01  0.36353820315E+01  0.58337770987E+01  0.51100000000E-03 0. -1.
        -11    1    3    3    0    0  0.16451130058E+02 -0.38538725209E+00  0.11052512988E+02  0.19822871818E+02  0.51100000000E-03 0.  1.
         12    1    3    3    0    0  0.15506297747E+02 -0.16054905647E+02 -0.10973681598E+02  0.24872212466E+02  0.00000000000E+00 0. -1.
</event>
<event>
 7    1  0.2746803E-013  0.5052886E+02  0.7816164E-02  0.1300439E+00
        -11   -1    0    0    0    0  0.00000000000E+00  0.00000000000E+00  0.45593999997E+02  0.45594000000E+02  0.51100000000E-03 0. -1.
         11   -1    0    0    0    0 -0.00000000000E+00 -0.00000000000E+00 -0.45593999997E+02  0.45594000000E+02  0.51100000000E-03 0.  1.
    9900012    2    1    2    0    0 -0.12463137306E+02 -0.66628981629E+01 -0.38124029439E+02  0.50528860509E+02  0.30000002004E+02 0.  0.
         12    1    1    2    0    0  0.12463137306E+02  0.66628981629E+01  0.38124029439E+02  0.40659139491E+02  0.00000000000E+00 0. -1.
         11    1    3    3    0    0 -0.64314498455E+01  0.68263069453E+01 -0.89349058741E+01  0.12953553832E+02  0.51100000000E-03 0. -1.
        -11    1    3    3    0    0 -0.32823430106E+01 -0.10304518117E+02 -0.31120393018E+02  0.32945951665E+02  0.51100000000E-03 0.  1.
         12    1    3    3    0    0 -0.27493444500E+01 -0.31846869911E+01  0.19312694525E+01  0.46293550127E+01  0.00000000000E+00 0. -1.
</event>
<event>
 7    1  0.2746803E-013  0.5052887E+02  0.7816164E-02  0.1300439E+00
        -11   -1    0    0    0    0  0.00000000000E+00  0.00000000000E+00  0.45593999997E+02  0.45594000000E+02  0.51100000000E-03 0.  1.
         11   -1    0    0    0    0 -0.00000000000E+00 -0.00000000000E+00 -0.45593999997E+02  0.45594000000E+02  0.51100000000E-03 0. -1.
    9900012    2    1    2    0    0 -0.26758990710E+02 -0.14718544282E+02  0.26841866499E+02  0.50528869085E+02  0.30000028071E+02 0.  0.
         12    1    1    2    0    0  0.26758990710E+02  0.14718544282E+02 -0.26841866499E+02  0.40659130915E+02  0.00000000000E+00 0. -1.
         11    1    3    3    0    0 -0.12288807076E+01  0.38264987747E+01  0.35033826230E+01  0.53315973901E+01  0.51100000000E-03 0. -1.
        -11    1    3    3    0    0 -0.25206923239E+01 -0.71247775583E+01  0.17198855486E+02  0.18786084619E+02  0.51100000000E-03 0.  1.
         12    1    3    3    0    0 -0.23009417679E+02 -0.11420265498E+02  0.61396283906E+01  0.26411187076E+02  0.00000000000E+00 0. -1.
</event>
<event>
 7    1  0.2746803E-013  0.5052887E+02  0.7816164E-02  0.1300439E+00
        -11   -1    0    0    0    0  0.00000000000E+00  0.00000000000E+00  0.45593999997E+02  0.45594000000E+02  0.51100000000E-03 0. -1.
         11   -1    0    0    0    0 -0.00000000000E+00 -0.00000000000E+00 -0.45593999997E+02  0.45594000000E+02  0.51100000000E-03 0.  1.
    9900012    2    1    2    0    0 -0.12600318643E+02  0.37683121264E+02 -0.86243518410E+01  0.50528866921E+02  0.30000021492E+02 0.  0.
         12    1    1    2    0    0  0.12600318643E+02 -0.37683121264E+02  0.86243518410E+01  0.40659133079E+02  0.00000000000E+00 0. -1.
         11    1    3    3    0    0 -0.33816855970E+01  0.59537458302E+01 -0.32293982000E+01  0.75704623295E+01  0.51100000000E-03 0. -1.
        -11    1    3    3    0    0 -0.15642452044E+02  0.25551797470E+02 -0.11569795844E+02  0.32116052621E+02  0.51100000000E-03 0.  1.
         12    1    3    3    0    0  0.64238189972E+01  0.61775779638E+01  0.61748422027E+01  0.10842351970E+02  0.00000000000E+00 0. -1.
</event>
<event>
 7    1  0.2746803E-013  0.5052886E+02  0.7816164E-02  0.1300439E+00
        -11   -1    0    0    0    0  0.00000000000E+00  0.00000000000E+00  0.45593999997E+02  0.45594000000E+02  0.51100000000E-03 0.  1.
         11   -1    0    0    0    0 -0.00000000000E+00 -0.00000000000E+00 -0.45593999997E+02  0.45594000000E+02  0.51100000000E-03 0. -1.
    9900012    2    1    2    0    0 -0.28643294088E+02  0.11877018729E+02  0.26299500266E+02  0.50528860999E+02  0.30000003491E+02 0.  0.
         12    1    1    2    0    0  0.28643294088E+02 -0.11877018729E+02 -0.26299500266E+02  0.40659139001E+02  0.00000000000E+00 0. -1.
         11    1    3    3    0    0 -0.39074709926E+01 -0.45692380833E+01  0.20533891919E+01  0.63531624923E+01  0.51100000000E-03 0. -1.
        -11    1    3    3    0    0  0.20619169927E+01  0.86740848577E+01  0.73652325303E+01  0.11564510378E+02  0.51100000000E-03 0.  1.
         12    1    3    3    0    0 -0.26797740088E+02  0.77721719544E+01  0.16880878544E+02  0.32611188128E+02  0.00000000000E+00 0. -1.
</event>
<event>
 7    1  0.2746803E-013  0.5052885E+02  0.7816164E-02  0.1300439E+00
        -11   -1    0    0    0    0  0.00000000000E+00  0.00000000000E+00  0.45593999997E+02  0.45594000000E+02  0.51100000000E-03 0.  1.
         11   -1    0    0    0    0 -0.00000000000E+00 -0.00000000000E+00 -0.45593999997E+02  0.45594000000E+02  0.51100000000E-03 0. -1.
    9900012    2    1    2    0    0  0.28626262313E+02 -0.28038168473E+02  0.68966933834E+01  0.50528853858E+02  0.29999981788E+02 0.  0.
         12    1    1    2    0    0 -0.28626262313E+02  0.28038168473E+02 -0.68966933834E+01  0.40659146142E+02  0.00000000000E+00 0. -1.
         11    1    3    3    0    0 -0.11517575210E+01 -0.80618471569E+00 -0.30034079023E+01  0.33161632155E+01  0.51100000000E-03 0. -1.
        -11    1    3    3    0    0  0.23315052725E+02 -0.13706782390E+02 -0.32908870027E+01  0.27245137265E+02  0.51100000000E-03 0.  1.
        -12    1    3    3    0    0  0.64629671096E+01 -0.13525201367E+02  0.13190988288E+02  0.19967553378E+02  0.00000000000E+00 0.  1.
</event>
<event>
 7    1  0.2746803E-013  0.5052886E+02  0.7816164E-02  0.1300439E+00
        -11   -1    0    0    0    0  0.00000000000E+00  0.00000000000E+00  0.45593999997E+02  0.45594000000E+02  0.51100000000E-03 0. -1.
         11   -1    0    0    0    0 -0.00000000000E+00 -0.00000000000E+00 -0.45593999997E+02  0.45594000000E+02  0.51100000000E-03 0.  1.
    9900012    2    1    2    0    0  0.36707111909E+02  0.17485814983E+02  0.57840227338E-02  0.50528858054E+02  0.29999994542E+02 0.  0.
         12    1    1    2    0    0 -0.36707111909E+02 -0.17485814983E+02 -0.57840227338E-02  0.40659141946E+02  0.00000000000E+00 0. -1.
         11    1    3    3    0    0  0.54108535974E+01  0.34624326453E+01  0.11499895496E+02  0.13172447500E+02  0.51100000000E-03 0. -1.
        -11    1    3    3    0    0  0.47336861499E+01 -0.12421360842E+01 -0.12310619021E+01  0.50464046890E+01  0.51100000000E-03 0.  1.
        -12    1    3    3    0    0  0.26562572162E+02  0.15265518422E+02 -0.10263049571E+02  0.32310005865E+02  0.00000000000E+00 0.  1.
</event>
<event>
 7    1  0.2746803E-013  0.5052886E+02  0.7816164E-02  0.1300439E+00
        -11   -1    0    0    0    0  0.00000000000E+00  0.00000000000E+00  0.45593999997E+02  0.45594000000E+02  0.51100000000E-03 0.  1.
         11   -1    0    0    0    0 -0.00000000000E+00 -0.00000000000E+00 -0.45593999997E+02  0.45594000000E+02  0.51100000000E-03 0. -1.
    9900012    2    1    2    0    0 -0.34592511649E+02 -0.19253511614E+02 -0.92642486209E+01  0.50528857434E+02  0.29999992657E+02 0.  0.
         12    1    1    2    0    0  0.34592511649E+02  0.19253511614E+02  0.92642486209E+01  0.40659142566E+02  0.00000000000E+00 0. -1.
         11    1    3    3    0    0 -0.20251452591E+02 -0.92615992770E+01 -0.12851159706E+02  0.25710909343E+02  0.51100000000E-03 0. -1.
        -11    1    3    3    0    0 -0.12732039249E+02  0.15145896104E+01  0.30898796545E+01  0.13188865064E+02  0.51100000000E-03 0.  1.
        -12    1    3    3    0    0 -0.16090198094E+01 -0.11506501947E+02  0.49703143031E+00  0.11629083027E+02  0.00000000000E+00 0.  1.
</event>
<event>
 7    1  0.2746803E-013  0.5052885E+02  0.7816164E-02  0.1300439E+00
        -11   -1    0    0    0    0  0.00000000000E+00  0.00000000000E+00  0.45593999997E+02  0.45594000000E+02  0.51100000000E-03 0.  1.
         11   -1    0    0    0    0 -0.00000000000E+00 -0.00000000000E+00 -0.45593999997E+02  0.45594000000E+02  0.51100000000E-03 0. -1.
    9900012    2    1    2    0    0 -0.32331107575E+01  0.15487839569E+02  0.37454514674E+02  0.50528845444E+02  0.29999956213E+02 0.  0.
         12    1    1    2    0    0  0.32331107575E+01 -0.15487839569E+02 -0.37454514674E+02  0.40659154556E+02  0.00000000000E+00 0. -1.
         11    1    3    3    0    0  0.34815415225E+01  0.25433493016E+01  0.39160519885E+01  0.58245360743E+01  0.51100000000E-03 0. -1.
        -11    1    3    3    0    0 -0.18514064119E+01 -0.76496292383E+01  0.13115009699E+02  0.15295359193E+02  0.51100000000E-03 0.  1.
        -12    1    3    3    0    0 -0.48632458682E+01  0.20594119506E+02  0.20423452987E+02  0.29408950177E+02  0.00000000000E+00 0.  1.
</event>
<event>
 7    1  0.2746803E-013  0.5052886E+02  0.7816164E-02  0.1300439E+00
        -11   -1    0    0    0    0  0.00000000000E+00  0.00000000000E+00  0.45593999997E+02  0.45594000000E+02  0.51100000000E-03 0.  1.
         11   -1    0    0    0    0 -0.00000000000E+00 -0.00000000000E+00 -0.45593999997E+02  0.45594000000E+02  0.51100000000E-03 0. -1.
    9900012    2    1    2    0    0  0.28295427640E+02  0.16125013588E+02  0.24341702753E+02  0.50528858575E+02  0.29999996123E+02 0.  0.
         12    1    1    2    0    0 -0.28295427640E+02 -0.16125013588E+02 -0.24341702753E+02  0.40659141425E+02  0.00000000000E+00 0. -1.
         11    1    3    3    0    0  0.11496539484E+02  0.95318227939E+01 -0.24918129330E+00  0.14936135962E+02  0.51100000000E-03 0. -1.
        -11    1    3    3    0    0  0.59767882217E+01  0.12013269214E+02  0.10649897209E+02  0.17130701839E+02  0.51100000000E-03 0.  1.
         12    1    3    3    0    0  0.10822099934E+02 -0.54200784207E+01  0.13940986837E+02  0.18462020774E+02  0.00000000000E+00 0. -1.
</event>
<event>
 7    1  0.2746803E-013  0.5052886E+02  0.7816164E-02  0.1300439E+00
        -11   -1    0    0    0    0  0.00000000000E+00  0.00000000000E+00  0.45593999997E+02  0.45594000000E+02  0.51100000000E-03 0.  1.
         11   -1    0    0    0    0 -0.00000000000E+00 -0.00000000000E+00 -0.45593999997E+02  0.45594000000E+02  0.51100000000E-03 0. -1.
    9900012    2    1    2    0    0 -0.15325305982E+02 -0.10519882901E+02  0.36161201472E+02  0.50528862877E+02  0.30000009201E+02 0.  0.
         12    1    1    2    0    0  0.15325305982E+02  0.10519882901E+02 -0.36161201472E+02  0.40659137123E+02  0.00000000000E+00 0. -1.
         11    1    3    3    0    0 -0.71993348384E+01 -0.64634334734E+01  0.25648671474E+01  0.10009242635E+02  0.51100000000E-03 0. -1.
        -11    1    3    3    0    0 -0.13462791051E+02  0.28186004833E+01  0.23092967619E+02  0.26878921207E+02  0.51100000000E-03 0.  1.
        -12    1    3    3    0    0  0.53368199075E+01 -0.68750499105E+01  0.10503366706E+02  0.13640699035E+02  0.00000000000E+00 0.  1.
</event>
<event>
 7    1  0.2746803E-013  0.5052886E+02  0.7816164E-02  0.1300439E+00
        -11   -1    0    0    0    0  0.00000000000E+00  0.00000000000E+00  0.45593999997E+02  0.45594000000E+02  0.51100000000E-03 0.  1.
         11   -1    0    0    0    0 -0.00000000000E+00 -0.00000000000E+00 -0.45593999997E+02  0.45594000000E+02  0.51100000000E-03 0. -1.
    9900012    2    1    2    0    0 -0.24530939658E+02 -0.13270928310E+02  0.29585144985E+02  0.50528863973E+02  0.30000012531E+02 0.  0.
         12    1    1    2    0    0  0.24530939658E+02  0.13270928310E+02 -0.29585144985E+02  0.40659136027E+02  0.00000000000E+00 0. -1.
         11    1    3    3    0    0 -0.85759307665E+01 -0.16568474288E+02  0.13358438196E+02  0.22945779569E+02  0.51100000000E-03 0. -1.
        -11    1    3    3    0    0 -0.13068014368E+02 -0.30869236788E+01  0.15547625029E+02  0.20543386810E+02  0.51100000000E-03 0.  1.
         12    1    3    3    0    0 -0.28869945241E+01  0.63844696565E+01  0.67908176005E+00  0.70396975939E+01  0.00000000000E+00 0. -1.
</event>
<event>
 7    1  0.2746803E-013  0.5052886E+02  0.7816164E-02  0.1300439E+00
        -11   -1    0    0    0    0  0.00000000000E+00  0.00000000000E+00  0.45593999997E+02  0.45594000000E+02  0.51100000000E-03 0.  1.
         11   -1    0    0    0    0 -0.00000000000E+00 -0.00000000000E+00 -0.45593999997E+02  0.45594000000E+02  0.51100000000E-03 0. -1.
    9900012    2    1    2    0    0  0.19936219621E+02  0.20929315918E+02  0.28595037625E+02  0.50528864564E+02  0.30000014329E+02 0.  0.
         12    1    1    2    0    0 -0.19936219621E+02 -0.20929315918E+02 -0.28595037625E+02  0.40659135436E+02  0.00000000000E+00 0. -1.
         11    1    3    3    0    0  0.79788428823E+01 -0.55382207565E-01 -0.70811130805E+00  0.80103946729E+01  0.51100000000E-03 0. -1.
        -11    1    3    3    0    0  0.13159390809E+02  0.22424977251E+02  0.19404298172E+02  0.32443427053E+02  0.51100000000E-03 0.  1.
         12    1    3    3    0    0 -0.12020140704E+01 -0.14402791249E+01  0.98988507616E+01  0.10075042838E+02  0.00000000000E+00 0. -1.
</event>
<event>
 7    1  0.2746803E-013  0.5052887E+02  0.7816164E-02  0.1300439E+00
        -11   -1    0    0    0    0  0.00000000000E+00  0.00000000000E+00  0.45593999997E+02  0.45594000000E+02  0.51100000000E-03 0.  1.
         11   -1    0    0    0    0 -0.00000000000E+00 -0.00000000000E+00 -0.45593999997E+02  0.45594000000E+02  0.51100000000E-03 0. -1.
    9900012    2    1    2    0    0 -0.83273952919E+01  0.32632711800E+02  0.22779935382E+02  0.50528870056E+02  0.30000031022E+02 0.  0.
         12    1    1    2    0    0  0.83273952919E+01 -0.32632711800E+02 -0.22779935382E+02  0.40659129944E+02  0.00000000000E+00 0. -1.
         11    1    3    3    0    0  0.66852137612E+01  0.11000232514E+02  0.65776786756E+01  0.14455554483E+02  0.51100000000E-03 0.  1.
        -11    1    3    3    0    0 -0.74562403400E+01  0.48977740631E+01 -0.30889625301E+01  0.94406250087E+01  0.51100000000E-03 0. -1.
        -12    1    3    3    0    0 -0.75563687131E+01  0.16734705223E+02  0.19291219237E+02  0.26632690564E+02  0.00000000000E+00 0.  1.
</event>
<event>
 7    1  0.2746803E-013  0.5052886E+02  0.7816164E-02  0.1300439E+00
        -11   -1    0    0    0    0  0.00000000000E+00  0.00000000000E+00  0.45593999997E+02  0.45594000000E+02  0.51100000000E-03 0.  1.
         11   -1    0    0    0    0 -0.00000000000E+00 -0.00000000000E+00 -0.45593999997E+02  0.45594000000E+02  0.51100000000E-03 0. -1.
    9900012    2    1    2    0    0 -0.12959490688E+02 -0.77637506593E+01  0.37748397364E+02  0.50528859247E+02  0.29999998168E+02 0.  0.
         12    1    1    2    0    0  0.12959490688E+02  0.77637506593E+01 -0.37748397364E+02  0.40659140753E+02  0.00000000000E+00 0. -1.
         11    1    3    3    0    0 -0.40711382314E+01  0.82468712820E+00 -0.34453579614E-01  0.41539695075E+01  0.51100000000E-03 0. -1.
        -11    1    3    3    0    0 -0.11914950223E+00 -0.11176748557E+02  0.48286226674E+01  0.12175775213E+02  0.51100000000E-03 0.  1.
        -12    1    3    3    0    0 -0.87692029548E+01  0.25883107698E+01  0.32954228276E+02  0.34199114526E+02  0.00000000000E+00 0.  1.
</event>
<event>
 7    1  0.2746803E-013  0.5052886E+02  0.7816164E-02  0.1300439E+00
        -11   -1    0    0    0    0  0.00000000000E+00  0.00000000000E+00  0.45593999997E+02  0.45594000000E+02  0.51100000000E-03 0.  1.
         11   -1    0    0    0    0 -0.00000000000E+00 -0.00000000000E+00 -0.45593999997E+02  0.45594000000E+02  0.51100000000E-03 0. -1.
    9900012    2    1    2    0    0  0.86353314627E+01  0.83672530137E+01  0.38840518093E+02  0.50528859353E+02  0.29999998488E+02 0.  0.
         12    1    1    2    0    0 -0.86353314627E+01 -0.83672530137E+01 -0.38840518093E+02  0.40659140647E+02  0.00000000000E+00 0. -1.
         11    1    3    3    0    0  0.16148918017E+01  0.44014461251E+01  0.19305656594E+02  0.19866780824E+02  0.51100000000E-03 0. -1.
        -11    1    3    3    0    0  0.27994174286E+01 -0.51784791156E+00  0.23280843308E+02  0.23454265492E+02  0.51100000000E-03 0.  1.
         12    1    3    3    0    0  0.42210222324E+01  0.44836548002E+01 -0.37459818091E+01  0.72078130364E+01  0.00000000000E+00 0. -1.
</event>
<event>
 7    1  0.2746803E-013  0.5052887E+02  0.7816164E-02  0.1300439E+00
        -11   -1    0    0    0    0  0.00000000000E+00  0.00000000000E+00  0.45593999997E+02  0.45594000000E+02  0.51100000000E-03 0. -1.
         11   -1    0    0    0    0 -0.00000000000E+00 -0.00000000000E+00 -0.45593999997E+02  0.45594000000E+02  0.51100000000E-03 0.  1.
    9900012    2    1    2    0    0 -0.15655514479E+01  0.18979332849E+02 -0.35923510338E+02  0.50528872836E+02  0.30000039472E+02 0.  0.
         12    1    1    2    0    0  0.15655514479E+01 -0.18979332849E+02  0.35923510338E+02  0.40659127164E+02  0.00000000000E+00 0. -1.
         11    1    3    3    0    0  0.42348986778E+01  0.77172760419E+01 -0.79335398260E+01  0.11850391164E+02  0.51100000000E-03 0. -1.
        -11    1    3    3    0    0  0.35389349541E+01  0.12652212069E+02 -0.54180373587E+01  0.14211180807E+02  0.51100000000E-03 0.  1.
        -12    1    3    3    0    0 -0.93393850798E+01 -0.13901552613E+01 -0.22571933153E+02  0.24467300865E+02  0.00000000000E+00 0.  1.
</event>
<event>
 7    1  0.2746803E-013  0.5052886E+02  0.7816164E-02  0.1300439E+00
        -11   -1    0    0    0    0  0.00000000000E+00  0.00000000000E+00  0.45593999997E+02  0.45594000000E+02  0.51100000000E-03 0.  1.
         11   -1    0    0    0    0 -0.00000000000E+00 -0.00000000000E+00 -0.45593999997E+02  0.45594000000E+02  0.51100000000E-03 0. -1.
    9900012    2    1    2    0    0  0.14138563836E+02  0.17910979476E+02  0.33652100024E+02  0.50528855774E+02  0.29999987612E+02 0.  0.
         12    1    1    2    0    0 -0.14138563836E+02 -0.17910979476E+02 -0.33652100024E+02  0.40659144226E+02  0.00000000000E+00 0. -1.
         11    1    3    3    0    0  0.33543242123E+01  0.68211608159E+01  0.69930209758E+01  0.10328701197E+02  0.51100000000E-03 0. -1.
        -11    1    3    3    0    0  0.13614480669E+02  0.18015155881E+02  0.20744462494E+02  0.30663213297E+02  0.51100000000E-03 0.  1.
         12    1    3    3    0    0 -0.28302410447E+01 -0.69253372206E+01  0.59146165538E+01  0.95369412795E+01  0.00000000000E+00 0. -1.
</event>
<event>
 7    1  0.2746803E-013  0.5052887E+02  0.7816164E-02  0.1300439E+00
        -11   -1    0    0    0    0  0.00000000000E+00  0.00000000000E+00  0.45593999997E+02  0.45594000000E+02  0.51100000000E-03 0. -1.
         11   -1    0    0    0    0 -0.00000000000E+00 -0.00000000000E+00 -0.45593999997E+02  0.45594000000E+02  0.51100000000E-03 0.  1.
    9900012    2    1    2    0    0  0.24292891752E+02 -0.24714306452E+02 -0.21265546465E+02  0.50528868190E+02  0.30000025351E+02 0.  0.
         12    1    1    2    0    0 -0.24292891752E+02  0.24714306452E+02  0.21265546465E+02  0.40659131810E+02  0.00000000000E+00 0. -1.
         11    1    3    3    0    0  0.29558984434E+01  0.14456295204E+01 -0.41703046375E+01  0.53121202310E+01  0.51100000000E-03 0. -1.
        -11    1    3    3    0    0  0.12090920367E+02 -0.72511901545E+01  0.47538037207E+01  0.14878466455E+02  0.51100000000E-03 0.  1.
        -12    1    3    3    0    0  0.92460729409E+01 -0.18908745818E+02 -0.21849045548E+02  0.30338281504E+02  0.00000000000E+00 0.  1.
</event>
<event>
 7    1  0.2746803E-013  0.5052887E+02  0.7816164E-02  0.1300439E+00
        -11   -1    0    0    0    0  0.00000000000E+00  0.00000000000E+00  0.45593999997E+02  0.45594000000E+02  0.51100000000E-03 0.  1.
         11   -1    0    0    0    0 -0.00000000000E+00 -0.00000000000E+00 -0.45593999997E+02  0.45594000000E+02  0.51100000000E-03 0. -1.
    9900012    2    1    2    0    0  0.52608293115E+01  0.98897142122E+01  0.39085571763E+02  0.50528871969E+02  0.30000036837E+02 0.  0.
         12    1    1    2    0    0 -0.52608293115E+01 -0.98897142122E+01 -0.39085571763E+02  0.40659128031E+02  0.00000000000E+00 0. -1.
         11    1    3    3    0    0  0.29564137669E+01  0.61973226262E+01  0.25661014600E+02  0.26563788523E+02  0.51100000000E-03 0. -1.
        -11    1    3    3    0    0 -0.68080046781E+01 -0.71837099691E+00  0.11897951621E+02  0.13726843688E+02  0.51100000000E-03 0.  1.
         12    1    3    3    0    0  0.91124202227E+01  0.44107625829E+01  0.15266055411E+01  0.10238239759E+02  0.00000000000E+00 0. -1.
</event>
<event>
 7    1  0.2746803E-013  0.5052886E+02  0.7816164E-02  0.1300439E+00
        -11   -1    0    0    0    0  0.00000000000E+00  0.00000000000E+00  0.45593999997E+02  0.45594000000E+02  0.51100000000E-03 0.  1.
         11   -1    0    0    0    0 -0.00000000000E+00 -0.00000000000E+00 -0.45593999997E+02  0.45594000000E+02  0.51100000000E-03 0. -1.
    9900012    2    1    2    0    0 -0.60164853989E+01 -0.80604902070E+01  0.39395379012E+02  0.50528862202E+02  0.30000007150E+02 0.  0.
         12    1    1    2    0    0  0.60164853989E+01  0.80604902070E+01 -0.39395379012E+02  0.40659137798E+02  0.00000000000E+00 0. -1.
         11    1    3    3    0    0  0.21932585146E+01  0.61432278690E+01  0.93832511187E+01  0.11427818400E+02  0.51100000000E-03 0. -1.
        -11    1    3    3    0    0  0.33486854839E+01  0.13025059357E+01  0.12515063321E+02  0.13020638478E+02  0.51100000000E-03 0.  1.
         12    1    3    3    0    0 -0.11558429397E+02 -0.15506224012E+02  0.17497064573E+02  0.26080405325E+02  0.00000000000E+00 0. -1.
</event>
<event>
 7    1  0.2746803E-013  0.5052886E+02  0.7816164E-02  0.1300439E+00
        -11   -1    0    0    0    0  0.00000000000E+00  0.00000000000E+00  0.45593999997E+02  0.45594000000E+02  0.51100000000E-03 0.  1.
         11   -1    0    0    0    0 -0.00000000000E+00 -0.00000000000E+00 -0.45593999997E+02  0.45594000000E+02  0.51100000000E-03 0. -1.
    9900012    2    1    2    0    0 -0.24609230005E+01  0.16233121406E+02  0.37196705627E+02  0.50528864716E+02  0.30000014790E+02 0.  0.
         12    1    1    2    0    0  0.24609230005E+01 -0.16233121406E+02 -0.37196705627E+02  0.40659135284E+02  0.00000000000E+00 0. -1.
         11    1    3    3    0    0  0.21478905047E+01  0.66640997288E-01 -0.30386758340E+01  0.37217503581E+01  0.51100000000E-03 0. -1.
        -11    1    3    3    0    0 -0.14955359839E+01 -0.35650737563E+01  0.79807136576E+01  0.88678165020E+01  0.51100000000E-03 0.  1.
        -12    1    3    3    0    0 -0.31132775213E+01  0.19731554165E+02  0.32254667803E+02  0.37939297856E+02  0.00000000000E+00 0.  1.
</event>
<event>
 7    1  0.2746803E-013  0.5052885E+02  0.7816164E-02  0.1300439E+00
        -11   -1    0    0    0    0  0.00000000000E+00  0.00000000000E+00  0.45593999997E+02  0.45594000000E+02  0.51100000000E-03 0. -1.
         11   -1    0    0    0    0 -0.00000000000E+00 -0.00000000000E+00 -0.45593999997E+02  0.45594000000E+02  0.51100000000E-03 0.  1.
    9900012    2    1    2    0    0 -0.20475800116E+02  0.32721387441E+02 -0.12775713211E+02  0.50528850544E+02  0.29999971714E+02 0.  0.
         12    1    1    2    0    0  0.20475800116E+02 -0.32721387441E+02  0.12775713211E+02  0.40659149456E+02  0.00000000000E+00 0. -1.
         11    1    3    3    0    0  0.24633773292E+01  0.23224054042E+01 -0.58923627517E+01  0.67957143691E+01  0.51100000000E-03 0. -1.
        -11    1    3    3    0    0  0.28337680991E+01 -0.20953362003E+00 -0.18807874883E+01  0.34075662598E+01  0.51100000000E-03 0.  1.
         12    1    3    3    0    0 -0.25772945544E+02  0.30608515657E+02 -0.50025629710E+01  0.40325569915E+02  0.00000000000E+00 0. -1.
</event>
<event>
 7    1  0.2746803E-013  0.5052887E+02  0.7816164E-02  0.1300439E+00
        -11   -1    0    0    0    0  0.00000000000E+00  0.00000000000E+00  0.45593999997E+02  0.45594000000E+02  0.51100000000E-03 0.  1.
         11   -1    0    0    0    0 -0.00000000000E+00 -0.00000000000E+00 -0.45593999997E+02  0.45594000000E+02  0.51100000000E-03 0. -1.
    9900012    2    1    2    0    0  0.31154028058E+02  0.55094868936E+01  0.25538935419E+02  0.50528866556E+02  0.30000020384E+02 0.  0.
         12    1    1    2    0    0 -0.31154028058E+02 -0.55094868936E+01 -0.25538935419E+02  0.40659133444E+02  0.00000000000E+00 0. -1.
         11    1    3    3    0    0  0.71328919682E+01 -0.24584463356E+01 -0.17609546657E+01  0.77474555701E+01  0.51100000000E-03 0. -1.
        -11    1    3    3    0    0  0.12456498132E+02  0.10909987502E+02  0.46808255630E+01  0.17207623346E+02  0.51100000000E-03 0.  1.
         12    1    3    3    0    0  0.11564637958E+02 -0.29420542726E+01  0.22619064522E+02  0.25573787640E+02  0.00000000000E+00 0. -1.
</event>
<event>
 7    1  0.2746803E-013  0.5052886E+02  0.7816164E-02  0.1300439E+00
        -11   -1    0    0    0    0  0.00000000000E+00  0.00000000000E+00  0.45593999997E+02  0.45594000000E+02  0.51100000000E-03 0. -1.
         11   -1    0    0    0    0 -0.00000000000E+00 -0.00000000000E+00 -0.45593999997E+02  0.45594000000E+02  0.51100000000E-03 0.  1.
    9900012    2    1    2    0    0 -0.20460285372E+02 -0.14281532069E+02 -0.32102650379E+02  0.50528860842E+02  0.30000003014E+02 0.  0.
         12    1    1    2    0    0  0.20460285372E+02  0.14281532069E+02  0.32102650379E+02  0.40659139158E+02  0.00000000000E+00 0. -1.
         11    1    3    3    0    0 -0.16123012600E+02 -0.11173358915E+02 -0.63438375957E+01  0.20616492438E+02  0.51100000000E-03 0. -1.
        -11    1    3    3    0    0 -0.62036581215E+01  0.36008812811E+01 -0.75346439678E+01  0.10403008222E+02  0.51100000000E-03 0.  1.
        -12    1    3    3    0    0  0.18663853487E+01 -0.67090544346E+01 -0.18224168816E+02  0.19509360182E+02  0.00000000000E+00 0.  1.
</event>
<event>
 7    1  0.2746803E-013  0.5052885E+02  0.7816164E-02  0.1300439E+00
        -11   -1    0    0    0    0  0.00000000000E+00  0.00000000000E+00  0.45593999997E+02  0.45594000000E+02  0.51100000000E-03 0.  1.
         11   -1    0    0    0    0 -0.00000000000E+00 -0.00000000000E+00 -0.45593999997E+02  0.45594000000E+02  0.51100000000E-03 0. -1.
    9900012    2    1    2    0    0  0.39579535611E+02  0.92953032720E+01 -0.47356519279E+00  0.50528848926E+02  0.29999966795E+02 0.  0.
         12    1    1    2    0    0 -0.39579535611E+02 -0.92953032720E+01  0.47356519279E+00  0.40659151074E+02  0.00000000000E+00 0. -1.
         11    1    3    3    0    0  0.20930746624E+02  0.74590067654E+01 -0.18401254720E+01  0.22296165549E+02  0.51100000000E-03 0.  1.
        -11    1    3    3    0    0  0.95247315409E+01 -0.96292467345E+01  0.46509983464E+00  0.13552092891E+02  0.51100000000E-03 0. -1.
         12    1    3    3    0    0  0.91240574460E+01  0.11465543241E+02  0.90146044454E+00  0.14680590486E+02  0.00000000000E+00 0. -1.
</event>
<event>
 7    1  0.2746803E-013  0.5052888E+02  0.7816164E-02  0.1300439E+00
        -11   -1    0    0    0    0  0.00000000000E+00  0.00000000000E+00  0.45593999997E+02  0.45594000000E+02  0.51100000000E-03 0. -1.
         11   -1    0    0    0    0 -0.00000000000E+00 -0.00000000000E+00 -0.45593999997E+02  0.45594000000E+02  0.51100000000E-03 0.  1.
    9900012    2    1    2    0    0 -0.11397883516E+01 -0.39926129137E+02 -0.76006070284E+01  0.50528878851E+02  0.30000057757E+02 0.  0.
         12    1    1    2    0    0  0.11397883516E+01  0.39926129137E+02  0.76006070284E+01  0.40659121149E+02  0.00000000000E+00 0. -1.
         11    1    3    3    0    0  0.43004870318E+01 -0.24993867571E+02 -0.80719070806E+01  0.26614719406E+02  0.51100000000E-03 0.  1.
        -11    1    3    3    0    0  0.27987111760E+01 -0.35851499798E+01  0.70777277336E+01  0.84131037528E+01  0.51100000000E-03 0. -1.
         12    1    3    3    0    0 -0.82389865594E+01 -0.11347111587E+02 -0.66064276814E+01  0.15501055693E+02  0.00000000000E+00 0. -1.
</event>
<event>
 7    1  0.2746803E-013  0.5052885E+02  0.7816164E-02  0.1300439E+00
        -11   -1    0    0    0    0  0.00000000000E+00  0.00000000000E+00  0.45593999997E+02  0.45594000000E+02  0.51100000000E-03 0.  1.
         11   -1    0    0    0    0 -0.00000000000E+00 -0.00000000000E+00 -0.45593999997E+02  0.45594000000E+02  0.51100000000E-03 0. -1.
    9900012    2    1    2    0    0  0.30270106743E+01 -0.11742295250E+02  0.38808786946E+02  0.50528852989E+02  0.29999979147E+02 0.  0.
         12    1    1    2    0    0 -0.30270106743E+01  0.11742295250E+02 -0.38808786946E+02  0.40659147011E+02  0.00000000000E+00 0. -1.
         11    1    3    3    0    0 -0.22174521024E+01 -0.31065923519E+01  0.23146011258E+02  0.23458598579E+02  0.51100000000E-03 0. -1.
        -11    1    3    3    0    0 -0.19416740116E+01 -0.74654295108E+01  0.17868702964E+02  0.19462612405E+02  0.51100000000E-03 0.  1.
        -12    1    3    3    0    0  0.71861367883E+01 -0.11702733876E+01 -0.22059272755E+01  0.76076420057E+01  0.00000000000E+00 0.  1.
</event>
<event>
 7    1  0.2746803E-013  0.5052886E+02  0.7816164E-02  0.1300439E+00
        -11   -1    0    0    0    0  0.00000000000E+00  0.00000000000E+00  0.45593999997E+02  0.45594000000E+02  0.51100000000E-03 0.  1.
         11   -1    0    0    0    0 -0.00000000000E+00 -0.00000000000E+00 -0.45593999997E+02  0.45594000000E+02  0.51100000000E-03 0. -1.
    9900012    2    1    2    0    0  0.29148626181E+02 -0.11683821623E+02  0.25826560001E+02  0.50528864526E+02  0.30000014215E+02 0.  0.
         12    1    1    2    0    0 -0.29148626181E+02  0.11683821623E+02 -0.25826560001E+02  0.40659135474E+02  0.00000000000E+00 0. -1.
         11    1    3    3    0    0  0.38438172906E+01 -0.10194788055E+01  0.94764727419E+01  0.10277052315E+02  0.51100000000E-03 0. -1.
        -11    1    3    3    0    0  0.90220967276E+01 -0.17049900630E+02  0.87670157473E+01  0.21188626813E+02  0.51100000000E-03 0.  1.
        -12    1    3    3    0    0  0.16282712163E+02  0.63855578128E+01  0.75830715119E+01  0.19063185398E+02  0.00000000000E+00 0.  1.
</event>
<event>
 7    1  0.2746803E-013  0.5052886E+02  0.7816164E-02  0.1300439E+00
        -11   -1    0    0    0    0  0.00000000000E+00  0.00000000000E+00  0.45593999997E+02  0.45594000000E+02  0.51100000000E-03 0.  1.
         11   -1    0    0    0    0 -0.00000000000E+00 -0.00000000000E+00 -0.45593999997E+02  0.45594000000E+02  0.51100000000E-03 0. -1.
    9900012    2    1    2    0    0 -0.64361086872E+01 -0.39385349921E+02  0.77804887130E+01  0.50528864643E+02  0.30000014568E+02 0.  0.
         12    1    1    2    0    0  0.64361086872E+01  0.39385349921E+02 -0.77804887130E+01  0.40659135357E+02  0.00000000000E+00 0. -1.
         11    1    3    3    0    0  0.53833556391E+01 -0.63235802425E+01  0.84470579337E+00  0.83475573169E+01  0.51100000000E-03 0. -1.
        -11    1    3    3    0    0 -0.63935165560E+01 -0.26631251021E+02  0.14391949652E+02  0.30939114401E+02  0.51100000000E-03 0.  1.
         12    1    3    3    0    0 -0.54259477703E+01 -0.64305186574E+01 -0.74561667326E+01  0.11242192925E+02  0.00000000000E+00 0. -1.
</event>
<event>
 7    1  0.2746803E-013  0.5052885E+02  0.7816164E-02  0.1300439E+00
        -11   -1    0    0    0    0  0.00000000000E+00  0.00000000000E+00  0.45593999997E+02  0.45594000000E+02  0.51100000000E-03 0.  1.
         11   -1    0    0    0    0 -0.00000000000E+00 -0.00000000000E+00 -0.45593999997E+02  0.45594000000E+02  0.51100000000E-03 0. -1.
    9900012    2    1    2    0    0  0.36055396067E+02  0.50998686099E+01 -0.18087728274E+02  0.50528853926E+02  0.29999981993E+02 0.  0.
         12    1    1    2    0    0 -0.36055396067E+02 -0.50998686099E+01  0.18087728274E+02  0.40659146074E+02  0.00000000000E+00 0. -1.
         11    1    3    3    0    0 -0.52172793203E-01  0.19682791736E+01 -0.75222687067E+01  0.77756910730E+01  0.51100000000E-03 0. -1.
        -11    1    3    3    0    0  0.17834881031E+02  0.11455032490E+02 -0.72491337790E+01  0.22402024273E+02  0.51100000000E-03 0.  1.
         12    1    3    3    0    0  0.18272687829E+02 -0.83234430534E+01 -0.33163257882E+01  0.20351138579E+02  0.00000000000E+00 0. -1.
</event>
<event>
 7    1  0.2746803E-013  0.5052887E+02  0.7816164E-02  0.1300439E+00
        -11   -1    0    0    0    0  0.00000000000E+00  0.00000000000E+00  0.45593999997E+02  0.45594000000E+02  0.51100000000E-03 0.  1.
         11   -1    0    0    0    0 -0.00000000000E+00 -0.00000000000E+00 -0.45593999997E+02  0.45594000000E+02  0.51100000000E-03 0. -1.
    9900012    2    1    2    0    0  0.48016156538E+01 -0.17807776788E+02  0.36235233813E+02  0.50528873147E+02  0.30000040416E+02 0.  0.
         12    1    1    2    0    0 -0.48016156538E+01  0.17807776788E+02 -0.36235233813E+02  0.40659126853E+02  0.00000000000E+00 0. -1.
         11    1    3    3    0    0 -0.57160715035E+01 -0.41887305579E+00  0.15244844528E+02  0.16286626815E+02  0.51100000000E-03 0. -1.
        -11    1    3    3    0    0  0.67272445993E+01 -0.24702739941E+00  0.13637881842E+02  0.15208835059E+02  0.51100000000E-03 0.  1.
        -12    1    3    3    0    0  0.37904425580E+01 -0.17141876333E+02  0.73525074426E+01  0.19033411273E+02  0.00000000000E+00 0.  1.
</event>
<event>
 7    1  0.2746803E-013  0.5052886E+02  0.7816164E-02  0.1300439E+00
        -11   -1    0    0    0    0  0.00000000000E+00  0.00000000000E+00  0.45593999997E+02  0.45594000000E+02  0.51100000000E-03 0.  1.
         11   -1    0    0    0    0 -0.00000000000E+00 -0.00000000000E+00 -0.45593999997E+02  0.45594000000E+02  0.51100000000E-03 0. -1.
    9900012    2    1    2    0    0 -0.33971782819E+02  0.18251022125E+02  0.12883485097E+02  0.50528855582E+02  0.29999987028E+02 0.  0.
         12    1    1    2    0    0  0.33971782819E+02 -0.18251022125E+02 -0.12883485097E+02  0.40659144418E+02  0.00000000000E+00 0. -1.
         11    1    3    3    0    0  0.20214562207E+01  0.22598235525E+01  0.37339931166E+00  0.30549165369E+01  0.51100000000E-03 0. -1.
        -11    1    3    3    0    0 -0.97031278814E+01  0.17398012464E+00  0.13677009173E+02  0.16770257599E+02  0.51100000000E-03 0.  1.
         12    1    3    3    0    0 -0.26290111158E+02  0.15817218448E+02 -0.11669233879E+01  0.30703681446E+02  0.00000000000E+00 0. -1.
</event>
<event>
 7    1  0.2746803E-013  0.5052885E+02  0.7816164E-02  0.1300439E+00
        -11   -1    0    0    0    0  0.00000000000E+00  0.00000000000E+00  0.45593999997E+02  0.45594000000E+02  0.51100000000E-03 0. -1.
         11   -1    0    0    0    0 -0.00000000000E+00 -0.00000000000E+00 -0.45593999997E+02  0.45594000000E+02  0.51100000000E-03 0.  1.
    9900012    2    1    2    0    0  0.20369746072E+02 -0.17406645960E+02 -0.30581838555E+02  0.50528846934E+02  0.29999960742E+02 0.  0.
         12    1    1    2    0    0 -0.20369746072E+02  0.17406645960E+02  0.30581838555E+02  0.40659153066E+02  0.00000000000E+00 0. -1.
         11    1    3    3    0    0 -0.47800294921E+01 -0.48511741379E+01 -0.34614168743E+01  0.76396321574E+01  0.51100000000E-03 0. -1.
        -11    1    3    3    0    0  0.61612935581E+01 -0.12670168432E+02 -0.95671975077E+01  0.17030148996E+02  0.51100000000E-03 0.  1.
         12    1    3    3    0    0  0.18988482006E+02  0.11469661000E+00 -0.17553224173E+02  0.25859065781E+02  0.00000000000E+00 0. -1.
</event>
<event>
 7    1  0.2746803E-013  0.5052885E+02  0.7816164E-02  0.1300439E+00
        -11   -1    0    0    0    0  0.00000000000E+00  0.00000000000E+00  0.45593999997E+02  0.45594000000E+02  0.51100000000E-03 0.  1.
         11   -1    0    0    0    0 -0.00000000000E+00 -0.00000000000E+00 -0.45593999997E+02  0.45594000000E+02  0.51100000000E-03 0. -1.
    9900012    2    1    2    0    0 -0.38093392870E+01 -0.11779697519E+02  0.38728463535E+02  0.50528853092E+02  0.29999979460E+02 0.  0.
         12    1    1    2    0    0  0.38093392870E+01  0.11779697519E+02 -0.38728463535E+02  0.40659146908E+02  0.00000000000E+00 0. -1.
         11    1    3    3    0    0 -0.34274710627E+01 -0.11838866084E+02  0.31530537117E+01  0.12721951737E+02  0.51100000000E-03 0. -1.
        -11    1    3    3    0    0  0.56993059946E+01  0.22729776737E+01  0.14091048448E+02  0.15369000064E+02  0.51100000000E-03 0.  1.
        -12    1    3    3    0    0 -0.60811742189E+01 -0.22138091091E+01  0.21484361375E+02  0.22437901291E+02  0.00000000000E+00 0.  1.
</event>
<event>
 7    1  0.2746803E-013  0.5052886E+02  0.7816164E-02  0.1300439E+00
        -11   -1    0    0    0    0  0.00000000000E+00  0.00000000000E+00  0.45593999997E+02  0.45594000000E+02  0.51100000000E-03 0.  1.
         11   -1    0    0    0    0 -0.00000000000E+00 -0.00000000000E+00 -0.45593999997E+02  0.45594000000E+02  0.51100000000E-03 0. -1.
    9900012    2    1    2    0    0 -0.15891860563E+01 -0.40593144295E+02  0.16842593874E+01  0.50528860735E+02  0.30000002691E+02 0.  0.
         12    1    1    2    0    0  0.15891860563E+01  0.40593144295E+02 -0.16842593874E+01  0.40659139265E+02  0.00000000000E+00 0. -1.
         11    1    3    3    0    0  0.45369064058E+01 -0.19879303334E+02 -0.65594326956E+01  0.21419532636E+02  0.51100000000E-03 0. -1.
        -11    1    3    3    0    0  0.86449238852E+00 -0.12366341826E+01  0.82792156085E+01  0.84155821275E+01  0.51100000000E-03 0.  1.
         12    1    3    3    0    0 -0.69905848506E+01 -0.19477206778E+02 -0.35523525445E-01  0.20693745972E+02  0.00000000000E+00 0. -1.
</event>
<event>
 7    1  0.2746803E-013  0.5052887E+02  0.7816164E-02  0.1300439E+00
        -11   -1    0    0    0    0  0.00000000000E+00  0.00000000000E+00  0.45593999997E+02  0.45594000000E+02  0.51100000000E-03 0.  1.
         11   -1    0    0    0    0 -0.00000000000E+00 -0.00000000000E+00 -0.45593999997E+02  0.45594000000E+02  0.51100000000E-03 0. -1.
    9900012    2    1    2    0    0 -0.20342825781E+02 -0.27210478904E+02  0.22336618614E+02  0.50528865060E+02  0.30000015835E+02 0.  0.
         12    1    1    2    0    0  0.20342825781E+02  0.27210478904E+02 -0.22336618614E+02  0.40659134940E+02  0.00000000000E+00 0. -1.
         11    1    3    3    0    0 -0.40438259413E+01  0.52678420506E+01 -0.33181907115E+00  0.66492700554E+01  0.51100000000E-03 0. -1.
        -11    1    3    3    0    0 -0.49594219827E+01 -0.59073081793E+01  0.91979023157E+01  0.12003897850E+02  0.51100000000E-03 0.  1.
        -12    1    3    3    0    0 -0.11339577857E+02 -0.26571012776E+02  0.13470535370E+02  0.31875697154E+02  0.00000000000E+00 0.  1.
</event>
<event>
 7    1  0.2746803E-013  0.5052885E+02  0.7816164E-02  0.1300439E+00
        -11   -1    0    0    0    0  0.00000000000E+00  0.00000000000E+00  0.45593999997E+02  0.45594000000E+02  0.51100000000E-03 0.  1.
         11   -1    0    0    0    0 -0.00000000000E+00 -0.00000000000E+00 -0.45593999997E+02  0.45594000000E+02  0.51100000000E-03 0. -1.
    9900012    2    1    2    0    0 -0.32307214982E+02  0.17668753006E+02  0.17240228295E+02  0.50528850423E+02  0.29999971346E+02 0.  0.
         12    1    1    2    0    0  0.32307214982E+02 -0.17668753006E+02 -0.17240228295E+02  0.40659149577E+02  0.00000000000E+00 0. -1.
         11    1    3    3    0    0 -0.92499589554E+01  0.79792715662E+00  0.11593045589E+02  0.14852512741E+02  0.51100000000E-03 0. -1.
        -11    1    3    3    0    0 -0.13847009554E+02  0.15203606493E+02  0.12509562901E+02  0.24070282263E+02  0.51100000000E-03 0.  1.
        -12    1    3    3    0    0 -0.92102464727E+01  0.16672193562E+01 -0.68623801947E+01  0.11606055420E+02  0.00000000000E+00 0.  1.
</event>
<event>
 7    1  0.2746803E-013  0.5052873E+02  0.7816164E-02  0.1300439E+00
        -11   -1    0    0    0    0  0.00000000000E+00  0.00000000000E+00  0.45593999997E+02  0.45594000000E+02  0.51100000000E-03 0. -1.
         11   -1    0    0    0    0 -0.00000000000E+00 -0.00000000000E+00 -0.45593999997E+02  0.45594000000E+02  0.51100000000E-03 0.  1.
    9900012    2    1    2    0    0 -0.36209612515E+02 -0.14348665474E+02  0.11668578715E+02  0.50528733299E+02  0.29999615335E+02 0.  0.
         12    1    1    2    0    0  0.36209612515E+02  0.14348665474E+02 -0.11668578715E+02  0.40659266701E+02  0.00000000000E+00 0. -1.
         11    1    3    3    0    0  0.31843064342E+01  0.50550973793E+00 -0.18818683502E+01  0.37331992059E+01  0.51100000000E-03 0. -1.
        -11    1    3    3    0    0 -0.77855170717E-01 -0.69375559984E+00 -0.20688874287E+01  0.21834957554E+01  0.51100000000E-03 0.  1.
        -12    1    3    3    0    0 -0.39316063779E+02 -0.14160419612E+02  0.15619334494E+02  0.44612038338E+02  0.00000000000E+00 0.  1.
</event>
<event>
 7    1  0.2746803E-013  0.5052885E+02  0.7816164E-02  0.1300439E+00
        -11   -1    0    0    0    0  0.00000000000E+00  0.00000000000E+00  0.45593999997E+02  0.45594000000E+02  0.51100000000E-03 0.  1.
         11   -1    0    0    0    0 -0.00000000000E+00 -0.00000000000E+00 -0.45593999997E+02  0.45594000000E+02  0.51100000000E-03 0. -1.
    9900012    2    1    2    0    0 -0.19550376377E+02 -0.67223282734E+01  0.35010848506E+02  0.50528850636E+02  0.29999971994E+02 0.  0.
         12    1    1    2    0    0  0.19550376377E+02  0.67223282734E+01 -0.35010848506E+02  0.40659149364E+02  0.00000000000E+00 0. -1.
         11    1    3    3    0    0 -0.80629575364E+01 -0.78011786784E+01  0.13454455966E+02  0.17518334927E+02  0.51100000000E-03 0. -1.
        -11    1    3    3    0    0 -0.65335342048E+01 -0.70926172885E+01  0.23549075910E+00  0.96461259252E+01  0.51100000000E-03 0.  1.
         12    1    3    3    0    0 -0.49538846356E+01  0.81714676935E+01  0.21320901780E+02  0.23364389784E+02  0.00000000000E+00 0. -1.
</event>
<event>
 7    1  0.2746803E-013  0.5052886E+02  0.7816164E-02  0.1300439E+00
        -11   -1    0    0    0    0  0.00000000000E+00  0.00000000000E+00  0.45593999997E+02  0.45594000000E+02  0.51100000000E-03 0.  1.
         11   -1    0    0    0    0 -0.00000000000E+00 -0.00000000000E+00 -0.45593999997E+02  0.45594000000E+02  0.51100000000E-03 0. -1.
    9900012    2    1    2    0    0 -0.38002940226E+02  0.12135779458E+02  0.78527080166E+01  0.50528860412E+02  0.30000001707E+02 0.  0.
         12    1    1    2    0    0  0.38002940226E+02 -0.12135779458E+02 -0.78527080166E+01  0.40659139588E+02  0.00000000000E+00 0. -1.
         11    1    3    3    0    0 -0.66960891689E+01 -0.60648876275E+01  0.53048762720E+01  0.10476744944E+02  0.51100000000E-03 0. -1.
        -11    1    3    3    0    0 -0.79475726321E+01  0.95976516405E+01  0.76769505493E+01  0.14636064968E+02  0.51100000000E-03 0.  1.
         12    1    3    3    0    0 -0.23359278425E+02  0.86030154450E+01 -0.51291188048E+01  0.25416050500E+02  0.00000000000E+00 0. -1.
</event>
<event>
 7    1  0.2746803E-013  0.5052887E+02  0.7816164E-02  0.1300439E+00
        -11   -1    0    0    0    0  0.00000000000E+00  0.00000000000E+00  0.45593999997E+02  0.45594000000E+02  0.51100000000E-03 0. -1.
         11   -1    0    0    0    0 -0.00000000000E+00 -0.00000000000E+00 -0.45593999997E+02  0.45594000000E+02  0.51100000000E-03 0.  1.
    9900012    2    1    2    0    0 -0.33172555795E+02  0.76563255477E+01 -0.22228977126E+02  0.50528865689E+02  0.30000017747E+02 0.  0.
         12    1    1    2    0    0  0.33172555795E+02 -0.76563255477E+01  0.22228977126E+02  0.40659134311E+02  0.00000000000E+00 0. -1.
         11    1    3    3    0    0 -0.63047298181E+01 -0.62722055065E+01 -0.87766416724E+01  0.12494783684E+02  0.51100000000E-03 0. -1.
        -11    1    3    3    0    0 -0.10613788926E+02  0.98815657128E+01 -0.15421028135E+02  0.21168513536E+02  0.51100000000E-03 0.  1.
        -12    1    3    3    0    0 -0.16254037051E+02  0.40469653415E+01  0.19686926814E+01  0.16865568469E+02  0.00000000000E+00 0.  1.
</event>
<event>
 7    1  0.2746803E-013  0.5052886E+02  0.7816164E-02  0.1300439E+00
        -11   -1    0    0    0    0  0.00000000000E+00  0.00000000000E+00  0.45593999997E+02  0.45594000000E+02  0.51100000000E-03 0.  1.
         11   -1    0    0    0    0 -0.00000000000E+00 -0.00000000000E+00 -0.45593999997E+02  0.45594000000E+02  0.51100000000E-03 0. -1.
    9900012    2    1    2    0    0  0.26542000262E+02 -0.19869577125E+02  0.23534812953E+02  0.50528864572E+02  0.30000014354E+02 0.  0.
         12    1    1    2    0    0 -0.26542000262E+02  0.19869577125E+02 -0.23534812953E+02  0.40659135428E+02  0.00000000000E+00 0. -1.
         11    1    3    3    0    0  0.13911016234E+02 -0.13696034649E+02  0.80007636322E+01  0.21097629173E+02  0.51100000000E-03 0. -1.
        -11    1    3    3    0    0  0.13690123468E+02 -0.12331673716E+02  0.13563926570E+02  0.22879461565E+02  0.51100000000E-03 0.  1.
         12    1    3    3    0    0 -0.10591394407E+01  0.61581312402E+01  0.19701227505E+01  0.65517738345E+01  0.00000000000E+00 0. -1.
</event>
<event>
 7    1  0.2746803E-013  0.5052886E+02  0.7816164E-02  0.1300439E+00
        -11   -1    0    0    0    0  0.00000000000E+00  0.00000000000E+00  0.45593999997E+02  0.45594000000E+02  0.51100000000E-03 0. -1.
         11   -1    0    0    0    0 -0.00000000000E+00 -0.00000000000E+00 -0.45593999997E+02  0.45594000000E+02  0.51100000000E-03 0.  1.
    9900012    2    1    2    0    0 -0.40520477274E+02 -0.18990240383E+01  0.27658720147E+01  0.50528863034E+02  0.30000009677E+02 0.  0.
         12    1    1    2    0    0  0.40520477274E+02  0.18990240383E+01 -0.27658720147E+01  0.40659136966E+02  0.00000000000E+00 0. -1.
         11    1    3    3    0    0 -0.12490674283E+02  0.40095421716E+01  0.10156424576E+02  0.16590549506E+02  0.51100000000E-03 0. -1.
        -11    1    3    3    0    0 -0.71853592843E+01 -0.51494468755E+01  0.45099070751E+01  0.99239837392E+01  0.51100000000E-03 0.  1.
         12    1    3    3    0    0 -0.20844443708E+02 -0.75911933438E+00 -0.11900459637E+02  0.24014329789E+02  0.00000000000E+00 0. -1.
</event>
<event>
 7    1  0.2746803E-013  0.5052886E+02  0.7816164E-02  0.1300439E+00
        -11   -1    0    0    0    0  0.00000000000E+00  0.00000000000E+00  0.45593999997E+02  0.45594000000E+02  0.51100000000E-03 0.  1.
         11   -1    0    0    0    0 -0.00000000000E+00 -0.00000000000E+00 -0.45593999997E+02  0.45594000000E+02  0.51100000000E-03 0. -1.
    9900012    2    1    2    0    0 -0.14935761365E+02  0.32140549397E+02  0.19926705866E+02  0.50528862162E+02  0.30000007027E+02 0.  0.
         12    1    1    2    0    0  0.14935761365E+02 -0.32140549397E+02 -0.19926705866E+02  0.40659137838E+02  0.00000000000E+00 0. -1.
         11    1    3    3    0    0 -0.98030884666E+01  0.10513902780E+02 -0.10341283136E+01  0.14412221092E+02  0.51100000000E-03 0. -1.
        -11    1    3    3    0    0  0.19749707124E+01  0.99678722389E+01 -0.10486598496E+01  0.10215609332E+02  0.51100000000E-03 0.  1.
        -12    1    3    3    0    0 -0.71076436112E+01  0.11658774377E+02  0.22009494029E+02  0.25901031738E+02  0.00000000000E+00 0.  1.
</event>
<event>
 7    1  0.2746803E-013  0.5052886E+02  0.7816164E-02  0.1300439E+00
        -11   -1    0    0    0    0  0.00000000000E+00  0.00000000000E+00  0.45593999997E+02  0.45594000000E+02  0.51100000000E-03 0. -1.
         11   -1    0    0    0    0 -0.00000000000E+00 -0.00000000000E+00 -0.45593999997E+02  0.45594000000E+02  0.51100000000E-03 0.  1.
    9900012    2    1    2    0    0  0.36902942640E+02 -0.11294799169E+02 -0.12797112007E+02  0.50528859091E+02  0.29999997693E+02 0.  0.
         12    1    1    2    0    0 -0.36902942640E+02  0.11294799169E+02  0.12797112007E+02  0.40659140909E+02  0.00000000000E+00 0. -1.
         11    1    3    3    0    0  0.41252383173E+01  0.35683198358E+01  0.32849684306E+01  0.63672219591E+01  0.51100000000E-03 0. -1.
        -11    1    3    3    0    0  0.39535508272E+01  0.27049711786E+01 -0.82013743379E+01  0.94978931617E+01  0.51100000000E-03 0.  1.
        -12    1    3    3    0    0  0.28824153495E+02 -0.17568090184E+02 -0.78807060995E+01  0.34663743970E+02  0.00000000000E+00 0.  1.
</event>
<event>
 7    1  0.2746803E-013  0.5052886E+02  0.7816164E-02  0.1300439E+00
        -11   -1    0    0    0    0  0.00000000000E+00  0.00000000000E+00  0.45593999997E+02  0.45594000000E+02  0.51100000000E-03 0. -1.
         11   -1    0    0    0    0 -0.00000000000E+00 -0.00000000000E+00 -0.45593999997E+02  0.45594000000E+02  0.51100000000E-03 0.  1.
    9900012    2    1    2    0    0 -0.31223147196E+02 -0.19845058250E+02 -0.16865777723E+02  0.50528859380E+02  0.29999998570E+02 0.  0.
         12    1    1    2    0    0  0.31223147196E+02  0.19845058250E+02  0.16865777723E+02  0.40659140620E+02  0.00000000000E+00 0. -1.
         11    1    3    3    0    0 -0.92714835911E+01 -0.42584281200E+01  0.51259716989E+01  0.11417977236E+02  0.51100000000E-03 0. -1.
        -11    1    3    3    0    0 -0.35999423529E+01 -0.73820200811E-02 -0.12876281041E+02  0.13370050603E+02  0.51100000000E-03 0.  1.
         12    1    3    3    0    0 -0.18351721252E+02 -0.15579248110E+02 -0.91154683817E+01  0.25740831541E+02  0.00000000000E+00 0. -1.
</event>
<event>
 7    1  0.2746803E-013  0.5052886E+02  0.7816164E-02  0.1300439E+00
        -11   -1    0    0    0    0  0.00000000000E+00  0.00000000000E+00  0.45593999997E+02  0.45594000000E+02  0.51100000000E-03 0.  1.
         11   -1    0    0    0    0 -0.00000000000E+00 -0.00000000000E+00 -0.45593999997E+02  0.45594000000E+02  0.51100000000E-03 0. -1.
    9900012    2    1    2    0    0  0.59286143483E+01  0.35487307227E+02  0.18938532655E+02  0.50528862510E+02  0.30000008085E+02 0.  0.
         12    1    1    2    0    0 -0.59286143483E+01 -0.35487307227E+02 -0.18938532655E+02  0.40659137490E+02  0.00000000000E+00 0. -1.
         11    1    3    3    0    0 -0.42826023024E+01  0.21199821058E+02  0.50572180336E+01  0.22211450873E+02  0.51100000000E-03 0. -1.
        -11    1    3    3    0    0  0.85599180683E+01  0.17770478304E+02  0.79994845478E+01  0.21285061658E+02  0.51100000000E-03 0.  1.
         12    1    3    3    0    0  0.16512985824E+01 -0.34829921345E+01  0.58818300734E+01  0.70323499792E+01  0.00000000000E+00 0. -1.
</event>
<event>
 7    1  0.2746803E-013  0.5052886E+02  0.7816164E-02  0.1300439E+00
        -11   -1    0    0    0    0  0.00000000000E+00  0.00000000000E+00  0.45593999997E+02  0.45594000000E+02  0.51100000000E-03 0.  1.
         11   -1    0    0    0    0 -0.00000000000E+00 -0.00000000000E+00 -0.45593999997E+02  0.45594000000E+02  0.51100000000E-03 0. -1.
    9900012    2    1    2    0    0 -0.11801315730E+02  0.15979055093E+02  0.35476253324E+02  0.50528858291E+02  0.29999995262E+02 0.  0.
         12    1    1    2    0    0  0.11801315730E+02 -0.15979055093E+02 -0.35476253324E+02  0.40659141709E+02  0.00000000000E+00 0. -1.
         11    1    3    3    0    0 -0.69463472581E+01  0.78709432724E+01  0.99505760891E+01  0.14464351109E+02  0.51100000000E-03 0. -1.
        -11    1    3    3    0    0 -0.51071934993E+01 -0.23688654357E+01 -0.24877088403E+01  0.61549690842E+01  0.51100000000E-03 0.  1.
        -12    1    3    3    0    0  0.25222502777E+00  0.10476977256E+02  0.28013386075E+02  0.29909538098E+02  0.00000000000E+00 0.  1.
</event>
<event>
 7    1  0.2746803E-013  0.5052886E+02  0.7816164E-02  0.1300439E+00
        -11   -1    0    0    0    0  0.00000000000E+00  0.00000000000E+00  0.45593999997E+02  0.45594000000E+02  0.51100000000E-03 0. -1.
         11   -1    0    0    0    0 -0.00000000000E+00 -0.00000000000E+00 -0.45593999997E+02  0.45594000000E+02  0.51100000000E-03 0.  1.
    9900012    2    1    2    0    0  0.67302895446E+00 -0.26942760896E+02 -0.30443396138E+02  0.50528859563E+02  0.29999999128E+02 0.  0.
         12    1    1    2    0    0 -0.67302895446E+00  0.26942760896E+02  0.30443396138E+02  0.40659140437E+02  0.00000000000E+00 0. -1.
         11    1    3    3    0    0  0.45170816473E+01  0.25637420728E+01 -0.42513492425E-01  0.51940935381E+01  0.51100000000E-03 0. -1.
        -11    1    3    3    0    0  0.60593050633E+01 -0.96776140027E+01 -0.11501061844E+02  0.16206351053E+02  0.51100000000E-03 0.  1.
        -12    1    3    3    0    0 -0.99033577562E+01 -0.19828888966E+02 -0.18899820801E+02  0.29128414972E+02  0.00000000000E+00 0.  1.
</event>
<event>
 7    1  0.2746803E-013  0.5052886E+02  0.7816164E-02  0.1300439E+00
        -11   -1    0    0    0    0  0.00000000000E+00  0.00000000000E+00  0.45593999997E+02  0.45594000000E+02  0.51100000000E-03 0.  1.
         11   -1    0    0    0    0 -0.00000000000E+00 -0.00000000000E+00 -0.45593999997E+02  0.45594000000E+02  0.51100000000E-03 0. -1.
    9900012    2    1    2    0    0 -0.90221534694E+01  0.38873478144E+02  0.77858375341E+01  0.50528858072E+02  0.29999994596E+02 0.  0.
         12    1    1    2    0    0  0.90221534694E+01 -0.38873478144E+02 -0.77858375341E+01  0.40659141928E+02  0.00000000000E+00 0. -1.
         11    1    3    3    0    0 -0.43387079256E+01  0.12489978203E+02 -0.55087881304E+01  0.14323780538E+02  0.51100000000E-03 0.  1.
        -11    1    3    3    0    0 -0.65223931582E+01 -0.52548240834E+00  0.12305994895E+01  0.66582369766E+01  0.51100000000E-03 0. -1.
        -12    1    3    3    0    0  0.18389476144E+01  0.26908982349E+02  0.12064026175E+02  0.29546840558E+02  0.00000000000E+00 0.  1.
</event>
<event>
 7    1  0.2746803E-013  0.5052886E+02  0.7816164E-02  0.1300439E+00
        -11   -1    0    0    0    0  0.00000000000E+00  0.00000000000E+00  0.45593999997E+02  0.45594000000E+02  0.51100000000E-03 0.  1.
         11   -1    0    0    0    0 -0.00000000000E+00 -0.00000000000E+00 -0.45593999997E+02  0.45594000000E+02  0.51100000000E-03 0. -1.
    9900012    2    1    2    0    0  0.82310488424E+01 -0.99248151839E+01  0.38560518014E+02  0.50528859933E+02  0.30000000252E+02 0.  0.
         12    1    1    2    0    0 -0.82310488424E+01  0.99248151839E+01 -0.38560518014E+02  0.40659140067E+02  0.00000000000E+00 0. -1.
         11    1    3    3    0    0  0.27692261638E-01 -0.49226890097E+01 -0.11686419964E+00  0.49241538816E+01  0.51100000000E-03 0. -1.
        -11    1    3    3    0    0  0.15756796231E+02 -0.14729666327E+01  0.25430313506E+02  0.29952413984E+02  0.51100000000E-03 0.  1.
         12    1    3    3    0    0 -0.75534396506E+01 -0.35291595414E+01  0.13247068707E+02  0.15652292067E+02  0.00000000000E+00 0. -1.
</event>
<event>
 7    1  0.2746803E-013  0.5052885E+02  0.7816164E-02  0.1300439E+00
        -11   -1    0    0    0    0  0.00000000000E+00  0.00000000000E+00  0.45593999997E+02  0.45594000000E+02  0.51100000000E-03 0.  1.
         11   -1    0    0    0    0 -0.00000000000E+00 -0.00000000000E+00 -0.45593999997E+02  0.45594000000E+02  0.51100000000E-03 0. -1.
    9900012    2    1    2    0    0  0.12785462228E+02 -0.11326130565E+02  0.36897383255E+02  0.50528853809E+02  0.29999981637E+02 0.  0.
         12    1    1    2    0    0 -0.12785462228E+02  0.11326130565E+02 -0.36897383255E+02  0.40659146191E+02  0.00000000000E+00 0. -1.
         11    1    3    3    0    0  0.77122054231E+01  0.19201796520E+01  0.80067306784E+01  0.11281530871E+02  0.51100000000E-03 0. -1.
        -11    1    3    3    0    0 -0.56737502297E+01 -0.50569525668E+01  0.23502743045E+02  0.24701075722E+02  0.51100000000E-03 0.  1.
         12    1    3    3    0    0  0.10747007035E+02 -0.81893576506E+01  0.53879095315E+01  0.14546247215E+02  0.00000000000E+00 0. -1.
</event>
<event>
 7    1  0.2746803E-013  0.5052886E+02  0.7816164E-02  0.1300439E+00
        -11   -1    0    0    0    0  0.00000000000E+00  0.00000000000E+00  0.45593999997E+02  0.45594000000E+02  0.51100000000E-03 0.  1.
         11   -1    0    0    0    0 -0.00000000000E+00 -0.00000000000E+00 -0.45593999997E+02  0.45594000000E+02  0.51100000000E-03 0. -1.
    9900012    2    1    2    0    0 -0.20131439049E+02  0.30033106912E+02  0.18598484430E+02  0.50528856230E+02  0.29999988998E+02 0.  0.
         12    1    1    2    0    0  0.20131439049E+02 -0.30033106912E+02 -0.18598484430E+02  0.40659143770E+02  0.00000000000E+00 0. -1.
         11    1    3    3    0    0 -0.33409607533E+01  0.18158521803E+02  0.18502698746E+01  0.18555792402E+02  0.51100000000E-03 0. -1.
        -11    1    3    3    0    0 -0.10840017850E+02  0.15566945182E+02  0.16205629030E+02  0.24949111844E+02  0.51100000000E-03 0.  1.
        -12    1    3    3    0    0 -0.59504604459E+01 -0.36923600723E+01  0.54258552494E+00  0.70239519839E+01  0.00000000000E+00 0.  1.
</event>
<event>
 7    1  0.2746803E-013  0.5052889E+02  0.7816164E-02  0.1300439E+00
        -11   -1    0    0    0    0  0.00000000000E+00  0.00000000000E+00  0.45593999997E+02  0.45594000000E+02  0.51100000000E-03 0. -1.
         11   -1    0    0    0    0 -0.00000000000E+00 -0.00000000000E+00 -0.45593999997E+02  0.45594000000E+02  0.51100000000E-03 0.  1.
    9900012    2    1    2    0    0 -0.39428081007E+02 -0.44103883234E+01 -0.88959450649E+01  0.50528893570E+02  0.30000102496E+02 0.  0.
         12    1    1    2    0    0  0.39428081007E+02  0.44103883234E+01  0.88959450649E+01  0.40659106430E+02  0.00000000000E+00 0. -1.
         11    1    3    3    0    0 -0.87238974516E+01 -0.19432135314E+01 -0.61758683714E+01  0.10863876655E+02  0.51100000000E-03 0.  1.
        -11    1    3    3    0    0 -0.19295520153E+01  0.30509264537E+01  0.77516093308E+01  0.85509514490E+01  0.51100000000E-03 0. -1.
         12    1    3    3    0    0 -0.28774631540E+02 -0.55181012457E+01 -0.10471686024E+02  0.31114065466E+02  0.00000000000E+00 0. -1.
</event>
<event>
 7    1  0.2746803E-013  0.5052886E+02  0.7816164E-02  0.1300439E+00
        -11   -1    0    0    0    0  0.00000000000E+00  0.00000000000E+00  0.45593999997E+02  0.45594000000E+02  0.51100000000E-03 0.  1.
         11   -1    0    0    0    0 -0.00000000000E+00 -0.00000000000E+00 -0.45593999997E+02  0.45594000000E+02  0.51100000000E-03 0. -1.
    9900012    2    1    2    0    0 -0.24843274401E+02 -0.32145035317E+02  0.16353058984E+01  0.50528858299E+02  0.29999995285E+02 0.  0.
         12    1    1    2    0    0  0.24843274401E+02  0.32145035317E+02 -0.16353058984E+01  0.40659141701E+02  0.00000000000E+00 0. -1.
         11    1    3    3    0    0  0.48059580418E+01 -0.74199539238E+01  0.12565800147E+01  0.89292744681E+01  0.51100000000E-03 0. -1.
        -11    1    3    3    0    0 -0.14212044458E+02 -0.18958873399E+02 -0.50938494834E+01  0.24235684250E+02  0.51100000000E-03 0.  1.
        -12    1    3    3    0    0 -0.15437187985E+02 -0.57662079939E+01  0.54725753671E+01  0.17363899581E+02  0.00000000000E+00 0.  1.
</event>
<event>
 7    1  0.2746803E-013  0.5052886E+02  0.7816164E-02  0.1300439E+00
        -11   -1    0    0    0    0  0.00000000000E+00  0.00000000000E+00  0.45593999997E+02  0.45594000000E+02  0.51100000000E-03 0.  1.
         11   -1    0    0    0    0 -0.00000000000E+00 -0.00000000000E+00 -0.45593999997E+02  0.45594000000E+02  0.51100000000E-03 0. -1.
    9900012    2    1    2    0    0  0.56133173332E+01  0.99280165535E+01  0.39026795545E+02  0.50528860625E+02  0.30000002357E+02 0.  0.
         12    1    1    2    0    0 -0.56133173332E+01 -0.99280165535E+01 -0.39026795545E+02  0.40659139375E+02  0.00000000000E+00 0. -1.
         11    1    3    3    0    0 -0.67937030152E+01  0.79010239034E+01  0.10819573036E+02  0.15021442685E+02  0.51100000000E-03 0. -1.
        -11    1    3    3    0    0  0.47599529148E+01  0.34462945829E+01 -0.37242839075E+00  0.58883615098E+01  0.51100000000E-03 0.  1.
        -12    1    3    3    0    0  0.76470674336E+01 -0.14193019327E+01  0.28579650899E+02  0.29619056431E+02  0.00000000000E+00 0.  1.
</event>
<event>
 7    1  0.2746803E-013  0.5052886E+02  0.7816164E-02  0.1300439E+00
        -11   -1    0    0    0    0  0.00000000000E+00  0.00000000000E+00  0.45593999997E+02  0.45594000000E+02  0.51100000000E-03 0. -1.
         11   -1    0    0    0    0 -0.00000000000E+00 -0.00000000000E+00 -0.45593999997E+02  0.45594000000E+02  0.51100000000E-03 0.  1.
    9900012    2    1    2    0    0 -0.27462417470E+02  0.27456015010E+02 -0.12047774101E+02  0.50528855957E+02  0.29999988167E+02 0.  0.
         12    1    1    2    0    0  0.27462417470E+02 -0.27456015010E+02  0.12047774101E+02  0.40659144043E+02  0.00000000000E+00 0. -1.
         11    1    3    3    0    0 -0.19327025675E+01  0.72548653793E+01  0.24823962793E+01  0.79076357045E+01  0.51100000000E-03 0. -1.
        -11    1    3    3    0    0 -0.21343429609E+02  0.11393251144E+02  0.10767960119E+01  0.24217919997E+02  0.51100000000E-03 0.  1.
         12    1    3    3    0    0 -0.41862852933E+01  0.88078984871E+01 -0.15606966392E+02  0.18403300255E+02  0.00000000000E+00 0. -1.
</event>
<event>
 7    1  0.2746803E-013  0.5052888E+02  0.7816164E-02  0.1300439E+00
        -11   -1    0    0    0    0  0.00000000000E+00  0.00000000000E+00  0.45593999997E+02  0.45594000000E+02  0.51100000000E-03 0.  1.
         11   -1    0    0    0    0 -0.00000000000E+00 -0.00000000000E+00 -0.45593999997E+02  0.45594000000E+02  0.51100000000E-03 0. -1.
    9900012    2    1    2    0    0 -0.46552859421E+01  0.40388090425E+02 -0.54263017902E+00  0.50528880692E+02  0.30000063352E+02 0.  0.
         12    1    1    2    0    0  0.46552859421E+01 -0.40388090425E+02  0.54263017902E+00  0.40659119308E+02  0.00000000000E+00 0. -1.
         11    1    3    3    0    0 -0.20124752484E+01 -0.11021087045E+00 -0.67802551549E+01  0.70734760400E+01  0.51100000000E-03 0. -1.
        -11    1    3    3    0    0  0.35804795805E+01  0.78256480134E+01  0.54492222642E+01  0.10186001394E+02  0.51100000000E-03 0.  1.
        -12    1    3    3    0    0 -0.62232902742E+01  0.32672653282E+02  0.78840271171E+00  0.33269403258E+02  0.00000000000E+00 0.  1.
</event>
<event>
 7    1  0.2746803E-013  0.5052885E+02  0.7816164E-02  0.1300439E+00
        -11   -1    0    0    0    0  0.00000000000E+00  0.00000000000E+00  0.45593999997E+02  0.45594000000E+02  0.51100000000E-03 0. -1.
         11   -1    0    0    0    0 -0.00000000000E+00 -0.00000000000E+00 -0.45593999997E+02  0.45594000000E+02  0.51100000000E-03 0.  1.
    9900012    2    1    2    0    0  0.16930834824E+02  0.31651398255E+01 -0.36830631959E+02  0.50528846929E+02  0.29999960724E+02 0.  0.
         12    1    1    2    0    0 -0.16930834824E+02 -0.31651398255E+01  0.36830631959E+02  0.40659153071E+02  0.00000000000E+00 0. -1.
         11    1    3    3    0    0  0.93940561981E+01  0.30557331673E+00 -0.80761768587E+01  0.12392187047E+02  0.51100000000E-03 0. -1.
        -11    1    3    3    0    0  0.14497416121E+02  0.31449630191E+01 -0.93887792868E+01  0.17556054321E+02  0.51100000000E-03 0.  1.
        -12    1    3    3    0    0 -0.69606374944E+01 -0.28539651034E+00 -0.19365675814E+02  0.20580605560E+02  0.00000000000E+00 0.  1.
</event>
<event>
 7    1  0.2746803E-013  0.5052886E+02  0.7816164E-02  0.1300439E+00
        -11   -1    0    0    0    0  0.00000000000E+00  0.00000000000E+00  0.45593999997E+02  0.45594000000E+02  0.51100000000E-03 0.  1.
         11   -1    0    0    0    0 -0.00000000000E+00 -0.00000000000E+00 -0.45593999997E+02  0.45594000000E+02  0.51100000000E-03 0. -1.
    9900012    2    1    2    0    0  0.10487951259E+02  0.33837821226E+02  0.19954206307E+02  0.50528860606E+02  0.30000002298E+02 0.  0.
         12    1    1    2    0    0 -0.10487951259E+02 -0.33837821226E+02 -0.19954206307E+02  0.40659139394E+02  0.00000000000E+00 0. -1.
         11    1    3    3    0    0  0.57817675422E+01  0.18321607139E+02  0.51526846470E+01  0.19891211210E+02  0.51100000000E-03 0.  1.
        -11    1    3    3    0    0  0.57691486951E+01  0.60575310321E+01 -0.42186834405E+01  0.93687805559E+01  0.51100000000E-03 0. -1.
        -12    1    3    3    0    0 -0.10629649781E+01  0.94586830546E+01  0.19020205100E+02  0.21268868840E+02  0.00000000000E+00 0.  1.
</event>
<event>
 7    1  0.2746803E-013  0.5052885E+02  0.7816164E-02  0.1300439E+00
        -11   -1    0    0    0    0  0.00000000000E+00  0.00000000000E+00  0.45593999997E+02  0.45594000000E+02  0.51100000000E-03 0. -1.
         11   -1    0    0    0    0 -0.00000000000E+00 -0.00000000000E+00 -0.45593999997E+02  0.45594000000E+02  0.51100000000E-03 0.  1.
    9900012    2    1    2    0    0 -0.21624094498E+02  0.11177778570E+01 -0.34413884107E+02  0.50528852080E+02  0.29999976383E+02 0.  0.
         12    1    1    2    0    0  0.21624094498E+02 -0.11177778570E+01  0.34413884107E+02  0.40659147920E+02  0.00000000000E+00 0. -1.
         11    1    3    3    0    0 -0.14258092459E+02  0.10857885848E+01 -0.14881087287E+02  0.20637802609E+02  0.51100000000E-03 0. -1.
        -11    1    3    3    0    0 -0.64376470580E+01  0.76277812372E+01 -0.19864911171E+02  0.22231532614E+02  0.51100000000E-03 0.  1.
         12    1    3    3    0    0 -0.92835498076E+00 -0.75957919649E+01  0.33211435100E+00  0.76595168573E+01  0.00000000000E+00 0. -1.
</event>
<event>
 7    1  0.2746803E-013  0.5052888E+02  0.7816164E-02  0.1300439E+00
        -11   -1    0    0    0    0  0.00000000000E+00  0.00000000000E+00  0.45593999997E+02  0.45594000000E+02  0.51100000000E-03 0.  1.
         11   -1    0    0    0    0 -0.00000000000E+00 -0.00000000000E+00 -0.45593999997E+02  0.45594000000E+02  0.51100000000E-03 0. -1.
    9900012    2    1    2    0    0  0.38226034835E+02  0.97630996131E+01 -0.98293365697E+01  0.50528884040E+02  0.30000073527E+02 0.  0.
         12    1    1    2    0    0 -0.38226034835E+02 -0.97630996131E+01  0.98293365697E+01  0.40659115960E+02  0.00000000000E+00 0. -1.
         11    1    3    3    0    0  0.68250439107E+01  0.20922310208E+01 -0.13714429762E+02  0.15461055559E+02  0.51100000000E-03 0. -1.
        -11    1    3    3    0    0  0.17576469605E+01 -0.25081976796E+01  0.20223758727E+01  0.36702020202E+01  0.51100000000E-03 0.  1.
        -12    1    3    3    0    0  0.29643343964E+02  0.10179066272E+02  0.18627173201E+01  0.31397626460E+02  0.00000000000E+00 0.  1.
</event>
<event>
 7    1  0.2746803E-013  0.5052886E+02  0.7816164E-02  0.1300439E+00
        -11   -1    0    0    0    0  0.00000000000E+00  0.00000000000E+00  0.45593999997E+02  0.45594000000E+02  0.51100000000E-03 0.  1.
         11   -1    0    0    0    0 -0.00000000000E+00 -0.00000000000E+00 -0.45593999997E+02  0.45594000000E+02  0.51100000000E-03 0. -1.
    9900012    2    1    2    0    0  0.18882248787E+01 -0.36388032267E+02  0.18041944900E+02  0.50528855134E+02  0.29999985666E+02 0.  0.
         12    1    1    2    0    0 -0.18882248787E+01  0.36388032267E+02 -0.18041944900E+02  0.40659144866E+02  0.00000000000E+00 0. -1.
         11    1    3    3    0    0 -0.19471844991E+01 -0.61115762615E+01  0.39655617943E+01  0.75411254120E+01  0.51100000000E-03 0. -1.
        -11    1    3    3    0    0  0.13633144638E+02 -0.16587154117E+02  0.14898280617E+02  0.26133409269E+02  0.51100000000E-03 0.  1.
         12    1    3    3    0    0 -0.97977352606E+01 -0.13689301888E+02 -0.82189751070E+00  0.16854320453E+02  0.00000000000E+00 0. -1.
</event>
<event>
 7    1  0.2746803E-013  0.5052886E+02  0.7816164E-02  0.1300439E+00
        -11   -1    0    0    0    0  0.00000000000E+00  0.00000000000E+00  0.45593999997E+02  0.45594000000E+02  0.51100000000E-03 0.  1.
         11   -1    0    0    0    0 -0.00000000000E+00 -0.00000000000E+00 -0.45593999997E+02  0.45594000000E+02  0.51100000000E-03 0. -1.
    9900012    2    1    2    0    0  0.14547343163E+02 -0.68077357894E+01  0.37352313252E+02  0.50528858778E+02  0.29999996741E+02 0.  0.
         12    1    1    2    0    0 -0.14547343163E+02  0.68077357894E+01 -0.37352313252E+02  0.40659141222E+02  0.00000000000E+00 0. -1.
         11    1    3    3    0    0  0.17224188976E+01  0.48232260885E+01  0.10442886896E+01  0.52269279590E+01  0.51100000000E-03 0. -1.
        -11    1    3    3    0    0  0.15764237849E+02 -0.44683706741E+01  0.13547314254E+02  0.21260462253E+02  0.51100000000E-03 0.  1.
         12    1    3    3    0    0 -0.29393135837E+01 -0.71625912039E+01  0.22760710308E+02  0.24041468566E+02  0.00000000000E+00 0. -1.
</event>
<event>
 7    1  0.2746803E-013  0.5052886E+02  0.7816164E-02  0.1300439E+00
        -11   -1    0    0    0    0  0.00000000000E+00  0.00000000000E+00  0.45593999997E+02  0.45594000000E+02  0.51100000000E-03 0.  1.
         11   -1    0    0    0    0 -0.00000000000E+00 -0.00000000000E+00 -0.45593999997E+02  0.45594000000E+02  0.51100000000E-03 0. -1.
    9900012    2    1    2    0    0  0.10213119426E+02  0.37576279159E+02 -0.11699633006E+02  0.50528856178E+02  0.29999988838E+02 0.  0.
         12    1    1    2    0    0 -0.10213119426E+02 -0.37576279159E+02  0.11699633006E+02  0.40659143822E+02  0.00000000000E+00 0. -1.
         11    1    3    3    0    0  0.70129271347E+01 -0.86124376245E+00 -0.10411004507E+01  0.71419029835E+01  0.51100000000E-03 0. -1.
        -11    1    3    3    0    0  0.27218777390E+01  0.31576753079E+02 -0.12313836281E+01  0.31717759368E+02  0.51100000000E-03 0.  1.
         12    1    3    3    0    0  0.47831455262E+00  0.68607698427E+01 -0.94271489277E+01  0.11669193826E+02  0.00000000000E+00 0. -1.
</event>
<event>
 7    1  0.2746803E-013  0.5052886E+02  0.7816164E-02  0.1300439E+00
        -11   -1    0    0    0    0  0.00000000000E+00  0.00000000000E+00  0.45593999997E+02  0.45594000000E+02  0.51100000000E-03 0.  1.
         11   -1    0    0    0    0 -0.00000000000E+00 -0.00000000000E+00 -0.45593999997E+02  0.45594000000E+02  0.51100000000E-03 0. -1.
    9900012    2    1    2    0    0  0.38073102991E+01 -0.19669194939E+02  0.35380687248E+02  0.50528857468E+02  0.29999992760E+02 0.  0.
         12    1    1    2    0    0 -0.38073102991E+01  0.19669194939E+02 -0.35380687248E+02  0.40659142532E+02  0.00000000000E+00 0. -1.
         11    1    3    3    0    0 -0.43926838519E+01 -0.11943657280E+02  0.26488006647E+02  0.29386410414E+02  0.51100000000E-03 0. -1.
        -11    1    3    3    0    0  0.14488174632E+01 -0.10764468197E+02  0.83848029695E+01  0.13721434645E+02  0.51100000000E-03 0.  1.
         12    1    3    3    0    0  0.67511766878E+01  0.30389305380E+01  0.50787763151E+00  0.74210124089E+01  0.00000000000E+00 0. -1.
</event>
<event>
 7    1  0.2746803E-013  0.5052886E+02  0.7816164E-02  0.1300439E+00
        -11   -1    0    0    0    0  0.00000000000E+00  0.00000000000E+00  0.45593999997E+02  0.45594000000E+02  0.51100000000E-03 0.  1.
         11   -1    0    0    0    0 -0.00000000000E+00 -0.00000000000E+00 -0.45593999997E+02  0.45594000000E+02  0.51100000000E-03 0. -1.
    9900012    2    1    2    0    0 -0.38333784543E+01  0.32850550780E+02  0.23649777722E+02  0.50528862488E+02  0.30000008019E+02 0.  0.
         12    1    1    2    0    0  0.38333784543E+01 -0.32850550780E+02 -0.23649777722E+02  0.40659137512E+02  0.00000000000E+00 0. -1.
         11    1    3    3    0    0 -0.41531083424E+01  0.17111887707E+02  0.21402230684E+01  0.17738251459E+02  0.51100000000E-03 0.  1.
        -11    1    3    3    0    0 -0.82845467158E+01  0.19947217145E+01  0.68966839070E+01  0.10962521525E+02  0.51100000000E-03 0. -1.
        -12    1    3    3    0    0  0.86042766038E+01  0.13743941358E+02  0.14612870747E+02  0.21828089504E+02  0.00000000000E+00 0.  1.
</event>
<event>
 7    1  0.2746803E-013  0.5052887E+02  0.7816164E-02  0.1300439E+00
        -11   -1    0    0    0    0  0.00000000000E+00  0.00000000000E+00  0.45593999997E+02  0.45594000000E+02  0.51100000000E-03 0.  1.
         11   -1    0    0    0    0 -0.00000000000E+00 -0.00000000000E+00 -0.45593999997E+02  0.45594000000E+02  0.51100000000E-03 0. -1.
    9900012    2    1    2    0    0 -0.40230288002E+01 -0.11327384854E+02  0.38841608150E+02  0.50528869020E+02  0.30000027874E+02 0.  0.
         12    1    1    2    0    0  0.40230288002E+01  0.11327384854E+02 -0.38841608150E+02  0.40659130980E+02  0.00000000000E+00 0. -1.
         11    1    3    3    0    0 -0.11879005353E+02  0.27506600727E+01  0.97440724195E+01  0.15608454330E+02  0.51100000000E-03 0.  1.
        -11    1    3    3    0    0 -0.54443524319E-01 -0.37821600720E+01  0.91621992435E+00  0.38919350095E+01  0.51100000000E-03 0. -1.
        -12    1    3    3    0    0  0.79104200767E+01 -0.10295884855E+02  0.28181315806E+02  0.31028479681E+02  0.00000000000E+00 0.  1.
</event>
<event>
 7    1  0.2746803E-013  0.5052885E+02  0.7816164E-02  0.1300439E+00
        -11   -1    0    0    0    0  0.00000000000E+00  0.00000000000E+00  0.45593999997E+02  0.45594000000E+02  0.51100000000E-03 0.  1.
         11   -1    0    0    0    0 -0.00000000000E+00 -0.00000000000E+00 -0.45593999997E+02  0.45594000000E+02  0.51100000000E-03 0. -1.
    9900012    2    1    2    0    0  0.10492816564E+02  0.22158632389E+02  0.32435513489E+02  0.50528846983E+02  0.29999960889E+02 0.  0.
         12    1    1    2    0    0 -0.10492816564E+02 -0.22158632389E+02 -0.32435513489E+02  0.40659153017E+02  0.00000000000E+00 0. -1.
         11    1    3    3    0    0  0.10677704731E+02  0.12980184468E+02  0.16653753442E+02  0.23661066567E+02  0.51100000000E-03 0. -1.
        -11    1    3    3    0    0 -0.55008171234E+00  0.15431638266E+02  0.11944443990E+02  0.19521982275E+02  0.51100000000E-03 0.  1.
         12    1    3    3    0    0  0.36519354616E+00 -0.62531903442E+01  0.38373160567E+01  0.73457981408E+01  0.00000000000E+00 0. -1.
</event>
<event>
 7    1  0.2746803E-013  0.5052886E+02  0.7816164E-02  0.1300439E+00
        -11   -1    0    0    0    0  0.00000000000E+00  0.00000000000E+00  0.45593999997E+02  0.45594000000E+02  0.51100000000E-03 0. -1.
         11   -1    0    0    0    0 -0.00000000000E+00 -0.00000000000E+00 -0.45593999997E+02  0.45594000000E+02  0.51100000000E-03 0.  1.
    9900012    2    1    2    0    0  0.36038774097E+02 -0.18568871634E+02  0.30934477489E+01  0.50528860177E+02  0.30000000993E+02 0.  0.
         12    1    1    2    0    0 -0.36038774097E+02  0.18568871634E+02 -0.30934477489E+01  0.40659139823E+02  0.00000000000E+00 0. -1.
         11    1    3    3    0    0  0.19990475350E+02 -0.19805110997E+02  0.45675272667E+00  0.28143740861E+02  0.51100000000E-03 0. -1.
        -11    1    3    3    0    0  0.59110719423E+01 -0.33531175613E+01 -0.53822787333E+01  0.86690883898E+01  0.51100000000E-03 0.  1.
        -12    1    3    3    0    0  0.10137226805E+02  0.45893569243E+01  0.80189737555E+01  0.13716030926E+02  0.00000000000E+00 0.  1.
</event>
<event>
 7    1  0.2746803E-013  0.5052884E+02  0.7816164E-02  0.1300439E+00
        -11   -1    0    0    0    0  0.00000000000E+00  0.00000000000E+00  0.45593999997E+02  0.45594000000E+02  0.51100000000E-03 0. -1.
         11   -1    0    0    0    0 -0.00000000000E+00 -0.00000000000E+00 -0.45593999997E+02  0.45594000000E+02  0.51100000000E-03 0.  1.
    9900012    2    1    2    0    0 -0.11732767077E+02  0.11332597290E+02 -0.37243545795E+02  0.50528840048E+02  0.29999939811E+02 0.  0.
         12    1    1    2    0    0  0.11732767077E+02 -0.11332597290E+02  0.37243545795E+02  0.40659159952E+02  0.00000000000E+00 0. -1.
         11    1    3    3    0    0 -0.63980628427E+00 -0.44277780313E+01  0.24868242569E+00  0.44806711088E+01  0.51100000000E-03 0. -1.
        -11    1    3    3    0    0 -0.42081580330E+01 -0.15996307022E+01 -0.19861190556E+02  0.20365026467E+02  0.51100000000E-03 0.  1.
        -12    1    3    3    0    0 -0.68848027601E+01  0.17360006023E+02 -0.17631037664E+02  0.25683142473E+02  0.00000000000E+00 0.  1.
</event>
<event>
 7    1  0.2746803E-013  0.5052886E+02  0.7816164E-02  0.1300439E+00
        -11   -1    0    0    0    0  0.00000000000E+00  0.00000000000E+00  0.45593999997E+02  0.45594000000E+02  0.51100000000E-03 0.  1.
         11   -1    0    0    0    0 -0.00000000000E+00 -0.00000000000E+00 -0.45593999997E+02  0.45594000000E+02  0.51100000000E-03 0. -1.
    9900012    2    1    2    0    0 -0.27744878054E+02  0.27206154987E+02 -0.11967136349E+02  0.50528862284E+02  0.30000007399E+02 0.  0.
         12    1    1    2    0    0  0.27744878054E+02 -0.27206154987E+02  0.11967136349E+02  0.40659137716E+02  0.00000000000E+00 0. -1.
         11    1    3    3    0    0 -0.63207146436E+01  0.16190392404E+02 -0.41153423091E+01  0.17861026913E+02  0.51100000000E-03 0. -1.
        -11    1    3    3    0    0 -0.15592086791E+02  0.10058657661E+02  0.43959799610E+01  0.19068676004E+02  0.51100000000E-03 0.  1.
         12    1    3    3    0    0 -0.58320766196E+01  0.95710492139E+00 -0.12247774001E+02  0.13599159368E+02  0.00000000000E+00 0. -1.
</event>
<event>
 7    1  0.2746803E-013  0.5052886E+02  0.7816164E-02  0.1300439E+00
        -11   -1    0    0    0    0  0.00000000000E+00  0.00000000000E+00  0.45593999997E+02  0.45594000000E+02  0.51100000000E-03 0.  1.
         11   -1    0    0    0    0 -0.00000000000E+00 -0.00000000000E+00 -0.45593999997E+02  0.45594000000E+02  0.51100000000E-03 0. -1.
    9900012    2    1    2    0    0 -0.76655840048E+01  0.39787344458E+02  0.33722349158E+01  0.50528856804E+02  0.29999990740E+02 0.  0.
         12    1    1    2    0    0  0.76655840048E+01 -0.39787344458E+02 -0.33722349158E+01  0.40659143196E+02  0.00000000000E+00 0. -1.
         11    1    3    3    0    0  0.23617970904E+01  0.17639876156E+01  0.22932292605E+00  0.29567426452E+01  0.51100000000E-03 0. -1.
        -11    1    3    3    0    0 -0.88159341608E+01  0.40927026363E+02 -0.15818613739E+01  0.41895637813E+02  0.51100000000E-03 0.  1.
        -12    1    3    3    0    0 -0.12114469344E+01 -0.29036695212E+01  0.47247733636E+01  0.56764763455E+01  0.00000000000E+00 0.  1.
</event>
<event>
 7    1  0.2746803E-013  0.5052887E+02  0.7816164E-02  0.1300439E+00
        -11   -1    0    0    0    0  0.00000000000E+00  0.00000000000E+00  0.45593999997E+02  0.45594000000E+02  0.51100000000E-03 0.  1.
         11   -1    0    0    0    0 -0.00000000000E+00 -0.00000000000E+00 -0.45593999997E+02  0.45594000000E+02  0.51100000000E-03 0. -1.
    9900012    2    1    2    0    0  0.17871256343E+02 -0.19374606292E+02  0.30958155179E+02  0.50528873788E+02  0.30000042365E+02 0.  0.
         12    1    1    2    0    0 -0.17871256343E+02  0.19374606292E+02 -0.30958155179E+02  0.40659126212E+02  0.00000000000E+00 0. -1.
         11    1    3    3    0    0  0.74095723510E+01  0.32875126986E+01  0.14406924965E+02  0.16530849626E+02  0.51100000000E-03 0. -1.
        -11    1    3    3    0    0 -0.41688680439E+01 -0.72834703458E+01  0.58240353651E+01  0.10215076566E+02  0.51100000000E-03 0.  1.
        -12    1    3    3    0    0  0.14630552035E+02 -0.15378648645E+02  0.10727194850E+02  0.23782947596E+02  0.00000000000E+00 0.  1.
</event>
<event>
 7    1  0.2746803E-013  0.5052886E+02  0.7816164E-02  0.1300439E+00
        -11   -1    0    0    0    0  0.00000000000E+00  0.00000000000E+00  0.45593999997E+02  0.45594000000E+02  0.51100000000E-03 0.  1.
         11   -1    0    0    0    0 -0.00000000000E+00 -0.00000000000E+00 -0.45593999997E+02  0.45594000000E+02  0.51100000000E-03 0. -1.
    9900012    2    1    2    0    0  0.28690756610E+02  0.28785099429E+02 -0.11934001749E+01  0.50528859970E+02  0.30000000365E+02 0.  0.
         12    1    1    2    0    0 -0.28690756610E+02 -0.28785099429E+02  0.11934001749E+01  0.40659140030E+02  0.00000000000E+00 0. -1.
         11    1    3    3    0    0  0.30202386353E+01  0.13899958923E+02  0.17721212734E+01  0.14334263621E+02  0.51100000000E-03 0. -1.
        -11    1    3    3    0    0  0.25759613836E+02  0.18707086375E+02 -0.89806182190E+00  0.31848379879E+02  0.51100000000E-03 0.  1.
        -12    1    3    3    0    0 -0.89095860626E-01 -0.38219458696E+01 -0.20674596264E+01  0.43462164706E+01  0.00000000000E+00 0.  1.
</event>
<event>
 7    1  0.2746803E-013  0.5052886E+02  0.7816164E-02  0.1300439E+00
        -11   -1    0    0    0    0  0.00000000000E+00  0.00000000000E+00  0.45593999997E+02  0.45594000000E+02  0.51100000000E-03 0.  1.
         11   -1    0    0    0    0 -0.00000000000E+00 -0.00000000000E+00 -0.45593999997E+02  0.45594000000E+02  0.51100000000E-03 0. -1.
    9900012    2    1    2    0    0 -0.38464047278E+02  0.28715461903E+01  0.12862235967E+02  0.50528858044E+02  0.29999994510E+02 0.  0.
         12    1    1    2    0    0  0.38464047278E+02 -0.28715461903E+01 -0.12862235967E+02  0.40659141956E+02  0.00000000000E+00 0. -1.
         11    1    3    3    0    0  0.15912110605E+01  0.31088741346E+01  0.22557030651E+01  0.41575530788E+01  0.51100000000E-03 0. -1.
        -11    1    3    3    0    0 -0.87899761641E+01 -0.70672055099E+01  0.88218298738E+01  0.14318999870E+02  0.51100000000E-03 0.  1.
        -12    1    3    3    0    0 -0.31265282175E+02  0.68298775656E+01  0.17847030285E+01  0.32052305095E+02  0.00000000000E+00 0.  1.
</event>
<event>
 7    1  0.2746803E-013  0.5052886E+02  0.7816164E-02  0.1300439E+00
        -11   -1    0    0    0    0  0.00000000000E+00  0.00000000000E+00  0.45593999997E+02  0.45594000000E+02  0.51100000000E-03 0. -1.
         11   -1    0    0    0    0 -0.00000000000E+00 -0.00000000000E+00 -0.45593999997E+02  0.45594000000E+02  0.51100000000E-03 0.  1.
    9900012    2    1    2    0    0 -0.28244545588E+02 -0.11713561026E+02 -0.26799324541E+02  0.50528860028E+02  0.30000000542E+02 0.  0.
         12    1    1    2    0    0  0.28244545588E+02  0.11713561026E+02  0.26799324541E+02  0.40659139972E+02  0.00000000000E+00 0. -1.
         11    1    3    3    0    0 -0.29346735881E+02 -0.77423352451E+01 -0.23186345827E+02  0.38193995536E+02  0.51100000000E-03 0.  1.
        -11    1    3    3    0    0  0.27213718056E+00 -0.41841289605E+01 -0.73711353526E+01  0.84802494333E+01  0.51100000000E-03 0. -1.
        -12    1    3    3    0    0  0.83005311295E+00  0.21290318005E+00  0.37581566385E+01  0.38546150591E+01  0.00000000000E+00 0.  1.
</event>
<event>
 7    1  0.2746803E-013  0.5052885E+02  0.7816164E-02  0.1300439E+00
        -11   -1    0    0    0    0  0.00000000000E+00  0.00000000000E+00  0.45593999997E+02  0.45594000000E+02  0.51100000000E-03 0.  1.
         11   -1    0    0    0    0 -0.00000000000E+00 -0.00000000000E+00 -0.45593999997E+02  0.45594000000E+02  0.51100000000E-03 0. -1.
    9900012    2    1    2    0    0  0.52119317161E+01 -0.38151802342E+02  0.13055345219E+02  0.50528852285E+02  0.29999977005E+02 0.  0.
         12    1    1    2    0    0 -0.52119317161E+01  0.38151802342E+02 -0.13055345219E+02  0.40659147715E+02  0.00000000000E+00 0. -1.
         11    1    3    3    0    0  0.11094785900E+02 -0.12285329555E+02  0.15501576627E+02  0.22678678855E+02  0.51100000000E-03 0.  1.
        -11    1    3    3    0    0 -0.43637312222E+00 -0.53553080368E+00 -0.18046747308E+01  0.19323731236E+01  0.51100000000E-03 0. -1.
        -12    1    3    3    0    0 -0.54464810618E+01 -0.25330941984E+02 -0.64155667760E+00  0.25917800306E+02  0.00000000000E+00 0.  1.
</event>
<event>
 7    1  0.2746803E-013  0.5052886E+02  0.7816164E-02  0.1300439E+00
        -11   -1    0    0    0    0  0.00000000000E+00  0.00000000000E+00  0.45593999997E+02  0.45594000000E+02  0.51100000000E-03 0. -1.
         11   -1    0    0    0    0 -0.00000000000E+00 -0.00000000000E+00 -0.45593999997E+02  0.45594000000E+02  0.51100000000E-03 0.  1.
    9900012    2    1    2    0    0 -0.21981406520E+02  0.19128336294E+02 -0.28356477831E+02  0.50528864287E+02  0.30000013488E+02 0.  0.
         12    1    1    2    0    0  0.21981406520E+02 -0.19128336294E+02  0.28356477831E+02  0.40659135713E+02  0.00000000000E+00 0. -1.
         11    1    3    3    0    0 -0.42375018863E+01  0.18784079695E+01 -0.12719367433E+02  0.13537619691E+02  0.51100000000E-03 0. -1.
        -11    1    3    3    0    0 -0.42597401789E+01  0.18980569699E+02 -0.12223798844E+02  0.22974522214E+02  0.51100000000E-03 0.  1.
         12    1    3    3    0    0 -0.13484164454E+02 -0.17306413750E+01 -0.34133115530E+01  0.14016722383E+02  0.00000000000E+00 0. -1.
</event>
<event>
 7    1  0.2746803E-013  0.5052887E+02  0.7816164E-02  0.1300439E+00
        -11   -1    0    0    0    0  0.00000000000E+00  0.00000000000E+00  0.45593999997E+02  0.45594000000E+02  0.51100000000E-03 0.  1.
         11   -1    0    0    0    0 -0.00000000000E+00 -0.00000000000E+00 -0.45593999997E+02  0.45594000000E+02  0.51100000000E-03 0. -1.
    9900012    2    1    2    0    0  0.21433751978E+02 -0.24125216928E+02  0.24733241082E+02  0.50528867814E+02  0.30000024209E+02 0.  0.
         12    1    1    2    0    0 -0.21433751978E+02  0.24125216928E+02 -0.24733241082E+02  0.40659132186E+02  0.00000000000E+00 0. -1.
         11    1    3    3    0    0  0.14054916407E+02 -0.11995831243E+02 -0.32755099426E+01  0.18766182565E+02  0.51100000000E-03 0. -1.
        -11    1    3    3    0    0  0.32675625057E-01  0.16574139430E-01  0.30468008978E+01  0.30470212291E+01  0.51100000000E-03 0.  1.
         12    1    3    3    0    0  0.73461599459E+01 -0.12145959825E+02  0.24961950127E+02  0.28715664021E+02  0.00000000000E+00 0. -1.
</event>
<event>
 7    1  0.2746803E-013  0.5052886E+02  0.7816164E-02  0.1300439E+00
        -11   -1    0    0    0    0  0.00000000000E+00  0.00000000000E+00  0.45593999997E+02  0.45594000000E+02  0.51100000000E-03 0.  1.
         11   -1    0    0    0    0 -0.00000000000E+00 -0.00000000000E+00 -0.45593999997E+02  0.45594000000E+02  0.51100000000E-03 0. -1.
    9900012    2    1    2    0    0  0.30201334509E+02 -0.23567162870E+02  0.13624751361E+02  0.50528860541E+02  0.30000002101E+02 0.  0.
         12    1    1    2    0    0 -0.30201334509E+02  0.23567162870E+02 -0.13624751361E+02  0.40659139459E+02  0.00000000000E+00 0. -1.
         11    1    3    3    0    0  0.41917893508E+01 -0.20374793889E+01 -0.54162710293E+01  0.71455169404E+01  0.51100000000E-03 0. -1.
        -11    1    3    3    0    0  0.87297692432E+00  0.18312474136E+01  0.65627228032E+01  0.68691256105E+01  0.51100000000E-03 0.  1.
        -12    1    3    3    0    0  0.25136568234E+02 -0.23360930895E+02  0.12478299587E+02  0.36514217990E+02  0.00000000000E+00 0.  1.
</event>
<event>
 7    1  0.2746803E-013  0.5052886E+02  0.7816164E-02  0.1300439E+00
        -11   -1    0    0    0    0  0.00000000000E+00  0.00000000000E+00  0.45593999997E+02  0.45594000000E+02  0.51100000000E-03 0.  1.
         11   -1    0    0    0    0 -0.00000000000E+00 -0.00000000000E+00 -0.45593999997E+02  0.45594000000E+02  0.51100000000E-03 0. -1.
    9900012    2    1    2    0    0 -0.22703480544E+02  0.26336947022E+02 -0.21073278037E+02  0.50528857677E+02  0.29999993394E+02 0.  0.
         12    1    1    2    0    0  0.22703480544E+02 -0.26336947022E+02  0.21073278037E+02  0.40659142323E+02  0.00000000000E+00 0. -1.
         11    1    3    3    0    0 -0.12125985403E+02  0.16219155199E+02 -0.22135816679E+02  0.30001581586E+02  0.51100000000E-03 0. -1.
        -11    1    3    3    0    0 -0.13403386614E+02  0.66398126652E+01 -0.20121462382E+01  0.15092601422E+02  0.51100000000E-03 0.  1.
         12    1    3    3    0    0  0.28258914723E+01  0.34779791579E+01  0.30746848807E+01  0.54346746684E+01  0.00000000000E+00 0. -1.
</event>
<event>
 7    1  0.2746803E-013  0.5052886E+02  0.7816164E-02  0.1300439E+00
        -11   -1    0    0    0    0  0.00000000000E+00  0.00000000000E+00  0.45593999997E+02  0.45594000000E+02  0.51100000000E-03 0. -1.
         11   -1    0    0    0    0 -0.00000000000E+00 -0.00000000000E+00 -0.45593999997E+02  0.45594000000E+02  0.51100000000E-03 0.  1.
    9900012    2    1    2    0    0 -0.17633825237E+02 -0.21020818299E+02 -0.30005651117E+02  0.50528859657E+02  0.29999999415E+02 0.  0.
         12    1    1    2    0    0  0.17633825237E+02  0.21020818299E+02  0.30005651117E+02  0.40659140343E+02  0.00000000000E+00 0. -1.
         11    1    3    3    0    0  0.99723114002E+00 -0.99436807354E+01  0.17448573513E+01  0.10144741690E+02  0.51100000000E-03 0.  1.
        -11    1    3    3    0    0 -0.14871015720E+02 -0.46885228169E+01 -0.13279444262E+02  0.20481039888E+02  0.51100000000E-03 0. -1.
        -12    1    3    3    0    0 -0.37600406579E+01 -0.63886147466E+01 -0.18471064206E+02  0.19903078080E+02  0.00000000000E+00 0.  1.
</event>
<event>
 7    1  0.2746803E-013  0.5052886E+02  0.7816164E-02  0.1300439E+00
        -11   -1    0    0    0    0  0.00000000000E+00  0.00000000000E+00  0.45593999997E+02  0.45594000000E+02  0.51100000000E-03 0.  1.
         11   -1    0    0    0    0 -0.00000000000E+00 -0.00000000000E+00 -0.45593999997E+02  0.45594000000E+02  0.51100000000E-03 0. -1.
    9900012    2    1    2    0    0  0.20503998936E+01 -0.74528192166E+00  0.40600563313E+02  0.50528864173E+02  0.30000013140E+02 0.  0.
         12    1    1    2    0    0 -0.20503998936E+01  0.74528192166E+00 -0.40600563313E+02  0.40659135827E+02  0.00000000000E+00 0. -1.
         11    1    3    3    0    0 -0.26370759342E+01  0.66701571712E+01  0.61290729048E+01  0.94345482724E+01  0.51100000000E-03 0. -1.
        -11    1    3    3    0    0 -0.23887398578E+01  0.38403923798E+01  0.42341624766E+00  0.45424633537E+01  0.51100000000E-03 0.  1.
        -12    1    3    3    0    0  0.70762156856E+01 -0.11255831473E+02  0.34048074161E+02  0.36551852547E+02  0.00000000000E+00 0.  1.
</event>
<event>
 7    1  0.2746803E-013  0.5052886E+02  0.7816164E-02  0.1300439E+00
        -11   -1    0    0    0    0  0.00000000000E+00  0.00000000000E+00  0.45593999997E+02  0.45594000000E+02  0.51100000000E-03 0.  1.
         11   -1    0    0    0    0 -0.00000000000E+00 -0.00000000000E+00 -0.45593999997E+02  0.45594000000E+02  0.51100000000E-03 0. -1.
    9900012    2    1    2    0    0  0.40546451035E+02 -0.66806360729E+00  0.29504226308E+01  0.50528855958E+02  0.29999988170E+02 0.  0.
         12    1    1    2    0    0 -0.40546451035E+02  0.66806360729E+00 -0.29504226308E+01  0.40659144042E+02  0.00000000000E+00 0. -1.
         11    1    3    3    0    0  0.20785376125E+02 -0.31616415806E+01  0.76944397528E+01  0.22388216577E+02  0.51100000000E-03 0. -1.
        -11    1    3    3    0    0  0.13147065475E+02  0.27079817357E+01  0.66380187089E+01  0.14974704950E+02  0.51100000000E-03 0.  1.
         12    1    3    3    0    0  0.66140094346E+01 -0.21440376234E+00 -0.11382035831E+02  0.13165934431E+02  0.00000000000E+00 0. -1.
</event>
<event>
 7    1  0.2746803E-013  0.5052885E+02  0.7816164E-02  0.1300439E+00
        -11   -1    0    0    0    0  0.00000000000E+00  0.00000000000E+00  0.45593999997E+02  0.45594000000E+02  0.51100000000E-03 0.  1.
         11   -1    0    0    0    0 -0.00000000000E+00 -0.00000000000E+00 -0.45593999997E+02  0.45594000000E+02  0.51100000000E-03 0. -1.
    9900012    2    1    2    0    0 -0.11364887115E+02  0.25422028143E+02  0.29626441345E+02  0.50528853418E+02  0.29999980448E+02 0.  0.
         12    1    1    2    0    0  0.11364887115E+02 -0.25422028143E+02 -0.29626441345E+02  0.40659146582E+02  0.00000000000E+00 0. -1.
         11    1    3    3    0    0 -0.14380408489E+02  0.21154427553E+02  0.22947375549E+02  0.34364050958E+02  0.51100000000E-03 0. -1.
        -11    1    3    3    0    0 -0.50376787515E+01  0.43656522883E+01  0.29577282987E+01  0.72928241481E+01  0.51100000000E-03 0.  1.
         12    1    3    3    0    0  0.80532001249E+01 -0.98051698582E-01  0.37213374978E+01  0.88719783116E+01  0.00000000000E+00 0. -1.
</event>
<event>
 7    1  0.2746803E-013  0.5052886E+02  0.7816164E-02  0.1300439E+00
        -11   -1    0    0    0    0  0.00000000000E+00  0.00000000000E+00  0.45593999997E+02  0.45594000000E+02  0.51100000000E-03 0. -1.
         11   -1    0    0    0    0 -0.00000000000E+00 -0.00000000000E+00 -0.45593999997E+02  0.45594000000E+02  0.51100000000E-03 0.  1.
    9900012    2    1    2    0    0 -0.76978379103E+01  0.39651323729E+02  0.46563450963E+01  0.50528859187E+02  0.29999997985E+02 0.  0.
         12    1    1    2    0    0  0.76978379103E+01 -0.39651323729E+02 -0.46563450963E+01  0.40659140813E+02  0.00000000000E+00 0. -1.
         11    1    3    3    0    0 -0.39224631090E+01 -0.81257560876E+00 -0.11709126123E+01  0.41733718464E+01  0.51100000000E-03 0.  1.
        -11    1    3    3    0    0  0.72638586563E+01  0.24778901516E+02  0.80486864306E+01  0.27046976844E+02  0.51100000000E-03 0. -1.
         12    1    3    3    0    0 -0.11039233458E+02  0.15684997823E+02 -0.22214287220E+01  0.19308510496E+02  0.00000000000E+00 0. -1.
</event>
<event>
 7    1  0.2746803E-013  0.5052887E+02  0.7816164E-02  0.1300439E+00
        -11   -1    0    0    0    0  0.00000000000E+00  0.00000000000E+00  0.45593999997E+02  0.45594000000E+02  0.51100000000E-03 0. -1.
         11   -1    0    0    0    0 -0.00000000000E+00 -0.00000000000E+00 -0.45593999997E+02  0.45594000000E+02  0.51100000000E-03 0.  1.
    9900012    2    1    2    0    0  0.30005827154E+02  0.65396681291E+01 -0.26646726130E+02  0.50528868973E+02  0.30000027730E+02 0.  0.
         12    1    1    2    0    0 -0.30005827154E+02 -0.65396681291E+01  0.26646726130E+02  0.40659131027E+02  0.00000000000E+00 0. -1.
         11    1    3    3    0    0  0.69378004666E+00 -0.51490306982E+01 -0.29197641374E+01  0.59597710328E+01  0.51100000000E-03 0. -1.
        -11    1    3    3    0    0  0.17070969935E+02 -0.31297217242E+01 -0.58359346476E+01  0.18310415234E+02  0.51100000000E-03 0.  1.
         12    1    3    3    0    0  0.12241077173E+02  0.14818420552E+02 -0.17891027345E+02  0.26258682706E+02  0.00000000000E+00 0. -1.
</event>
<event>
 7    1  0.2746803E-013  0.5052885E+02  0.7816164E-02  0.1300439E+00
        -11   -1    0    0    0    0  0.00000000000E+00  0.00000000000E+00  0.45593999997E+02  0.45594000000E+02  0.51100000000E-03 0.  1.
         11   -1    0    0    0    0 -0.00000000000E+00 -0.00000000000E+00 -0.45593999997E+02  0.45594000000E+02  0.51100000000E-03 0. -1.
    9900012    2    1    2    0    0 -0.26373607144E+02  0.30836953681E+02 -0.25848946641E+01  0.50528849166E+02  0.29999967525E+02 0.  0.
         12    1    1    2    0    0  0.26373607144E+02 -0.30836953681E+02  0.25848946641E+01  0.40659150834E+02  0.00000000000E+00 0. -1.
         11    1    3    3    0    0 -0.47509624949E-01 -0.12873838637E+01  0.12908598849E+01  0.18237143089E+01  0.51100000000E-03 0. -1.
        -11    1    3    3    0    0 -0.10096371097E+01  0.18430358268E+02 -0.70270431978E+01  0.19750362258E+02  0.51100000000E-03 0.  1.
        -12    1    3    3    0    0 -0.25316460409E+02  0.13693979277E+02  0.31512886489E+01  0.28954772599E+02  0.00000000000E+00 0.  1.
</event>
<event>
 7    1  0.2746803E-013  0.5052885E+02  0.7816164E-02  0.1300439E+00
        -11   -1    0    0    0    0  0.00000000000E+00  0.00000000000E+00  0.45593999997E+02  0.45594000000E+02  0.51100000000E-03 0.  1.
         11   -1    0    0    0    0 -0.00000000000E+00 -0.00000000000E+00 -0.45593999997E+02  0.45594000000E+02  0.51100000000E-03 0. -1.
    9900012    2    1    2    0    0  0.63122259602E+01  0.25271827204E+02  0.31219492954E+02  0.50528853587E+02  0.29999980962E+02 0.  0.
         12    1    1    2    0    0 -0.63122259602E+01 -0.25271827204E+02 -0.31219492954E+02  0.40659146413E+02  0.00000000000E+00 0. -1.
         11    1    3    3    0    0 -0.81125136738E+01  0.20161305293E+01  0.79283216509E+01  0.11521108665E+02  0.51100000000E-03 0. -1.
        -11    1    3    3    0    0 -0.31527727411E+01  0.38225741802E+01  0.50879655898E+01  0.71020731779E+01  0.51100000000E-03 0.  1.
         12    1    3    3    0    0  0.17577512375E+02  0.19433122494E+02  0.18203205713E+02  0.31905671743E+02  0.00000000000E+00 0. -1.
</event>
<event>
 7    1  0.2746803E-013  0.5052886E+02  0.7816164E-02  0.1300439E+00
        -11   -1    0    0    0    0  0.00000000000E+00  0.00000000000E+00  0.45593999997E+02  0.45594000000E+02  0.51100000000E-03 0.  1.
         11   -1    0    0    0    0 -0.00000000000E+00 -0.00000000000E+00 -0.45593999997E+02  0.45594000000E+02  0.51100000000E-03 0. -1.
    9900012    2    1    2    0    0 -0.31002302947E+02 -0.79420988344E+01  0.25078788765E+02  0.50528863661E+02  0.30000011585E+02 0.  0.
         12    1    1    2    0    0  0.31002302947E+02  0.79420988344E+01 -0.25078788765E+02  0.40659136339E+02  0.00000000000E+00 0. -1.
         11    1    3    3    0    0 -0.14470974251E+02 -0.27901209868E+01  0.15317289476E+02  0.21255898665E+02  0.51100000000E-03 0. -1.
        -11    1    3    3    0    0  0.42659175483E+01  0.24414121455E+01  0.41499302625E+01  0.64327651316E+01  0.51100000000E-03 0.  1.
         12    1    3    3    0    0 -0.20797246244E+02 -0.75933899932E+01  0.56115690261E+01  0.22840199864E+02  0.00000000000E+00 0. -1.
</event>
<event>
 7    1  0.2746803E-013  0.5052884E+02  0.7816164E-02  0.1300439E+00
        -11   -1    0    0    0    0  0.00000000000E+00  0.00000000000E+00  0.45593999997E+02  0.45594000000E+02  0.51100000000E-03 0. -1.
         11   -1    0    0    0    0 -0.00000000000E+00 -0.00000000000E+00 -0.45593999997E+02  0.45594000000E+02  0.51100000000E-03 0.  1.
    9900012    2    1    2    0    0 -0.26486767980E+02 -0.54125610757E+01 -0.30369764102E+02  0.50528840306E+02  0.29999940594E+02 0.  0.
         12    1    1    2    0    0  0.26486767980E+02  0.54125610757E+01  0.30369764102E+02  0.40659159694E+02  0.00000000000E+00 0. -1.
         11    1    3    3    0    0  0.77392764956E+00  0.51994368944E+01 -0.83362434692E+01  0.98552556265E+01  0.51100000000E-03 0. -1.
        -11    1    3    3    0    0 -0.10634558157E+02 -0.47940684218E+01 -0.19714148772E+02  0.22906867557E+02  0.51100000000E-03 0.  1.
         12    1    3    3    0    0 -0.16626137472E+02 -0.58179295483E+01 -0.23193718608E+01  0.17766717122E+02  0.00000000000E+00 0. -1.
</event>
<event>
 7    1  0.2746803E-013  0.5052885E+02  0.7816164E-02  0.1300439E+00
        -11   -1    0    0    0    0  0.00000000000E+00  0.00000000000E+00  0.45593999997E+02  0.45594000000E+02  0.51100000000E-03 0. -1.
         11   -1    0    0    0    0 -0.00000000000E+00 -0.00000000000E+00 -0.45593999997E+02  0.45594000000E+02  0.51100000000E-03 0.  1.
    9900012    2    1    2    0    0 -0.29900541953E+02  0.16678864777E+02 -0.21930339575E+02  0.50528846870E+02  0.29999960546E+02 0.  0.
         12    1    1    2    0    0  0.29900541953E+02 -0.16678864777E+02  0.21930339575E+02  0.40659153130E+02  0.00000000000E+00 0. -1.
         11    1    3    3    0    0 -0.16472241960E+02  0.15523504920E+02 -0.98665498881E+01  0.24691350047E+02  0.51100000000E-03 0. -1.
        -11    1    3    3    0    0 -0.20050582303E+01  0.54650874786E+01  0.29173319359E+01  0.65113950533E+01  0.51100000000E-03 0.  1.
        -12    1    3    3    0    0 -0.11423241763E+02 -0.43097276208E+01 -0.14981121623E+02  0.19326101770E+02  0.00000000000E+00 0.  1.
</event>
<event>
 7    1  0.2746803E-013  0.5052889E+02  0.7816164E-02  0.1300439E+00
        -11   -1    0    0    0    0  0.00000000000E+00  0.00000000000E+00  0.45593999997E+02  0.45594000000E+02  0.51100000000E-03 0. -1.
         11   -1    0    0    0    0 -0.00000000000E+00 -0.00000000000E+00 -0.45593999997E+02  0.45594000000E+02  0.51100000000E-03 0.  1.
    9900012    2    1    2    0    0  0.43690777058E+01  0.38278184384E+02 -0.12994410894E+02  0.50528893342E+02  0.30000101803E+02 0.  0.
         12    1    1    2    0    0 -0.43690777058E+01 -0.38278184384E+02  0.12994410894E+02  0.40659106658E+02  0.00000000000E+00 0. -1.
         11    1    3    3    0    0  0.34481330502E+01  0.10842202905E+02 -0.56932386408E+01  0.12722262057E+02  0.51100000000E-03 0. -1.
        -11    1    3    3    0    0  0.81493037085E+01  0.28572090064E+02 -0.67511244792E+01  0.30468888453E+02  0.51100000000E-03 0.  1.
         12    1    3    3    0    0 -0.72283590529E+01 -0.11361085855E+01 -0.55004777438E+00  0.73377428321E+01  0.00000000000E+00 0. -1.
</event>
<event>
 7    1  0.2746803E-013  0.5052886E+02  0.7816164E-02  0.1300439E+00
        -11   -1    0    0    0    0  0.00000000000E+00  0.00000000000E+00  0.45593999997E+02  0.45594000000E+02  0.51100000000E-03 0. -1.
         11   -1    0    0    0    0 -0.00000000000E+00 -0.00000000000E+00 -0.45593999997E+02  0.45594000000E+02  0.51100000000E-03 0.  1.
    9900012    2    1    2    0    0 -0.31022691840E+02  0.23790097308E+02 -0.11170928317E+02  0.50528858612E+02  0.29999996238E+02 0.  0.
         12    1    1    2    0    0  0.31022691840E+02 -0.23790097308E+02  0.11170928317E+02  0.40659141388E+02  0.00000000000E+00 0. -1.
         11    1    3    3    0    0 -0.88216910272E+01  0.51152439582E+01 -0.58665149922E+01  0.11764520889E+02  0.51100000000E-03 0. -1.
        -11    1    3    3    0    0 -0.19124760323E+02  0.66814942257E+00  0.16733383956E+01  0.19209449308E+02  0.51100000000E-03 0.  1.
         12    1    3    3    0    0 -0.30762404896E+01  0.18006703927E+02 -0.69777517202E+01  0.19554888415E+02  0.00000000000E+00 0. -1.
</event>
<event>
 7    1  0.2746803E-013  0.5052887E+02  0.7816164E-02  0.1300439E+00
        -11   -1    0    0    0    0  0.00000000000E+00  0.00000000000E+00  0.45593999997E+02  0.45594000000E+02  0.51100000000E-03 0.  1.
         11   -1    0    0    0    0 -0.00000000000E+00 -0.00000000000E+00 -0.45593999997E+02  0.45594000000E+02  0.51100000000E-03 0. -1.
    9900012    2    1    2    0    0  0.30900613090E+02 -0.26050097248E+02  0.44395404328E+01  0.50528868489E+02  0.30000026260E+02 0.  0.
         12    1    1    2    0    0 -0.30900613090E+02  0.26050097248E+02 -0.44395404328E+01  0.40659131511E+02  0.00000000000E+00 0. -1.
         11    1    3    3    0    0  0.71343252755E+01 -0.42354081960E+01 -0.49022205106E+01  0.96368587164E+01  0.51100000000E-03 0. -1.
        -11    1    3    3    0    0  0.32250802972E+00 -0.15530400146E+02  0.39761116862E+01  0.16034550337E+02  0.51100000000E-03 0.  1.
        -12    1    3    3    0    0  0.23443779785E+02 -0.62842889062E+01  0.53656492571E+01  0.24857459436E+02  0.00000000000E+00 0.  1.
</event>
<event>
 7    1  0.2746803E-013  0.5052886E+02  0.7816164E-02  0.1300439E+00
        -11   -1    0    0    0    0  0.00000000000E+00  0.00000000000E+00  0.45593999997E+02  0.45594000000E+02  0.51100000000E-03 0. -1.
         11   -1    0    0    0    0 -0.00000000000E+00 -0.00000000000E+00 -0.45593999997E+02  0.45594000000E+02  0.51100000000E-03 0.  1.
    9900012    2    1    2    0    0  0.27580520146E+02 -0.10914414435E+02 -0.27809283694E+02  0.50528858426E+02  0.29999995671E+02 0.  0.
         12    1    1    2    0    0 -0.27580520146E+02  0.10914414435E+02  0.27809283694E+02  0.40659141574E+02  0.00000000000E+00 0. -1.
         11    1    3    3    0    0  0.28262861245E+01  0.26551990973E+01 -0.10945689872E+02  0.11612325458E+02  0.51100000000E-03 0. -1.
        -11    1    3    3    0    0  0.20103180737E+02 -0.18280099638E-01 -0.13451828578E+02  0.24188631674E+02  0.51100000000E-03 0.  1.
        -12    1    3    3    0    0  0.46510532847E+01 -0.13551333432E+02 -0.34117652445E+01  0.14727901294E+02  0.00000000000E+00 0.  1.
</event>
<event>
 7    1  0.2746803E-013  0.5052886E+02  0.7816164E-02  0.1300439E+00
        -11   -1    0    0    0    0  0.00000000000E+00  0.00000000000E+00  0.45593999997E+02  0.45594000000E+02  0.51100000000E-03 0.  1.
         11   -1    0    0    0    0 -0.00000000000E+00 -0.00000000000E+00 -0.45593999997E+02  0.45594000000E+02  0.51100000000E-03 0. -1.
    9900012    2    1    2    0    0 -0.92521545296E+01  0.80364225442E+01  0.38768275776E+02  0.50528860100E+02  0.30000000760E+02 0.  0.
         12    1    1    2    0    0  0.92521545296E+01 -0.80364225442E+01 -0.38768275776E+02  0.40659139900E+02  0.00000000000E+00 0. -1.
         11    1    3    3    0    0  0.27711051458E+01  0.59719206126E+01  0.98195561756E+01  0.11822290103E+02  0.51100000000E-03 0.  1.
        -11    1    3    3    0    0 -0.93160541695E+01  0.10077087834E+02  0.26595809011E+02  0.29927806831E+02  0.51100000000E-03 0. -1.
         12    1    3    3    0    0 -0.27072055060E+01 -0.80125859019E+01  0.23529105901E+01  0.87787631664E+01  0.00000000000E+00 0. -1.
</event>
<event>
 7    1  0.2746803E-013  0.5052886E+02  0.7816164E-02  0.1300439E+00
        -11   -1    0    0    0    0  0.00000000000E+00  0.00000000000E+00  0.45593999997E+02  0.45594000000E+02  0.51100000000E-03 0. -1.
         11   -1    0    0    0    0 -0.00000000000E+00 -0.00000000000E+00 -0.45593999997E+02  0.45594000000E+02  0.51100000000E-03 0.  1.
    9900012    2    1    2    0    0  0.38731559465E+02 -0.27954075386E+01 -0.12050621078E+02  0.50528862401E+02  0.30000007755E+02 0.  0.
         12    1    1    2    0    0 -0.38731559465E+02  0.27954075386E+01  0.12050621078E+02  0.40659137599E+02  0.00000000000E+00 0. -1.
         11    1    3    3    0    0  0.80136451279E+01  0.54277851975E+01 -0.97870170121E+01  0.13764630857E+02  0.51100000000E-03 0. -1.
        -11    1    3    3    0    0  0.19280839468E+02 -0.64176331782E+01 -0.10189687090E+02  0.22732498971E+02  0.51100000000E-03 0.  1.
        -12    1    3    3    0    0  0.11437074870E+02 -0.18055595579E+01  0.79260830248E+01  0.14031732573E+02  0.00000000000E+00 0.  1.
</event>
<event>
 7    1  0.2746803E-013  0.5052886E+02  0.7816164E-02  0.1300439E+00
        -11   -1    0    0    0    0  0.00000000000E+00  0.00000000000E+00  0.45593999997E+02  0.45594000000E+02  0.51100000000E-03 0.  1.
         11   -1    0    0    0    0 -0.00000000000E+00 -0.00000000000E+00 -0.45593999997E+02  0.45594000000E+02  0.51100000000E-03 0. -1.
    9900012    2    1    2    0    0  0.35531933278E+02  0.25946013834E+01  0.19593768611E+02  0.50528855798E+02  0.29999987685E+02 0.  0.
         12    1    1    2    0    0 -0.35531933278E+02 -0.25946013834E+01 -0.19593768611E+02  0.40659144202E+02  0.00000000000E+00 0. -1.
         11    1    3    3    0    0  0.37060582236E+00 -0.61128859960E+01  0.48664518613E+01  0.78222169399E+01  0.51100000000E-03 0. -1.
        -11    1    3    3    0    0  0.20695694907E+02 -0.35687854854E+01  0.93364346838E+01  0.22982972618E+02  0.51100000000E-03 0.  1.
        -12    1    3    3    0    0  0.14465632549E+02  0.12276272865E+02  0.53908820658E+01  0.19723666240E+02  0.00000000000E+00 0.  1.
</event>
<event>
 7    1  0.2746803E-013  0.5052886E+02  0.7816164E-02  0.1300439E+00
        -11   -1    0    0    0    0  0.00000000000E+00  0.00000000000E+00  0.45593999997E+02  0.45594000000E+02  0.51100000000E-03 0. -1.
         11   -1    0    0    0    0 -0.00000000000E+00 -0.00000000000E+00 -0.45593999997E+02  0.45594000000E+02  0.51100000000E-03 0.  1.
    9900012    2    1    2    0    0 -0.34768690557E+02  0.93426685187E+01 -0.18894924868E+02  0.50528862235E+02  0.30000007248E+02 0.  0.
         12    1    1    2    0    0  0.34768690557E+02 -0.93426685187E+01  0.18894924868E+02  0.40659137765E+02  0.00000000000E+00 0. -1.
         11    1    3    3    0    0 -0.11072075081E+02 -0.74333475891E+01 -0.89803826276E+01  0.16077710514E+02  0.51100000000E-03 0. -1.
        -11    1    3    3    0    0  0.19877187633E+01  0.26940297333E+01  0.45432426163E+00  0.33786436453E+01  0.51100000000E-03 0.  1.
        -12    1    3    3    0    0 -0.25684334239E+02  0.14081986375E+02 -0.10368866502E+02  0.31072508075E+02  0.00000000000E+00 0.  1.
</event>
<event>
 7    1  0.2746803E-013  0.5052886E+02  0.7816164E-02  0.1300439E+00
        -11   -1    0    0    0    0  0.00000000000E+00  0.00000000000E+00  0.45593999997E+02  0.45594000000E+02  0.51100000000E-03 0. -1.
         11   -1    0    0    0    0 -0.00000000000E+00 -0.00000000000E+00 -0.45593999997E+02  0.45594000000E+02  0.51100000000E-03 0.  1.
    9900012    2    1    2    0    0 -0.40159816536E+02  0.42318351719E+01 -0.47377446246E+01  0.50528861824E+02  0.30000006000E+02 0.  0.
         12    1    1    2    0    0  0.40159816536E+02 -0.42318351719E+01  0.47377446246E+01  0.40659138176E+02  0.00000000000E+00 0. -1.
         11    1    3    3    0    0  0.12746259489E+00 -0.39716608526E+01 -0.16098409133E+01  0.42874146836E+01  0.51100000000E-03 0. -1.
        -11    1    3    3    0    0 -0.11199369883E+02  0.90303749415E+01 -0.84127705484E+01  0.16665781287E+02  0.51100000000E-03 0.  1.
        -12    1    3    3    0    0 -0.29087909248E+02 -0.82687891698E+00  0.52848668371E+01  0.29575665853E+02  0.00000000000E+00 0.  1.
</event>
<event>
 7    1  0.2746803E-013  0.5052886E+02  0.7816164E-02  0.1300439E+00
        -11   -1    0    0    0    0  0.00000000000E+00  0.00000000000E+00  0.45593999997E+02  0.45594000000E+02  0.51100000000E-03 0.  1.
         11   -1    0    0    0    0 -0.00000000000E+00 -0.00000000000E+00 -0.45593999997E+02  0.45594000000E+02  0.51100000000E-03 0. -1.
    9900012    2    1    2    0    0  0.32631995800E+02  0.49813375732E+01  0.23738258982E+02  0.50528858182E+02  0.29999994929E+02 0.  0.
         12    1    1    2    0    0 -0.32631995800E+02 -0.49813375732E+01 -0.23738258982E+02  0.40659141818E+02  0.00000000000E+00 0. -1.
         11    1    3    3    0    0  0.15142789681E+02  0.38389752469E+01 -0.18943732518E+01  0.15736278485E+02  0.51100000000E-03 0. -1.
        -11    1    3    3    0    0  0.23394091240E+01  0.68306405468E+01  0.63119022906E+01  0.95901301408E+01  0.51100000000E-03 0.  1.
        -12    1    3    3    0    0  0.15149796995E+02 -0.56882782205E+01  0.19320729943E+02  0.25202449556E+02  0.00000000000E+00 0.  1.
</event>
<event>
 7    1  0.2746803E-013  0.5052886E+02  0.7816164E-02  0.1300439E+00
        -11   -1    0    0    0    0  0.00000000000E+00  0.00000000000E+00  0.45593999997E+02  0.45594000000E+02  0.51100000000E-03 0.  1.
         11   -1    0    0    0    0 -0.00000000000E+00 -0.00000000000E+00 -0.45593999997E+02  0.45594000000E+02  0.51100000000E-03 0. -1.
    9900012    2    1    2    0    0 -0.29363637056E+02  0.26412132241E+02 -0.96613331295E+01  0.50528864883E+02  0.30000015297E+02 0.  0.
         12    1    1    2    0    0  0.29363637056E+02 -0.26412132241E+02  0.96613331295E+01  0.40659135117E+02  0.00000000000E+00 0. -1.
         11    1    3    3    0    0 -0.91153237573E+01  0.91170801198E+01 -0.11252353089E+02  0.17112151455E+02  0.51100000000E-03 0. -1.
        -11    1    3    3    0    0 -0.52552392749E+01 -0.33302549283E+01 -0.38869821628E+01  0.73359912976E+01  0.51100000000E-03 0.  1.
        -12    1    3    3    0    0 -0.14993074024E+02  0.20625307049E+02  0.54780021228E+01  0.26080722130E+02  0.00000000000E+00 0.  1.
</event>
<event>
 7    1  0.2746803E-013  0.5052887E+02  0.7816164E-02  0.1300439E+00
        -11   -1    0    0    0    0  0.00000000000E+00  0.00000000000E+00  0.45593999997E+02  0.45594000000E+02  0.51100000000E-03 0.  1.
         11   -1    0    0    0    0 -0.00000000000E+00 -0.00000000000E+00 -0.45593999997E+02  0.45594000000E+02  0.51100000000E-03 0. -1.
    9900012    2    1    2    0    0  0.29920697851E+02 -0.24826071597E+02 -0.11898858778E+02  0.50528870262E+02  0.30000031648E+02 0.  0.
         12    1    1    2    0    0 -0.29920697851E+02  0.24826071597E+02  0.11898858778E+02  0.40659129738E+02  0.00000000000E+00 0. -1.
         11    1    3    3    0    0 -0.19413575104E+00 -0.22230030897E+01 -0.91369776978E+01  0.94055192912E+01  0.51100000000E-03 0. -1.
        -11    1    3    3    0    0  0.24936867999E+02 -0.91087054866E+01 -0.25191700016E+01  0.26667623048E+02  0.51100000000E-03 0.  1.
        -12    1    3    3    0    0  0.51779656026E+01 -0.13494363021E+02 -0.24271107878E+00  0.14455727923E+02  0.00000000000E+00 0.  1.
</event>
<event>
 7    1  0.2746803E-013  0.5052887E+02  0.7816164E-02  0.1300439E+00
        -11   -1    0    0    0    0  0.00000000000E+00  0.00000000000E+00  0.45593999997E+02  0.45594000000E+02  0.51100000000E-03 0.  1.
         11   -1    0    0    0    0 -0.00000000000E+00 -0.00000000000E+00 -0.45593999997E+02  0.45594000000E+02  0.51100000000E-03 0. -1.
    9900012    2    1    2    0    0  0.28286868034E+02 -0.53726938926E+01  0.28708052939E+02  0.50528867614E+02  0.30000023600E+02 0.  0.
         12    1    1    2    0    0 -0.28286868034E+02  0.53726938926E+01 -0.28708052939E+02  0.40659132386E+02  0.00000000000E+00 0. -1.
         11    1    3    3    0    0 -0.64191659996E+00 -0.29186155454E+01  0.11044859286E+01  0.31859477476E+01  0.51100000000E-03 0. -1.
        -11    1    3    3    0    0  0.20273188085E+02 -0.93844650036E+01  0.28507282292E+02  0.36217888985E+02  0.51100000000E-03 0.  1.
        -12    1    3    3    0    0  0.86555965485E+01  0.69303866564E+01 -0.90371528211E+00  0.11125030882E+02  0.00000000000E+00 0.  1.
</event>
<event>
 7    1  0.2746803E-013  0.5052886E+02  0.7816164E-02  0.1300439E+00
        -11   -1    0    0    0    0  0.00000000000E+00  0.00000000000E+00  0.45593999997E+02  0.45594000000E+02  0.51100000000E-03 0.  1.
         11   -1    0    0    0    0 -0.00000000000E+00 -0.00000000000E+00 -0.45593999997E+02  0.45594000000E+02  0.51100000000E-03 0. -1.
    9900012    2    1    2    0    0  0.25960607508E+02  0.10992793548E+02  0.29297972700E+02  0.50528857651E+02  0.29999993317E+02 0.  0.
         12    1    1    2    0    0 -0.25960607508E+02 -0.10992793548E+02 -0.29297972700E+02  0.40659142349E+02  0.00000000000E+00 0. -1.
         11    1    3    3    0    0  0.14448748921E+02 -0.50661382226E+01  0.27129733474E+01  0.15549672875E+02  0.51100000000E-03 0. -1.
        -11    1    3    3    0    0 -0.17939435251E+01  0.27380364388E+01  0.14645782124E+01  0.35860934892E+01  0.51100000000E-03 0.  1.
        -12    1    3    3    0    0  0.13305802113E+02  0.13320895332E+02  0.25120421140E+02  0.31393091287E+02  0.00000000000E+00 0.  1.
</event>
<event>
 7    1  0.2746803E-013  0.5052885E+02  0.7816164E-02  0.1300439E+00
        -11   -1    0    0    0    0  0.00000000000E+00  0.00000000000E+00  0.45593999997E+02  0.45594000000E+02  0.51100000000E-03 0.  1.
         11   -1    0    0    0    0 -0.00000000000E+00 -0.00000000000E+00 -0.45593999997E+02  0.45594000000E+02  0.51100000000E-03 0. -1.
    9900012    2    1    2    0    0  0.13000381734E+02 -0.19223254898E+02  0.33385969946E+02  0.50528850435E+02  0.29999971381E+02 0.  0.
         12    1    1    2    0    0 -0.13000381734E+02  0.19223254898E+02 -0.33385969946E+02  0.40659149565E+02  0.00000000000E+00 0. -1.
         11    1    3    3    0    0  0.95559767553E+01 -0.31173982805E+00  0.90017719034E+01  0.13131860916E+02  0.51100000000E-03 0. -1.
        -11    1    3    3    0    0 -0.12547461101E+01  0.41264900710E+01  0.14460376290E+01  0.45489925470E+01  0.51100000000E-03 0.  1.
        -12    1    3    3    0    0  0.46991510893E+01 -0.23038005141E+02  0.22938160414E+02  0.32847996971E+02  0.00000000000E+00 0.  1.
</event>
<event>
 7    1  0.2746803E-013  0.5052885E+02  0.7816164E-02  0.1300439E+00
        -11   -1    0    0    0    0  0.00000000000E+00  0.00000000000E+00  0.45593999997E+02  0.45594000000E+02  0.51100000000E-03 0. -1.
         11   -1    0    0    0    0 -0.00000000000E+00 -0.00000000000E+00 -0.45593999997E+02  0.45594000000E+02  0.51100000000E-03 0.  1.
    9900012    2    1    2    0    0 -0.23417133239E+02 -0.13527433010E+02 -0.30361368818E+02  0.50528852327E+02  0.29999977133E+02 0.  0.
         12    1    1    2    0    0  0.23417133239E+02  0.13527433010E+02  0.30361368818E+02  0.40659147673E+02  0.00000000000E+00 0. -1.
         11    1    3    3    0    0  0.57505820407E+00  0.10007105077E+01 -0.12803148673E+01  0.17237516871E+01  0.51100000000E-03 0.  1.
        -11    1    3    3    0    0 -0.28121262027E+02 -0.11820525303E+02 -0.15219783761E+02  0.34090644089E+02  0.51100000000E-03 0. -1.
         12    1    3    3    0    0  0.41290705839E+01 -0.27076182146E+01 -0.13861270190E+02  0.14714456550E+02  0.00000000000E+00 0. -1.
</event>
<event>
 7    1  0.2746803E-013  0.5052891E+02  0.7816164E-02  0.1300439E+00
        -11   -1    0    0    0    0  0.00000000000E+00  0.00000000000E+00  0.45593999997E+02  0.45594000000E+02  0.51100000000E-03 0.  1.
         11   -1    0    0    0    0 -0.00000000000E+00 -0.00000000000E+00 -0.45593999997E+02  0.45594000000E+02  0.51100000000E-03 0. -1.
    9900012    2    1    2    0    0  0.16746806972E+02 -0.28957182091E+02  0.23112500427E+02  0.50528909818E+02  0.30000151883E+02 0.  0.
         12    1    1    2    0    0 -0.16746806972E+02  0.28957182091E+02 -0.23112500427E+02  0.40659090182E+02  0.00000000000E+00 0. -1.
         11    1    3    3    0    0 -0.15542199410E+01  0.38144488417E+01  0.77044864567E+01  0.87364026586E+01  0.51100000000E-03 0. -1.
        -11    1    3    3    0    0  0.62827977445E+01 -0.48017185357E+01  0.60098834059E+01  0.99322075697E+01  0.51100000000E-03 0.  1.
        -12    1    3    3    0    0  0.12018229169E+02 -0.27969912397E+02  0.93981305645E+01  0.31860299590E+02  0.00000000000E+00 0.  1.
</event>
<event>
 7    1  0.2746803E-013  0.5052887E+02  0.7816164E-02  0.1300439E+00
        -11   -1    0    0    0    0  0.00000000000E+00  0.00000000000E+00  0.45593999997E+02  0.45594000000E+02  0.51100000000E-03 0.  1.
         11   -1    0    0    0    0 -0.00000000000E+00 -0.00000000000E+00 -0.45593999997E+02  0.45594000000E+02  0.51100000000E-03 0. -1.
    9900012    2    1    2    0    0 -0.33771640110E+02 -0.20550309613E+02  0.95039981594E+01  0.50528869636E+02  0.30000029747E+02 0.  0.
         12    1    1    2    0    0  0.33771640110E+02  0.20550309613E+02 -0.95039981594E+01  0.40659130364E+02  0.00000000000E+00 0. -1.
         11    1    3    3    0    0  0.13166776747E+01 -0.34400698264E+01  0.52234788056E+01  0.63915922589E+01  0.51100000000E-03 0. -1.
        -11    1    3    3    0    0 -0.13388988154E+02 -0.17715097561E+02  0.27570479848E+01  0.22376125653E+02  0.51100000000E-03 0.  1.
        -12    1    3    3    0    0 -0.21699329631E+02  0.60485777455E+00  0.15234713690E+01  0.21761151724E+02  0.00000000000E+00 0.  1.
</event>
<event>
 7    1  0.2746803E-013  0.5052887E+02  0.7816164E-02  0.1300439E+00
        -11   -1    0    0    0    0  0.00000000000E+00  0.00000000000E+00  0.45593999997E+02  0.45594000000E+02  0.51100000000E-03 0. -1.
         11   -1    0    0    0    0 -0.00000000000E+00 -0.00000000000E+00 -0.45593999997E+02  0.45594000000E+02  0.51100000000E-03 0.  1.
    9900012    2    1    2    0    0 -0.33702297002E+02 -0.10113235679E+02 -0.20372601032E+02  0.50528865332E+02  0.30000016664E+02 0.  0.
         12    1    1    2    0    0  0.33702297002E+02  0.10113235679E+02  0.20372601032E+02  0.40659134668E+02  0.00000000000E+00 0. -1.
         11    1    3    3    0    0 -0.16134368058E+02  0.41711145321E+00 -0.17127236417E+02  0.23533678891E+02  0.51100000000E-03 0. -1.
        -11    1    3    3    0    0 -0.87457599688E+01  0.18176464067E+01  0.44501346706E+01  0.99797722789E+01  0.51100000000E-03 0.  1.
        -12    1    3    3    0    0 -0.88221689753E+01 -0.12347993539E+02 -0.76954992850E+01  0.17015414162E+02  0.00000000000E+00 0.  1.
</event>
<event>
 7    1  0.2746803E-013  0.5052887E+02  0.7816164E-02  0.1300439E+00
        -11   -1    0    0    0    0  0.00000000000E+00  0.00000000000E+00  0.45593999997E+02  0.45594000000E+02  0.51100000000E-03 0. -1.
         11   -1    0    0    0    0 -0.00000000000E+00 -0.00000000000E+00 -0.45593999997E+02  0.45594000000E+02  0.51100000000E-03 0.  1.
    9900012    2    1    2    0    0  0.11449232996E+02  0.59882410000E+01 -0.38551532330E+02  0.50528872962E+02  0.30000039856E+02 0.  0.
         12    1    1    2    0    0 -0.11449232996E+02 -0.59882410000E+01  0.38551532330E+02  0.40659127038E+02  0.00000000000E+00 0. -1.
         11    1    3    3    0    0 -0.31570953666E+01  0.40915175732E+01  0.11476375306E+01  0.52938492016E+01  0.51100000000E-03 0. -1.
        -11    1    3    3    0    0  0.65576432915E+01 -0.69545505854E+01 -0.20402681505E+02  0.22530820497E+02  0.51100000000E-03 0.  1.
        -12    1    3    3    0    0  0.80486850715E+01  0.88512740122E+01 -0.19296488355E+02  0.22704203264E+02  0.00000000000E+00 0.  1.
</event>
<event>
 7    1  0.2746803E-013  0.5052885E+02  0.7816164E-02  0.1300439E+00
        -11   -1    0    0    0    0  0.00000000000E+00  0.00000000000E+00  0.45593999997E+02  0.45594000000E+02  0.51100000000E-03 0.  1.
         11   -1    0    0    0    0 -0.00000000000E+00 -0.00000000000E+00 -0.45593999997E+02  0.45594000000E+02  0.51100000000E-03 0. -1.
    9900012    2    1    2    0    0 -0.38083607577E+02 -0.13084656353E+02  0.56211213042E+01  0.50528850935E+02  0.29999972903E+02 0.  0.
         12    1    1    2    0    0  0.38083607577E+02  0.13084656353E+02 -0.56211213042E+01  0.40659149065E+02  0.00000000000E+00 0. -1.
         11    1    3    3    0    0 -0.12151653407E+02 -0.35517070858E+01 -0.81075966329E+01  0.15033643177E+02  0.51100000000E-03 0. -1.
        -11    1    3    3    0    0 -0.14430405508E+02 -0.12538166941E+02  0.27497723098E+01  0.19313298045E+02  0.51100000000E-03 0.  1.
        -12    1    3    3    0    0 -0.11501548662E+02  0.30052176738E+01  0.10978945627E+02  0.16181909713E+02  0.00000000000E+00 0.  1.
</event>
<event>
 7    1  0.2746803E-013  0.5052881E+02  0.7816164E-02  0.1300439E+00
        -11   -1    0    0    0    0  0.00000000000E+00  0.00000000000E+00  0.45593999997E+02  0.45594000000E+02  0.51100000000E-03 0.  1.
         11   -1    0    0    0    0 -0.00000000000E+00 -0.00000000000E+00 -0.45593999997E+02  0.45594000000E+02  0.51100000000E-03 0. -1.
    9900012    2    1    2    0    0  0.97101798428E+01 -0.43741965138E+01  0.39239630370E+02  0.50528809412E+02  0.29999846688E+02 0.  0.
         12    1    1    2    0    0 -0.97101798428E+01  0.43741965138E+01 -0.39239630370E+02  0.40659190588E+02  0.00000000000E+00 0. -1.
         11    1    3    3    0    0  0.30375455058E+01  0.45686264519E+01  0.45246816018E+01  0.71113834249E+01  0.51100000000E-03 0. -1.
        -11    1    3    3    0    0 -0.19422991705E+01 -0.35931107307E+01  0.32854409815E+02  0.33107328726E+02  0.51100000000E-03 0.  1.
         12    1    3    3    0    0  0.86149335076E+01 -0.53497122351E+01  0.18605389528E+01  0.10310097261E+02  0.00000000000E+00 0. -1.
</event>
<event>
 7    1  0.2746803E-013  0.5052886E+02  0.7816164E-02  0.1300439E+00
        -11   -1    0    0    0    0  0.00000000000E+00  0.00000000000E+00  0.45593999997E+02  0.45594000000E+02  0.51100000000E-03 0.  1.
         11   -1    0    0    0    0 -0.00000000000E+00 -0.00000000000E+00 -0.45593999997E+02  0.45594000000E+02  0.51100000000E-03 0. -1.
    9900012    2    1    2    0    0 -0.32604492898E+01  0.13075874035E+02  0.38360873851E+02  0.50528860143E+02  0.30000000889E+02 0.  0.
         12    1    1    2    0    0  0.32604492898E+01 -0.13075874035E+02 -0.38360873851E+02  0.40659139857E+02  0.00000000000E+00 0. -1.
         11    1    3    3    0    0  0.11913689317E+01  0.66638201897E+01  0.55227945298E+01  0.87365393110E+01  0.51100000000E-03 0. -1.
        -11    1    3    3    0    0 -0.12869090379E+02  0.53250779502E+01  0.92381394503E+01  0.16712664752E+02  0.51100000000E-03 0.  1.
        -12    1    3    3    0    0  0.84172721572E+01  0.10869758947E+01  0.23599939871E+02  0.25079656079E+02  0.00000000000E+00 0.  1.
</event>
<event>
 7    1  0.2746803E-013  0.5052886E+02  0.7816164E-02  0.1300439E+00
        -11   -1    0    0    0    0  0.00000000000E+00  0.00000000000E+00  0.45593999997E+02  0.45594000000E+02  0.51100000000E-03 0. -1.
         11   -1    0    0    0    0 -0.00000000000E+00 -0.00000000000E+00 -0.45593999997E+02  0.45594000000E+02  0.51100000000E-03 0.  1.
    9900012    2    1    2    0    0 -0.29532673395E+01  0.38366066693E+02 -0.13133496905E+02  0.50528860776E+02  0.30000002816E+02 0.  0.
         12    1    1    2    0    0  0.29532673395E+01 -0.38366066693E+02  0.13133496905E+02  0.40659139224E+02  0.00000000000E+00 0. -1.
         11    1    3    3    0    0  0.53190922308E+01  0.20907541085E+01  0.71070326054E+00  0.57592616095E+01  0.51100000000E-03 0. -1.
        -11    1    3    3    0    0 -0.50357119342E+00  0.31347700809E+02 -0.45287958642E+01  0.31677151422E+02  0.51100000000E-03 0.  1.
         12    1    3    3    0    0 -0.77687883769E+01  0.49276117752E+01 -0.93154043015E+01  0.13092447745E+02  0.00000000000E+00 0. -1.
</event>
<event>
 7    1  0.2746803E-013  0.5052887E+02  0.7816164E-02  0.1300439E+00
        -11   -1    0    0    0    0  0.00000000000E+00  0.00000000000E+00  0.45593999997E+02  0.45594000000E+02  0.51100000000E-03 0.  1.
         11   -1    0    0    0    0 -0.00000000000E+00 -0.00000000000E+00 -0.45593999997E+02  0.45594000000E+02  0.51100000000E-03 0. -1.
    9900012    2    1    2    0    0  0.30066149248E+02 -0.19836957859E+02  0.18859665080E+02  0.50528865791E+02  0.30000018058E+02 0.  0.
         12    1    1    2    0    0 -0.30066149248E+02  0.19836957859E+02 -0.18859665080E+02  0.40659134209E+02  0.00000000000E+00 0. -1.
         11    1    3    3    0    0  0.20812887219E+02 -0.97479487018E+01  0.12813994117E+02  0.26313441884E+02  0.51100000000E-03 0.  1.
        -11    1    3    3    0    0  0.42787831528E+01 -0.52081726327E+01  0.12827850146E+02  0.14490920849E+02  0.51100000000E-03 0. -1.
         12    1    3    3    0    0  0.49744788757E+01 -0.48808365247E+01 -0.67821791821E+01  0.97245030580E+01  0.00000000000E+00 0. -1.
</event>
<event>
 7    1  0.2746803E-013  0.5052886E+02  0.7816164E-02  0.1300439E+00
        -11   -1    0    0    0    0  0.00000000000E+00  0.00000000000E+00  0.45593999997E+02  0.45594000000E+02  0.51100000000E-03 0. -1.
         11   -1    0    0    0    0 -0.00000000000E+00 -0.00000000000E+00 -0.45593999997E+02  0.45594000000E+02  0.51100000000E-03 0.  1.
    9900012    2    1    2    0    0 -0.15363367182E+02  0.35628357758E+02  0.12155360102E+02  0.50528859491E+02  0.29999998909E+02 0.  0.
         12    1    1    2    0    0  0.15363367182E+02 -0.35628357758E+02 -0.12155360102E+02  0.40659140509E+02  0.00000000000E+00 0. -1.
         11    1    3    3    0    0 -0.55908738650E-01  0.43200788439E+01  0.48780235332E+01  0.65162351750E+01  0.51100000000E-03 0. -1.
        -11    1    3    3    0    0 -0.19197628477E+02  0.11767419840E+02  0.84582457263E+01  0.24053337187E+02  0.51100000000E-03 0.  1.
        -12    1    3    3    0    0  0.38901700328E+01  0.19540859074E+02 -0.11809091574E+01  0.19959287129E+02  0.00000000000E+00 0.  1.
</event>
<event>
 7    1  0.2746803E-013  0.5052886E+02  0.7816164E-02  0.1300439E+00
        -11   -1    0    0    0    0  0.00000000000E+00  0.00000000000E+00  0.45593999997E+02  0.45594000000E+02  0.51100000000E-03 0.  1.
         11   -1    0    0    0    0 -0.00000000000E+00 -0.00000000000E+00 -0.45593999997E+02  0.45594000000E+02  0.51100000000E-03 0. -1.
    9900012    2    1    2    0    0 -0.18858924283E+01 -0.39248213244E+02 -0.10449244225E+02  0.50528861568E+02  0.30000005224E+02 0.  0.
         12    1    1    2    0    0  0.18858924283E+01  0.39248213244E+02  0.10449244225E+02  0.40659138432E+02  0.00000000000E+00 0. -1.
         11    1    3    3    0    0  0.59649652862E+01 -0.10433752464E+01 -0.58143910858E+01  0.83950334562E+01  0.51100000000E-03 0. -1.
        -11    1    3    3    0    0  0.59894325252E+00 -0.27048122649E+01  0.37779643178E+01  0.46848433331E+01  0.51100000000E-03 0.  1.
        -12    1    3    3    0    0 -0.84498009670E+01 -0.35500025733E+02 -0.84128174568E+01  0.37448984779E+02  0.00000000000E+00 0.  1.
</event>
<event>
 7    1  0.2746803E-013  0.5052886E+02  0.7816164E-02  0.1300439E+00
        -11   -1    0    0    0    0  0.00000000000E+00  0.00000000000E+00  0.45593999997E+02  0.45594000000E+02  0.51100000000E-03 0.  1.
         11   -1    0    0    0    0 -0.00000000000E+00 -0.00000000000E+00 -0.45593999997E+02  0.45594000000E+02  0.51100000000E-03 0. -1.
    9900012    2    1    2    0    0 -0.37104015836E+02  0.16071634746E+02 -0.42614755681E+01  0.50528860701E+02  0.30000002586E+02 0.  0.
         12    1    1    2    0    0  0.37104015836E+02 -0.16071634746E+02  0.42614755681E+01  0.40659139299E+02  0.00000000000E+00 0. -1.
         11    1    3    3    0    0 -0.32493650666E+02  0.60330695995E+01 -0.89011762209E+01  0.34226688429E+02  0.51100000000E-03 0.  1.
        -11    1    3    3    0    0 -0.44618053487E+00 -0.15794965266E+01 -0.17543315211E+01  0.24024083113E+01  0.51100000000E-03 0. -1.
        -12    1    3    3    0    0 -0.41641846342E+01  0.11618061673E+02  0.63940321740E+01  0.13899763961E+02  0.00000000000E+00 0.  1.
</event>
<event>
 7    1  0.2746803E-013  0.5052886E+02  0.7816164E-02  0.1300439E+00
        -11   -1    0    0    0    0  0.00000000000E+00  0.00000000000E+00  0.45593999997E+02  0.45594000000E+02  0.51100000000E-03 0.  1.
         11   -1    0    0    0    0 -0.00000000000E+00 -0.00000000000E+00 -0.45593999997E+02  0.45594000000E+02  0.51100000000E-03 0. -1.
    9900012    2    1    2    0    0  0.37608774116E+02  0.10216368925E+02  0.11591888933E+02  0.50528856212E+02  0.29999988942E+02 0.  0.
         12    1    1    2    0    0 -0.37608774116E+02 -0.10216368925E+02 -0.11591888933E+02  0.40659143788E+02  0.00000000000E+00 0. -1.
         11    1    3    3    0    0  0.13373960049E+02 -0.15199128899E+01  0.33518630506E+01  0.13871118511E+02  0.51100000000E-03 0. -1.
        -11    1    3    3    0    0  0.26541320863E+02  0.15663263037E+02  0.53929374951E+01  0.31286791098E+02  0.51100000000E-03 0.  1.
         12    1    3    3    0    0 -0.23065067953E+01 -0.39269812229E+01  0.28470883875E+01  0.53709466026E+01  0.00000000000E+00 0. -1.
</event>
<event>
 7    1  0.2746803E-013  0.5052886E+02  0.7816164E-02  0.1300439E+00
        -11   -1    0    0    0    0  0.00000000000E+00  0.00000000000E+00  0.45593999997E+02  0.45594000000E+02  0.51100000000E-03 0.  1.
         11   -1    0    0    0    0 -0.00000000000E+00 -0.00000000000E+00 -0.45593999997E+02  0.45594000000E+02  0.51100000000E-03 0. -1.
    9900012    2    1    2    0    0 -0.11130660030E+02  0.32017445973E+02  0.22453448576E+02  0.50528858441E+02  0.29999995718E+02 0.  0.
         12    1    1    2    0    0  0.11130660030E+02 -0.32017445973E+02 -0.22453448576E+02  0.40659141559E+02  0.00000000000E+00 0. -1.
         11    1    3    3    0    0  0.28184923460E+01  0.15165179715E+02  0.14248949572E+02  0.20999027099E+02  0.51100000000E-03 0. -1.
        -11    1    3    3    0    0 -0.11771455917E+02  0.66349890850E+01  0.12335149990E+02  0.18296070073E+02  0.51100000000E-03 0.  1.
         12    1    3    3    0    0 -0.21776964587E+01  0.10217277173E+02 -0.41306509869E+01  0.11233761270E+02  0.00000000000E+00 0. -1.
</event>
<event>
 7    1  0.2746803E-013  0.5052885E+02  0.7816164E-02  0.1300439E+00
        -11   -1    0    0    0    0  0.00000000000E+00  0.00000000000E+00  0.45593999997E+02  0.45594000000E+02  0.51100000000E-03 0. -1.
         11   -1    0    0    0    0 -0.00000000000E+00 -0.00000000000E+00 -0.45593999997E+02  0.45594000000E+02  0.51100000000E-03 0.  1.
    9900012    2    1    2    0    0  0.17416747458E+02 -0.16696362427E+02 -0.32726977124E+02  0.50528847992E+02  0.29999963958E+02 0.  0.
         12    1    1    2    0    0 -0.17416747458E+02  0.16696362427E+02  0.32726977124E+02  0.40659152008E+02  0.00000000000E+00 0. -1.
         11    1    3    3    0    0  0.63553370819E+01 -0.49009472220E+01 -0.81235467949E+00  0.80665676396E+01  0.51100000000E-03 0. -1.
        -11    1    3    3    0    0  0.18157028842E+02 -0.93739064727E+01 -0.24707414415E+02  0.32062503743E+02  0.51100000000E-03 0.  1.
         12    1    3    3    0    0 -0.70956184662E+01 -0.24215087322E+01 -0.72072080295E+01  0.10399776610E+02  0.00000000000E+00 0. -1.
</event>
<event>
 7    1  0.2746803E-013  0.5052887E+02  0.7816164E-02  0.1300439E+00
        -11   -1    0    0    0    0  0.00000000000E+00  0.00000000000E+00  0.45593999997E+02  0.45594000000E+02  0.51100000000E-03 0.  1.
         11   -1    0    0    0    0 -0.00000000000E+00 -0.00000000000E+00 -0.45593999997E+02  0.45594000000E+02  0.51100000000E-03 0. -1.
    9900012    2    1    2    0    0 -0.74787452902E+01 -0.13712744728E+02  0.37539235710E+02  0.50528865518E+02  0.30000017228E+02 0.  0.
         12    1    1    2    0    0  0.74787452902E+01  0.13712744728E+02 -0.37539235710E+02  0.40659134482E+02  0.00000000000E+00 0. -1.
         11    1    3    3    0    0 -0.11619350323E+02 -0.39021000182E+01  0.11921199271E+02  0.17098265374E+02  0.51100000000E-03 0. -1.
        -11    1    3    3    0    0 -0.23131706871E+00 -0.50647327606E+00  0.22751460869E+02  0.22758273104E+02  0.51100000000E-03 0.  1.
        -12    1    3    3    0    0  0.43719221017E+01 -0.93041714342E+01  0.28665755712E+01  0.10672327040E+02  0.00000000000E+00 0.  1.
</event>
<event>
 7    1  0.2746803E-013  0.5052887E+02  0.7816164E-02  0.1300439E+00
        -11   -1    0    0    0    0  0.00000000000E+00  0.00000000000E+00  0.45593999997E+02  0.45594000000E+02  0.51100000000E-03 0.  1.
         11   -1    0    0    0    0 -0.00000000000E+00 -0.00000000000E+00 -0.45593999997E+02  0.45594000000E+02  0.51100000000E-03 0. -1.
    9900012    2    1    2    0    0  0.34727651710E+02 -0.19000484731E+02  0.92810010889E+01  0.50528865792E+02  0.30000018061E+02 0.  0.
         12    1    1    2    0    0 -0.34727651710E+02  0.19000484731E+02 -0.92810010889E+01  0.40659134208E+02  0.00000000000E+00 0. -1.
         11    1    3    3    0    0  0.15950880724E+02 -0.12765271533E+02  0.29270201516E+01  0.20638561006E+02  0.51100000000E-03 0.  1.
        -11    1    3    3    0    0  0.12636361049E+02 -0.89682921659E+01 -0.53506134412E+01  0.16393198266E+02  0.51100000000E-03 0. -1.
        -12    1    3    3    0    0  0.61404099376E+01  0.27330789675E+01  0.11704594378E+02  0.13497106520E+02  0.00000000000E+00 0.  1.
</event>
<event>
 7    1  0.2746803E-013  0.5052887E+02  0.7816164E-02  0.1300439E+00
        -11   -1    0    0    0    0  0.00000000000E+00  0.00000000000E+00  0.45593999997E+02  0.45594000000E+02  0.51100000000E-03 0. -1.
         11   -1    0    0    0    0 -0.00000000000E+00 -0.00000000000E+00 -0.45593999997E+02  0.45594000000E+02  0.51100000000E-03 0.  1.
    9900012    2    1    2    0    0  0.18290250949E+02  0.12885421276E+02 -0.33949926352E+02  0.50528869899E+02  0.30000030546E+02 0.  0.
         12    1    1    2    0    0 -0.18290250949E+02 -0.12885421276E+02  0.33949926352E+02  0.40659130101E+02  0.00000000000E+00 0. -1.
         11    1    3    3    0    0  0.14101393073E+02  0.56249497325E+01 -0.33168111207E+01  0.15539967257E+02  0.51100000000E-03 0. -1.
        -11    1    3    3    0    0  0.70599797632E+01 -0.56152875301E+00 -0.21450373187E+02  0.22589314707E+02  0.51100000000E-03 0.  1.
        -12    1    3    3    0    0 -0.28711218869E+01  0.78220002960E+01 -0.91827420443E+01  0.12399587936E+02  0.00000000000E+00 0.  1.
</event>
<event>
 7    1  0.2746803E-013  0.5052876E+02  0.7816164E-02  0.1300439E+00
        -11   -1    0    0    0    0  0.00000000000E+00  0.00000000000E+00  0.45593999997E+02  0.45594000000E+02  0.51100000000E-03 0.  1.
         11   -1    0    0    0    0 -0.00000000000E+00 -0.00000000000E+00 -0.45593999997E+02  0.45594000000E+02  0.51100000000E-03 0. -1.
    9900012    2    1    2    0    0 -0.10721142247E+02 -0.33609517168E+02  0.20214625667E+02  0.50528762105E+02  0.29999702893E+02 0.  0.
         12    1    1    2    0    0  0.10721142247E+02  0.33609517168E+02 -0.20214625667E+02  0.40659237895E+02  0.00000000000E+00 0. -1.
         11    1    3    3    0    0  0.15193628035E+01 -0.50744568183E-02 -0.10313873306E+00  0.15228679977E+01  0.51100000000E-03 0.  1.
        -11    1    3    3    0    0 -0.53550489463E+01  0.89538155650E+00 -0.35557420771E+01  0.64901124281E+01  0.51100000000E-03 0. -1.
        -12    1    3    3    0    0 -0.68854561041E+01 -0.34499824268E+02  0.23873506477E+02  0.42515781679E+02  0.00000000000E+00 0.  1.
</event>
<event>
 7    1  0.2746803E-013  0.5052886E+02  0.7816164E-02  0.1300439E+00
        -11   -1    0    0    0    0  0.00000000000E+00  0.00000000000E+00  0.45593999997E+02  0.45594000000E+02  0.51100000000E-03 0.  1.
         11   -1    0    0    0    0 -0.00000000000E+00 -0.00000000000E+00 -0.45593999997E+02  0.45594000000E+02  0.51100000000E-03 0. -1.
    9900012    2    1    2    0    0  0.32378610442E+02 -0.20396732413E+01  0.24507782069E+02  0.50528855112E+02  0.29999985598E+02 0.  0.
         12    1    1    2    0    0 -0.32378610442E+02  0.20396732413E+01 -0.24507782069E+02  0.40659144888E+02  0.00000000000E+00 0. -1.
         11    1    3    3    0    0  0.15431833662E+01 -0.24571719621E+01  0.11721119646E+01  0.31293698522E+01  0.51100000000E-03 0. -1.
        -11    1    3    3    0    0 -0.35722977290E+01 -0.39105697936E+01  0.77313021084E+01  0.93716007026E+01  0.51100000000E-03 0.  1.
         12    1    3    3    0    0  0.34407724805E+02  0.43280685145E+01  0.15604367996E+02  0.38027884557E+02  0.00000000000E+00 0. -1.
</event>
<event>
 7    1  0.2746803E-013  0.5052887E+02  0.7816164E-02  0.1300439E+00
        -11   -1    0    0    0    0  0.00000000000E+00  0.00000000000E+00  0.45593999997E+02  0.45594000000E+02  0.51100000000E-03 0. -1.
         11   -1    0    0    0    0 -0.00000000000E+00 -0.00000000000E+00 -0.45593999997E+02  0.45594000000E+02  0.51100000000E-03 0.  1.
    9900012    2    1    2    0    0 -0.12693578882E+02  0.36503973555E+02 -0.12629259350E+02  0.50528865456E+02  0.30000017040E+02 0.  0.
         12    1    1    2    0    0  0.12693578882E+02 -0.36503973555E+02  0.12629259350E+02  0.40659134544E+02  0.00000000000E+00 0. -1.
         11    1    3    3    0    0 -0.42396638787E+01  0.24829041184E+02  0.42473986285E+01  0.25544009695E+02  0.51100000000E-03 0. -1.
        -11    1    3    3    0    0 -0.18151010850E+01  0.59490972785E+01 -0.29330468924E+00  0.62267470063E+01  0.51100000000E-03 0.  1.
        -12    1    3    3    0    0 -0.66388139183E+01  0.57258350928E+01 -0.16583353289E+02  0.18758108755E+02  0.00000000000E+00 0.  1.
</event>
<event>
 7    1  0.2746803E-013  0.5052885E+02  0.7816164E-02  0.1300439E+00
        -11   -1    0    0    0    0  0.00000000000E+00  0.00000000000E+00  0.45593999997E+02  0.45594000000E+02  0.51100000000E-03 0. -1.
         11   -1    0    0    0    0 -0.00000000000E+00 -0.00000000000E+00 -0.45593999997E+02  0.45594000000E+02  0.51100000000E-03 0.  1.
    9900012    2    1    2    0    0 -0.26993981871E+02  0.29173290940E+02 -0.85679720044E+01  0.50528854586E+02  0.29999984000E+02 0.  0.
         12    1    1    2    0    0  0.26993981871E+02 -0.29173290940E+02  0.85679720044E+01  0.40659145414E+02  0.00000000000E+00 0. -1.
         11    1    3    3    0    0 -0.74784884769E+01  0.99178558451E+01  0.34125317213E+01  0.12881654687E+02  0.51100000000E-03 0.  1.
        -11    1    3    3    0    0 -0.14160950791E+02  0.24420163625E+02 -0.10009421602E+02  0.29951050730E+02  0.51100000000E-03 0. -1.
         12    1    3    3    0    0 -0.53545426036E+01 -0.51647285308E+01 -0.19710821241E+01  0.76961491689E+01  0.00000000000E+00 0. -1.
</event>
<event>
 7    1  0.2746803E-013  0.5052884E+02  0.7816164E-02  0.1300439E+00
        -11   -1    0    0    0    0  0.00000000000E+00  0.00000000000E+00  0.45593999997E+02  0.45594000000E+02  0.51100000000E-03 0. -1.
         11   -1    0    0    0    0 -0.00000000000E+00 -0.00000000000E+00 -0.45593999997E+02  0.45594000000E+02  0.51100000000E-03 0.  1.
    9900012    2    1    2    0    0  0.77663496246E+01  0.32945462437E+01 -0.39774321760E+02  0.50528844907E+02  0.29999954579E+02 0.  0.
         12    1    1    2    0    0 -0.77663496246E+01 -0.32945462437E+01  0.39774321760E+02  0.40659155093E+02  0.00000000000E+00 0. -1.
         11    1    3    3    0    0  0.10483950648E+02  0.78148268728E+01 -0.30038779377E+02  0.32761456118E+02  0.51100000000E-03 0. -1.
        -11    1    3    3    0    0  0.53873154314E+01 -0.56140920314E+00 -0.16724776416E+01  0.56688208275E+01  0.51100000000E-03 0.  1.
        -12    1    3    3    0    0 -0.81049164544E+01 -0.39588714260E+01 -0.80630647409E+01  0.12098567961E+02  0.00000000000E+00 0.  1.
</event>
<event>
 7    1  0.2746803E-013  0.5052884E+02  0.7816164E-02  0.1300439E+00
        -11   -1    0    0    0    0  0.00000000000E+00  0.00000000000E+00  0.45593999997E+02  0.45594000000E+02  0.51100000000E-03 0.  1.
         11   -1    0    0    0    0 -0.00000000000E+00 -0.00000000000E+00 -0.45593999997E+02  0.45594000000E+02  0.51100000000E-03 0. -1.
    9900012    2    1    2    0    0 -0.15429026941E+02  0.28034309065E+02  0.25083661734E+02  0.50528838141E+02  0.29999934013E+02 0.  0.
         12    1    1    2    0    0  0.15429026941E+02 -0.28034309065E+02 -0.25083661734E+02  0.40659161859E+02  0.00000000000E+00 0. -1.
         11    1    3    3    0    0  0.53267714274E+01  0.22236828798E+01  0.54875975454E+01  0.79644828126E+01  0.51100000000E-03 0. -1.
        -11    1    3    3    0    0  0.14514241258E+01  0.21568170800E+01  0.75005072429E+01  0.79382681405E+01  0.51100000000E-03 0.  1.
        -12    1    3    3    0    0 -0.22207222494E+02  0.23653809106E+02  0.12095556946E+02  0.34626087188E+02  0.00000000000E+00 0.  1.
</event>
<event>
 7    1  0.2746803E-013  0.5052883E+02  0.7816164E-02  0.1300439E+00
        -11   -1    0    0    0    0  0.00000000000E+00  0.00000000000E+00  0.45593999997E+02  0.45594000000E+02  0.51100000000E-03 0.  1.
         11   -1    0    0    0    0 -0.00000000000E+00 -0.00000000000E+00 -0.45593999997E+02  0.45594000000E+02  0.51100000000E-03 0. -1.
    9900012    2    1    2    0    0  0.25223104693E+02  0.91830634522E+01  0.30539066264E+02  0.50528828427E+02  0.29999904486E+02 0.  0.
         12    1    1    2    0    0 -0.25223104693E+02 -0.91830634522E+01 -0.30539066264E+02  0.40659171573E+02  0.00000000000E+00 0. -1.
         11    1    3    3    0    0  0.15769090415E+02  0.15869192257E+02  0.14170870050E+02  0.26482239967E+02  0.51100000000E-03 0. -1.
        -11    1    3    3    0    0  0.58386457662E+01  0.82865861362E+00  0.14280179380E+02  0.15449918539E+02  0.51100000000E-03 0.  1.
         12    1    3    3    0    0  0.36153685126E+01 -0.75147874187E+01  0.20880168333E+01  0.85966699208E+01  0.00000000000E+00 0. -1.
</event>
<event>
 7    1  0.2746803E-013  0.5052888E+02  0.7816164E-02  0.1300439E+00
        -11   -1    0    0    0    0  0.00000000000E+00  0.00000000000E+00  0.45593999997E+02  0.45594000000E+02  0.51100000000E-03 0.  1.
         11   -1    0    0    0    0 -0.00000000000E+00 -0.00000000000E+00 -0.45593999997E+02  0.45594000000E+02  0.51100000000E-03 0. -1.
    9900012    2    1    2    0    0  0.19854349500E+02  0.13184683143E+02  0.32941359911E+02  0.50528877328E+02  0.30000053127E+02 0.  0.
         12    1    1    2    0    0 -0.19854349500E+02 -0.13184683143E+02 -0.32941359911E+02  0.40659122672E+02  0.00000000000E+00 0. -1.
         11    1    3    3    0    0 -0.36695370582E+01  0.11182849962E+01  0.14576670164E+02  0.15073001588E+02  0.51100000000E-03 0. -1.
        -11    1    3    3    0    0  0.12241082493E+02  0.11552627219E+02  0.42155051479E+01  0.17351593016E+02  0.51100000000E-03 0.  1.
        -12    1    3    3    0    0  0.11282804064E+02  0.51377092725E+00  0.14149184600E+02  0.18104282724E+02  0.00000000000E+00 0.  1.
</event>
<event>
 7    1  0.2746803E-013  0.5052887E+02  0.7816164E-02  0.1300439E+00
        -11   -1    0    0    0    0  0.00000000000E+00  0.00000000000E+00  0.45593999997E+02  0.45594000000E+02  0.51100000000E-03 0. -1.
         11   -1    0    0    0    0 -0.00000000000E+00 -0.00000000000E+00 -0.45593999997E+02  0.45594000000E+02  0.51100000000E-03 0.  1.
    9900012    2    1    2    0    0  0.28340454579E+02 -0.25653675477E+02 -0.13851806205E+02  0.50528868598E+02  0.30000026590E+02 0.  0.
         12    1    1    2    0    0 -0.28340454579E+02  0.25653675477E+02  0.13851806205E+02  0.40659131402E+02  0.00000000000E+00 0. -1.
         11    1    3    3    0    0  0.16029461349E+02 -0.84793581811E+01 -0.16052275081E+02  0.24218147779E+02  0.51100000000E-03 0. -1.
        -11    1    3    3    0    0  0.56348291440E+01 -0.11702819285E+02 -0.60871761364E+01  0.14344371450E+02  0.51100000000E-03 0.  1.
         12    1    3    3    0    0  0.66761640859E+01 -0.54714980110E+01  0.82876450123E+01  0.11966349370E+02  0.00000000000E+00 0. -1.
</event>
<event>
 7    1  0.2746803E-013  0.5052889E+02  0.7816164E-02  0.1300439E+00
        -11   -1    0    0    0    0  0.00000000000E+00  0.00000000000E+00  0.45593999997E+02  0.45594000000E+02  0.51100000000E-03 0. -1.
         11   -1    0    0    0    0 -0.00000000000E+00 -0.00000000000E+00 -0.45593999997E+02  0.45594000000E+02  0.51100000000E-03 0.  1.
    9900012    2    1    2    0    0  0.27653356327E+02  0.27558372922E+02 -0.11357443095E+02  0.50528886041E+02  0.30000079611E+02 0.  0.
         12    1    1    2    0    0 -0.27653356327E+02 -0.27558372922E+02  0.11357443095E+02  0.40659113959E+02  0.00000000000E+00 0. -1.
         11    1    3    3    0    0 -0.16813694846E+01  0.48634543350E+01 -0.22340022351E+01  0.56098981862E+01  0.51100000000E-03 0. -1.
        -11    1    3    3    0    0  0.93024483040E+01  0.42728329081E+01  0.78011002214E+01  0.12870501561E+02  0.51100000000E-03 0.  1.
        -12    1    3    3    0    0  0.20032277508E+02  0.18422085679E+02 -0.16924541082E+02  0.32048486294E+02  0.00000000000E+00 0.  1.
</event>
<event>
 7    1  0.2746803E-013  0.5052886E+02  0.7816164E-02  0.1300439E+00
        -11   -1    0    0    0    0  0.00000000000E+00  0.00000000000E+00  0.45593999997E+02  0.45594000000E+02  0.51100000000E-03 0.  1.
         11   -1    0    0    0    0 -0.00000000000E+00 -0.00000000000E+00 -0.45593999997E+02  0.45594000000E+02  0.51100000000E-03 0. -1.
    9900012    2    1    2    0    0  0.30036424285E+02 -0.18949243146E+01  0.27338395249E+02  0.50528863551E+02  0.30000011249E+02 0.  0.
         12    1    1    2    0    0 -0.30036424285E+02  0.18949243146E+01 -0.27338395249E+02  0.40659136449E+02  0.00000000000E+00 0. -1.
         11    1    3    3    0    0  0.23442177179E+01  0.59011273476E+01  0.56678857590E+01  0.85113800244E+01  0.51100000000E-03 0. -1.
        -11    1    3    3    0    0 -0.28020617145E+01  0.11862447538E+01 -0.72899937546E+00  0.31289242270E+01  0.51100000000E-03 0.  1.
         12    1    3    3    0    0  0.30494268282E+02 -0.89822964159E+01  0.22399508866E+02  0.38888559299E+02  0.00000000000E+00 0. -1.
</event>
<event>
 7    1  0.2746803E-013  0.5052883E+02  0.7816164E-02  0.1300439E+00
        -11   -1    0    0    0    0  0.00000000000E+00  0.00000000000E+00  0.45593999997E+02  0.45594000000E+02  0.51100000000E-03 0.  1.
         11   -1    0    0    0    0 -0.00000000000E+00 -0.00000000000E+00 -0.45593999997E+02  0.45594000000E+02  0.51100000000E-03 0. -1.
    9900012    2    1    2    0    0 -0.21677920485E+02 -0.23014679253E+02  0.25564826520E+02  0.50528830645E+02  0.29999911228E+02 0.  0.
         12    1    1    2    0    0  0.21677920485E+02  0.23014679253E+02 -0.25564826520E+02  0.40659169355E+02  0.00000000000E+00 0. -1.
         11    1    3    3    0    0 -0.93899307962E+01 -0.15522592936E+02  0.50055634878E+01  0.18819600365E+02  0.51100000000E-03 0.  1.
        -11    1    3    3    0    0 -0.73565914986E+01 -0.77561598347E+00 -0.19977958868E+01  0.76623891377E+01  0.51100000000E-03 0. -1.
        -12    1    3    3    0    0 -0.49313981899E+01 -0.67164703340E+01  0.22557058919E+02  0.24046841142E+02  0.00000000000E+00 0.  1.
</event>
<event>
 7    1  0.2746803E-013  0.5052898E+02  0.7816164E-02  0.1300438E+00
        -11   -1    0    0    0    0  0.00000000000E+00  0.00000000000E+00  0.45593999997E+02  0.45594000000E+02  0.51100000000E-03 0. -1.
         11   -1    0    0    0    0 -0.00000000000E+00 -0.00000000000E+00 -0.45593999997E+02  0.45594000000E+02  0.51100000000E-03 0.  1.
    9900012    2    1    2    0    0 -0.74479432473E+01  0.20065828480E+02 -0.34569442165E+02  0.50528983007E+02  0.30000374347E+02 0.  0.
         12    1    1    2    0    0  0.74479432473E+01 -0.20065828480E+02  0.34569442165E+02  0.40659016993E+02  0.00000000000E+00 0. -1.
         11    1    3    3    0    0 -0.91281908617E+01 -0.38836070366E+01 -0.19175894401E+02  0.21589840165E+02  0.51100000000E-03 0.  1.
        -11    1    3    3    0    0 -0.57664236597E+00  0.15083195682E+02 -0.11591938970E+02  0.19031772323E+02  0.51100000000E-03 0. -1.
        -12    1    3    3    0    0  0.22568899804E+01  0.88662398350E+01 -0.38016087939E+01  0.99073705198E+01  0.00000000000E+00 0.  1.
</event>
<event>
 7    1  0.2746803E-013  0.5052885E+02  0.7816164E-02  0.1300439E+00
        -11   -1    0    0    0    0  0.00000000000E+00  0.00000000000E+00  0.45593999997E+02  0.45594000000E+02  0.51100000000E-03 0. -1.
         11   -1    0    0    0    0 -0.00000000000E+00 -0.00000000000E+00 -0.45593999997E+02  0.45594000000E+02  0.51100000000E-03 0.  1.
    9900012    2    1    2    0    0 -0.53974172290E+01  0.38021686202E+01 -0.40119545999E+02  0.50528848876E+02  0.29999966642E+02 0.  0.
         12    1    1    2    0    0  0.53974172290E+01 -0.38021686202E+01  0.40119545999E+02  0.40659151124E+02  0.00000000000E+00 0. -1.
         11    1    3    3    0    0 -0.11317840855E+02 -0.13953720626E+01 -0.30399142171E+02  0.32467652053E+02  0.51100000000E-03 0. -1.
        -11    1    3    3    0    0  0.37530837180E+01 -0.29688181671E+01 -0.81740581546E+01  0.94717868262E+01  0.51100000000E-03 0.  1.
         12    1    3    3    0    0  0.21673399085E+01  0.81663588500E+01 -0.15463456735E+01  0.85894099965E+01  0.00000000000E+00 0. -1.
</event>
<event>
 7    1  0.2746803E-013  0.5052882E+02  0.7816164E-02  0.1300439E+00
        -11   -1    0    0    0    0  0.00000000000E+00  0.00000000000E+00  0.45593999997E+02  0.45594000000E+02  0.51100000000E-03 0.  1.
         11   -1    0    0    0    0 -0.00000000000E+00 -0.00000000000E+00 -0.45593999997E+02  0.45594000000E+02  0.51100000000E-03 0. -1.
    9900012    2    1    2    0    0 -0.38956187036E+02 -0.31021064933E+01 -0.11223244611E+02  0.50528821544E+02  0.29999883566E+02 0.  0.
         12    1    1    2    0    0  0.38956187036E+02  0.31021064933E+01  0.11223244611E+02  0.40659178456E+02  0.00000000000E+00 0. -1.
         11    1    3    3    0    0 -0.24063868634E+01  0.37278454305E+01 -0.26051050214E+01  0.51452989926E+01  0.51100000000E-03 0. -1.
        -11    1    3    3    0    0 -0.16907535717E+01 -0.86130384446E+01  0.17942674279E+01  0.89589326793E+01  0.51100000000E-03 0.  1.
        -12    1    3    3    0    0 -0.34859046601E+02  0.17830865208E+01 -0.10412407018E+02  0.36424589872E+02  0.00000000000E+00 0.  1.
</event>
<event>
 7    1  0.2746803E-013  0.5052886E+02  0.7816164E-02  0.1300439E+00
        -11   -1    0    0    0    0  0.00000000000E+00  0.00000000000E+00  0.45593999997E+02  0.45594000000E+02  0.51100000000E-03 0.  1.
         11   -1    0    0    0    0 -0.00000000000E+00 -0.00000000000E+00 -0.45593999997E+02  0.45594000000E+02  0.51100000000E-03 0. -1.
    9900012    2    1    2    0    0 -0.76707691370E+01 -0.21863723883E+02  0.33411112398E+02  0.50528861385E+02  0.30000004666E+02 0.  0.
         12    1    1    2    0    0  0.76707691370E+01  0.21863723883E+02 -0.33411112398E+02  0.40659138615E+02  0.00000000000E+00 0. -1.
         11    1    3    3    0    0  0.48317347786E+01 -0.85447470561E+01  0.37445484286E+01  0.10506188958E+02  0.51100000000E-03 0. -1.
        -11    1    3    3    0    0 -0.12953321670E+02 -0.17600839582E+02  0.20818104755E+02  0.30182305778E+02  0.51100000000E-03 0.  1.
         12    1    3    3    0    0  0.45081775428E+00  0.42818627545E+01  0.88484592152E+01  0.98403666487E+01  0.00000000000E+00 0. -1.
</event>
<event>
 7    1  0.2746803E-013  0.5052882E+02  0.7816164E-02  0.1300439E+00
        -11   -1    0    0    0    0  0.00000000000E+00  0.00000000000E+00  0.45593999997E+02  0.45594000000E+02  0.51100000000E-03 0.  1.
         11   -1    0    0    0    0 -0.00000000000E+00 -0.00000000000E+00 -0.45593999997E+02  0.45594000000E+02  0.51100000000E-03 0. -1.
    9900012    2    1    2    0    0  0.34403311651E+02  0.31785499001E+01  0.21435437164E+02  0.50528819014E+02  0.29999875875E+02 0.  0.
         12    1    1    2    0    0 -0.34403311651E+02 -0.31785499001E+01 -0.21435437164E+02  0.40659180986E+02  0.00000000000E+00 0. -1.
         11    1    3    3    0    0  0.21957747790E+02  0.73354546524E+01  0.83413933611E+01  0.24607527840E+02  0.51100000000E-03 0.  1.
        -11    1    3    3    0    0  0.16302076867E+02 -0.59598409244E+01  0.75423048729E+01  0.18925215377E+02  0.51100000000E-03 0. -1.
         12    1    3    3    0    0 -0.38565130052E+01  0.18029361720E+01  0.55517389305E+01  0.69960757966E+01  0.00000000000E+00 0. -1.
</event>
<event>
 7    1  0.2746803E-013  0.5052886E+02  0.7816164E-02  0.1300439E+00
        -11   -1    0    0    0    0  0.00000000000E+00  0.00000000000E+00  0.45593999997E+02  0.45594000000E+02  0.51100000000E-03 0.  1.
         11   -1    0    0    0    0 -0.00000000000E+00 -0.00000000000E+00 -0.45593999997E+02  0.45594000000E+02  0.51100000000E-03 0. -1.
    9900012    2    1    2    0    0  0.11355924411E+02 -0.18261152625E+02  0.34507087864E+02  0.50528858010E+02  0.29999994408E+02 0.  0.
         12    1    1    2    0    0 -0.11355924411E+02  0.18261152625E+02 -0.34507087864E+02  0.40659141990E+02  0.00000000000E+00 0. -1.
         11    1    3    3    0    0 -0.46817140222E+01  0.14637250916E+01  0.72089738580E+01  0.87195321936E+01  0.51100000000E-03 0. -1.
        -11    1    3    3    0    0  0.48034480125E+01  0.30717865868E+01  0.22607871603E+01  0.61335262687E+01  0.51100000000E-03 0.  1.
        -12    1    3    3    0    0  0.11234190421E+02 -0.22796664304E+02  0.25037326846E+02  0.35675799548E+02  0.00000000000E+00 0.  1.
</event>
<event>
 7    1  0.2746803E-013  0.5052884E+02  0.7816164E-02  0.1300439E+00
        -11   -1    0    0    0    0  0.00000000000E+00  0.00000000000E+00  0.45593999997E+02  0.45594000000E+02  0.51100000000E-03 0.  1.
         11   -1    0    0    0    0 -0.00000000000E+00 -0.00000000000E+00 -0.45593999997E+02  0.45594000000E+02  0.51100000000E-03 0. -1.
    9900012    2    1    2    0    0 -0.52885377470E+01 -0.39148084845E+02  0.96242625942E+01  0.50528836100E+02  0.29999927811E+02 0.  0.
         12    1    1    2    0    0  0.52885377470E+01  0.39148084845E+02 -0.96242625942E+01  0.40659163900E+02  0.00000000000E+00 0. -1.
         11    1    3    3    0    0 -0.68412959872E+01 -0.74216895477E+01 -0.68151045495E+01  0.12179099179E+02  0.51100000000E-03 0. -1.
        -11    1    3    3    0    0 -0.51808783376E+01 -0.17951130510E+02  0.53751523139E+01  0.19441626722E+02  0.51100000000E-03 0.  1.
         12    1    3    3    0    0  0.67336365779E+01 -0.13775264788E+02  0.11064214830E+02  0.18908110200E+02  0.00000000000E+00 0. -1.
</event>
<event>
 7    1  0.2746803E-013  0.5052886E+02  0.7816164E-02  0.1300439E+00
        -11   -1    0    0    0    0  0.00000000000E+00  0.00000000000E+00  0.45593999997E+02  0.45594000000E+02  0.51100000000E-03 0.  1.
         11   -1    0    0    0    0 -0.00000000000E+00 -0.00000000000E+00 -0.45593999997E+02  0.45594000000E+02  0.51100000000E-03 0. -1.
    9900012    2    1    2    0    0  0.33671186624E+02  0.61102333571E+01  0.21956354948E+02  0.50528864705E+02  0.30000014758E+02 0.  0.
         12    1    1    2    0    0 -0.33671186624E+02 -0.61102333571E+01 -0.21956354948E+02  0.40659135295E+02  0.00000000000E+00 0. -1.
         11    1    3    3    0    0  0.90326353804E+01  0.46997869704E+01  0.44978184927E+01  0.11131346322E+02  0.51100000000E-03 0. -1.
        -11    1    3    3    0    0  0.23634520516E+02 -0.65302663846E+01  0.19276120230E+02  0.31189802026E+02  0.51100000000E-03 0.  1.
        -12    1    3    3    0    0  0.10040307276E+01  0.79407127713E+01 -0.18175837748E+01  0.82077163570E+01  0.00000000000E+00 0.  1.
</event>
<event>
 7    1  0.2746803E-013  0.5052887E+02  0.7816164E-02  0.1300439E+00
        -11   -1    0    0    0    0  0.00000000000E+00  0.00000000000E+00  0.45593999997E+02  0.45594000000E+02  0.51100000000E-03 0. -1.
         11   -1    0    0    0    0 -0.00000000000E+00 -0.00000000000E+00 -0.45593999997E+02  0.45594000000E+02  0.51100000000E-03 0.  1.
    9900012    2    1    2    0    0 -0.51299835401E+01 -0.24074187670E+01 -0.40262293380E+02  0.50528872310E+02  0.30000037874E+02 0.  0.
         12    1    1    2    0    0  0.51299835401E+01  0.24074187670E+01  0.40262293380E+02  0.40659127690E+02  0.00000000000E+00 0. -1.
         11    1    3    3    0    0  0.22323304045E+01 -0.42893752622E+01  0.12045219086E+01  0.49832632345E+01  0.51100000000E-03 0. -1.
        -11    1    3    3    0    0 -0.84074684422E+01 -0.43157378172E+01 -0.35986425001E+02  0.37206637891E+02  0.51100000000E-03 0.  1.
         12    1    3    3    0    0  0.10451544975E+01  0.61976943124E+01 -0.54803902876E+01  0.83389711846E+01  0.00000000000E+00 0. -1.
</event>
<event>
 7    1  0.2746803E-013  0.5052886E+02  0.7816164E-02  0.1300439E+00
        -11   -1    0    0    0    0  0.00000000000E+00  0.00000000000E+00  0.45593999997E+02  0.45594000000E+02  0.51100000000E-03 0.  1.
         11   -1    0    0    0    0 -0.00000000000E+00 -0.00000000000E+00 -0.45593999997E+02  0.45594000000E+02  0.51100000000E-03 0. -1.
    9900012    2    1    2    0    0  0.35428059804E+02  0.76549271282E+01  0.18423360455E+02  0.50528861528E+02  0.30000005100E+02 0.  0.
         12    1    1    2    0    0 -0.35428059804E+02 -0.76549271282E+01 -0.18423360455E+02  0.40659138472E+02  0.00000000000E+00 0. -1.
         11    1    3    3    0    0  0.12968913825E+01  0.63307584787E+01  0.14030805310E+02  0.15447457010E+02  0.51100000000E-03 0. -1.
        -11    1    3    3    0    0  0.59899215493E+01 -0.72115758448E+00  0.32267188045E+01  0.68418523028E+01  0.51100000000E-03 0.  1.
         12    1    3    3    0    0  0.28141246872E+02  0.20453262339E+01  0.11658363408E+01  0.28239552215E+02  0.00000000000E+00 0. -1.
</event>
<event>
 7    1  0.2746803E-013  0.5052885E+02  0.7816164E-02  0.1300439E+00
        -11   -1    0    0    0    0  0.00000000000E+00  0.00000000000E+00  0.45593999997E+02  0.45594000000E+02  0.51100000000E-03 0.  1.
         11   -1    0    0    0    0 -0.00000000000E+00 -0.00000000000E+00 -0.45593999997E+02  0.45594000000E+02  0.51100000000E-03 0. -1.
    9900012    2    1    2    0    0 -0.31618679046E+02 -0.16343133551E+02  0.19655218147E+02  0.50528849993E+02  0.29999970039E+02 0.  0.
         12    1    1    2    0    0  0.31618679046E+02  0.16343133551E+02 -0.19655218147E+02  0.40659150007E+02  0.00000000000E+00 0. -1.
         11    1    3    3    0    0 -0.10612706237E+02  0.46021564609E+01  0.85647847923E+01  0.14393224676E+02  0.51100000000E-03 0. -1.
        -11    1    3    3    0    0 -0.16120248313E+02 -0.17465150261E+02  0.15773673016E+02  0.28525473528E+02  0.51100000000E-03 0.  1.
         12    1    3    3    0    0 -0.48857244957E+01 -0.34801397512E+01 -0.46832396613E+01  0.76101517897E+01  0.00000000000E+00 0. -1.
</event>
<event>
 7    1  0.2746803E-013  0.5052887E+02  0.7816164E-02  0.1300439E+00
        -11   -1    0    0    0    0  0.00000000000E+00  0.00000000000E+00  0.45593999997E+02  0.45594000000E+02  0.51100000000E-03 0.  1.
         11   -1    0    0    0    0 -0.00000000000E+00 -0.00000000000E+00 -0.45593999997E+02  0.45594000000E+02  0.51100000000E-03 0. -1.
    9900012    2    1    2    0    0  0.57793702080E+01  0.16380823816E+02  0.36761836044E+02  0.50528866977E+02  0.30000021664E+02 0.  0.
         12    1    1    2    0    0 -0.57793702080E+01 -0.16380823816E+02 -0.36761836044E+02  0.40659133023E+02  0.00000000000E+00 0. -1.
         11    1    3    3    0    0  0.95649673261E+01  0.68891562154E+01  0.36134894478E+02  0.38008942008E+02  0.51100000000E-03 0.  1.
        -11    1    3    3    0    0 -0.23700334082E+01  0.25980713018E+01 -0.29822586479E+01  0.46109543209E+01  0.51100000000E-03 0. -1.
        -12    1    3    3    0    0 -0.14155637099E+01  0.68935962984E+01  0.36092002131E+01  0.79089706486E+01  0.00000000000E+00 0.  1.
</event>
<event>
 7    1  0.2746803E-013  0.5052885E+02  0.7816164E-02  0.1300439E+00
        -11   -1    0    0    0    0  0.00000000000E+00  0.00000000000E+00  0.45593999997E+02  0.45594000000E+02  0.51100000000E-03 0.  1.
         11   -1    0    0    0    0 -0.00000000000E+00 -0.00000000000E+00 -0.45593999997E+02  0.45594000000E+02  0.51100000000E-03 0. -1.
    9900012    2    1    2    0    0 -0.22311136614E+02  0.33558241986E+02  0.54059334733E+01  0.50528849259E+02  0.29999967808E+02 0.  0.
         12    1    1    2    0    0  0.22311136614E+02 -0.33558241986E+02 -0.54059334733E+01  0.40659150741E+02  0.00000000000E+00 0. -1.
         11    1    3    3    0    0 -0.13617059532E+02  0.12569760135E+02  0.15294916311E+02  0.24028267632E+02  0.51100000000E-03 0. -1.
        -11    1    3    3    0    0 -0.56484120180E+01  0.16563441431E+02 -0.29848697398E+01  0.17752791274E+02  0.51100000000E-03 0.  1.
        -12    1    3    3    0    0 -0.30456650644E+01  0.44250404195E+01 -0.69041130982E+01  0.87477903537E+01  0.00000000000E+00 0.  1.
</event>
<event>
 7    1  0.2746803E-013  0.5052886E+02  0.7816164E-02  0.1300439E+00
        -11   -1    0    0    0    0  0.00000000000E+00  0.00000000000E+00  0.45593999997E+02  0.45594000000E+02  0.51100000000E-03 0. -1.
         11   -1    0    0    0    0 -0.00000000000E+00 -0.00000000000E+00 -0.45593999997E+02  0.45594000000E+02  0.51100000000E-03 0.  1.
    9900012    2    1    2    0    0 -0.87744343550E+01  0.38122503125E+02  0.11083764417E+02  0.50528858636E+02  0.29999996310E+02 0.  0.
         12    1    1    2    0    0  0.87744343550E+01 -0.38122503125E+02 -0.11083764417E+02  0.40659141364E+02  0.00000000000E+00 0. -1.
         11    1    3    3    0    0 -0.16280100341E-01  0.40838361366E+01  0.94154750817E+01  0.10262999265E+02  0.51100000000E-03 0. -1.
        -11    1    3    3    0    0 -0.10283100232E+02  0.63359687323E+01 -0.21225665707E+01  0.12263439129E+02  0.51100000000E-03 0.  1.
         12    1    3    3    0    0  0.15249459777E+01  0.27702698257E+02  0.37908559059E+01  0.28002420242E+02  0.00000000000E+00 0. -1.
</event>
<event>
 7    1  0.2746803E-013  0.5052886E+02  0.7816164E-02  0.1300439E+00
        -11   -1    0    0    0    0  0.00000000000E+00  0.00000000000E+00  0.45593999997E+02  0.45594000000E+02  0.51100000000E-03 0.  1.
         11   -1    0    0    0    0 -0.00000000000E+00 -0.00000000000E+00 -0.45593999997E+02  0.45594000000E+02  0.51100000000E-03 0. -1.
    9900012    2    1    2    0    0  0.38438808103E+02  0.10128553668E+02  0.85461124707E+01  0.50528860730E+02  0.30000002676E+02 0.  0.
         12    1    1    2    0    0 -0.38438808103E+02 -0.10128553668E+02 -0.85461124707E+01  0.40659139270E+02  0.00000000000E+00 0. -1.
         11    1    3    3    0    0  0.11616495838E+02  0.10699032303E+02  0.77035364516E+01  0.17571475234E+02  0.51100000000E-03 0. -1.
        -11    1    3    3    0    0 -0.28429782268E+01 -0.13546529456E+00 -0.14616177552E+01  0.31995629026E+01  0.51100000000E-03 0.  1.
        -12    1    3    3    0    0  0.29665290492E+02 -0.43501334031E+00  0.23041937743E+01  0.29757822593E+02  0.00000000000E+00 0.  1.
</event>
<event>
 7    1  0.2746803E-013  0.5052887E+02  0.7816164E-02  0.1300439E+00
        -11   -1    0    0    0    0  0.00000000000E+00  0.00000000000E+00  0.45593999997E+02  0.45594000000E+02  0.51100000000E-03 0.  1.
         11   -1    0    0    0    0 -0.00000000000E+00 -0.00000000000E+00 -0.45593999997E+02  0.45594000000E+02  0.51100000000E-03 0. -1.
    9900012    2    1    2    0    0  0.53756998949E+01  0.28949944940E+02  0.28038673540E+02  0.50528872178E+02  0.30000037472E+02 0.  0.
         12    1    1    2    0    0 -0.53756998949E+01 -0.28949944940E+02 -0.28038673540E+02  0.40659127822E+02  0.00000000000E+00 0. -1.
         11    1    3    3    0    0  0.83136518763E+01  0.25650864371E+01  0.91607071830E+01  0.12633884292E+02  0.51100000000E-03 0.  1.
        -11    1    3    3    0    0  0.47336217404E+01  0.22402314110E+02  0.18154924640E+02  0.29221090692E+02  0.51100000000E-03 0. -1.
         12    1    3    3    0    0 -0.76715737218E+01  0.39825443923E+01  0.72304171698E+00  0.86738971939E+01  0.00000000000E+00 0. -1.
</event>
<event>
 7    1  0.2746803E-013  0.5052886E+02  0.7816164E-02  0.1300439E+00
        -11   -1    0    0    0    0  0.00000000000E+00  0.00000000000E+00  0.45593999997E+02  0.45594000000E+02  0.51100000000E-03 0. -1.
         11   -1    0    0    0    0 -0.00000000000E+00 -0.00000000000E+00 -0.45593999997E+02  0.45594000000E+02  0.51100000000E-03 0.  1.
    9900012    2    1    2    0    0 -0.47010945417E+01  0.34143412023E+02 -0.21570650115E+02  0.50528858090E+02  0.29999994651E+02 0.  0.
         12    1    1    2    0    0  0.47010945417E+01 -0.34143412023E+02  0.21570650115E+02  0.40659141910E+02  0.00000000000E+00 0. -1.
         11    1    3    3    0    0  0.71658245618E+01  0.10505471934E+01 -0.26664343737E+01  0.77176786398E+01  0.51100000000E-03 0. -1.
        -11    1    3    3    0    0 -0.24576045113E+01  0.45747647525E+01 -0.10360582640E+02  0.11589217634E+02  0.51100000000E-03 0.  1.
         12    1    3    3    0    0 -0.94093145922E+01  0.28518100077E+02 -0.85436331018E+01  0.31221961817E+02  0.00000000000E+00 0. -1.
</event>
<event>
 7    1  0.2746803E-013  0.5052886E+02  0.7816164E-02  0.1300439E+00
        -11   -1    0    0    0    0  0.00000000000E+00  0.00000000000E+00  0.45593999997E+02  0.45594000000E+02  0.51100000000E-03 0.  1.
         11   -1    0    0    0    0 -0.00000000000E+00 -0.00000000000E+00 -0.45593999997E+02  0.45594000000E+02  0.51100000000E-03 0. -1.
    9900012    2    1    2    0    0 -0.27611085560E+02  0.16756221828E+01  0.29799093663E+02  0.50528859100E+02  0.29999997722E+02 0.  0.
         12    1    1    2    0    0  0.27611085560E+02 -0.16756221828E+01 -0.29799093663E+02  0.40659140900E+02  0.00000000000E+00 0. -1.
         11    1    3    3    0    0 -0.13575003043E+02 -0.96128664430E+01  0.94799342482E+01  0.19145679995E+02  0.51100000000E-03 0. -1.
        -11    1    3    3    0    0 -0.60847213055E+01  0.99550743440E+01  0.26543843737E+01  0.11965496029E+02  0.51100000000E-03 0.  1.
         12    1    3    3    0    0 -0.79513612117E+01  0.13334142818E+01  0.17664775042E+02  0.19417683076E+02  0.00000000000E+00 0. -1.
</event>
<event>
 7    1  0.2746803E-013  0.5052889E+02  0.7816164E-02  0.1300439E+00
        -11   -1    0    0    0    0  0.00000000000E+00  0.00000000000E+00  0.45593999997E+02  0.45594000000E+02  0.51100000000E-03 0.  1.
         11   -1    0    0    0    0 -0.00000000000E+00 -0.00000000000E+00 -0.45593999997E+02  0.45594000000E+02  0.51100000000E-03 0. -1.
    9900012    2    1    2    0    0  0.18239586329E+02 -0.36263681287E+02  0.23294700266E+01  0.50528886378E+02  0.30000080634E+02 0.  0.
         12    1    1    2    0    0 -0.18239586329E+02  0.36263681287E+02 -0.23294700266E+01  0.40659113622E+02  0.00000000000E+00 0. -1.
         11    1    3    3    0    0 -0.26383416967E+00 -0.26061760816E+01  0.37361256154E+01  0.45629373338E+01  0.51100000000E-03 0. -1.
        -11    1    3    3    0    0  0.52981197657E+01 -0.32220075371E+02 -0.60253529060E+00  0.32658327866E+02  0.51100000000E-03 0.  1.
         12    1    3    3    0    0  0.13205300733E+02 -0.14374298345E+01 -0.80412029817E+00  0.13307621178E+02  0.00000000000E+00 0. -1.
</event>
<event>
 7    1  0.2746803E-013  0.5052886E+02  0.7816164E-02  0.1300439E+00
        -11   -1    0    0    0    0  0.00000000000E+00  0.00000000000E+00  0.45593999997E+02  0.45594000000E+02  0.51100000000E-03 0.  1.
         11   -1    0    0    0    0 -0.00000000000E+00 -0.00000000000E+00 -0.45593999997E+02  0.45594000000E+02  0.51100000000E-03 0. -1.
    9900012    2    1    2    0    0 -0.32768709665E+02 -0.23308075785E+02  0.60092642307E+01  0.50528856052E+02  0.29999988457E+02 0.  0.
         12    1    1    2    0    0  0.32768709665E+02  0.23308075785E+02 -0.60092642307E+01  0.40659143948E+02  0.00000000000E+00 0. -1.
         11    1    3    3    0    0 -0.45485774997E+01  0.12564886553E+01 -0.78658887965E+00  0.47840404825E+01  0.51100000000E-03 0. -1.
        -11    1    3    3    0    0 -0.10413391318E+02 -0.51642350750E+01 -0.92961373568E+01  0.14883756672E+02  0.51100000000E-03 0.  1.
        -12    1    3    3    0    0 -0.17806740848E+02 -0.19400329366E+02  0.16091990467E+02  0.30861058898E+02  0.00000000000E+00 0.  1.
</event>
<event>
 7    1  0.2746803E-013  0.5052887E+02  0.7816164E-02  0.1300439E+00
        -11   -1    0    0    0    0  0.00000000000E+00  0.00000000000E+00  0.45593999997E+02  0.45594000000E+02  0.51100000000E-03 0.  1.
         11   -1    0    0    0    0 -0.00000000000E+00 -0.00000000000E+00 -0.45593999997E+02  0.45594000000E+02  0.51100000000E-03 0. -1.
    9900012    2    1    2    0    0 -0.92648722829E+01  0.30135609707E+02  0.25674350183E+02  0.50528867100E+02  0.30000022038E+02 0.  0.
         12    1    1    2    0    0  0.92648722829E+01 -0.30135609707E+02 -0.25674350183E+02  0.40659132900E+02  0.00000000000E+00 0. -1.
         11    1    3    3    0    0  0.41758933301E+01  0.78919975937E+01 -0.13990983407E+01  0.90376538743E+01  0.51100000000E-03 0.  1.
        -11    1    3    3    0    0  0.18263055067E+01  0.53802510078E+01  0.14334413994E+02  0.15419400686E+02  0.51100000000E-03 0. -1.
         12    1    3    3    0    0 -0.15267071120E+02  0.16863361106E+02  0.12739034530E+02  0.26071812540E+02  0.00000000000E+00 0. -1.
</event>
<event>
 7    1  0.2746803E-013  0.5052887E+02  0.7816164E-02  0.1300439E+00
        -11   -1    0    0    0    0  0.00000000000E+00  0.00000000000E+00  0.45593999997E+02  0.45594000000E+02  0.51100000000E-03 0. -1.
         11   -1    0    0    0    0 -0.00000000000E+00 -0.00000000000E+00 -0.45593999997E+02  0.45594000000E+02  0.51100000000E-03 0.  1.
    9900012    2    1    2    0    0  0.11031276346E+02 -0.29599962269E+02 -0.25599180224E+02  0.50528870001E+02  0.30000030854E+02 0.  0.
         12    1    1    2    0    0 -0.11031276346E+02  0.29599962269E+02  0.25599180224E+02  0.40659129999E+02  0.00000000000E+00 0. -1.
         11    1    3    3    0    0  0.98283091398E+01 -0.13524753125E+02 -0.12393003911E+02  0.20811082476E+02  0.51100000000E-03 0. -1.
        -11    1    3    3    0    0 -0.11001112973E+01 -0.19901730343E+02 -0.14957863005E+02  0.24920408934E+02  0.51100000000E-03 0.  1.
        -12    1    3    3    0    0  0.23030785039E+01  0.38265211982E+01  0.17516866917E+01  0.47973785906E+01  0.00000000000E+00 0.  1.
</event>
<event>
 7    1  0.2746803E-013  0.5052886E+02  0.7816164E-02  0.1300439E+00
        -11   -1    0    0    0    0  0.00000000000E+00  0.00000000000E+00  0.45593999997E+02  0.45594000000E+02  0.51100000000E-03 0.  1.
         11   -1    0    0    0    0 -0.00000000000E+00 -0.00000000000E+00 -0.45593999997E+02  0.45594000000E+02  0.51100000000E-03 0. -1.
    9900012    2    1    2    0    0  0.59677755579E+01 -0.53162016550E+00  0.40215284069E+02  0.50528855421E+02  0.29999986538E+02 0.  0.
         12    1    1    2    0    0 -0.59677755579E+01  0.53162016550E+00 -0.40215284069E+02  0.40659144579E+02  0.00000000000E+00 0. -1.
         11    1    3    3    0    0 -0.36631734584E+01  0.10677858027E+02  0.60727393612E+01  0.12818488813E+02  0.51100000000E-03 0. -1.
        -11    1    3    3    0    0  0.21067669799E+01 -0.21458701162E+01  0.23839444618E+01  0.38375014164E+01  0.51100000000E-03 0.  1.
         12    1    3    3    0    0  0.75241820364E+01 -0.90636080765E+01  0.31758600246E+02  0.33872865192E+02  0.00000000000E+00 0. -1.
</event>
<event>
 7    1  0.2746803E-013  0.5052895E+02  0.7816164E-02  0.1300438E+00
        -11   -1    0    0    0    0  0.00000000000E+00  0.00000000000E+00  0.45593999997E+02  0.45594000000E+02  0.51100000000E-03 0.  1.
         11   -1    0    0    0    0 -0.00000000000E+00 -0.00000000000E+00 -0.45593999997E+02  0.45594000000E+02  0.51100000000E-03 0. -1.
    9900012    2    1    2    0    0 -0.18769990024E+01  0.13191197737E+02  0.38413896871E+02  0.50528950628E+02  0.30000275928E+02 0.  0.
         12    1    1    2    0    0  0.18769990024E+01 -0.13191197737E+02 -0.38413896871E+02  0.40659049372E+02  0.00000000000E+00 0. -1.
         11    1    3    3    0    0  0.39623970759E+00  0.13901647726E+01 -0.45790143346E+01  0.48017638987E+01  0.51100000000E-03 0. -1.
        -11    1    3    3    0    0 -0.35195128099E+01  0.28728263103E+00  0.59799716011E+01  0.69447507040E+01  0.51100000000E-03 0.  1.
        -12    1    3    3    0    0  0.12462740999E+01  0.11513750333E+02  0.37012939605E+02  0.38782436025E+02  0.00000000000E+00 0.  1.
</event>
<event>
 7    1  0.2746803E-013  0.5052886E+02  0.7816164E-02  0.1300439E+00
        -11   -1    0    0    0    0  0.00000000000E+00  0.00000000000E+00  0.45593999997E+02  0.45594000000E+02  0.51100000000E-03 0.  1.
         11   -1    0    0    0    0 -0.00000000000E+00 -0.00000000000E+00 -0.45593999997E+02  0.45594000000E+02  0.51100000000E-03 0. -1.
    9900012    2    1    2    0    0  0.47181170767E+01  0.18593141725E+01  0.40341645392E+02  0.50528855507E+02  0.29999986799E+02 0.  0.
         12    1    1    2    0    0 -0.47181170767E+01 -0.18593141725E+01 -0.40341645392E+02  0.40659144493E+02  0.00000000000E+00 0. -1.
         11    1    3    3    0    0 -0.59779014374E+01  0.20803046313E+01  0.19058468033E+01  0.66102363992E+01  0.51100000000E-03 0. -1.
        -11    1    3    3    0    0 -0.46156959017E+01  0.33481894238E-01  0.16725739763E+02  0.17350969442E+02  0.51100000000E-03 0.  1.
        -12    1    3    3    0    0  0.15311714416E+02 -0.25447235300E+00  0.21710058827E+02  0.26567649666E+02  0.00000000000E+00 0.  1.
</event>
<event>
 7    1  0.2746803E-013  0.5052886E+02  0.7816164E-02  0.1300439E+00
        -11   -1    0    0    0    0  0.00000000000E+00  0.00000000000E+00  0.45593999997E+02  0.45594000000E+02  0.51100000000E-03 0. -1.
         11   -1    0    0    0    0 -0.00000000000E+00 -0.00000000000E+00 -0.45593999997E+02  0.45594000000E+02  0.51100000000E-03 0.  1.
    9900012    2    1    2    0    0 -0.10874514496E+02  0.32405420408E+02 -0.22018162409E+02  0.50528858184E+02  0.29999994936E+02 0.  0.
         12    1    1    2    0    0  0.10874514496E+02 -0.32405420408E+02  0.22018162409E+02  0.40659141816E+02  0.00000000000E+00 0. -1.
         11    1    3    3    0    0 -0.17120537327E+02  0.13641362804E+02 -0.19075754690E+02  0.29035908713E+02  0.51100000000E-03 0.  1.
        -11    1    3    3    0    0  0.31640522881E+01  0.16409626449E+02 -0.45099982854E+01  0.17309741531E+02  0.51100000000E-03 0. -1.
        -12    1    3    3    0    0  0.30819705428E+01  0.23544311545E+01  0.15675905661E+01  0.41832079401E+01  0.00000000000E+00 0.  1.
</event>
<event>
 7    1  0.2746803E-013  0.5052886E+02  0.7816164E-02  0.1300439E+00
        -11   -1    0    0    0    0  0.00000000000E+00  0.00000000000E+00  0.45593999997E+02  0.45594000000E+02  0.51100000000E-03 0.  1.
         11   -1    0    0    0    0 -0.00000000000E+00 -0.00000000000E+00 -0.45593999997E+02  0.45594000000E+02  0.51100000000E-03 0. -1.
    9900012    2    1    2    0    0 -0.43825559768E+01 -0.15449104357E+02  0.37353502345E+02  0.50528858841E+02  0.29999996934E+02 0.  0.
         12    1    1    2    0    0  0.43825559768E+01  0.15449104357E+02 -0.37353502345E+02  0.40659141159E+02  0.00000000000E+00 0. -1.
         11    1    3    3    0    0 -0.11171974017E+02  0.34540548890E+00  0.17366058248E+02  0.20652173922E+02  0.51100000000E-03 0. -1.
        -11    1    3    3    0    0 -0.42422368802E+01 -0.25448100961E+01  0.39606678586E+01  0.63371541184E+01  0.51100000000E-03 0.  1.
        -12    1    3    3    0    0  0.11031654920E+02 -0.13249699749E+02  0.16026776239E+02  0.23539530801E+02  0.00000000000E+00 0.  1.
</event>
<event>
 7    1  0.2746803E-013  0.5052886E+02  0.7816164E-02  0.1300439E+00
        -11   -1    0    0    0    0  0.00000000000E+00  0.00000000000E+00  0.45593999997E+02  0.45594000000E+02  0.51100000000E-03 0.  1.
         11   -1    0    0    0    0 -0.00000000000E+00 -0.00000000000E+00 -0.45593999997E+02  0.45594000000E+02  0.51100000000E-03 0. -1.
    9900012    2    1    2    0    0  0.22496338591E+02 -0.24548197071E+02  0.23333808131E+02  0.50528857961E+02  0.29999994260E+02 0.  0.
         12    1    1    2    0    0 -0.22496338591E+02  0.24548197071E+02 -0.23333808131E+02  0.40659142039E+02  0.00000000000E+00 0. -1.
         11    1    3    3    0    0  0.13799690610E+02 -0.16214169225E+00 -0.44718561688E+00  0.13807886373E+02  0.51100000000E-03 0. -1.
        -11    1    3    3    0    0 -0.17227051011E+01 -0.48350473628E+00  0.24430757814E+01  0.30282188214E+01  0.51100000000E-03 0.  1.
         12    1    3    3    0    0  0.10419353081E+02 -0.23902550643E+02  0.21337917966E+02  0.33692752767E+02  0.00000000000E+00 0. -1.
</event>
<event>
 7    1  0.2746803E-013  0.5052886E+02  0.7816164E-02  0.1300439E+00
        -11   -1    0    0    0    0  0.00000000000E+00  0.00000000000E+00  0.45593999997E+02  0.45594000000E+02  0.51100000000E-03 0.  1.
         11   -1    0    0    0    0 -0.00000000000E+00 -0.00000000000E+00 -0.45593999997E+02  0.45594000000E+02  0.51100000000E-03 0. -1.
    9900012    2    1    2    0    0  0.31606127532E+02 -0.93885061966E+01  0.23792310108E+02  0.50528863678E+02  0.30000011636E+02 0.  0.
         12    1    1    2    0    0 -0.31606127532E+02  0.93885061966E+01 -0.23792310108E+02  0.40659136322E+02  0.00000000000E+00 0. -1.
         11    1    3    3    0    0 -0.52183408551E+01 -0.13305531258E+01  0.48099998641E+01  0.72206337571E+01  0.51100000000E-03 0. -1.
        -11    1    3    3    0    0  0.91184015094E+01 -0.14244264320E+01  0.28852677952E+00  0.92334979672E+01  0.51100000000E-03 0.  1.
        -12    1    3    3    0    0  0.27706066878E+02 -0.66335266387E+01  0.18693783464E+02  0.34074731954E+02  0.00000000000E+00 0.  1.
</event>
<event>
 7    1  0.2746803E-013  0.5052886E+02  0.7816164E-02  0.1300439E+00
        -11   -1    0    0    0    0  0.00000000000E+00  0.00000000000E+00  0.45593999997E+02  0.45594000000E+02  0.51100000000E-03 0.  1.
         11   -1    0    0    0    0 -0.00000000000E+00 -0.00000000000E+00 -0.45593999997E+02  0.45594000000E+02  0.51100000000E-03 0. -1.
    9900012    2    1    2    0    0 -0.30304140175E+02  0.17835689322E+02  0.20413557629E+02  0.50528855144E+02  0.29999985696E+02 0.  0.
         12    1    1    2    0    0  0.30304140175E+02 -0.17835689322E+02 -0.20413557629E+02  0.40659144856E+02  0.00000000000E+00 0. -1.
         11    1    3    3    0    0  0.41314119248E+01  0.41476508181E+00 -0.47511485679E+00  0.41792737352E+01  0.51100000000E-03 0. -1.
        -11    1    3    3    0    0 -0.36871076087E+01  0.81534619014E+01  0.69966503356E+01  0.11358997301E+02  0.51100000000E-03 0.  1.
        -12    1    3    3    0    0 -0.30748444491E+02  0.92674623390E+01  0.13892022150E+02  0.34990584108E+02  0.00000000000E+00 0.  1.
</event>
<event>
 7    1  0.2746803E-013  0.5052885E+02  0.7816164E-02  0.1300439E+00
        -11   -1    0    0    0    0  0.00000000000E+00  0.00000000000E+00  0.45593999997E+02  0.45594000000E+02  0.51100000000E-03 0.  1.
         11   -1    0    0    0    0 -0.00000000000E+00 -0.00000000000E+00 -0.45593999997E+02  0.45594000000E+02  0.51100000000E-03 0. -1.
    9900012    2    1    2    0    0  0.24186905644E+02 -0.32588310488E+02 -0.24823275966E+01  0.50528851762E+02  0.29999975417E+02 0.  0.
         12    1    1    2    0    0 -0.24186905644E+02  0.32588310488E+02  0.24823275966E+01  0.40659148238E+02  0.00000000000E+00 0. -1.
         11    1    3    3    0    0 -0.41036334703E+01  0.91880314546E-01 -0.34242735581E-01  0.41048048037E+01  0.51100000000E-03 0. -1.
        -11    1    3    3    0    0  0.88193616457E+01 -0.17470092943E+02  0.57407171450E+01  0.20394634610E+02  0.51100000000E-03 0.  1.
        -12    1    3    3    0    0  0.19471177469E+02 -0.15210097859E+02 -0.81888020060E+01  0.26029412348E+02  0.00000000000E+00 0.  1.
</event>
<event>
 7    1  0.2746803E-013  0.5052887E+02  0.7816164E-02  0.1300439E+00
        -11   -1    0    0    0    0  0.00000000000E+00  0.00000000000E+00  0.45593999997E+02  0.45594000000E+02  0.51100000000E-03 0.  1.
         11   -1    0    0    0    0 -0.00000000000E+00 -0.00000000000E+00 -0.45593999997E+02  0.45594000000E+02  0.51100000000E-03 0. -1.
    9900012    2    1    2    0    0  0.27091397440E+02  0.16708182504E+02  0.25299368862E+02  0.50528865200E+02  0.30000016262E+02 0.  0.
         12    1    1    2    0    0 -0.27091397440E+02 -0.16708182504E+02 -0.25299368862E+02  0.40659134800E+02  0.00000000000E+00 0. -1.
         11    1    3    3    0    0  0.23379616965E+01  0.39366782715E+01  0.38474065300E+00  0.45947281028E+01  0.51100000000E-03 0. -1.
        -11    1    3    3    0    0  0.31573185173E+01  0.15973240713E+02  0.14245822007E+02  0.21634614025E+02  0.51100000000E-03 0.  1.
         12    1    3    3    0    0  0.21596117227E+02 -0.32017364804E+01  0.10668806202E+02  0.24299523072E+02  0.00000000000E+00 0. -1.
</event>
<event>
 7    1  0.2746803E-013  0.5052886E+02  0.7816164E-02  0.1300439E+00
        -11   -1    0    0    0    0  0.00000000000E+00  0.00000000000E+00  0.45593999997E+02  0.45594000000E+02  0.51100000000E-03 0.  1.
         11   -1    0    0    0    0 -0.00000000000E+00 -0.00000000000E+00 -0.45593999997E+02  0.45594000000E+02  0.51100000000E-03 0. -1.
    9900012    2    1    2    0    0 -0.26509980256E+02  0.30822242608E+02 -0.61283722231E+00  0.50528864962E+02  0.30000015540E+02 0.  0.
         12    1    1    2    0    0  0.26509980256E+02 -0.30822242608E+02  0.61283722231E+00  0.40659135038E+02  0.00000000000E+00 0. -1.
         11    1    3    3    0    0 -0.14718708557E+02  0.11852238388E+02  0.60996742906E+01  0.19857541719E+02  0.51100000000E-03 0. -1.
        -11    1    3    3    0    0 -0.11452624963E+02  0.21685857610E+02 -0.12435494191E+01  0.24555762139E+02  0.51100000000E-03 0.  1.
         12    1    3    3    0    0 -0.33864673593E+00 -0.27158533895E+01 -0.54689620938E+01  0.61155611050E+01  0.00000000000E+00 0. -1.
</event>
<event>
 7    1  0.2746803E-013  0.5052886E+02  0.7816164E-02  0.1300439E+00
        -11   -1    0    0    0    0  0.00000000000E+00  0.00000000000E+00  0.45593999997E+02  0.45594000000E+02  0.51100000000E-03 0. -1.
         11   -1    0    0    0    0 -0.00000000000E+00 -0.00000000000E+00 -0.45593999997E+02  0.45594000000E+02  0.51100000000E-03 0.  1.
    9900012    2    1    2    0    0  0.15118792119E+02 -0.23302382382E+02 -0.29691524845E+02  0.50528861452E+02  0.30000004870E+02 0.  0.
         12    1    1    2    0    0 -0.15118792119E+02  0.23302382382E+02  0.29691524845E+02  0.40659138548E+02  0.00000000000E+00 0. -1.
         11    1    3    3    0    0  0.42052620538E+01 -0.10087983805E+02 -0.30621431002E+01  0.11350258447E+02  0.51100000000E-03 0. -1.
        -11    1    3    3    0    0 -0.54952582962E+01 -0.96293558278E+01 -0.15395344083E+02  0.18972057798E+02  0.51100000000E-03 0.  1.
         12    1    3    3    0    0  0.16408788361E+02 -0.35850427490E+01 -0.11234037662E+02  0.20206545206E+02  0.00000000000E+00 0. -1.
</event>
<event>
 7    1  0.2746803E-013  0.5052884E+02  0.7816164E-02  0.1300439E+00
        -11   -1    0    0    0    0  0.00000000000E+00  0.00000000000E+00  0.45593999997E+02  0.45594000000E+02  0.51100000000E-03 0.  1.
         11   -1    0    0    0    0 -0.00000000000E+00 -0.00000000000E+00 -0.45593999997E+02  0.45594000000E+02  0.51100000000E-03 0. -1.
    9900012    2    1    2    0    0  0.36649339010E+02  0.16980899072E+02  0.46521083709E+01  0.50528842415E+02  0.29999947006E+02 0.  0.
         12    1    1    2    0    0 -0.36649339010E+02 -0.16980899072E+02 -0.46521083709E+01  0.40659157585E+02  0.00000000000E+00 0. -1.
         11    1    3    3    0    0  0.73288446837E+01 -0.25560546039E+01  0.22408001267E+01  0.80787724937E+01  0.51100000000E-03 0. -1.
        -11    1    3    3    0    0  0.13828056682E+02  0.51515199934E+01 -0.10101979783E+02  0.17883045200E+02  0.51100000000E-03 0.  1.
        -12    1    3    3    0    0  0.15492437645E+02  0.14385433683E+02  0.12513288027E+02  0.24567024721E+02  0.00000000000E+00 0.  1.
</event>
<event>
 7    1  0.2746803E-013  0.5052888E+02  0.7816164E-02  0.1300439E+00
        -11   -1    0    0    0    0  0.00000000000E+00  0.00000000000E+00  0.45593999997E+02  0.45594000000E+02  0.51100000000E-03 0.  1.
         11   -1    0    0    0    0 -0.00000000000E+00 -0.00000000000E+00 -0.45593999997E+02  0.45594000000E+02  0.51100000000E-03 0. -1.
    9900012    2    1    2    0    0  0.36987972873E+02  0.16414032261E+02 -0.39539550732E+01  0.50528876140E+02  0.30000049515E+02 0.  0.
         12    1    1    2    0    0 -0.36987972873E+02 -0.16414032261E+02  0.39539550732E+01  0.40659123860E+02  0.00000000000E+00 0. -1.
         11    1    3    3    0    0  0.11366224084E+02  0.50020200518E+01  0.41195403493E+01  0.13083648859E+02  0.51100000000E-03 0. -1.
        -11    1    3    3    0    0  0.19245036987E+01  0.12493930879E+02 -0.95052689111E+00  0.12676968286E+02  0.51100000000E-03 0.  1.
         12    1    3    3    0    0  0.23697245091E+02 -0.10819186703E+01 -0.71229685313E+01  0.24768258994E+02  0.00000000000E+00 0. -1.
</event>
<event>
 7    1  0.2746803E-013  0.5052889E+02  0.7816164E-02  0.1300439E+00
        -11   -1    0    0    0    0  0.00000000000E+00  0.00000000000E+00  0.45593999997E+02  0.45594000000E+02  0.51100000000E-03 0. -1.
         11   -1    0    0    0    0 -0.00000000000E+00 -0.00000000000E+00 -0.45593999997E+02  0.45594000000E+02  0.51100000000E-03 0.  1.
    9900012    2    1    2    0    0 -0.91516558294E+01  0.27787985633E+02 -0.28235406948E+02  0.50528890867E+02  0.30000094278E+02 0.  0.
         12    1    1    2    0    0  0.91516558294E+01 -0.27787985633E+02  0.28235406948E+02  0.40659109133E+02  0.00000000000E+00 0. -1.
         11    1    3    3    0    0 -0.77124494617E+01  0.21503931947E+01 -0.17079121675E+02  0.18862726872E+02  0.51100000000E-03 0. -1.
        -11    1    3    3    0    0  0.10151072217E+01  0.94070493089E+01 -0.11937614520E+02  0.15232519820E+02  0.51100000000E-03 0.  1.
        -12    1    3    3    0    0 -0.24543135894E+01  0.16230543130E+02  0.78132924652E+00  0.16433644175E+02  0.00000000000E+00 0.  1.
</event>
<event>
 7    1  0.2746803E-013  0.5052885E+02  0.7816164E-02  0.1300439E+00
        -11   -1    0    0    0    0  0.00000000000E+00  0.00000000000E+00  0.45593999997E+02  0.45594000000E+02  0.51100000000E-03 0. -1.
         11   -1    0    0    0    0 -0.00000000000E+00 -0.00000000000E+00 -0.45593999997E+02  0.45594000000E+02  0.51100000000E-03 0.  1.
    9900012    2    1    2    0    0  0.14997952742E+02 -0.24065422520E+02 -0.29139034300E+02  0.50528850138E+02  0.29999970481E+02 0.  0.
         12    1    1    2    0    0 -0.14997952742E+02  0.24065422520E+02  0.29139034300E+02  0.40659149862E+02  0.00000000000E+00 0. -1.
         11    1    3    3    0    0 -0.21778207485E+01 -0.95814310802E+01  0.12992466103E+01  0.99113453564E+01  0.51100000000E-03 0. -1.
        -11    1    3    3    0    0 -0.19223368003E+01 -0.18585136315E+01 -0.84937869973E+01  0.89047105236E+01  0.51100000000E-03 0.  1.
        -12    1    3    3    0    0  0.19098110291E+02 -0.12625477808E+02 -0.21944493913E+02  0.31712794258E+02  0.00000000000E+00 0.  1.
</event>
<event>
 7    1  0.2746803E-013  0.5052887E+02  0.7816164E-02  0.1300439E+00
        -11   -1    0    0    0    0  0.00000000000E+00  0.00000000000E+00  0.45593999997E+02  0.45594000000E+02  0.51100000000E-03 0.  1.
         11   -1    0    0    0    0 -0.00000000000E+00 -0.00000000000E+00 -0.45593999997E+02  0.45594000000E+02  0.51100000000E-03 0. -1.
    9900012    2    1    2    0    0 -0.43511674869E+01  0.82724971447E+01  0.39570162177E+02  0.50528873076E+02  0.30000040203E+02 0.  0.
         12    1    1    2    0    0  0.43511674869E+01 -0.82724971447E+01 -0.39570162177E+02  0.40659126924E+02  0.00000000000E+00 0. -1.
         11    1    3    3    0    0  0.13850801665E+01  0.13152498240E+01  0.17386922998E+02  0.17491524255E+02  0.51100000000E-03 0. -1.
        -11    1    3    3    0    0  0.42178024279E+01  0.11977853722E+02  0.15505328597E+02  0.20041807609E+02  0.51100000000E-03 0.  1.
         12    1    3    3    0    0 -0.99540500812E+01 -0.50206064009E+01  0.66779105824E+01  0.12995541212E+02  0.00000000000E+00 0. -1.
</event>
<event>
 7    1  0.2746803E-013  0.5052886E+02  0.7816164E-02  0.1300439E+00
        -11   -1    0    0    0    0  0.00000000000E+00  0.00000000000E+00  0.45593999997E+02  0.45594000000E+02  0.51100000000E-03 0.  1.
         11   -1    0    0    0    0 -0.00000000000E+00 -0.00000000000E+00 -0.45593999997E+02  0.45594000000E+02  0.51100000000E-03 0. -1.
    9900012    2    1    2    0    0 -0.30750320992E+02 -0.22589307967E+02  0.14046598918E+02  0.50528855682E+02  0.29999987331E+02 0.  0.
         12    1    1    2    0    0  0.30750320992E+02  0.22589307967E+02 -0.14046598918E+02  0.40659144318E+02  0.00000000000E+00 0. -1.
         11    1    3    3    0    0 -0.11624499339E+02 -0.15750888357E+02  0.96444629813E+00  0.19599735351E+02  0.51100000000E-03 0.  1.
        -11    1    3    3    0    0 -0.34706546392E+01  0.24747842422E+01 -0.40810184135E+01  0.59012466668E+01  0.51100000000E-03 0. -1.
        -12    1    3    3    0    0 -0.15655167014E+02 -0.93132038522E+01  0.17163171033E+02  0.25027873664E+02  0.00000000000E+00 0.  1.
</event>
<event>
 7    1  0.2746803E-013  0.5052886E+02  0.7816164E-02  0.1300439E+00
        -11   -1    0    0    0    0  0.00000000000E+00  0.00000000000E+00  0.45593999997E+02  0.45594000000E+02  0.51100000000E-03 0. -1.
         11   -1    0    0    0    0 -0.00000000000E+00 -0.00000000000E+00 -0.45593999997E+02  0.45594000000E+02  0.51100000000E-03 0.  1.
    9900012    2    1    2    0    0  0.15121652237E+02 -0.29016727577E+02 -0.24135676609E+02  0.50528859195E+02  0.29999998009E+02 0.  0.
         12    1    1    2    0    0 -0.15121652237E+02  0.29016727577E+02  0.24135676609E+02  0.40659140805E+02  0.00000000000E+00 0. -1.
         11    1    3    3    0    0 -0.67862485369E+01 -0.11747029337E+02 -0.44704645594E+01  0.14283939271E+02  0.51100000000E-03 0. -1.
        -11    1    3    3    0    0 -0.44534122309E-01 -0.50144484911E+01 -0.52667874680E+01  0.72722573835E+01  0.51100000000E-03 0.  1.
         12    1    3    3    0    0  0.21952434896E+02 -0.12255249749E+02 -0.14398424581E+02  0.28972662541E+02  0.00000000000E+00 0. -1.
</event>
<event>
 7    1  0.2746803E-013  0.5052887E+02  0.7816164E-02  0.1300439E+00
        -11   -1    0    0    0    0  0.00000000000E+00  0.00000000000E+00  0.45593999997E+02  0.45594000000E+02  0.51100000000E-03 0.  1.
         11   -1    0    0    0    0 -0.00000000000E+00 -0.00000000000E+00 -0.45593999997E+02  0.45594000000E+02  0.51100000000E-03 0. -1.
    9900012    2    1    2    0    0  0.73604011968E+01 -0.18898754363E+02  0.35239558759E+02  0.50528869122E+02  0.30000028183E+02 0.  0.
         12    1    1    2    0    0 -0.73604011968E+01  0.18898754363E+02 -0.35239558759E+02  0.40659130878E+02  0.00000000000E+00 0. -1.
         11    1    3    3    0    0 -0.63790720731E+01  0.37222693299E+01  0.52492507245E+01  0.90610420432E+01  0.51100000000E-03 0. -1.
        -11    1    3    3    0    0  0.41689568714E+01 -0.10302194504E+01  0.17079716871E+01  0.46215496381E+01  0.51100000000E-03 0.  1.
         12    1    3    3    0    0  0.95705163985E+01 -0.21590804243E+02  0.28282336347E+02  0.36846277441E+02  0.00000000000E+00 0. -1.
</event>
<event>
 7    1  0.2746803E-013  0.5052886E+02  0.7816164E-02  0.1300439E+00
        -11   -1    0    0    0    0  0.00000000000E+00  0.00000000000E+00  0.45593999997E+02  0.45594000000E+02  0.51100000000E-03 0.  1.
         11   -1    0    0    0    0 -0.00000000000E+00 -0.00000000000E+00 -0.45593999997E+02  0.45594000000E+02  0.51100000000E-03 0. -1.
    9900012    2    1    2    0    0 -0.65727697506E+01 -0.40123217251E+02  0.30266754291E+00  0.50528862375E+02  0.30000007674E+02 0.  0.
         12    1    1    2    0    0  0.65727697506E+01  0.40123217251E+02 -0.30266754291E+00  0.40659137625E+02  0.00000000000E+00 0. -1.
         11    1    3    3    0    0 -0.87194462488E+01 -0.16575714779E+02 -0.13924597561E+01  0.18780894754E+02  0.51100000000E-03 0.  1.
        -11    1    3    3    0    0 -0.21531424063E+01 -0.82044544493E-02 -0.61897515538E+01  0.65535573617E+01  0.51100000000E-03 0. -1.
        -12    1    3    3    0    0  0.42998189045E+01 -0.23539298018E+02  0.78848788527E+01  0.25194410259E+02  0.00000000000E+00 0.  1.
</event>
<event>
 7    1  0.2746803E-013  0.5052888E+02  0.7816164E-02  0.1300439E+00
        -11   -1    0    0    0    0  0.00000000000E+00  0.00000000000E+00  0.45593999997E+02  0.45594000000E+02  0.51100000000E-03 0.  1.
         11   -1    0    0    0    0 -0.00000000000E+00 -0.00000000000E+00 -0.45593999997E+02  0.45594000000E+02  0.51100000000E-03 0. -1.
    9900012    2    1    2    0    0 -0.29248851636E+02 -0.28209896206E+02 -0.13677300889E+01  0.50528877388E+02  0.30000053310E+02 0.  0.
         12    1    1    2    0    0  0.29248851636E+02  0.28209896206E+02  0.13677300889E+01  0.40659122612E+02  0.00000000000E+00 0. -1.
         11    1    3    3    0    0 -0.21401667880E+02 -0.17247607003E+02 -0.34032454607E+01  0.27696451312E+02  0.51100000000E-03 0. -1.
        -11    1    3    3    0    0 -0.48816426321E+01 -0.32800214251E+01 -0.79502745178E+01  0.98891779490E+01  0.51100000000E-03 0.  1.
        -12    1    3    3    0    0 -0.29655411238E+01 -0.76822677773E+01  0.99857898896E+01  0.12943248127E+02  0.00000000000E+00 0.  1.
</event>
<event>
 7    1  0.2746803E-013  0.5052886E+02  0.7816164E-02  0.1300439E+00
        -11   -1    0    0    0    0  0.00000000000E+00  0.00000000000E+00  0.45593999997E+02  0.45594000000E+02  0.51100000000E-03 0. -1.
         11   -1    0    0    0    0 -0.00000000000E+00 -0.00000000000E+00 -0.45593999997E+02  0.45594000000E+02  0.51100000000E-03 0.  1.
    9900012    2    1    2    0    0  0.72657009549E-01  0.38551902518E+02 -0.12919402254E+02  0.50528863003E+02  0.30000009582E+02 0.  0.
         12    1    1    2    0    0 -0.72657009549E-01 -0.38551902518E+02  0.12919402254E+02  0.40659136997E+02  0.00000000000E+00 0. -1.
         11    1    3    3    0    0  0.84846585548E+01  0.25015188802E+02 -0.48013065580E+01  0.26847749375E+02  0.51100000000E-03 0. -1.
        -11    1    3    3    0    0 -0.59065541834E+01  0.38130082009E+01  0.38844851523E+01  0.80321627860E+01  0.51100000000E-03 0.  1.
        -12    1    3    3    0    0 -0.25054473619E+01  0.97237055154E+01 -0.12002580848E+02  0.15648950842E+02  0.00000000000E+00 0.  1.
</event>
<event>
 7    1  0.2746803E-013  0.5052886E+02  0.7816164E-02  0.1300439E+00
        -11   -1    0    0    0    0  0.00000000000E+00  0.00000000000E+00  0.45593999997E+02  0.45594000000E+02  0.51100000000E-03 0.  1.
         11   -1    0    0    0    0 -0.00000000000E+00 -0.00000000000E+00 -0.45593999997E+02  0.45594000000E+02  0.51100000000E-03 0. -1.
    9900012    2    1    2    0    0 -0.12892666584E+02 -0.36002737892E+02  0.13811157394E+02  0.50528855200E+02  0.29999985865E+02 0.  0.
         12    1    1    2    0    0  0.12892666584E+02  0.36002737892E+02 -0.13811157394E+02  0.40659144800E+02  0.00000000000E+00 0. -1.
         11    1    3    3    0    0 -0.21825872074E+01 -0.18800306536E+02  0.57396319908E+01  0.19777729607E+02  0.51100000000E-03 0. -1.
        -11    1    3    3    0    0 -0.21271341994E+01 -0.20172198052E+02  0.35018523250E+01  0.20584101732E+02  0.51100000000E-03 0.  1.
         12    1    3    3    0    0 -0.85829451769E+01  0.29697666962E+01  0.45696730778E+01  0.10167023860E+02  0.00000000000E+00 0. -1.
</event>
<event>
 7    1  0.2746803E-013  0.5052885E+02  0.7816164E-02  0.1300439E+00
        -11   -1    0    0    0    0  0.00000000000E+00  0.00000000000E+00  0.45593999997E+02  0.45594000000E+02  0.51100000000E-03 0.  1.
         11   -1    0    0    0    0 -0.00000000000E+00 -0.00000000000E+00 -0.45593999997E+02  0.45594000000E+02  0.51100000000E-03 0. -1.
    9900012    2    1    2    0    0  0.15996425842E+02 -0.31564461275E+02  0.20024128229E+02  0.50528848919E+02  0.29999966775E+02 0.  0.
         12    1    1    2    0    0 -0.15996425842E+02  0.31564461275E+02 -0.20024128229E+02  0.40659151081E+02  0.00000000000E+00 0. -1.
         11    1    3    3    0    0  0.30001576109E+01  0.38143463981E+01  0.21266390229E+01  0.52983750273E+01  0.51100000000E-03 0. -1.
        -11    1    3    3    0    0  0.13489180966E+02 -0.14001357658E+02  0.43684426429E+01  0.19926848993E+02  0.51100000000E-03 0.  1.
        -12    1    3    3    0    0 -0.49291273562E+00 -0.21377450016E+02  0.13529046563E+02  0.25303624899E+02  0.00000000000E+00 0.  1.
</event>
<event>
 7    1  0.2746803E-013  0.5052887E+02  0.7816164E-02  0.1300439E+00
        -11   -1    0    0    0    0  0.00000000000E+00  0.00000000000E+00  0.45593999997E+02  0.45594000000E+02  0.51100000000E-03 0. -1.
         11   -1    0    0    0    0 -0.00000000000E+00 -0.00000000000E+00 -0.45593999997E+02  0.45594000000E+02  0.51100000000E-03 0.  1.
    9900012    2    1    2    0    0 -0.12750406573E+01  0.34896154675E+02 -0.20827813062E+02  0.50528866503E+02  0.30000020221E+02 0.  0.
         12    1    1    2    0    0  0.12750406573E+01 -0.34896154675E+02  0.20827813062E+02  0.40659133497E+02  0.00000000000E+00 0. -1.
         11    1    3    3    0    0  0.13644684428E+02  0.18154601880E+02 -0.13815430625E+02  0.26582571474E+02  0.51100000000E-03 0. -1.
        -11    1    3    3    0    0 -0.51032615851E+01  0.70403395808E+01 -0.56626768846E+00  0.87138005242E+01  0.51100000000E-03 0.  1.
        -12    1    3    3    0    0 -0.98164634997E+01  0.97012132140E+01 -0.64461147487E+01  0.15232494504E+02  0.00000000000E+00 0.  1.
</event>
<event>
 7    1  0.2746803E-013  0.5052885E+02  0.7816164E-02  0.1300439E+00
        -11   -1    0    0    0    0  0.00000000000E+00  0.00000000000E+00  0.45593999997E+02  0.45594000000E+02  0.51100000000E-03 0.  1.
         11   -1    0    0    0    0 -0.00000000000E+00 -0.00000000000E+00 -0.45593999997E+02  0.45594000000E+02  0.51100000000E-03 0. -1.
    9900012    2    1    2    0    0  0.29438322163E+01 -0.15581504851E+02  0.37439508094E+02  0.50528853331E+02  0.29999980184E+02 0.  0.
         12    1    1    2    0    0 -0.29438322163E+01  0.15581504851E+02 -0.37439508094E+02  0.40659146669E+02  0.00000000000E+00 0. -1.
         11    1    3    3    0    0  0.91185683799E+01 -0.38909510896E+01  0.47221262729E+01  0.10981177827E+02  0.51100000000E-03 0. -1.
        -11    1    3    3    0    0  0.16035733905E+01  0.20512239631E+01 -0.60525354942E+00  0.26730693006E+01  0.51100000000E-03 0.  1.
        -12    1    3    3    0    0 -0.77783095540E+01 -0.13741777725E+02  0.33322635371E+02  0.36874606203E+02  0.00000000000E+00 0.  1.
</event>
<event>
 7    1  0.2746803E-013  0.5052886E+02  0.7816164E-02  0.1300439E+00
        -11   -1    0    0    0    0  0.00000000000E+00  0.00000000000E+00  0.45593999997E+02  0.45594000000E+02  0.51100000000E-03 0.  1.
         11   -1    0    0    0    0 -0.00000000000E+00 -0.00000000000E+00 -0.45593999997E+02  0.45594000000E+02  0.51100000000E-03 0. -1.
    9900012    2    1    2    0    0 -0.15784638321E+02  0.23422921026E+02  0.29246839544E+02  0.50528860072E+02  0.30000000676E+02 0.  0.
         12    1    1    2    0    0  0.15784638321E+02 -0.23422921026E+02 -0.29246839544E+02  0.40659139928E+02  0.00000000000E+00 0. -1.
         11    1    3    3    0    0 -0.55258530363E+01  0.13332731245E+02 -0.20563485141E+01  0.14578248993E+02  0.51100000000E-03 0. -1.
        -11    1    3    3    0    0 -0.10159362559E+02  0.88142627720E+01  0.17418171352E+02  0.22006739179E+02  0.51100000000E-03 0.  1.
        -12    1    3    3    0    0 -0.99422726387E-01  0.12759270085E+01  0.13885016707E+02  0.13943871900E+02  0.00000000000E+00 0.  1.
</event>
<event>
 7    1  0.2746803E-013  0.5052885E+02  0.7816164E-02  0.1300439E+00
        -11   -1    0    0    0    0  0.00000000000E+00  0.00000000000E+00  0.45593999997E+02  0.45594000000E+02  0.51100000000E-03 0.  1.
         11   -1    0    0    0    0 -0.00000000000E+00 -0.00000000000E+00 -0.45593999997E+02  0.45594000000E+02  0.51100000000E-03 0. -1.
    9900012    2    1    2    0    0 -0.89175847211E+00 -0.14446941465E+02  0.37995486194E+02  0.50528851928E+02  0.29999975919E+02 0.  0.
         12    1    1    2    0    0  0.89175847211E+00  0.14446941465E+02 -0.37995486194E+02  0.40659148072E+02  0.00000000000E+00 0. -1.
         11    1    3    3    0    0  0.37484567339E+01  0.56347395594E+01  0.13468603609E+02  0.15073304257E+02  0.51100000000E-03 0. -1.
        -11    1    3    3    0    0  0.44984038618E+01 -0.49228765923E+01  0.23269597585E+01  0.70629380024E+01  0.51100000000E-03 0.  1.
        -12    1    3    3    0    0 -0.91386190678E+01 -0.15158804432E+02  0.22199922826E+02  0.28392609668E+02  0.00000000000E+00 0.  1.
</event>
<event>
 7    1  0.2746803E-013  0.5052885E+02  0.7816164E-02  0.1300439E+00
        -11   -1    0    0    0    0  0.00000000000E+00  0.00000000000E+00  0.45593999997E+02  0.45594000000E+02  0.51100000000E-03 0. -1.
         11   -1    0    0    0    0 -0.00000000000E+00 -0.00000000000E+00 -0.45593999997E+02  0.45594000000E+02  0.51100000000E-03 0.  1.
    9900012    2    1    2    0    0 -0.31784850015E+02  0.24613297432E+02 -0.60889794589E+01  0.50528846396E+02  0.29999959105E+02 0.  0.
         12    1    1    2    0    0  0.31784850015E+02 -0.24613297432E+02  0.60889794589E+01  0.40659153604E+02  0.00000000000E+00 0. -1.
         11    1    3    3    0    0 -0.98453611247E+01  0.47967445689E+01  0.78035480718E+01  0.13447500024E+02  0.51100000000E-03 0. -1.
        -11    1    3    3    0    0 -0.28476033689E+01  0.36326106302E+01 -0.10946915078E+02  0.11880221165E+02  0.51100000000E-03 0.  1.
         12    1    3    3    0    0 -0.19091885522E+02  0.16183942232E+02 -0.29456124523E+01  0.25201125207E+02  0.00000000000E+00 0. -1.
</event>
<event>
 7    1  0.2746803E-013  0.5052886E+02  0.7816164E-02  0.1300439E+00
        -11   -1    0    0    0    0  0.00000000000E+00  0.00000000000E+00  0.45593999997E+02  0.45594000000E+02  0.51100000000E-03 0.  1.
         11   -1    0    0    0    0 -0.00000000000E+00 -0.00000000000E+00 -0.45593999997E+02  0.45594000000E+02  0.51100000000E-03 0. -1.
    9900012    2    1    2    0    0  0.94206386877E+01  0.31864681931E+02 -0.23432014499E+02  0.50528859683E+02  0.29999999492E+02 0.  0.
         12    1    1    2    0    0 -0.94206386877E+01 -0.31864681931E+02  0.23432014499E+02  0.40659140317E+02  0.00000000000E+00 0. -1.
         11    1    3    3    0    0 -0.47143120681E+01  0.10044982594E+02  0.10829325119E+01  0.11148953165E+02  0.51100000000E-03 0. -1.
        -11    1    3    3    0    0 -0.12874230632E+01  0.43885842146E+01  0.11677121027E+01  0.47202416641E+01  0.51100000000E-03 0.  1.
        -12    1    3    3    0    0  0.15422373819E+02  0.17431115123E+02 -0.25682659113E+02  0.34659664854E+02  0.00000000000E+00 0.  1.
</event>
<event>
 7    1  0.2746803E-013  0.5052886E+02  0.7816164E-02  0.1300439E+00
        -11   -1    0    0    0    0  0.00000000000E+00  0.00000000000E+00  0.45593999997E+02  0.45594000000E+02  0.51100000000E-03 0.  1.
         11   -1    0    0    0    0 -0.00000000000E+00 -0.00000000000E+00 -0.45593999997E+02  0.45594000000E+02  0.51100000000E-03 0. -1.
    9900012    2    1    2    0    0 -0.23308188539E+02 -0.82196924945E+01  0.32285151672E+02  0.50528855688E+02  0.29999987351E+02 0.  0.
         12    1    1    2    0    0  0.23308188539E+02  0.82196924945E+01 -0.32285151672E+02  0.40659144312E+02  0.00000000000E+00 0. -1.
         11    1    3    3    0    0  0.29963622773E+01 -0.25970370400E+01 -0.20882068005E+01  0.44814502325E+01  0.51100000000E-03 0. -1.
        -11    1    3    3    0    0 -0.78328355616E+01  0.41934868795E+01  0.57042564002E+01  0.10558275734E+02  0.51100000000E-03 0.  1.
         12    1    3    3    0    0 -0.18471715255E+02 -0.98161423341E+01  0.28669102072E+02  0.35489129722E+02  0.00000000000E+00 0. -1.
</event>
<event>
 7    1  0.2746803E-013  0.5052886E+02  0.7816164E-02  0.1300439E+00
        -11   -1    0    0    0    0  0.00000000000E+00  0.00000000000E+00  0.45593999997E+02  0.45594000000E+02  0.51100000000E-03 0. -1.
         11   -1    0    0    0    0 -0.00000000000E+00 -0.00000000000E+00 -0.45593999997E+02  0.45594000000E+02  0.51100000000E-03 0.  1.
    9900012    2    1    2    0    0  0.13075016953E+02 -0.24055527522E+02 -0.30058965451E+02  0.50528857403E+02  0.29999992562E+02 0.  0.
         12    1    1    2    0    0 -0.13075016953E+02  0.24055527522E+02  0.30058965451E+02  0.40659142597E+02  0.00000000000E+00 0. -1.
         11    1    3    3    0    0 -0.22494650608E+01 -0.11382726366E+01 -0.16109897101E+01  0.29918298351E+01  0.51100000000E-03 0. -1.
        -11    1    3    3    0    0  0.16694028093E+02 -0.96239323751E+01 -0.28220097606E+02  0.34171399701E+02  0.51100000000E-03 0.  1.
         12    1    3    3    0    0 -0.13695460793E+01 -0.13293322511E+02 -0.22787813490E+00  0.13365627867E+02  0.00000000000E+00 0. -1.
</event>
<event>
 7    1  0.2746803E-013  0.5052887E+02  0.7816164E-02  0.1300439E+00
        -11   -1    0    0    0    0  0.00000000000E+00  0.00000000000E+00  0.45593999997E+02  0.45594000000E+02  0.51100000000E-03 0.  1.
         11   -1    0    0    0    0 -0.00000000000E+00 -0.00000000000E+00 -0.45593999997E+02  0.45594000000E+02  0.51100000000E-03 0. -1.
    9900012    2    1    2    0    0 -0.20214848582E+02 -0.15785301542E+01  0.35242487320E+02  0.50528870974E+02  0.30000033811E+02 0.  0.
         12    1    1    2    0    0  0.20214848582E+02  0.15785301542E+01 -0.35242487320E+02  0.40659129026E+02  0.00000000000E+00 0. -1.
         11    1    3    3    0    0 -0.21407196700E+01  0.71317513786E+01  0.53817410961E+01  0.91873661035E+01  0.51100000000E-03 0. -1.
        -11    1    3    3    0    0 -0.30676609908E+01  0.47476707670E+01  0.15756915050E+02  0.16740110329E+02  0.51100000000E-03 0.  1.
        -12    1    3    3    0    0 -0.15006467921E+02 -0.13457952300E+02  0.14103831174E+02  0.24601394541E+02  0.00000000000E+00 0.  1.
</event>
<event>
 7    1  0.2746803E-013  0.5052885E+02  0.7816164E-02  0.1300439E+00
        -11   -1    0    0    0    0  0.00000000000E+00  0.00000000000E+00  0.45593999997E+02  0.45594000000E+02  0.51100000000E-03 0.  1.
         11   -1    0    0    0    0 -0.00000000000E+00 -0.00000000000E+00 -0.45593999997E+02  0.45594000000E+02  0.51100000000E-03 0. -1.
    9900012    2    1    2    0    0 -0.27775376586E+02  0.27660000378E+02  0.10799026738E+02  0.50528854117E+02  0.29999982575E+02 0.  0.
         12    1    1    2    0    0  0.27775376586E+02 -0.27660000378E+02 -0.10799026738E+02  0.40659145883E+02  0.00000000000E+00 0. -1.
         11    1    3    3    0    0  0.14631655209E+01 -0.24423609173E+01 -0.11195889502E+01  0.30593234335E+01  0.51100000000E-03 0. -1.
        -11    1    3    3    0    0 -0.10817588648E+02  0.14578293381E+02 -0.40081474890E+01  0.18590645728E+02  0.51100000000E-03 0.  1.
        -12    1    3    3    0    0 -0.18420953459E+02  0.15524067915E+02  0.15926763177E+02  0.28878884956E+02  0.00000000000E+00 0.  1.
</event>
<event>
 7    1  0.2746803E-013  0.5052885E+02  0.7816164E-02  0.1300439E+00
        -11   -1    0    0    0    0  0.00000000000E+00  0.00000000000E+00  0.45593999997E+02  0.45594000000E+02  0.51100000000E-03 0. -1.
         11   -1    0    0    0    0 -0.00000000000E+00 -0.00000000000E+00 -0.45593999997E+02  0.45594000000E+02  0.51100000000E-03 0.  1.
    9900012    2    1    2    0    0  0.22156658964E+02  0.25408722075E+02 -0.22729849949E+02  0.50528846386E+02  0.29999959073E+02 0.  0.
         12    1    1    2    0    0 -0.22156658964E+02 -0.25408722075E+02  0.22729849949E+02  0.40659153614E+02  0.00000000000E+00 0. -1.
         11    1    3    3    0    0  0.17206718763E+01  0.13358848467E+02  0.66305305273E+00  0.13485517553E+02  0.51100000000E-03 0. -1.
        -11    1    3    3    0    0 -0.10052771977E+01  0.31025080870E+01 -0.93344860899E+01  0.98878091354E+01  0.51100000000E-03 0.  1.
        -12    1    3    3    0    0  0.21441264286E+02  0.89473655208E+01 -0.14058416912E+02  0.27155519697E+02  0.00000000000E+00 0.  1.
</event>
<event>
 7    1  0.2746803E-013  0.5052885E+02  0.7816164E-02  0.1300439E+00
        -11   -1    0    0    0    0  0.00000000000E+00  0.00000000000E+00  0.45593999997E+02  0.45594000000E+02  0.51100000000E-03 0.  1.
         11   -1    0    0    0    0 -0.00000000000E+00 -0.00000000000E+00 -0.45593999997E+02  0.45594000000E+02  0.51100000000E-03 0. -1.
    9900012    2    1    2    0    0 -0.23322586710E+02 -0.95225069234E+01  0.31914650601E+02  0.50528854511E+02  0.29999983770E+02 0.  0.
         12    1    1    2    0    0  0.23322586710E+02  0.95225069234E+01 -0.31914650601E+02  0.40659145489E+02  0.00000000000E+00 0. -1.
         11    1    3    3    0    0 -0.31259248747E+01 -0.87969328800E+01  0.44304005303E+00  0.93463211569E+01  0.51100000000E-03 0. -1.
        -11    1    3    3    0    0  0.27157832525E+01 -0.29515979493E+00  0.76698282949E+01  0.81417973638E+01  0.51100000000E-03 0.  1.
        -12    1    3    3    0    0 -0.22912445087E+02 -0.43041424841E+00  0.23801782253E+02  0.33040735990E+02  0.00000000000E+00 0.  1.
</event>
<event>
 7    1  0.2746803E-013  0.5052886E+02  0.7816164E-02  0.1300439E+00
        -11   -1    0    0    0    0  0.00000000000E+00  0.00000000000E+00  0.45593999997E+02  0.45594000000E+02  0.51100000000E-03 0. -1.
         11   -1    0    0    0    0 -0.00000000000E+00 -0.00000000000E+00 -0.45593999997E+02  0.45594000000E+02  0.51100000000E-03 0.  1.
    9900012    2    1    2    0    0  0.76996485083E+01  0.11257989568E+02 -0.38303245061E+02  0.50528862054E+02  0.30000006700E+02 0.  0.
         12    1    1    2    0    0 -0.76996485083E+01 -0.11257989568E+02  0.38303245061E+02  0.40659137946E+02  0.00000000000E+00 0. -1.
         11    1    3    3    0    0  0.89744350353E+00  0.11566813052E+02 -0.33740303838E+01  0.12082245252E+02  0.51100000000E-03 0. -1.
        -11    1    3    3    0    0  0.64529561731E+01 -0.31118791972E+00 -0.41786361442E+01  0.76940549504E+01  0.51100000000E-03 0.  1.
        -12    1    3    3    0    0  0.34924883167E+00  0.23644351701E-02 -0.30750578533E+02  0.30752561852E+02  0.00000000000E+00 0.  1.
</event>
<event>
 7    1  0.2746803E-013  0.5052886E+02  0.7816164E-02  0.1300439E+00
        -11   -1    0    0    0    0  0.00000000000E+00  0.00000000000E+00  0.45593999997E+02  0.45594000000E+02  0.51100000000E-03 0.  1.
         11   -1    0    0    0    0 -0.00000000000E+00 -0.00000000000E+00 -0.45593999997E+02  0.45594000000E+02  0.51100000000E-03 0. -1.
    9900012    2    1    2    0    0  0.31458206358E+02 -0.23093346921E+02  0.11412461633E+02  0.50528859579E+02  0.29999999176E+02 0.  0.
         12    1    1    2    0    0 -0.31458206358E+02  0.23093346921E+02 -0.11412461633E+02  0.40659140421E+02  0.00000000000E+00 0. -1.
         11    1    3    3    0    0  0.20336434812E+02  0.25265067668E+00 -0.13536498504E+01  0.20383002267E+02  0.51100000000E-03 0. -1.
        -11    1    3    3    0    0  0.68262649253E+01 -0.64770362555E+01  0.18242947163E+01  0.95852982717E+01  0.51100000000E-03 0.  1.
        -12    1    3    3    0    0  0.42955066202E+01 -0.16868961342E+02  0.10941816767E+02  0.20560559040E+02  0.00000000000E+00 0.  1.
</event>
<event>
 7    1  0.2746803E-013  0.5052887E+02  0.7816164E-02  0.1300439E+00
        -11   -1    0    0    0    0  0.00000000000E+00  0.00000000000E+00  0.45593999997E+02  0.45594000000E+02  0.51100000000E-03 0. -1.
         11   -1    0    0    0    0 -0.00000000000E+00 -0.00000000000E+00 -0.45593999997E+02  0.45594000000E+02  0.51100000000E-03 0.  1.
    9900012    2    1    2    0    0  0.26139102289E+02 -0.21440340080E+02 -0.22588141060E+02  0.50528868581E+02  0.30000026539E+02 0.  0.
         12    1    1    2    0    0 -0.26139102289E+02  0.21440340080E+02  0.22588141060E+02  0.40659131419E+02  0.00000000000E+00 0. -1.
         11    1    3    3    0    0  0.98139857081E+01 -0.38096785837E+01  0.40359689809E+01  0.11274618054E+02  0.51100000000E-03 0. -1.
        -11    1    3    3    0    0 -0.16153984737E+01  0.41010896404E-01 -0.73956448217E+01  0.75701226352E+01  0.51100000000E-03 0.  1.
         12    1    3    3    0    0  0.17940515054E+02 -0.17671672392E+02 -0.19228465220E+02  0.31684127892E+02  0.00000000000E+00 0. -1.
</event>
<event>
 7    1  0.2746803E-013  0.5052886E+02  0.7816164E-02  0.1300439E+00
        -11   -1    0    0    0    0  0.00000000000E+00  0.00000000000E+00  0.45593999997E+02  0.45594000000E+02  0.51100000000E-03 0.  1.
         11   -1    0    0    0    0 -0.00000000000E+00 -0.00000000000E+00 -0.45593999997E+02  0.45594000000E+02  0.51100000000E-03 0. -1.
    9900012    2    1    2    0    0  0.24313847111E+02  0.29513907430E+02  0.13817806199E+02  0.50528860053E+02  0.30000000616E+02 0.  0.
         12    1    1    2    0    0 -0.24313847111E+02 -0.29513907430E+02 -0.13817806199E+02  0.40659139947E+02  0.00000000000E+00 0. -1.
         11    1    3    3    0    0  0.20369692082E+02  0.28935907407E+02  0.12165704974E+02  0.37419453106E+02  0.51100000000E-03 0. -1.
        -11    1    3    3    0    0  0.50949583440E+01  0.45568239984E+01  0.44088575113E+01  0.81339578494E+01  0.51100000000E-03 0.  1.
         12    1    3    3    0    0 -0.11508033158E+01 -0.39788239751E+01 -0.27567562862E+01  0.49754490971E+01  0.00000000000E+00 0. -1.
</event>
<event>
 7    1  0.2746803E-013  0.5052886E+02  0.7816164E-02  0.1300439E+00
        -11   -1    0    0    0    0  0.00000000000E+00  0.00000000000E+00  0.45593999997E+02  0.45594000000E+02  0.51100000000E-03 0. -1.
         11   -1    0    0    0    0 -0.00000000000E+00 -0.00000000000E+00 -0.45593999997E+02  0.45594000000E+02  0.51100000000E-03 0.  1.
    9900012    2    1    2    0    0 -0.15258332137E+02 -0.15421516572E+02 -0.34387868085E+02  0.50528863949E+02  0.30000012460E+02 0.  0.
         12    1    1    2    0    0  0.15258332137E+02  0.15421516572E+02  0.34387868085E+02  0.40659136051E+02  0.00000000000E+00 0. -1.
         11    1    3    3    0    0 -0.30475581691E+01  0.20179806177E+01  0.15962939821E+01  0.39884848383E+01  0.51100000000E-03 0.  1.
        -11    1    3    3    0    0  0.43515848663E+01 -0.96506448493E+01 -0.17991286042E+02  0.20874808037E+02  0.51100000000E-03 0. -1.
        -12    1    3    3    0    0 -0.16562358834E+02 -0.77888523400E+01 -0.17992876024E+02  0.25665571074E+02  0.00000000000E+00 0.  1.
</event>
<event>
 7    1  0.2746803E-013  0.5052885E+02  0.7816164E-02  0.1300439E+00
        -11   -1    0    0    0    0  0.00000000000E+00  0.00000000000E+00  0.45593999997E+02  0.45594000000E+02  0.51100000000E-03 0. -1.
         11   -1    0    0    0    0 -0.00000000000E+00 -0.00000000000E+00 -0.45593999997E+02  0.45594000000E+02  0.51100000000E-03 0.  1.
    9900012    2    1    2    0    0  0.29551787229E+02 -0.27357327677E+02 -0.56066570787E+01  0.50528854539E+02  0.29999983856E+02 0.  0.
         12    1    1    2    0    0 -0.29551787229E+02  0.27357327677E+02  0.56066570787E+01  0.40659145461E+02  0.00000000000E+00 0. -1.
         11    1    3    3    0    0  0.99765660921E+01 -0.12646221681E+02  0.87123604386E+01  0.18312946745E+02  0.51100000000E-03 0. -1.
        -11    1    3    3    0    0  0.19246681119E+02 -0.13356317338E+02 -0.65537221293E+01  0.24326471609E+02  0.51100000000E-03 0.  1.
        -12    1    3    3    0    0  0.32854001790E+00 -0.13547886568E+01 -0.77652953879E+01  0.78894361845E+01  0.00000000000E+00 0.  1.
</event>
<event>
 7    1  0.2746803E-013  0.5052886E+02  0.7816164E-02  0.1300439E+00
        -11   -1    0    0    0    0  0.00000000000E+00  0.00000000000E+00  0.45593999997E+02  0.45594000000E+02  0.51100000000E-03 0.  1.
         11   -1    0    0    0    0 -0.00000000000E+00 -0.00000000000E+00 -0.45593999997E+02  0.45594000000E+02  0.51100000000E-03 0. -1.
    9900012    2    1    2    0    0  0.37593034864E+02 -0.12923406038E+02 -0.85390253080E+01  0.50528860226E+02  0.30000001144E+02 0.  0.
         12    1    1    2    0    0 -0.37593034864E+02  0.12923406038E+02  0.85390253080E+01  0.40659139774E+02  0.00000000000E+00 0. -1.
         11    1    3    3    0    0  0.23788260013E+02 -0.68303135993E+01  0.73791281660E+01  0.25826072699E+02  0.51100000000E-03 0.  1.
        -11    1    3    3    0    0  0.55590873131E+01 -0.66594091013E+01 -0.26492566841E+01  0.90702669516E+01  0.51100000000E-03 0. -1.
         12    1    3    3    0    0  0.82456875384E+01  0.56631666289E+00 -0.13268896790E+02  0.15632520576E+02  0.00000000000E+00 0. -1.
</event>
<event>
 7    1  0.2746803E-013  0.5052886E+02  0.7816164E-02  0.1300439E+00
        -11   -1    0    0    0    0  0.00000000000E+00  0.00000000000E+00  0.45593999997E+02  0.45594000000E+02  0.51100000000E-03 0.  1.
         11   -1    0    0    0    0 -0.00000000000E+00 -0.00000000000E+00 -0.45593999997E+02  0.45594000000E+02  0.51100000000E-03 0. -1.
    9900012    2    1    2    0    0 -0.37438588217E+02  0.15808091298E+02  0.12736171314E+01  0.50528859099E+02  0.29999997717E+02 0.  0.
         12    1    1    2    0    0  0.37438588217E+02 -0.15808091298E+02 -0.12736171314E+01  0.40659140901E+02  0.00000000000E+00 0. -1.
         11    1    3    3    0    0  0.35355257908E+00  0.25664864071E+01  0.36824343345E+01  0.45024631917E+01  0.51100000000E-03 0. -1.
        -11    1    3    3    0    0 -0.16068252659E+02 -0.42124149697E+01  0.47069412526E+01  0.17265239054E+02  0.51100000000E-03 0.  1.
        -12    1    3    3    0    0 -0.21723888138E+02  0.17454019861E+02 -0.71157584557E+01  0.28761156853E+02  0.00000000000E+00 0.  1.
</event>
<event>
 7    1  0.2746803E-013  0.5052887E+02  0.7816164E-02  0.1300439E+00
        -11   -1    0    0    0    0  0.00000000000E+00  0.00000000000E+00  0.45593999997E+02  0.45594000000E+02  0.51100000000E-03 0.  1.
         11   -1    0    0    0    0 -0.00000000000E+00 -0.00000000000E+00 -0.45593999997E+02  0.45594000000E+02  0.51100000000E-03 0. -1.
    9900012    2    1    2    0    0 -0.21024345152E+02  0.26761181474E+02  0.22248170654E+02  0.50528867934E+02  0.30000024571E+02 0.  0.
         12    1    1    2    0    0  0.21024345152E+02 -0.26761181474E+02 -0.22248170654E+02  0.40659132066E+02  0.00000000000E+00 0. -1.
         11    1    3    3    0    0 -0.38444784211E+01  0.70276764457E+01  0.16001997949E+02  0.17895032528E+02  0.51100000000E-03 0. -1.
        -11    1    3    3    0    0 -0.14769900516E+02  0.19826019534E+02  0.11186750748E+02  0.27136035163E+02  0.51100000000E-03 0.  1.
        -12    1    3    3    0    0 -0.24099662153E+01 -0.92514506248E-01 -0.49405780437E+01  0.54978002418E+01  0.00000000000E+00 0.  1.
</event>
<event>
 7    1  0.2746803E-013  0.5052885E+02  0.7816164E-02  0.1300439E+00
        -11   -1    0    0    0    0  0.00000000000E+00  0.00000000000E+00  0.45593999997E+02  0.45594000000E+02  0.51100000000E-03 0.  1.
         11   -1    0    0    0    0 -0.00000000000E+00 -0.00000000000E+00 -0.45593999997E+02  0.45594000000E+02  0.51100000000E-03 0. -1.
    9900012    2    1    2    0    0  0.70332297726E+01  0.47351061942E+01  0.39765299895E+02  0.50528848171E+02  0.29999964500E+02 0.  0.
         12    1    1    2    0    0 -0.70332297726E+01 -0.47351061942E+01 -0.39765299895E+02  0.40659151829E+02  0.00000000000E+00 0. -1.
         11    1    3    3    0    0  0.69677473625E+01  0.33775743527E+01  0.31306965365E+02  0.32250327013E+02  0.51100000000E-03 0. -1.
        -11    1    3    3    0    0  0.46390467440E+00  0.82857560717E+01  0.76591461482E+01  0.11292983716E+02  0.51100000000E-03 0.  1.
         12    1    3    3    0    0 -0.39842226425E+00 -0.69282242302E+01  0.79918838249E+00  0.69855374421E+01  0.00000000000E+00 0. -1.
</event>
<event>
 7    1  0.2746803E-013  0.5052885E+02  0.7816164E-02  0.1300439E+00
        -11   -1    0    0    0    0  0.00000000000E+00  0.00000000000E+00  0.45593999997E+02  0.45594000000E+02  0.51100000000E-03 0.  1.
         11   -1    0    0    0    0 -0.00000000000E+00 -0.00000000000E+00 -0.45593999997E+02  0.45594000000E+02  0.51100000000E-03 0. -1.
    9900012    2    1    2    0    0 -0.33270789016E+02 -0.22174349542E+02  0.73837029107E+01  0.50528852837E+02  0.29999978683E+02 0.  0.
         12    1    1    2    0    0  0.33270789016E+02  0.22174349542E+02 -0.73837029107E+01  0.40659147163E+02  0.00000000000E+00 0. -1.
         11    1    3    3    0    0 -0.76622442809E+01 -0.53472363107E+00 -0.57753624128E-01  0.76810970912E+01  0.51100000000E-03 0. -1.
        -11    1    3    3    0    0 -0.33058759435E+00  0.20271236010E+01  0.79551987621E+01  0.82160638907E+01  0.51100000000E-03 0.  1.
        -12    1    3    3    0    0 -0.25277957141E+02 -0.23666749512E+02 -0.51374222722E+00  0.34631691855E+02  0.00000000000E+00 0.  1.
</event>
<event>
 7    1  0.2746803E-013  0.5052887E+02  0.7816164E-02  0.1300439E+00
        -11   -1    0    0    0    0  0.00000000000E+00  0.00000000000E+00  0.45593999997E+02  0.45594000000E+02  0.51100000000E-03 0.  1.
         11   -1    0    0    0    0 -0.00000000000E+00 -0.00000000000E+00 -0.45593999997E+02  0.45594000000E+02  0.51100000000E-03 0. -1.
    9900012    2    1    2    0    0  0.15852489638E+02 -0.83505502547E+00  0.37432157091E+02  0.50528866597E+02  0.30000020508E+02 0.  0.
         12    1    1    2    0    0 -0.15852489638E+02  0.83505502547E+00 -0.37432157091E+02  0.40659133403E+02  0.00000000000E+00 0. -1.
         11    1    3    3    0    0  0.55615220970E+01  0.74034123198E+00 -0.28910668828E+01  0.63116480540E+01  0.51100000000E-03 0. -1.
        -11    1    3    3    0    0 -0.37514445429E+01 -0.14490317282E+01  0.10795879736E+02  0.11520592374E+02  0.51100000000E-03 0.  1.
        -12    1    3    3    0    0  0.14042412083E+02 -0.12636452925E+00  0.29527344238E+02  0.32696626169E+02  0.00000000000E+00 0.  1.
</event>
<event>
 7    1  0.2746803E-013  0.5052885E+02  0.7816164E-02  0.1300439E+00
        -11   -1    0    0    0    0  0.00000000000E+00  0.00000000000E+00  0.45593999997E+02  0.45594000000E+02  0.51100000000E-03 0.  1.
         11   -1    0    0    0    0 -0.00000000000E+00 -0.00000000000E+00 -0.45593999997E+02  0.45594000000E+02  0.51100000000E-03 0. -1.
    9900012    2    1    2    0    0 -0.17403756561E+02 -0.14383835135E+02  0.33813914234E+02  0.50528852794E+02  0.29999978553E+02 0.  0.
         12    1    1    2    0    0  0.17403756561E+02  0.14383835135E+02 -0.33813914234E+02  0.40659147206E+02  0.00000000000E+00 0. -1.
         11    1    3    3    0    0 -0.83245749911E+01  0.12625124837E+00  0.21145835541E+02  0.22725774996E+02  0.51100000000E-03 0. -1.
        -11    1    3    3    0    0  0.31252051051E+01  0.23258568384E+01  0.27236603408E+01  0.47534032961E+01  0.51100000000E-03 0.  1.
         12    1    3    3    0    0 -0.12204386675E+02 -0.16835943222E+02  0.99444183522E+01  0.23049674502E+02  0.00000000000E+00 0. -1.
</event>
<event>
 7    1  0.2746803E-013  0.5052886E+02  0.7816164E-02  0.1300439E+00
        -11   -1    0    0    0    0  0.00000000000E+00  0.00000000000E+00  0.45593999997E+02  0.45594000000E+02  0.51100000000E-03 0. -1.
         11   -1    0    0    0    0 -0.00000000000E+00 -0.00000000000E+00 -0.45593999997E+02  0.45594000000E+02  0.51100000000E-03 0.  1.
    9900012    2    1    2    0    0  0.22201608181E+02  0.32187094688E+02 -0.11146518783E+02  0.50528863865E+02  0.30000012203E+02 0.  0.
         12    1    1    2    0    0 -0.22201608181E+02 -0.32187094688E+02  0.11146518783E+02  0.40659136135E+02  0.00000000000E+00 0. -1.
         11    1    3    3    0    0  0.53947659826E+01  0.15827094991E+02  0.53605167138E+01  0.17559486768E+02  0.51100000000E-03 0. -1.
        -11    1    3    3    0    0  0.38709251133E+01  0.14935227294E+02 -0.75994669824E+01  0.17198749205E+02  0.51100000000E-03 0.  1.
        -12    1    3    3    0    0  0.12935917086E+02  0.14247724031E+01 -0.89075685142E+01  0.15770627891E+02  0.00000000000E+00 0.  1.
</event>
<event>
 7    1  0.2746803E-013  0.5052886E+02  0.7816164E-02  0.1300439E+00
        -11   -1    0    0    0    0  0.00000000000E+00  0.00000000000E+00  0.45593999997E+02  0.45594000000E+02  0.51100000000E-03 0. -1.
         11   -1    0    0    0    0 -0.00000000000E+00 -0.00000000000E+00 -0.45593999997E+02  0.45594000000E+02  0.51100000000E-03 0.  1.
    9900012    2    1    2    0    0 -0.16134394221E+02 -0.35349568646E+02  0.11968907251E+02  0.50528863006E+02  0.30000009593E+02 0.  0.
         12    1    1    2    0    0  0.16134394221E+02  0.35349568646E+02 -0.11968907251E+02  0.40659136994E+02  0.00000000000E+00 0. -1.
         11    1    3    3    0    0 -0.16209623277E+02 -0.29317020823E+02  0.75213532585E+01  0.34333807710E+02  0.51100000000E-03 0. -1.
        -11    1    3    3    0    0 -0.24135188447E+01 -0.10041236048E+02  0.10495243924E+01  0.10380414072E+02  0.51100000000E-03 0.  1.
         12    1    3    3    0    0  0.24887479009E+01  0.40086882258E+01  0.33980296003E+01  0.58146412246E+01  0.00000000000E+00 0. -1.
</event>
<event>
 7    1  0.2746803E-013  0.5052886E+02  0.7816164E-02  0.1300439E+00
        -11   -1    0    0    0    0  0.00000000000E+00  0.00000000000E+00  0.45593999997E+02  0.45594000000E+02  0.51100000000E-03 0. -1.
         11   -1    0    0    0    0 -0.00000000000E+00 -0.00000000000E+00 -0.45593999997E+02  0.45594000000E+02  0.51100000000E-03 0.  1.
    9900012    2    1    2    0    0  0.23373568699E+02 -0.13377353059E+01 -0.33242329305E+02  0.50528859489E+02  0.29999998903E+02 0.  0.
         12    1    1    2    0    0 -0.23373568699E+02  0.13377353059E+01  0.33242329305E+02  0.40659140511E+02  0.00000000000E+00 0. -1.
         11    1    3    3    0    0  0.16448327228E+02  0.14338065086E+01 -0.16828763097E+02  0.23575634399E+02  0.51100000000E-03 0.  1.
        -11    1    3    3    0    0  0.43597559369E+01  0.83879807024E+01 -0.10270565808E+02  0.13958875828E+02  0.51100000000E-03 0. -1.
         12    1    3    3    0    0  0.25654855345E+01 -0.11159522517E+02 -0.61430004002E+01  0.12994349262E+02  0.00000000000E+00 0. -1.
</event>
<event>
 7    1  0.2746803E-013  0.5052885E+02  0.7816164E-02  0.1300439E+00
        -11   -1    0    0    0    0  0.00000000000E+00  0.00000000000E+00  0.45593999997E+02  0.45594000000E+02  0.51100000000E-03 0.  1.
         11   -1    0    0    0    0 -0.00000000000E+00 -0.00000000000E+00 -0.45593999997E+02  0.45594000000E+02  0.51100000000E-03 0. -1.
    9900012    2    1    2    0    0  0.26625660820E+01 -0.34951326790E+02  0.20602951224E+02  0.50528854637E+02  0.29999984155E+02 0.  0.
         12    1    1    2    0    0 -0.26625660820E+01  0.34951326790E+02 -0.20602951224E+02  0.40659145363E+02  0.00000000000E+00 0. -1.
         11    1    3    3    0    0  0.44131032095E+01  0.21077111248E+01  0.63482684429E+01  0.80136407836E+01  0.51100000000E-03 0. -1.
        -11    1    3    3    0    0 -0.48886548902E+01 -0.82484651639E+01  0.88221921912E+01  0.13029474261E+02  0.51100000000E-03 0.  1.
         12    1    3    3    0    0  0.31381177627E+01 -0.28810572751E+02  0.54324905903E+01  0.29485739593E+02  0.00000000000E+00 0. -1.
</event>
<event>
 7    1  0.2746803E-013  0.5052886E+02  0.7816164E-02  0.1300439E+00
        -11   -1    0    0    0    0  0.00000000000E+00  0.00000000000E+00  0.45593999997E+02  0.45594000000E+02  0.51100000000E-03 0.  1.
         11   -1    0    0    0    0 -0.00000000000E+00 -0.00000000000E+00 -0.45593999997E+02  0.45594000000E+02  0.51100000000E-03 0. -1.
    9900012    2    1    2    0    0  0.36288225156E+02 -0.93751061275E+01  0.15761915969E+02  0.50528857180E+02  0.29999991884E+02 0.  0.
         12    1    1    2    0    0 -0.36288225156E+02  0.93751061275E+01 -0.15761915969E+02  0.40659142820E+02  0.00000000000E+00 0. -1.
         11    1    3    3    0    0  0.18407162828E+01  0.31944095813E+01  0.20400306472E+01  0.42135750035E+01  0.51100000000E-03 0. -1.
        -11    1    3    3    0    0  0.24663702731E+02 -0.18693615799E+02  0.39629207496E+01  0.31200228287E+02  0.51100000000E-03 0.  1.
         12    1    3    3    0    0  0.97838061420E+01  0.61241000906E+01  0.97589645720E+01  0.15115053889E+02  0.00000000000E+00 0. -1.
</event>
<event>
 7    1  0.2746803E-013  0.5052886E+02  0.7816164E-02  0.1300439E+00
        -11   -1    0    0    0    0  0.00000000000E+00  0.00000000000E+00  0.45593999997E+02  0.45594000000E+02  0.51100000000E-03 0.  1.
         11   -1    0    0    0    0 -0.00000000000E+00 -0.00000000000E+00 -0.45593999997E+02  0.45594000000E+02  0.51100000000E-03 0. -1.
    9900012    2    1    2    0    0  0.23668399041E+02  0.33045204879E+02  0.99356059178E+00  0.50528857839E+02  0.29999993887E+02 0.  0.
         12    1    1    2    0    0 -0.23668399041E+02 -0.33045204879E+02 -0.99356059178E+00  0.40659142161E+02  0.00000000000E+00 0. -1.
         11    1    3    3    0    0  0.53148123136E+01  0.21439841644E+02 -0.26274100557E+01  0.22244489734E+02  0.51100000000E-03 0. -1.
        -11    1    3    3    0    0  0.62281828488E+00  0.73325615407E+01  0.65019801657E+01  0.98198832835E+01  0.51100000000E-03 0.  1.
         12    1    3    3    0    0  0.17730768442E+02  0.42728016939E+01 -0.28810095183E+01  0.18464484821E+02  0.00000000000E+00 0. -1.
</event>
<event>
 7    1  0.2746803E-013  0.5052886E+02  0.7816164E-02  0.1300439E+00
        -11   -1    0    0    0    0  0.00000000000E+00  0.00000000000E+00  0.45593999997E+02  0.45594000000E+02  0.51100000000E-03 0.  1.
         11   -1    0    0    0    0 -0.00000000000E+00 -0.00000000000E+00 -0.45593999997E+02  0.45594000000E+02  0.51100000000E-03 0. -1.
    9900012    2    1    2    0    0 -0.11607290856E+02 -0.87233972493E+01  0.37978136800E+02  0.50528859141E+02  0.29999997844E+02 0.  0.
         12    1    1    2    0    0  0.11607290856E+02  0.87233972493E+01 -0.37978136800E+02  0.40659140859E+02  0.00000000000E+00 0. -1.
         11    1    3    3    0    0 -0.61542581236E+00 -0.93113539843E+01  0.21069650592E+01  0.95665753524E+01  0.51100000000E-03 0. -1.
        -11    1    3    3    0    0 -0.36318012708E+01  0.58970816883E+01  0.43916108725E+01  0.82007194334E+01  0.51100000000E-03 0.  1.
        -12    1    3    3    0    0 -0.73600637730E+01 -0.53091249533E+01  0.31479560868E+02  0.32761564355E+02  0.00000000000E+00 0.  1.
</event>
<event>
 7    1  0.2746803E-013  0.5052886E+02  0.7816164E-02  0.1300439E+00
        -11   -1    0    0    0    0  0.00000000000E+00  0.00000000000E+00  0.45593999997E+02  0.45594000000E+02  0.51100000000E-03 0.  1.
         11   -1    0    0    0    0 -0.00000000000E+00 -0.00000000000E+00 -0.45593999997E+02  0.45594000000E+02  0.51100000000E-03 0. -1.
    9900012    2    1    2    0    0  0.76194724378E+01 -0.32262557897E+01  0.39808302147E+02  0.50528855808E+02  0.29999987713E+02 0.  0.
         12    1    1    2    0    0 -0.76194724378E+01  0.32262557897E+01 -0.39808302147E+02  0.40659144192E+02  0.00000000000E+00 0. -1.
         11    1    3    3    0    0  0.96930396117E+01 -0.23186761968E+00  0.36063045098E+01  0.10344767372E+02  0.51100000000E-03 0. -1.
        -11    1    3    3    0    0  0.36239201784E+01 -0.86706757885E+01  0.19679221312E+02  0.21807915256E+02  0.51100000000E-03 0.  1.
         12    1    3    3    0    0 -0.56974873523E+01  0.56762876185E+01  0.16522776324E+02  0.18376173179E+02  0.00000000000E+00 0. -1.
</event>
<event>
 7    1  0.2746803E-013  0.5052889E+02  0.7816164E-02  0.1300439E+00
        -11   -1    0    0    0    0  0.00000000000E+00  0.00000000000E+00  0.45593999997E+02  0.45594000000E+02  0.51100000000E-03 0.  1.
         11   -1    0    0    0    0 -0.00000000000E+00 -0.00000000000E+00 -0.45593999997E+02  0.45594000000E+02  0.51100000000E-03 0. -1.
    9900012    2    1    2    0    0  0.30835365437E+01 -0.28702721439E+02  0.28632309341E+02  0.50528885969E+02  0.30000079390E+02 0.  0.
         12    1    1    2    0    0 -0.30835365437E+01  0.28702721439E+02 -0.28632309341E+02  0.40659114031E+02  0.00000000000E+00 0. -1.
         11    1    3    3    0    0  0.13148452734E+01 -0.21154816123E+02  0.83421538212E+01  0.22778204362E+02  0.51100000000E-03 0. -1.
        -11    1    3    3    0    0  0.44637724854E+01 -0.11483230697E+02  0.19271904058E+02  0.22873481115E+02  0.51100000000E-03 0.  1.
         12    1    3    3    0    0 -0.26950812151E+01  0.39353253804E+01  0.10182514616E+01  0.48772004926E+01  0.00000000000E+00 0. -1.
</event>
<event>
 7    1  0.2746803E-013  0.5052886E+02  0.7816164E-02  0.1300439E+00
        -11   -1    0    0    0    0  0.00000000000E+00  0.00000000000E+00  0.45593999997E+02  0.45594000000E+02  0.51100000000E-03 0. -1.
         11   -1    0    0    0    0 -0.00000000000E+00 -0.00000000000E+00 -0.45593999997E+02  0.45594000000E+02  0.51100000000E-03 0.  1.
    9900012    2    1    2    0    0  0.33418624388E+02  0.20660934082E+02 -0.10463593205E+02  0.50528862824E+02  0.30000009039E+02 0.  0.
         12    1    1    2    0    0 -0.33418624388E+02 -0.20660934082E+02  0.10463593205E+02  0.40659137176E+02  0.00000000000E+00 0. -1.
         11    1    3    3    0    0  0.14948493251E+02  0.20335284572E+02 -0.36936123636E+01  0.25507332704E+02  0.51100000000E-03 0.  1.
        -11    1    3    3    0    0  0.12122373870E+02  0.71320626123E+01 -0.10648558123E+01  0.14105041067E+02  0.51100000000E-03 0. -1.
         12    1    3    3    0    0  0.63477572672E+01 -0.68064131021E+01 -0.57051250295E+01  0.10916489053E+02  0.00000000000E+00 0. -1.
</event>
<event>
 7    1  0.2746803E-013  0.5052885E+02  0.7816164E-02  0.1300439E+00
        -11   -1    0    0    0    0  0.00000000000E+00  0.00000000000E+00  0.45593999997E+02  0.45594000000E+02  0.51100000000E-03 0.  1.
         11   -1    0    0    0    0 -0.00000000000E+00 -0.00000000000E+00 -0.45593999997E+02  0.45594000000E+02  0.51100000000E-03 0. -1.
    9900012    2    1    2    0    0  0.20445039492E+01 -0.31525728885E+02 -0.25595205206E+02  0.50528854563E+02  0.29999983929E+02 0.  0.
         12    1    1    2    0    0 -0.20445039492E+01  0.31525728885E+02  0.25595205206E+02  0.40659145437E+02  0.00000000000E+00 0. -1.
         11    1    3    3    0    0  0.22616465115E+01 -0.89401986038E+01  0.14358799713E+01  0.93329495643E+01  0.51100000000E-03 0. -1.
        -11    1    3    3    0    0  0.65648637595E+01 -0.15557692430E+02 -0.58484886035E+01  0.17870200031E+02  0.51100000000E-03 0.  1.
         12    1    3    3    0    0 -0.67820063218E+01 -0.70278378513E+01 -0.21182596574E+02  0.23325704967E+02  0.00000000000E+00 0. -1.
</event>
<event>
 7    1  0.2746803E-013  0.5052878E+02  0.7816164E-02  0.1300439E+00
        -11   -1    0    0    0    0  0.00000000000E+00  0.00000000000E+00  0.45593999997E+02  0.45594000000E+02  0.51100000000E-03 0. -1.
         11   -1    0    0    0    0 -0.00000000000E+00 -0.00000000000E+00 -0.45593999997E+02  0.45594000000E+02  0.51100000000E-03 0.  1.
    9900012    2    1    2    0    0 -0.31924556383E+02 -0.23305887373E+02 -0.95305126907E+01  0.50528777692E+02  0.29999750273E+02 0.  0.
         12    1    1    2    0    0  0.31924556383E+02  0.23305887373E+02  0.95305126907E+01  0.40659222308E+02  0.00000000000E+00 0. -1.
         11    1    3    3    0    0 -0.15100207579E+02 -0.85334207767E+01 -0.10501148022E+02  0.20275839049E+02  0.51100000000E-03 0.  1.
        -11    1    3    3    0    0 -0.15459295850E+02 -0.10022992520E+00  0.12950429345E+01  0.15513768422E+02  0.51100000000E-03 0. -1.
         12    1    3    3    0    0 -0.13650529541E+01 -0.14672236672E+02 -0.32440760303E+00  0.14739170221E+02  0.00000000000E+00 0. -1.
</event>
<event>
 7    1  0.2746803E-013  0.5052887E+02  0.7816164E-02  0.1300439E+00
        -11   -1    0    0    0    0  0.00000000000E+00  0.00000000000E+00  0.45593999997E+02  0.45594000000E+02  0.51100000000E-03 0.  1.
         11   -1    0    0    0    0 -0.00000000000E+00 -0.00000000000E+00 -0.45593999997E+02  0.45594000000E+02  0.51100000000E-03 0. -1.
    9900012    2    1    2    0    0 -0.55184193985E+01  0.26385797407E+02 -0.30438491407E+02  0.50528867980E+02  0.30000024713E+02 0.  0.
         12    1    1    2    0    0  0.55184193985E+01 -0.26385797407E+02  0.30438491407E+02  0.40659132020E+02  0.00000000000E+00 0. -1.
         11    1    3    3    0    0  0.90193984187E+01  0.94439645924E+01 -0.54678511067E+01  0.14157521359E+02  0.51100000000E-03 0. -1.
        -11    1    3    3    0    0 -0.32928550292E+01  0.12599657877E+02 -0.18688495544E+02  0.22778369977E+02  0.51100000000E-03 0.  1.
         12    1    3    3    0    0 -0.11244962788E+02  0.43421749375E+01 -0.62821447562E+01  0.13592976643E+02  0.00000000000E+00 0. -1.
</event>
<event>
 7    1  0.2746803E-013  0.5052886E+02  0.7816164E-02  0.1300439E+00
        -11   -1    0    0    0    0  0.00000000000E+00  0.00000000000E+00  0.45593999997E+02  0.45594000000E+02  0.51100000000E-03 0. -1.
         11   -1    0    0    0    0 -0.00000000000E+00 -0.00000000000E+00 -0.45593999997E+02  0.45594000000E+02  0.51100000000E-03 0.  1.
    9900012    2    1    2    0    0 -0.22610263125E+02  0.21740299738E+02 -0.25870850878E+02  0.50528861342E+02  0.30000004535E+02 0.  0.
         12    1    1    2    0    0  0.22610263125E+02 -0.21740299738E+02  0.25870850878E+02  0.40659138658E+02  0.00000000000E+00 0. -1.
         11    1    3    3    0    0 -0.10968562544E+02  0.14486601844E+02  0.19703790333E+01  0.18277127539E+02  0.51100000000E-03 0. -1.
        -11    1    3    3    0    0  0.11707156716E+01  0.21735625989E+01 -0.35779817694E+01  0.43470568616E+01  0.51100000000E-03 0.  1.
        -12    1    3    3    0    0 -0.12812416253E+02  0.50801352951E+01 -0.24263248142E+02  0.27904676942E+02  0.00000000000E+00 0.  1.
</event>
<event>
 7    1  0.2746803E-013  0.5052889E+02  0.7816164E-02  0.1300439E+00
        -11   -1    0    0    0    0  0.00000000000E+00  0.00000000000E+00  0.45593999997E+02  0.45594000000E+02  0.51100000000E-03 0.  1.
         11   -1    0    0    0    0 -0.00000000000E+00 -0.00000000000E+00 -0.45593999997E+02  0.45594000000E+02  0.51100000000E-03 0. -1.
    9900012    2    1    2    0    0  0.11938864754E+02  0.22937467393E+02  0.31376729350E+02  0.50528892205E+02  0.30000098346E+02 0.  0.
         12    1    1    2    0    0 -0.11938864754E+02 -0.22937467393E+02 -0.31376729350E+02  0.40659107795E+02  0.00000000000E+00 0. -1.
         11    1    3    3    0    0 -0.29778995503E+01  0.89489838426E+01  0.10862592287E+02  0.14385691120E+02  0.51100000000E-03 0. -1.
        -11    1    3    3    0    0  0.18827452940E+02  0.16475115706E+02  0.18363496778E+02  0.31034181734E+02  0.51100000000E-03 0.  1.
         12    1    3    3    0    0 -0.39106886361E+01 -0.24866321565E+01  0.21506402852E+01  0.51090193508E+01  0.00000000000E+00 0. -1.
</event>
<event>
 7    1  0.2746803E-013  0.5052887E+02  0.7816164E-02  0.1300439E+00
        -11   -1    0    0    0    0  0.00000000000E+00  0.00000000000E+00  0.45593999997E+02  0.45594000000E+02  0.51100000000E-03 0.  1.
         11   -1    0    0    0    0 -0.00000000000E+00 -0.00000000000E+00 -0.45593999997E+02  0.45594000000E+02  0.51100000000E-03 0. -1.
    9900012    2    1    2    0    0  0.16066518232E+02 -0.29599290699E+02  0.22779688552E+02  0.50528865375E+02  0.30000016792E+02 0.  0.
         12    1    1    2    0    0 -0.16066518232E+02  0.29599290699E+02 -0.22779688552E+02  0.40659134625E+02  0.00000000000E+00 0. -1.
         11    1    3    3    0    0 -0.65683578336E+00 -0.49701278962E+00  0.84991513871E+01  0.85389712215E+01  0.51100000000E-03 0.  1.
        -11    1    3    3    0    0 -0.39405372586E+01 -0.78294816049E+01 -0.64518857426E+00  0.87889069084E+01  0.51100000000E-03 0. -1.
         12    1    3    3    0    0  0.20663891274E+02 -0.21272796305E+02  0.14925725739E+02  0.33200987245E+02  0.00000000000E+00 0. -1.
</event>
<event>
 7    1  0.2746803E-013  0.5052886E+02  0.7816164E-02  0.1300439E+00
        -11   -1    0    0    0    0  0.00000000000E+00  0.00000000000E+00  0.45593999997E+02  0.45594000000E+02  0.51100000000E-03 0.  1.
         11   -1    0    0    0    0 -0.00000000000E+00 -0.00000000000E+00 -0.45593999997E+02  0.45594000000E+02  0.51100000000E-03 0. -1.
    9900012    2    1    2    0    0 -0.20567434051E+02  0.20029085557E+02  0.28792046912E+02  0.50528861088E+02  0.30000003764E+02 0.  0.
         12    1    1    2    0    0  0.20567434051E+02 -0.20029085557E+02 -0.28792046912E+02  0.40659138912E+02  0.00000000000E+00 0. -1.
         11    1    3    3    0    0 -0.16477265391E+02  0.18883740511E+02  0.14432566384E+02  0.28920492788E+02  0.51100000000E-03 0. -1.
        -11    1    3    3    0    0  0.18571305335E+01  0.15676028862E+01 -0.26431685913E+01  0.35906340792E+01  0.51100000000E-03 0.  1.
        -12    1    3    3    0    0 -0.59472991933E+01 -0.42225784009E+00  0.17002649119E+02  0.18017734221E+02  0.00000000000E+00 0.  1.
</event>
<event>
 7    1  0.2746803E-013  0.5052886E+02  0.7816164E-02  0.1300439E+00
        -11   -1    0    0    0    0  0.00000000000E+00  0.00000000000E+00  0.45593999997E+02  0.45594000000E+02  0.51100000000E-03 0.  1.
         11   -1    0    0    0    0 -0.00000000000E+00 -0.00000000000E+00 -0.45593999997E+02  0.45594000000E+02  0.51100000000E-03 0. -1.
    9900012    2    1    2    0    0  0.34291495604E+01 -0.11495671029E+02  0.38849148899E+02  0.50528857249E+02  0.29999992093E+02 0.  0.
         12    1    1    2    0    0 -0.34291495604E+01  0.11495671029E+02 -0.38849148899E+02  0.40659142751E+02  0.00000000000E+00 0. -1.
         11    1    3    3    0    0  0.80333703629E+00  0.54957086921E+01  0.41423158726E+01  0.69287044584E+01  0.51100000000E-03 0. -1.
        -11    1    3    3    0    0  0.42431257170E+01  0.36945601244E+01  0.80026118074E+01  0.97824172046E+01  0.51100000000E-03 0.  1.
         12    1    3    3    0    0 -0.16173131929E+01 -0.20685939845E+02  0.26704221219E+02  0.33817735586E+02  0.00000000000E+00 0. -1.
</event>
<event>
 7    1  0.2746803E-013  0.5052886E+02  0.7816164E-02  0.1300439E+00
        -11   -1    0    0    0    0  0.00000000000E+00  0.00000000000E+00  0.45593999997E+02  0.45594000000E+02  0.51100000000E-03 0. -1.
         11   -1    0    0    0    0 -0.00000000000E+00 -0.00000000000E+00 -0.45593999997E+02  0.45594000000E+02  0.51100000000E-03 0.  1.
    9900012    2    1    2    0    0 -0.38905927685E+02 -0.25914975469E+01 -0.11522952290E+02  0.50528862060E+02  0.30000006717E+02 0.  0.
         12    1    1    2    0    0  0.38905927685E+02  0.25914975469E+01  0.11522952290E+02  0.40659137940E+02  0.00000000000E+00 0. -1.
         11    1    3    3    0    0  0.20914740137E+00 -0.50153116855E+01 -0.32274981405E+00  0.50300359484E+01  0.51100000000E-03 0. -1.
        -11    1    3    3    0    0 -0.73044575854E+01  0.90038745344E+01 -0.23372845109E+01  0.11827415457E+02  0.51100000000E-03 0.  1.
         12    1    3    3    0    0 -0.31810617501E+02 -0.65800603958E+01 -0.88629179651E+01  0.33671410654E+02  0.00000000000E+00 0. -1.
</event>
<event>
 7    1  0.2746803E-013  0.5052886E+02  0.7816164E-02  0.1300439E+00
        -11   -1    0    0    0    0  0.00000000000E+00  0.00000000000E+00  0.45593999997E+02  0.45594000000E+02  0.51100000000E-03 0. -1.
         11   -1    0    0    0    0 -0.00000000000E+00 -0.00000000000E+00 -0.45593999997E+02  0.45594000000E+02  0.51100000000E-03 0.  1.
    9900012    2    1    2    0    0 -0.21223225010E+02 -0.27414063251E+02 -0.21241685719E+02  0.50528863808E+02  0.30000012030E+02 0.  0.
         12    1    1    2    0    0  0.21223225010E+02  0.27414063251E+02  0.21241685719E+02  0.40659136192E+02  0.00000000000E+00 0. -1.
         11    1    3    3    0    0 -0.10975224189E+02 -0.32241824595E+01 -0.15406144551E+02  0.19188543163E+02  0.51100000000E-03 0.  1.
        -11    1    3    3    0    0 -0.47434787459E+01 -0.19371425882E+02 -0.10623996483E+02  0.22596947423E+02  0.51100000000E-03 0. -1.
         12    1    3    3    0    0 -0.55045220749E+01 -0.48184549095E+01  0.47884553156E+01  0.87433732219E+01  0.00000000000E+00 0. -1.
</event>
<event>
 7    1  0.2746803E-013  0.5052885E+02  0.7816164E-02  0.1300439E+00
        -11   -1    0    0    0    0  0.00000000000E+00  0.00000000000E+00  0.45593999997E+02  0.45594000000E+02  0.51100000000E-03 0. -1.
         11   -1    0    0    0    0 -0.00000000000E+00 -0.00000000000E+00 -0.45593999997E+02  0.45594000000E+02  0.51100000000E-03 0.  1.
    9900012    2    1    2    0    0 -0.22154839904E+02 -0.28066768134E+02 -0.19354220397E+02  0.50528852790E+02  0.29999978541E+02 0.  0.
         12    1    1    2    0    0  0.22154839904E+02  0.28066768134E+02  0.19354220397E+02  0.40659147210E+02  0.00000000000E+00 0. -1.
         11    1    3    3    0    0 -0.78835332326E+01 -0.24789559322E+02 -0.56302494243E+01  0.26615259842E+02  0.51100000000E-03 0. -1.
        -11    1    3    3    0    0 -0.11224075556E+02 -0.77111141379E+01 -0.70289210669E+01  0.15324714841E+02  0.51100000000E-03 0.  1.
         12    1    3    3    0    0 -0.30472311154E+01  0.44339053259E+01 -0.66950499053E+01  0.85888781074E+01  0.00000000000E+00 0. -1.
</event>
<event>
 7    1  0.2746803E-013  0.5052882E+02  0.7816164E-02  0.1300439E+00
        -11   -1    0    0    0    0  0.00000000000E+00  0.00000000000E+00  0.45593999997E+02  0.45594000000E+02  0.51100000000E-03 0.  1.
         11   -1    0    0    0    0 -0.00000000000E+00 -0.00000000000E+00 -0.45593999997E+02  0.45594000000E+02  0.51100000000E-03 0. -1.
    9900012    2    1    2    0    0 -0.24794862549E+02 -0.16938810226E+02  0.27412771397E+02  0.50528824697E+02  0.29999893148E+02 0.  0.
         12    1    1    2    0    0  0.24794862549E+02  0.16938810226E+02 -0.27412771397E+02  0.40659175303E+02  0.00000000000E+00 0. -1.
         11    1    3    3    0    0  0.25042019752E+01  0.25058989766E+01  0.18514537512E+01  0.39973038998E+01  0.51100000000E-03 0. -1.
        -11    1    3    3    0    0 -0.73180056065E+01 -0.13774195638E+01  0.16512819019E+02  0.18114184578E+02  0.51100000000E-03 0.  1.
         12    1    3    3    0    0 -0.19981058918E+02 -0.18067289639E+02  0.90484986263E+01  0.28417336219E+02  0.00000000000E+00 0. -1.
</event>
<event>
 7    1  0.2746803E-013  0.5052886E+02  0.7816164E-02  0.1300439E+00
        -11   -1    0    0    0    0  0.00000000000E+00  0.00000000000E+00  0.45593999997E+02  0.45594000000E+02  0.51100000000E-03 0. -1.
         11   -1    0    0    0    0 -0.00000000000E+00 -0.00000000000E+00 -0.45593999997E+02  0.45594000000E+02  0.51100000000E-03 0.  1.
    9900012    2    1    2    0    0 -0.11152866216E+02 -0.35664927408E+01 -0.38936603402E+02  0.50528863514E+02  0.30000011138E+02 0.  0.
         12    1    1    2    0    0  0.11152866216E+02  0.35664927408E+01  0.38936603402E+02  0.40659136486E+02  0.00000000000E+00 0. -1.
         11    1    3    3    0    0  0.23280892235E+01  0.37218432040E+01 -0.19375684812E+02  0.19866788328E+02  0.51100000000E-03 0. -1.
        -11    1    3    3    0    0 -0.15645682272E+02  0.27769867437E+00 -0.11696628397E+02  0.19536519813E+02  0.51100000000E-03 0.  1.
         12    1    3    3    0    0  0.21647268323E+01 -0.75660346192E+01 -0.78642901931E+01  0.11125555373E+02  0.00000000000E+00 0. -1.
</event>
<event>
 7    1  0.2746803E-013  0.5052884E+02  0.7816164E-02  0.1300439E+00
        -11   -1    0    0    0    0  0.00000000000E+00  0.00000000000E+00  0.45593999997E+02  0.45594000000E+02  0.51100000000E-03 0. -1.
         11   -1    0    0    0    0 -0.00000000000E+00 -0.00000000000E+00 -0.45593999997E+02  0.45594000000E+02  0.51100000000E-03 0.  1.
    9900012    2    1    2    0    0 -0.11159975363E+02  0.21640446341E+02 -0.32562447580E+02  0.50528844077E+02  0.29999952058E+02 0.  0.
         12    1    1    2    0    0  0.11159975363E+02 -0.21640446341E+02  0.32562447580E+02  0.40659155923E+02  0.00000000000E+00 0. -1.
         11    1    3    3    0    0 -0.26180754736E+01  0.55192564478E+01 -0.36118394220E+01  0.70966115290E+01  0.51100000000E-03 0. -1.
        -11    1    3    3    0    0  0.32308276468E+01  0.19663370884E+02 -0.19935170938E+02  0.28186831010E+02  0.51100000000E-03 0.  1.
         12    1    3    3    0    0 -0.11772727536E+02 -0.35421809903E+01 -0.90154372195E+01  0.15245401538E+02  0.00000000000E+00 0. -1.
</event>
<event>
 7    1  0.2746803E-013  0.5052885E+02  0.7816164E-02  0.1300439E+00
        -11   -1    0    0    0    0  0.00000000000E+00  0.00000000000E+00  0.45593999997E+02  0.45594000000E+02  0.51100000000E-03 0.  1.
         11   -1    0    0    0    0 -0.00000000000E+00 -0.00000000000E+00 -0.45593999997E+02  0.45594000000E+02  0.51100000000E-03 0. -1.
    9900012    2    1    2    0    0  0.38157086342E+02  0.13027065951E+02 -0.52439567682E+01  0.50528846443E+02  0.29999959248E+02 0.  0.
         12    1    1    2    0    0 -0.38157086342E+02 -0.13027065951E+02  0.52439567682E+01  0.40659153557E+02  0.00000000000E+00 0. -1.
         11    1    3    3    0    0 -0.19968423627E+01 -0.12348934049E+00  0.10919716948E+01  0.22792611702E+01  0.51100000000E-03 0. -1.
        -11    1    3    3    0    0  0.24317881847E+02  0.18441209872E+01  0.61229795479E+01  0.25144602573E+02  0.51100000000E-03 0.  1.
         12    1    3    3    0    0  0.15836046858E+02  0.11306434304E+02 -0.12458908011E+02  0.23104982700E+02  0.00000000000E+00 0. -1.
</event>
<event>
 7    1  0.2746803E-013  0.5052886E+02  0.7816164E-02  0.1300439E+00
        -11   -1    0    0    0    0  0.00000000000E+00  0.00000000000E+00  0.45593999997E+02  0.45594000000E+02  0.51100000000E-03 0. -1.
         11   -1    0    0    0    0 -0.00000000000E+00 -0.00000000000E+00 -0.45593999997E+02  0.45594000000E+02  0.51100000000E-03 0.  1.
    9900012    2    1    2    0    0 -0.12065136132E+01 -0.33088460125E+02 -0.23597960304E+02  0.50528860817E+02  0.30000002941E+02 0.  0.
         12    1    1    2    0    0  0.12065136132E+01  0.33088460125E+02  0.23597960304E+02  0.40659139183E+02  0.00000000000E+00 0. -1.
         11    1    3    3    0    0 -0.11416090321E+01 -0.99429398023E+00  0.30781045139E+01  0.34302506266E+01  0.51100000000E-03 0. -1.
        -11    1    3    3    0    0 -0.79646121440E+01 -0.10077135403E+02 -0.18079242481E+02  0.22177527217E+02  0.51100000000E-03 0.  1.
        -12    1    3    3    0    0  0.78997075629E+01 -0.22017030742E+02 -0.85968223368E+01  0.24921082974E+02  0.00000000000E+00 0.  1.
</event>
<event>
 7    1  0.2746803E-013  0.5052887E+02  0.7816164E-02  0.1300439E+00
        -11   -1    0    0    0    0  0.00000000000E+00  0.00000000000E+00  0.45593999997E+02  0.45594000000E+02  0.51100000000E-03 0. -1.
         11   -1    0    0    0    0 -0.00000000000E+00 -0.00000000000E+00 -0.45593999997E+02  0.45594000000E+02  0.51100000000E-03 0.  1.
    9900012    2    1    2    0    0 -0.12854287099E+02 -0.23031147667E+02 -0.30943476773E+02  0.50528865547E+02  0.30000017315E+02 0.  0.
         12    1    1    2    0    0  0.12854287099E+02  0.23031147667E+02  0.30943476773E+02  0.40659134453E+02  0.00000000000E+00 0. -1.
         11    1    3    3    0    0 -0.10421592314E+01 -0.17134897912E+02 -0.97736621016E+01  0.19753867810E+02  0.51100000000E-03 0. -1.
        -11    1    3    3    0    0  0.37320734987E+01  0.24221723556E+01 -0.25292338571E+01  0.51178428742E+01  0.51100000000E-03 0.  1.
         12    1    3    3    0    0 -0.15544201366E+02 -0.83184221106E+01 -0.18640580815E+02  0.25657154862E+02  0.00000000000E+00 0. -1.
</event>
<event>
 7    1  0.2746803E-013  0.5052885E+02  0.7816164E-02  0.1300439E+00
        -11   -1    0    0    0    0  0.00000000000E+00  0.00000000000E+00  0.45593999997E+02  0.45594000000E+02  0.51100000000E-03 0. -1.
         11   -1    0    0    0    0 -0.00000000000E+00 -0.00000000000E+00 -0.45593999997E+02  0.45594000000E+02  0.51100000000E-03 0.  1.
    9900012    2    1    2    0    0  0.15706618788E+02  0.13107565355E+02 -0.35137728432E+02  0.50528854625E+02  0.29999984119E+02 0.  0.
         12    1    1    2    0    0 -0.15706618788E+02 -0.13107565355E+02  0.35137728432E+02  0.40659145375E+02  0.00000000000E+00 0. -1.
         11    1    3    3    0    0  0.19818244283E+02  0.44562383708E+01 -0.18224419073E+02  0.27290113918E+02  0.51100000000E-03 0. -1.
        -11    1    3    3    0    0  0.33659893290E+01  0.46380447532E+01 -0.12322916229E+02  0.13590276228E+02  0.51100000000E-03 0.  1.
         12    1    3    3    0    0 -0.74776148239E+01  0.40132822309E+01 -0.45903931298E+01  0.96484644791E+01  0.00000000000E+00 0. -1.
</event>
<event>
 7    1  0.2746803E-013  0.5052887E+02  0.7816164E-02  0.1300439E+00
        -11   -1    0    0    0    0  0.00000000000E+00  0.00000000000E+00  0.45593999997E+02  0.45594000000E+02  0.51100000000E-03 0. -1.
         11   -1    0    0    0    0 -0.00000000000E+00 -0.00000000000E+00 -0.45593999997E+02  0.45594000000E+02  0.51100000000E-03 0.  1.
    9900012    2    1    2    0    0  0.40025906236E+02 -0.19282584314E+01 -0.68828581818E+01  0.50528867111E+02  0.30000022069E+02 0.  0.
         12    1    1    2    0    0 -0.40025906236E+02  0.19282584314E+01  0.68828581818E+01  0.40659132889E+02  0.00000000000E+00 0. -1.
         11    1    3    3    0    0  0.15499564782E+01 -0.30486832348E+01 -0.67127288270E+01  0.75337615516E+01  0.51100000000E-03 0. -1.
        -11    1    3    3    0    0  0.23243870421E+02  0.57214559131E+01 -0.80290369766E+01  0.25248326775E+02  0.51100000000E-03 0.  1.
         12    1    3    3    0    0  0.15232079337E+02 -0.46010311098E+01  0.78589076219E+01  0.17746778784E+02  0.00000000000E+00 0. -1.
</event>
<event>
 7    1  0.2746803E-013  0.5052885E+02  0.7816164E-02  0.1300439E+00
        -11   -1    0    0    0    0  0.00000000000E+00  0.00000000000E+00  0.45593999997E+02  0.45594000000E+02  0.51100000000E-03 0.  1.
         11   -1    0    0    0    0 -0.00000000000E+00 -0.00000000000E+00 -0.45593999997E+02  0.45594000000E+02  0.51100000000E-03 0. -1.
    9900012    2    1    2    0    0  0.10045681832E+02  0.22621661085E+02 -0.32256953417E+02  0.50528851983E+02  0.29999976089E+02 0.  0.
         12    1    1    2    0    0 -0.10045681832E+02 -0.22621661085E+02  0.32256953417E+02  0.40659148017E+02  0.00000000000E+00 0. -1.
         11    1    3    3    0    0 -0.14763185955E+01 -0.28767225286E+01 -0.10867986844E+02  0.11338791267E+02  0.51100000000E-03 0. -1.
        -11    1    3    3    0    0 -0.21770116083E+01  0.12149757130E+02 -0.14053623447E+02  0.18704553191E+02  0.51100000000E-03 0.  1.
        -12    1    3    3    0    0  0.13699012035E+02  0.13348626484E+02 -0.73353431260E+01  0.20485507525E+02  0.00000000000E+00 0.  1.
</event>
<event>
 7    1  0.2746803E-013  0.5052890E+02  0.7816164E-02  0.1300439E+00
        -11   -1    0    0    0    0  0.00000000000E+00  0.00000000000E+00  0.45593999997E+02  0.45594000000E+02  0.51100000000E-03 0.  1.
         11   -1    0    0    0    0 -0.00000000000E+00 -0.00000000000E+00 -0.45593999997E+02  0.45594000000E+02  0.51100000000E-03 0. -1.
    9900012    2    1    2    0    0  0.88435166169E+01  0.13898692737E+02  0.37172319936E+02  0.50528895050E+02  0.30000106993E+02 0.  0.
         12    1    1    2    0    0 -0.88435166169E+01 -0.13898692737E+02 -0.37172319936E+02  0.40659104950E+02  0.00000000000E+00 0. -1.
         11    1    3    3    0    0  0.68635020745E+01  0.70134860545E+01  0.32949036291E+01  0.10351475139E+02  0.51100000000E-03 0. -1.
        -11    1    3    3    0    0  0.28547484347E+01  0.85417703599E+01  0.36136944294E+02  0.37242316961E+02  0.51100000000E-03 0.  1.
         12    1    3    3    0    0 -0.87473389227E+00 -0.16565636774E+01 -0.22595279871E+01  0.29351029495E+01  0.00000000000E+00 0. -1.
</event>
<event>
 7    1  0.2746803E-013  0.5052886E+02  0.7816164E-02  0.1300439E+00
        -11   -1    0    0    0    0  0.00000000000E+00  0.00000000000E+00  0.45593999997E+02  0.45594000000E+02  0.51100000000E-03 0. -1.
         11   -1    0    0    0    0 -0.00000000000E+00 -0.00000000000E+00 -0.45593999997E+02  0.45594000000E+02  0.51100000000E-03 0.  1.
    9900012    2    1    2    0    0 -0.60158083428E+01  0.13306225674E+02 -0.37946277447E+02  0.50528861251E+02  0.30000004258E+02 0.  0.
         12    1    1    2    0    0  0.60158083428E+01 -0.13306225674E+02  0.37946277447E+02  0.40659138749E+02  0.00000000000E+00 0. -1.
         11    1    3    3    0    0 -0.24661507487E+01  0.20302090319E+01  0.23902561360E+01  0.39896081118E+01  0.51100000000E-03 0. -1.
        -11    1    3    3    0    0 -0.10749171553E+02  0.60346749519E+01 -0.13584588992E+02  0.18344019440E+02  0.51100000000E-03 0.  1.
        -12    1    3    3    0    0  0.71995139592E+01  0.52413416899E+01 -0.26751944591E+02  0.28195233700E+02  0.00000000000E+00 0.  1.
</event>
<event>
 7    1  0.2746803E-013  0.5052886E+02  0.7816164E-02  0.1300439E+00
        -11   -1    0    0    0    0  0.00000000000E+00  0.00000000000E+00  0.45593999997E+02  0.45594000000E+02  0.51100000000E-03 0.  1.
         11   -1    0    0    0    0 -0.00000000000E+00 -0.00000000000E+00 -0.45593999997E+02  0.45594000000E+02  0.51100000000E-03 0. -1.
    9900012    2    1    2    0    0 -0.14718405722E+02  0.18473606466E+02  0.33094718807E+02  0.50528855693E+02  0.29999987363E+02 0.  0.
         12    1    1    2    0    0  0.14718405722E+02 -0.18473606466E+02 -0.33094718807E+02  0.40659144307E+02  0.00000000000E+00 0. -1.
         11    1    3    3    0    0  0.51095284031E+01 -0.22267571905E+00  0.13716051496E+02  0.14638542751E+02  0.51100000000E-03 0. -1.
        -11    1    3    3    0    0 -0.82572654623E+01  0.41929420271E+01  0.13607916437E+02  0.16460212203E+02  0.51100000000E-03 0.  1.
        -12    1    3    3    0    0 -0.11570668663E+02  0.14503340158E+02  0.57707508747E+01  0.19430100739E+02  0.00000000000E+00 0.  1.
</event>
<event>
 7    1  0.2746803E-013  0.5052886E+02  0.7816164E-02  0.1300439E+00
        -11   -1    0    0    0    0  0.00000000000E+00  0.00000000000E+00  0.45593999997E+02  0.45594000000E+02  0.51100000000E-03 0.  1.
         11   -1    0    0    0    0 -0.00000000000E+00 -0.00000000000E+00 -0.45593999997E+02  0.45594000000E+02  0.51100000000E-03 0. -1.
    9900012    2    1    2    0    0  0.20221151025E+02  0.14368602742E+02  0.32215123179E+02  0.50528857671E+02  0.29999993376E+02 0.  0.
         12    1    1    2    0    0 -0.20221151025E+02 -0.14368602742E+02 -0.32215123179E+02  0.40659142329E+02  0.00000000000E+00 0. -1.
         11    1    3    3    0    0 -0.19990539773E+00 -0.41054787850E+01  0.35088843433E+01  0.54043674762E+01  0.51100000000E-03 0. -1.
        -11    1    3    3    0    0  0.22788515674E+02  0.81775440882E+01  0.20963518651E+02  0.32025892469E+02  0.51100000000E-03 0.  1.
         12    1    3    3    0    0 -0.23674592511E+01  0.10296537438E+02  0.77427201845E+01  0.13098597726E+02  0.00000000000E+00 0. -1.
</event>
<event>
 7    1  0.2746803E-013  0.5052885E+02  0.7816164E-02  0.1300439E+00
        -11   -1    0    0    0    0  0.00000000000E+00  0.00000000000E+00  0.45593999997E+02  0.45594000000E+02  0.51100000000E-03 0. -1.
         11   -1    0    0    0    0 -0.00000000000E+00 -0.00000000000E+00 -0.45593999997E+02  0.45594000000E+02  0.51100000000E-03 0.  1.
    9900012    2    1    2    0    0  0.36061185704E+01 -0.36639097052E+02 -0.17255103380E+02  0.50528854453E+02  0.29999983595E+02 0.  0.
         12    1    1    2    0    0 -0.36061185704E+01  0.36639097052E+02  0.17255103380E+02  0.40659145547E+02  0.00000000000E+00 0. -1.
         11    1    3    3    0    0  0.22682010513E+01 -0.30249371597E+00 -0.92938234785E+01  0.95713840989E+01  0.51100000000E-03 0. -1.
        -11    1    3    3    0    0  0.46239570001E+01 -0.16921512130E+02 -0.11465989600E+02  0.20956800063E+02  0.51100000000E-03 0.  1.
         12    1    3    3    0    0 -0.32860394811E+01 -0.19415091206E+02  0.35047096989E+01  0.20000670291E+02  0.00000000000E+00 0. -1.
</event>
<event>
 7    1  0.2746803E-013  0.5052884E+02  0.7816164E-02  0.1300439E+00
        -11   -1    0    0    0    0  0.00000000000E+00  0.00000000000E+00  0.45593999997E+02  0.45594000000E+02  0.51100000000E-03 0.  1.
         11   -1    0    0    0    0 -0.00000000000E+00 -0.00000000000E+00 -0.45593999997E+02  0.45594000000E+02  0.51100000000E-03 0. -1.
    9900012    2    1    2    0    0 -0.26860334833E+02 -0.30417632655E+02 -0.25410601693E+01  0.50528844199E+02  0.29999952426E+02 0.  0.
         12    1    1    2    0    0  0.26860334833E+02  0.30417632655E+02  0.25410601693E+01  0.40659155801E+02  0.00000000000E+00 0. -1.
         11    1    3    3    0    0 -0.14427007098E+02 -0.17688280116E+01 -0.83739858424E+01  0.16774710891E+02  0.51100000000E-03 0. -1.
        -11    1    3    3    0    0  0.17019741951E+01 -0.44234024320E+01 -0.10929364056E+01  0.48639197654E+01  0.51100000000E-03 0.  1.
        -12    1    3    3    0    0 -0.14135301930E+02 -0.24225402211E+02  0.69258620787E+01  0.28890213542E+02  0.00000000000E+00 0.  1.
</event>
<event>
 7    1  0.2746803E-013  0.5052888E+02  0.7816164E-02  0.1300439E+00
        -11   -1    0    0    0    0  0.00000000000E+00  0.00000000000E+00  0.45593999997E+02  0.45594000000E+02  0.51100000000E-03 0.  1.
         11   -1    0    0    0    0 -0.00000000000E+00 -0.00000000000E+00 -0.45593999997E+02  0.45594000000E+02  0.51100000000E-03 0. -1.
    9900012    2    1    2    0    0 -0.31020573085E+02  0.24065416128E+02  0.10570882105E+02  0.50528883478E+02  0.30000071819E+02 0.  0.
         12    1    1    2    0    0  0.31020573085E+02 -0.24065416128E+02 -0.10570882105E+02  0.40659116522E+02  0.00000000000E+00 0. -1.
         11    1    3    3    0    0 -0.12940109811E+02  0.86696477790E+01  0.68703556297E+01  0.17023836855E+02  0.51100000000E-03 0. -1.
        -11    1    3    3    0    0 -0.48196021923E+01 -0.13594896673E+01  0.10037435003E+02  0.11217258094E+02  0.51100000000E-03 0.  1.
         12    1    3    3    0    0 -0.13260861081E+02  0.16755258016E+02 -0.63369085277E+01  0.22287788528E+02  0.00000000000E+00 0. -1.
</event>
<event>
 7    1  0.2746803E-013  0.5052886E+02  0.7816164E-02  0.1300439E+00
        -11   -1    0    0    0    0  0.00000000000E+00  0.00000000000E+00  0.45593999997E+02  0.45594000000E+02  0.51100000000E-03 0.  1.
         11   -1    0    0    0    0 -0.00000000000E+00 -0.00000000000E+00 -0.45593999997E+02  0.45594000000E+02  0.51100000000E-03 0. -1.
    9900012    2    1    2    0    0 -0.79615031588E+01 -0.98747470712E+01  0.38629904388E+02  0.50528859880E+02  0.30000000090E+02 0.  0.
         12    1    1    2    0    0  0.79615031588E+01  0.98747470712E+01 -0.38629904388E+02  0.40659140120E+02  0.00000000000E+00 0. -1.
         11    1    3    3    0    0  0.42980832794E+01 -0.39359685778E+01  0.61854494766E+01  0.84985383455E+01  0.51100000000E-03 0. -1.
        -11    1    3    3    0    0  0.21533367021E+01 -0.78792240454E+01  0.23683142316E+02  0.25052150820E+02  0.51100000000E-03 0.  1.
         12    1    3    3    0    0 -0.14412923140E+02  0.19404455520E+01  0.87613125963E+01  0.16978170714E+02  0.00000000000E+00 0. -1.
</event>
<event>
 7    1  0.2746803E-013  0.5052887E+02  0.7816164E-02  0.1300439E+00
        -11   -1    0    0    0    0  0.00000000000E+00  0.00000000000E+00  0.45593999997E+02  0.45594000000E+02  0.51100000000E-03 0.  1.
         11   -1    0    0    0    0 -0.00000000000E+00 -0.00000000000E+00 -0.45593999997E+02  0.45594000000E+02  0.51100000000E-03 0. -1.
    9900012    2    1    2    0    0 -0.21059061032E+02  0.34738044943E+02 -0.17173685032E+01  0.50528866063E+02  0.30000018884E+02 0.  0.
         12    1    1    2    0    0  0.21059061032E+02 -0.34738044943E+02  0.17173685032E+01  0.40659133937E+02  0.00000000000E+00 0. -1.
         11    1    3    3    0    0 -0.94322307365E+01 -0.15553607566E+00 -0.69997348500E+01  0.11746806220E+02  0.51100000000E-03 0. -1.
        -11    1    3    3    0    0 -0.77407754519E+01  0.82418627641E+01 -0.14126254713E+00  0.11307867252E+02  0.51100000000E-03 0.  1.
         12    1    3    3    0    0 -0.38860548431E+01  0.26651718254E+02  0.54236288940E+01  0.27474192591E+02  0.00000000000E+00 0. -1.
</event>
<event>
 7    1  0.2746803E-013  0.5052886E+02  0.7816164E-02  0.1300439E+00
        -11   -1    0    0    0    0  0.00000000000E+00  0.00000000000E+00  0.45593999997E+02  0.45594000000E+02  0.51100000000E-03 0.  1.
         11   -1    0    0    0    0 -0.00000000000E+00 -0.00000000000E+00 -0.45593999997E+02  0.45594000000E+02  0.51100000000E-03 0. -1.
    9900012    2    1    2    0    0  0.27096516490E+02 -0.12764009358E+02  0.27495896181E+02  0.50528862680E+02  0.30000008603E+02 0.  0.
         12    1    1    2    0    0 -0.27096516490E+02  0.12764009358E+02 -0.27495896181E+02  0.40659137320E+02  0.00000000000E+00 0. -1.
         11    1    3    3    0    0  0.15237016219E+02 -0.24667738929E+01  0.20033916136E+02  0.25290500839E+02  0.51100000000E-03 0. -1.
        -11    1    3    3    0    0  0.13821317421E+02 -0.22270040220E+01  0.92016282622E+01  0.16752860207E+02  0.51100000000E-03 0.  1.
         12    1    3    3    0    0 -0.19618171498E+01 -0.80702314426E+01 -0.17396482169E+01  0.84855016343E+01  0.00000000000E+00 0. -1.
</event>
<event>
 7    1  0.2746803E-013  0.5052885E+02  0.7816164E-02  0.1300439E+00
        -11   -1    0    0    0    0  0.00000000000E+00  0.00000000000E+00  0.45593999997E+02  0.45594000000E+02  0.51100000000E-03 0.  1.
         11   -1    0    0    0    0 -0.00000000000E+00 -0.00000000000E+00 -0.45593999997E+02  0.45594000000E+02  0.51100000000E-03 0. -1.
    9900012    2    1    2    0    0 -0.18821406018E+02  0.31379800114E+01  0.35903676793E+02  0.50528852809E+02  0.29999978598E+02 0.  0.
         12    1    1    2    0    0  0.18821406018E+02 -0.31379800114E+01 -0.35903676793E+02  0.40659147191E+02  0.00000000000E+00 0. -1.
         11    1    3    3    0    0 -0.25256950584E+01  0.10209527920E+01 -0.32980722183E+01  0.42777050798E+01  0.51100000000E-03 0. -1.
        -11    1    3    3    0    0 -0.13329712943E+02 -0.44007230586E+01  0.13155170918E+02  0.19238142653E+02  0.51100000000E-03 0.  1.
        -12    1    3    3    0    0 -0.29659980171E+01  0.65177502780E+01  0.26046578093E+02  0.27013005076E+02  0.00000000000E+00 0.  1.
</event>
<event>
 7    1  0.2746803E-013  0.5052886E+02  0.7816164E-02  0.1300439E+00
        -11   -1    0    0    0    0  0.00000000000E+00  0.00000000000E+00  0.45593999997E+02  0.45594000000E+02  0.51100000000E-03 0.  1.
         11   -1    0    0    0    0 -0.00000000000E+00 -0.00000000000E+00 -0.45593999997E+02  0.45594000000E+02  0.51100000000E-03 0. -1.
    9900012    2    1    2    0    0 -0.12215411126E+02  0.12695829237E+02  0.36643764616E+02  0.50528857926E+02  0.29999994151E+02 0.  0.
         12    1    1    2    0    0  0.12215411126E+02 -0.12695829237E+02 -0.36643764616E+02  0.40659142074E+02  0.00000000000E+00 0. -1.
         11    1    3    3    0    0 -0.84426245027E+01 -0.87197417809E+00  0.35752699989E+01  0.92098210236E+01  0.51100000000E-03 0. -1.
        -11    1    3    3    0    0 -0.48142690284E+01  0.17020880574E+01  0.27850785194E+02  0.28315022977E+02  0.51100000000E-03 0.  1.
         12    1    3    3    0    0  0.10414824047E+01  0.11865715357E+02  0.52177094234E+01  0.13004013925E+02  0.00000000000E+00 0. -1.
</event>
<event>
 7    1  0.2746803E-013  0.5052888E+02  0.7816164E-02  0.1300439E+00
        -11   -1    0    0    0    0  0.00000000000E+00  0.00000000000E+00  0.45593999997E+02  0.45594000000E+02  0.51100000000E-03 0. -1.
         11   -1    0    0    0    0 -0.00000000000E+00 -0.00000000000E+00 -0.45593999997E+02  0.45594000000E+02  0.51100000000E-03 0.  1.
    9900012    2    1    2    0    0  0.26453237100E+02 -0.51937598151E+01 -0.30437072313E+02  0.50528877222E+02  0.30000052804E+02 0.  0.
         12    1    1    2    0    0 -0.26453237100E+02  0.51937598151E+01  0.30437072313E+02  0.40659122778E+02  0.00000000000E+00 0. -1.
         11    1    3    3    0    0  0.16226595660E+00  0.84347700340E+01 -0.14583192060E+02  0.16847586376E+02  0.51100000000E-03 0. -1.
        -11    1    3    3    0    0  0.76857389984E+01 -0.31733257875E+01 -0.54204653084E+01  0.99258261583E+01  0.51100000000E-03 0.  1.
        -12    1    3    3    0    0  0.18605232145E+02 -0.10455204062E+02 -0.10433414945E+02  0.23755464688E+02  0.00000000000E+00 0.  1.
</event>
<event>
 7    1  0.2746803E-013  0.5052886E+02  0.7816164E-02  0.1300439E+00
        -11   -1    0    0    0    0  0.00000000000E+00  0.00000000000E+00  0.45593999997E+02  0.45594000000E+02  0.51100000000E-03 0.  1.
         11   -1    0    0    0    0 -0.00000000000E+00 -0.00000000000E+00 -0.45593999997E+02  0.45594000000E+02  0.51100000000E-03 0. -1.
    9900012    2    1    2    0    0 -0.32019161041E+02  0.10801832593E+02  0.22611048851E+02  0.50528858454E+02  0.29999995756E+02 0.  0.
         12    1    1    2    0    0  0.32019161041E+02 -0.10801832593E+02 -0.22611048851E+02  0.40659141546E+02  0.00000000000E+00 0. -1.
         11    1    3    3    0    0 -0.54387731410E+01  0.59537626917E+01  0.17370842401E+02  0.19151337015E+02  0.51100000000E-03 0. -1.
        -11    1    3    3    0    0 -0.71863990624E+01  0.12088679466E+01  0.86949006837E+01  0.11344910372E+02  0.51100000000E-03 0.  1.
         12    1    3    3    0    0 -0.19393988838E+02  0.36392019548E+01 -0.34546942336E+01  0.20032611067E+02  0.00000000000E+00 0. -1.
</event>
<event>
 7    1  0.2746803E-013  0.5052891E+02  0.7816164E-02  0.1300439E+00
        -11   -1    0    0    0    0  0.00000000000E+00  0.00000000000E+00  0.45593999997E+02  0.45594000000E+02  0.51100000000E-03 0.  1.
         11   -1    0    0    0    0 -0.00000000000E+00 -0.00000000000E+00 -0.45593999997E+02  0.45594000000E+02  0.51100000000E-03 0. -1.
    9900012    2    1    2    0    0 -0.13888706747E+02 -0.15526351320E+02  0.34917015282E+02  0.50528908561E+02  0.30000148063E+02 0.  0.
         12    1    1    2    0    0  0.13888706747E+02  0.15526351320E+02 -0.34917015282E+02  0.40659091439E+02  0.00000000000E+00 0. -1.
         11    1    3    3    0    0  0.15732561082E+01  0.48514854210E-01  0.22193539538E+02  0.22249285067E+02  0.51100000000E-03 0.  1.
        -11    1    3    3    0    0 -0.12679378005E+01 -0.84034575795E+01  0.80460756367E+01  0.11703208918E+02  0.51100000000E-03 0. -1.
         12    1    3    3    0    0 -0.14194025054E+02 -0.71714085949E+01  0.46774001069E+01  0.16576414577E+02  0.00000000000E+00 0. -1.
</event>
<event>
 7    1  0.2746803E-013  0.5052885E+02  0.7816164E-02  0.1300439E+00
        -11   -1    0    0    0    0  0.00000000000E+00  0.00000000000E+00  0.45593999997E+02  0.45594000000E+02  0.51100000000E-03 0.  1.
         11   -1    0    0    0    0 -0.00000000000E+00 -0.00000000000E+00 -0.45593999997E+02  0.45594000000E+02  0.51100000000E-03 0. -1.
    9900012    2    1    2    0    0  0.11542825929E+02 -0.21226733471E+02  0.32700997553E+02  0.50528852380E+02  0.29999977293E+02 0.  0.
         12    1    1    2    0    0 -0.11542825929E+02  0.21226733471E+02 -0.32700997553E+02  0.40659147620E+02  0.00000000000E+00 0. -1.
         11    1    3    3    0    0 -0.54430213075E+01 -0.81401026489E+00  0.69236502511E+01  0.88445478531E+01  0.51100000000E-03 0. -1.
        -11    1    3    3    0    0  0.10661270860E+02 -0.32624731042E+01  0.19304514205E+02  0.22292839569E+02  0.51100000000E-03 0.  1.
         12    1    3    3    0    0  0.63245763760E+01 -0.17150250102E+02  0.64728330966E+01  0.19391464957E+02  0.00000000000E+00 0. -1.
</event>
<event>
 7    1  0.2746803E-013  0.5052885E+02  0.7816164E-02  0.1300439E+00
        -11   -1    0    0    0    0  0.00000000000E+00  0.00000000000E+00  0.45593999997E+02  0.45594000000E+02  0.51100000000E-03 0.  1.
         11   -1    0    0    0    0 -0.00000000000E+00 -0.00000000000E+00 -0.45593999997E+02  0.45594000000E+02  0.51100000000E-03 0. -1.
    9900012    2    1    2    0    0 -0.66146657898E+01  0.35532071734E+02  0.18624828323E+02  0.50528853978E+02  0.29999982150E+02 0.  0.
         12    1    1    2    0    0  0.66146657898E+01 -0.35532071734E+02 -0.18624828323E+02  0.40659146022E+02  0.00000000000E+00 0. -1.
         11    1    3    3    0    0 -0.54443808563E+01  0.88948185305E+00 -0.32439892407E+01  0.63996818147E+01  0.51100000000E-03 0. -1.
        -11    1    3    3    0    0 -0.21581089378E+01  0.48688059258E+01  0.11348438789E+02  0.12535939077E+02  0.51100000000E-03 0.  1.
         12    1    3    3    0    0  0.98782400431E+00  0.29773783955E+02  0.10520378775E+02  0.31593233086E+02  0.00000000000E+00 0. -1.
</event>
<event>
 7    1  0.2746803E-013  0.5052885E+02  0.7816164E-02  0.1300439E+00
        -11   -1    0    0    0    0  0.00000000000E+00  0.00000000000E+00  0.45593999997E+02  0.45594000000E+02  0.51100000000E-03 0. -1.
         11   -1    0    0    0    0 -0.00000000000E+00 -0.00000000000E+00 -0.45593999997E+02  0.45594000000E+02  0.51100000000E-03 0.  1.
    9900012    2    1    2    0    0  0.13336134160E+01 -0.15379361805E+02 -0.37614667655E+02  0.50528849529E+02  0.29999968628E+02 0.  0.
         12    1    1    2    0    0 -0.13336134160E+01  0.15379361805E+02  0.37614667655E+02  0.40659150471E+02  0.00000000000E+00 0. -1.
         11    1    3    3    0    0 -0.22676629752E+01 -0.40498286369E+01  0.21344373023E+01  0.51087405704E+01  0.51100000000E-03 0. -1.
        -11    1    3    3    0    0  0.54810332654E+01 -0.13016004343E+02 -0.15226725412E+02  0.20768034614E+02  0.51100000000E-03 0.  1.
        -12    1    3    3    0    0 -0.18797568742E+01  0.16864711744E+01 -0.24522379545E+02  0.24652074344E+02  0.00000000000E+00 0.  1.
</event>
<event>
 7    1  0.2746803E-013  0.5052886E+02  0.7816164E-02  0.1300439E+00
        -11   -1    0    0    0    0  0.00000000000E+00  0.00000000000E+00  0.45593999997E+02  0.45594000000E+02  0.51100000000E-03 0. -1.
         11   -1    0    0    0    0 -0.00000000000E+00 -0.00000000000E+00 -0.45593999997E+02  0.45594000000E+02  0.51100000000E-03 0.  1.
    9900012    2    1    2    0    0 -0.40635965375E+02  0.16355794813E+00 -0.13627030435E+01  0.50528863355E+02  0.30000010654E+02 0.  0.
         12    1    1    2    0    0  0.40635965375E+02 -0.16355794813E+00  0.13627030435E+01  0.40659136645E+02  0.00000000000E+00 0. -1.
         11    1    3    3    0    0 -0.60421655633E+01 -0.76465646942E+01  0.17185117512E+01  0.98960092572E+01  0.51100000000E-03 0. -1.
        -11    1    3    3    0    0 -0.21668287397E+02 -0.35104273677E+01  0.35105073826E+01  0.22229742269E+02  0.51100000000E-03 0.  1.
         12    1    3    3    0    0 -0.12925512415E+02  0.11320550010E+02 -0.65917221774E+01  0.18403111828E+02  0.00000000000E+00 0. -1.
</event>
<event>
 7    1  0.2746803E-013  0.5052886E+02  0.7816164E-02  0.1300439E+00
        -11   -1    0    0    0    0  0.00000000000E+00  0.00000000000E+00  0.45593999997E+02  0.45594000000E+02  0.51100000000E-03 0. -1.
         11   -1    0    0    0    0 -0.00000000000E+00 -0.00000000000E+00 -0.45593999997E+02  0.45594000000E+02  0.51100000000E-03 0.  1.
    9900012    2    1    2    0    0  0.18839922439E+02 -0.10262925884E+02 -0.34538314450E+02  0.50528862155E+02  0.30000007008E+02 0.  0.
         12    1    1    2    0    0 -0.18839922439E+02  0.10262925884E+02  0.34538314450E+02  0.40659137845E+02  0.00000000000E+00 0. -1.
         11    1    3    3    0    0 -0.10597452063E+00  0.49382638557E+00 -0.44424323036E+01  0.44710513452E+01  0.51100000000E-03 0. -1.
        -11    1    3    3    0    0  0.50207159729E+01 -0.11729556236E+02 -0.29437026502E+02  0.32083151465E+02  0.51100000000E-03 0.  1.
        -12    1    3    3    0    0  0.13925180987E+02  0.97280396596E+00 -0.65885564460E+00  0.13974659346E+02  0.00000000000E+00 0.  1.
</event>
<event>
 7    1  0.2746803E-013  0.5052885E+02  0.7816164E-02  0.1300439E+00
        -11   -1    0    0    0    0  0.00000000000E+00  0.00000000000E+00  0.45593999997E+02  0.45594000000E+02  0.51100000000E-03 0.  1.
         11   -1    0    0    0    0 -0.00000000000E+00 -0.00000000000E+00 -0.45593999997E+02  0.45594000000E+02  0.51100000000E-03 0. -1.
    9900012    2    1    2    0    0 -0.37320106909E+02  0.16104772181E+02 -0.10061976338E+01  0.50528849734E+02  0.29999969251E+02 0.  0.
         12    1    1    2    0    0  0.37320106909E+02 -0.16104772181E+02  0.10061976338E+01  0.40659150266E+02  0.00000000000E+00 0. -1.
         11    1    3    3    0    0 -0.18796485308E+02  0.17549590080E+02  0.82216727194E+00  0.25728815192E+02  0.51100000000E-03 0. -1.
        -11    1    3    3    0    0  0.26112299270E+01 -0.73964365245E+00  0.19191051583E+01  0.33239373240E+01  0.51100000000E-03 0.  1.
        -12    1    3    3    0    0 -0.21134851528E+02 -0.70517424628E+00 -0.37474700640E+01  0.21476097217E+02  0.00000000000E+00 0.  1.
</event>
<event>
 7    1  0.2746803E-013  0.5052886E+02  0.7816164E-02  0.1300439E+00
        -11   -1    0    0    0    0  0.00000000000E+00  0.00000000000E+00  0.45593999997E+02  0.45594000000E+02  0.51100000000E-03 0.  1.
         11   -1    0    0    0    0 -0.00000000000E+00 -0.00000000000E+00 -0.45593999997E+02  0.45594000000E+02  0.51100000000E-03 0. -1.
    9900012    2    1    2    0    0 -0.18306579349E+02  0.34027176780E+02 -0.12656468147E+02  0.50528858432E+02  0.29999995689E+02 0.  0.
         12    1    1    2    0    0  0.18306579349E+02 -0.34027176780E+02  0.12656468147E+02  0.40659141568E+02  0.00000000000E+00 0. -1.
         11    1    3    3    0    0 -0.33535679424E+01  0.15976423886E+02  0.33944135067E+01  0.16673769263E+02  0.51100000000E-03 0. -1.
        -11    1    3    3    0    0 -0.11313373178E+02  0.20340998567E+02 -0.77944675424E+01  0.24545923488E+02  0.51100000000E-03 0.  1.
         12    1    3    3    0    0 -0.36396382288E+01 -0.22902456728E+01 -0.82564141114E+01  0.93091656800E+01  0.00000000000E+00 0. -1.
</event>
<event>
 7    1  0.2746803E-013  0.5052884E+02  0.7816164E-02  0.1300439E+00
        -11   -1    0    0    0    0  0.00000000000E+00  0.00000000000E+00  0.45593999997E+02  0.45594000000E+02  0.51100000000E-03 0. -1.
         11   -1    0    0    0    0 -0.00000000000E+00 -0.00000000000E+00 -0.45593999997E+02  0.45594000000E+02  0.51100000000E-03 0.  1.
    9900012    2    1    2    0    0 -0.28647875289E+02 -0.28819573746E+02 -0.13780371762E+01  0.50528836507E+02  0.29999929047E+02 0.  0.
         12    1    1    2    0    0  0.28647875289E+02  0.28819573746E+02  0.13780371762E+01  0.40659163493E+02  0.00000000000E+00 0. -1.
         11    1    3    3    0    0 -0.40896657324E+01  0.17974278052E+01  0.32251639468E+01  0.55097908546E+01  0.51100000000E-03 0. -1.
        -11    1    3    3    0    0 -0.30940169932E+01 -0.57165203879E+01  0.75565366283E+01  0.99675870989E+01  0.51100000000E-03 0.  1.
        -12    1    3    3    0    0 -0.21464192564E+02 -0.24900481163E+02 -0.12159737751E+02  0.35051458554E+02  0.00000000000E+00 0.  1.
</event>
<event>
 7    1  0.2746803E-013  0.5052884E+02  0.7816164E-02  0.1300439E+00
        -11   -1    0    0    0    0  0.00000000000E+00  0.00000000000E+00  0.45593999997E+02  0.45594000000E+02  0.51100000000E-03 0.  1.
         11   -1    0    0    0    0 -0.00000000000E+00 -0.00000000000E+00 -0.45593999997E+02  0.45594000000E+02  0.51100000000E-03 0. -1.
    9900012    2    1    2    0    0  0.30270225650E+02  0.24993072466E+02 -0.10593723567E+02  0.50528840992E+02  0.29999942679E+02 0.  0.
         12    1    1    2    0    0 -0.30270225650E+02 -0.24993072466E+02  0.10593723567E+02  0.40659159008E+02  0.00000000000E+00 0. -1.
         11    1    3    3    0    0  0.76405062408E+01  0.18112036337E+02 -0.94032009878E+01  0.21790901426E+02  0.51100000000E-03 0. -1.
        -11    1    3    3    0    0  0.16540576930E+01  0.27870858277E+01  0.54653417792E+01  0.63540314201E+01  0.51100000000E-03 0.  1.
        -12    1    3    3    0    0  0.20975661717E+02  0.40939503013E+01 -0.66558643582E+01  0.22383908146E+02  0.00000000000E+00 0.  1.
</event>
<event>
 7    1  0.2746803E-013  0.5052887E+02  0.7816164E-02  0.1300439E+00
        -11   -1    0    0    0    0  0.00000000000E+00  0.00000000000E+00  0.45593999997E+02  0.45594000000E+02  0.51100000000E-03 0.  1.
         11   -1    0    0    0    0 -0.00000000000E+00 -0.00000000000E+00 -0.45593999997E+02  0.45594000000E+02  0.51100000000E-03 0. -1.
    9900012    2    1    2    0    0 -0.28801753354E+02  0.24314577205E+02 -0.15245506171E+02  0.50528866717E+02  0.30000020874E+02 0.  0.
         12    1    1    2    0    0  0.28801753354E+02 -0.24314577205E+02  0.15245506171E+02  0.40659133283E+02  0.00000000000E+00 0. -1.
         11    1    3    3    0    0 -0.11803438869E+02  0.10861603370E+02 -0.66420749502E+01  0.17361242951E+02  0.51100000000E-03 0. -1.
        -11    1    3    3    0    0 -0.50838930790E+01  0.37719983110E+01 -0.15194781223E+02  0.16460720421E+02  0.51100000000E-03 0.  1.
         12    1    3    3    0    0 -0.11914421406E+02  0.96809755236E+01  0.65913500029E+01  0.16706903345E+02  0.00000000000E+00 0. -1.
</event>
<event>
 7    1  0.2746803E-013  0.5052885E+02  0.7816164E-02  0.1300439E+00
        -11   -1    0    0    0    0  0.00000000000E+00  0.00000000000E+00  0.45593999997E+02  0.45594000000E+02  0.51100000000E-03 0.  1.
         11   -1    0    0    0    0 -0.00000000000E+00 -0.00000000000E+00 -0.45593999997E+02  0.45594000000E+02  0.51100000000E-03 0. -1.
    9900012    2    1    2    0    0 -0.29428606365E+01 -0.11107824174E+02  0.39001562642E+02  0.50528854963E+02  0.29999985146E+02 0.  0.
         12    1    1    2    0    0  0.29428606365E+01  0.11107824174E+02 -0.39001562642E+02  0.40659145037E+02  0.00000000000E+00 0. -1.
         11    1    3    3    0    0 -0.70147341167E+01  0.23293437133E+01  0.19343482274E+01  0.76402905827E+01  0.51100000000E-03 0. -1.
        -11    1    3    3    0    0 -0.35409866005E+01 -0.10192182077E+02  0.10473866582E+02  0.15037321671E+02  0.51100000000E-03 0.  1.
         12    1    3    3    0    0  0.76128600807E+01 -0.32449858105E+01  0.26593347833E+02  0.27851242710E+02  0.00000000000E+00 0. -1.
</event>
<event>
 7    1  0.2746803E-013  0.5052886E+02  0.7816164E-02  0.1300439E+00
        -11   -1    0    0    0    0  0.00000000000E+00  0.00000000000E+00  0.45593999997E+02  0.45594000000E+02  0.51100000000E-03 0.  1.
         11   -1    0    0    0    0 -0.00000000000E+00 -0.00000000000E+00 -0.45593999997E+02  0.45594000000E+02  0.51100000000E-03 0. -1.
    9900012    2    1    2    0    0  0.20548693880E+02  0.98505581915E+01  0.33673185544E+02  0.50528859065E+02  0.29999997615E+02 0.  0.
         12    1    1    2    0    0 -0.20548693880E+02 -0.98505581915E+01 -0.33673185544E+02  0.40659140935E+02  0.00000000000E+00 0. -1.
         11    1    3    3    0    0 -0.24476734929E+01 -0.16912401283E+01 -0.62212181764E+00  0.30394793167E+01  0.51100000000E-03 0. -1.
        -11    1    3    3    0    0  0.90226977057E+01 -0.52351314233E+01  0.15480163632E+02  0.18666846045E+02  0.51100000000E-03 0.  1.
        -12    1    3    3    0    0  0.13973669667E+02  0.16776929743E+02  0.18815143729E+02  0.28822533704E+02  0.00000000000E+00 0.  1.
</event>
<event>
 7    1  0.2746803E-013  0.5052884E+02  0.7816164E-02  0.1300439E+00
        -11   -1    0    0    0    0  0.00000000000E+00  0.00000000000E+00  0.45593999997E+02  0.45594000000E+02  0.51100000000E-03 0. -1.
         11   -1    0    0    0    0 -0.00000000000E+00 -0.00000000000E+00 -0.45593999997E+02  0.45594000000E+02  0.51100000000E-03 0.  1.
    9900012    2    1    2    0    0 -0.91732765348E+01 -0.11347566952E+02 -0.37950634174E+02  0.50528844668E+02  0.29999953853E+02 0.  0.
         12    1    1    2    0    0  0.91732765348E+01  0.11347566952E+02  0.37950634174E+02  0.40659155332E+02  0.00000000000E+00 0. -1.
         11    1    3    3    0    0 -0.59790470671E+01 -0.12590790836E+02 -0.28678586017E+02  0.31886334281E+02  0.51100000000E-03 0. -1.
        -11    1    3    3    0    0 -0.45481324110E+00 -0.72419040059E+01 -0.40771678920E+01  0.83231801011E+01  0.51100000000E-03 0.  1.
         12    1    3    3    0    0 -0.27394162265E+01  0.84851278904E+01 -0.51948802647E+01  0.10319330286E+02  0.00000000000E+00 0. -1.
</event>
<event>
 7    1  0.2746803E-013  0.5052889E+02  0.7816164E-02  0.1300439E+00
        -11   -1    0    0    0    0  0.00000000000E+00  0.00000000000E+00  0.45593999997E+02  0.45594000000E+02  0.51100000000E-03 0.  1.
         11   -1    0    0    0    0 -0.00000000000E+00 -0.00000000000E+00 -0.45593999997E+02  0.45594000000E+02  0.51100000000E-03 0. -1.
    9900012    2    1    2    0    0  0.16839956220E+02 -0.22724633639E+02  0.29209082843E+02  0.50528885154E+02  0.30000076915E+02 0.  0.
         12    1    1    2    0    0 -0.16839956220E+02  0.22724633639E+02 -0.29209082843E+02  0.40659114846E+02  0.00000000000E+00 0. -1.
         11    1    3    3    0    0  0.46432009065E+01 -0.39712206756E+01  0.18084799171E+02  0.19088998655E+02  0.51100000000E-03 0.  1.
        -11    1    3    3    0    0  0.10469542050E+02 -0.19105913664E+02  0.17005228458E+01  0.21852666334E+02  0.51100000000E-03 0. -1.
         12    1    3    3    0    0  0.17272132634E+01  0.35250070113E+00  0.94237608261E+01  0.95872201659E+01  0.00000000000E+00 0. -1.
</event>
<event>
 7    1  0.2746803E-013  0.5052889E+02  0.7816164E-02  0.1300439E+00
        -11   -1    0    0    0    0  0.00000000000E+00  0.00000000000E+00  0.45593999997E+02  0.45594000000E+02  0.51100000000E-03 0. -1.
         11   -1    0    0    0    0 -0.00000000000E+00 -0.00000000000E+00 -0.45593999997E+02  0.45594000000E+02  0.51100000000E-03 0.  1.
    9900012    2    1    2    0    0 -0.20577500119E+02  0.31511760631E+02 -0.15386307959E+02  0.50528892265E+02  0.30000098528E+02 0.  0.
         12    1    1    2    0    0  0.20577500119E+02 -0.31511760631E+02  0.15386307959E+02  0.40659107735E+02  0.00000000000E+00 0. -1.
         11    1    3    3    0    0 -0.10094628659E+02  0.54090118060E+01  0.69287939014E+00  0.11473404839E+02  0.51100000000E-03 0. -1.
        -11    1    3    3    0    0 -0.16910476489E+02  0.20923659227E+02 -0.14791870342E+02  0.30701191492E+02  0.51100000000E-03 0.  1.
         12    1    3    3    0    0  0.64276050294E+01  0.51790895976E+01 -0.12873170076E+01  0.83542959340E+01  0.00000000000E+00 0. -1.
</event>
<event>
 7    1  0.2746803E-013  0.5052886E+02  0.7816164E-02  0.1300439E+00
        -11   -1    0    0    0    0  0.00000000000E+00  0.00000000000E+00  0.45593999997E+02  0.45594000000E+02  0.51100000000E-03 0. -1.
         11   -1    0    0    0    0 -0.00000000000E+00 -0.00000000000E+00 -0.45593999997E+02  0.45594000000E+02  0.51100000000E-03 0.  1.
    9900012    2    1    2    0    0  0.32411984120E+02  0.18487961690E+02 -0.16150051303E+02  0.50528860816E+02  0.30000002937E+02 0.  0.
         12    1    1    2    0    0 -0.32411984120E+02 -0.18487961690E+02  0.16150051303E+02  0.40659139184E+02  0.00000000000E+00 0. -1.
         11    1    3    3    0    0  0.25845411985E+01  0.49906523702E+01 -0.66547726737E+01  0.87104801180E+01  0.51100000000E-03 0. -1.
        -11    1    3    3    0    0  0.32837157060E+01 -0.62182229762E+01 -0.45759461716E+01  0.83897776756E+01  0.51100000000E-03 0.  1.
         12    1    3    3    0    0  0.26543727216E+02  0.19715532296E+02 -0.49193324574E+01  0.33428603023E+02  0.00000000000E+00 0. -1.
</event>
<event>
 7    1  0.2746803E-013  0.5052886E+02  0.7816164E-02  0.1300439E+00
        -11   -1    0    0    0    0  0.00000000000E+00  0.00000000000E+00  0.45593999997E+02  0.45594000000E+02  0.51100000000E-03 0.  1.
         11   -1    0    0    0    0 -0.00000000000E+00 -0.00000000000E+00 -0.45593999997E+02  0.45594000000E+02  0.51100000000E-03 0. -1.
    9900012    2    1    2    0    0  0.32370119357E+01  0.20712028416E+02  0.34838187258E+02  0.50528860083E+02  0.30000000708E+02 0.  0.
         12    1    1    2    0    0 -0.32370119357E+01 -0.20712028416E+02 -0.34838187258E+02  0.40659139917E+02  0.00000000000E+00 0. -1.
         11    1    3    3    0    0 -0.88063151843E+01  0.21401325383E+01  0.22257100248E+02  0.24031434958E+02  0.51100000000E-03 0. -1.
        -11    1    3    3    0    0  0.86418953811E+01  0.12082428143E+02  0.12092075170E+02  0.19154260826E+02  0.51100000000E-03 0.  1.
        -12    1    3    3    0    0  0.34014317390E+01  0.64894677347E+01  0.48901184038E+00  0.73431642998E+01  0.00000000000E+00 0.  1.
</event>
<event>
 7    1  0.2746803E-013  0.5052886E+02  0.7816164E-02  0.1300439E+00
        -11   -1    0    0    0    0  0.00000000000E+00  0.00000000000E+00  0.45593999997E+02  0.45594000000E+02  0.51100000000E-03 0.  1.
         11   -1    0    0    0    0 -0.00000000000E+00 -0.00000000000E+00 -0.45593999997E+02  0.45594000000E+02  0.51100000000E-03 0. -1.
    9900012    2    1    2    0    0 -0.19919816410E+02  0.26886361065E+02  0.23097402309E+02  0.50528862152E+02  0.30000006996E+02 0.  0.
         12    1    1    2    0    0  0.19919816410E+02 -0.26886361065E+02 -0.23097402309E+02  0.40659137848E+02  0.00000000000E+00 0. -1.
         11    1    3    3    0    0  0.35083243737E+01  0.42519021872E+01  0.46067104951E+00  0.55316570933E+01  0.51100000000E-03 0. -1.
        -11    1    3    3    0    0 -0.86543395551E+01  0.16708837411E+02  0.19830374942E+01  0.18921291677E+02  0.51100000000E-03 0.  1.
        -12    1    3    3    0    0 -0.14773801228E+02  0.59256214675E+01  0.20653693766E+02  0.26075913381E+02  0.00000000000E+00 0.  1.
</event>
<event>
 7    1  0.2746803E-013  0.5052887E+02  0.7816164E-02  0.1300439E+00
        -11   -1    0    0    0    0  0.00000000000E+00  0.00000000000E+00  0.45593999997E+02  0.45594000000E+02  0.51100000000E-03 0.  1.
         11   -1    0    0    0    0 -0.00000000000E+00 -0.00000000000E+00 -0.45593999997E+02  0.45594000000E+02  0.51100000000E-03 0. -1.
    9900012    2    1    2    0    0 -0.28374428264E+02  0.79079863630E+01  0.28027142696E+02  0.50528866274E+02  0.30000019526E+02 0.  0.
         12    1    1    2    0    0  0.28374428264E+02 -0.79079863630E+01 -0.28027142696E+02  0.40659133726E+02  0.00000000000E+00 0. -1.
         11    1    3    3    0    0 -0.14191055618E+02  0.84705812813E+01  0.35757992601E+01  0.16909262178E+02  0.51100000000E-03 0. -1.
        -11    1    3    3    0    0 -0.11583228206E+02  0.80313165260E+01  0.15006296011E+02  0.20587912498E+02  0.51100000000E-03 0.  1.
        -12    1    3    3    0    0 -0.26001444402E+01 -0.85939114443E+01  0.94450474257E+01  0.13031691598E+02  0.00000000000E+00 0.  1.
</event>
<event>
 7    1  0.2746803E-013  0.5052883E+02  0.7816164E-02  0.1300439E+00
        -11   -1    0    0    0    0  0.00000000000E+00  0.00000000000E+00  0.45593999997E+02  0.45594000000E+02  0.51100000000E-03 0. -1.
         11   -1    0    0    0    0 -0.00000000000E+00 -0.00000000000E+00 -0.45593999997E+02  0.45594000000E+02  0.51100000000E-03 0.  1.
    9900012    2    1    2    0    0 -0.75532971674E+01 -0.39699256188E+02  0.44816030441E+01  0.50528831220E+02  0.29999912977E+02 0.  0.
         12    1    1    2    0    0  0.75532971674E+01  0.39699256188E+02 -0.44816030441E+01  0.40659168780E+02  0.00000000000E+00 0. -1.
         11    1    3    3    0    0 -0.56092166498E+00 -0.95783860848E+01  0.33509019371E+01  0.10163102733E+02  0.51100000000E-03 0.  1.
        -11    1    3    3    0    0  0.89004528755E+01 -0.11213572106E+02 -0.45484680483E+01  0.15021678422E+02  0.51100000000E-03 0. -1.
         12    1    3    3    0    0 -0.15892828378E+02 -0.18907297998E+02  0.56791691554E+01  0.25344050065E+02  0.00000000000E+00 0. -1.
</event>
<event>
 7    1  0.2746803E-013  0.5052885E+02  0.7816164E-02  0.1300439E+00
        -11   -1    0    0    0    0  0.00000000000E+00  0.00000000000E+00  0.45593999997E+02  0.45594000000E+02  0.51100000000E-03 0.  1.
         11   -1    0    0    0    0 -0.00000000000E+00 -0.00000000000E+00 -0.45593999997E+02  0.45594000000E+02  0.51100000000E-03 0. -1.
    9900012    2    1    2    0    0 -0.23412753967E+02 -0.15286387221E+02  0.29518398906E+02  0.50528849043E+02  0.29999967150E+02 0.  0.
         12    1    1    2    0    0  0.23412753967E+02  0.15286387221E+02 -0.29518398906E+02  0.40659150957E+02  0.00000000000E+00 0. -1.
         11    1    3    3    0    0 -0.38394029237E+01 -0.55662388204E+00  0.18617550717E+02  0.19017466706E+02  0.51100000000E-03 0. -1.
        -11    1    3    3    0    0 -0.17978680866E+02 -0.12631157144E+02  0.15024075834E+02  0.26617699965E+02  0.51100000000E-03 0.  1.
         12    1    3    3    0    0 -0.15946701769E+01 -0.20986061949E+01 -0.41232276456E+01  0.48936823714E+01  0.00000000000E+00 0. -1.
</event>
<event>
 7    1  0.2746803E-013  0.5052886E+02  0.7816164E-02  0.1300439E+00
        -11   -1    0    0    0    0  0.00000000000E+00  0.00000000000E+00  0.45593999997E+02  0.45594000000E+02  0.51100000000E-03 0. -1.
         11   -1    0    0    0    0 -0.00000000000E+00 -0.00000000000E+00 -0.45593999997E+02  0.45594000000E+02  0.51100000000E-03 0.  1.
    9900012    2    1    2    0    0 -0.39224872793E+02  0.30637651871E+01 -0.10256138313E+02  0.50528859873E+02  0.30000000070E+02 0.  0.
         12    1    1    2    0    0  0.39224872793E+02 -0.30637651871E+01  0.10256138313E+02  0.40659140127E+02  0.00000000000E+00 0. -1.
         11    1    3    3    0    0 -0.42719352922E+01 -0.14344059947E+01 -0.12115335688E+02  0.12926264379E+02  0.51100000000E-03 0. -1.
        -11    1    3    3    0    0 -0.11153185304E+02 -0.46160738211E+01  0.70212896764E+00  0.12091098598E+02  0.51100000000E-03 0.  1.
        -12    1    3    3    0    0 -0.23799752197E+02  0.91142450029E+01  0.11570684072E+01  0.25511496897E+02  0.00000000000E+00 0.  1.
</event>
<event>
 7    1  0.2746803E-013  0.5052886E+02  0.7816164E-02  0.1300439E+00
        -11   -1    0    0    0    0  0.00000000000E+00  0.00000000000E+00  0.45593999997E+02  0.45594000000E+02  0.51100000000E-03 0.  1.
         11   -1    0    0    0    0 -0.00000000000E+00 -0.00000000000E+00 -0.45593999997E+02  0.45594000000E+02  0.51100000000E-03 0. -1.
    9900012    2    1    2    0    0 -0.23395417157E+02 -0.17380337099E+02  0.28350381730E+02  0.50528858274E+02  0.29999995211E+02 0.  0.
         12    1    1    2    0    0  0.23395417157E+02  0.17380337099E+02 -0.28350381730E+02  0.40659141726E+02  0.00000000000E+00 0. -1.
         11    1    3    3    0    0 -0.63969473061E+01  0.38511526432E+01  0.10514934221E+02  0.12896362024E+02  0.51100000000E-03 0. -1.
        -11    1    3    3    0    0 -0.11629378474E+02 -0.11215194362E+02  0.20359508353E+02  0.25991010155E+02  0.51100000000E-03 0.  1.
         12    1    3    3    0    0 -0.53690913765E+01 -0.10016295380E+02 -0.25240608437E+01  0.11641486095E+02  0.00000000000E+00 0. -1.
</event>
<event>
 7    1  0.2746803E-013  0.5052887E+02  0.7816164E-02  0.1300439E+00
        -11   -1    0    0    0    0  0.00000000000E+00  0.00000000000E+00  0.45593999997E+02  0.45594000000E+02  0.51100000000E-03 0.  1.
         11   -1    0    0    0    0 -0.00000000000E+00 -0.00000000000E+00 -0.45593999997E+02  0.45594000000E+02  0.51100000000E-03 0. -1.
    9900012    2    1    2    0    0 -0.20537136214E+02  0.21580092061E+02  0.27671120585E+02  0.50528865090E+02  0.30000015927E+02 0.  0.
         12    1    1    2    0    0  0.20537136214E+02 -0.21580092061E+02 -0.27671120585E+02  0.40659134910E+02  0.00000000000E+00 0. -1.
         11    1    3    3    0    0 -0.87379792701E+01  0.23461243692E+00  0.13979470948E+02  0.16487356761E+02  0.51100000000E-03 0. -1.
        -11    1    3    3    0    0  0.11099216212E+01  0.67180567751E+01  0.12816235004E+02  0.14512756209E+02  0.51100000000E-03 0.  1.
         12    1    3    3    0    0 -0.12909078565E+02  0.14627422849E+02  0.87541463381E+00  0.19528752120E+02  0.00000000000E+00 0. -1.
</event>
<event>
 7    1  0.2746803E-013  0.5052886E+02  0.7816164E-02  0.1300439E+00
        -11   -1    0    0    0    0  0.00000000000E+00  0.00000000000E+00  0.45593999997E+02  0.45594000000E+02  0.51100000000E-03 0. -1.
         11   -1    0    0    0    0 -0.00000000000E+00 -0.00000000000E+00 -0.45593999997E+02  0.45594000000E+02  0.51100000000E-03 0.  1.
    9900012    2    1    2    0    0  0.21650176853E+02  0.34133772765E+02  0.43956119647E+01  0.50528855820E+02  0.29999987750E+02 0.  0.
         12    1    1    2    0    0 -0.21650176853E+02 -0.34133772765E+02 -0.43956119647E+01  0.40659144180E+02  0.00000000000E+00 0. -1.
         11    1    3    3    0    0  0.22963754446E+01 -0.14521868924E+01 -0.47909465983E+01  0.55077542177E+01  0.51100000000E-03 0. -1.
        -11    1    3    3    0    0  0.56247881425E+01  0.17128568906E+02 -0.40547215903E+01  0.18478822523E+02  0.51100000000E-03 0.  1.
        -12    1    3    3    0    0  0.13729013266E+02  0.18457390751E+02  0.13241280153E+02  0.26542279079E+02  0.00000000000E+00 0.  1.
</event>
<event>
 7    1  0.2746803E-013  0.5052886E+02  0.7816164E-02  0.1300439E+00
        -11   -1    0    0    0    0  0.00000000000E+00  0.00000000000E+00  0.45593999997E+02  0.45594000000E+02  0.51100000000E-03 0.  1.
         11   -1    0    0    0    0 -0.00000000000E+00 -0.00000000000E+00 -0.45593999997E+02  0.45594000000E+02  0.51100000000E-03 0. -1.
    9900012    2    1    2    0    0 -0.30890304951E+02 -0.75185928136E+00  0.26427058825E+02  0.50528859940E+02  0.30000000273E+02 0.  0.
         12    1    1    2    0    0  0.30890304951E+02  0.75185928136E+00 -0.26427058825E+02  0.40659140060E+02  0.00000000000E+00 0. -1.
         11    1    3    3    0    0 -0.80433972262E+01 -0.16809972262E+01 -0.23675406692E+01  0.85514466434E+01  0.51100000000E-03 0. -1.
        -11    1    3    3    0    0 -0.21027223682E+02 -0.59510627011E+01  0.15158420756E+02  0.26595807999E+02  0.51100000000E-03 0.  1.
        -12    1    3    3    0    0 -0.18196840422E+01  0.68802006460E+01  0.13636178738E+02  0.15381605297E+02  0.00000000000E+00 0.  1.
</event>
<event>
 7    1  0.2746803E-013  0.5052886E+02  0.7816164E-02  0.1300439E+00
        -11   -1    0    0    0    0  0.00000000000E+00  0.00000000000E+00  0.45593999997E+02  0.45594000000E+02  0.51100000000E-03 0. -1.
         11   -1    0    0    0    0 -0.00000000000E+00 -0.00000000000E+00 -0.45593999997E+02  0.45594000000E+02  0.51100000000E-03 0.  1.
    9900012    2    1    2    0    0 -0.36317469446E+02  0.15143834545E+02  0.10240673134E+02  0.50528859602E+02  0.29999999245E+02 0.  0.
         12    1    1    2    0    0  0.36317469446E+02 -0.15143834545E+02 -0.10240673134E+02  0.40659140398E+02  0.00000000000E+00 0. -1.
         11    1    3    3    0    0  0.19064332332E+01 -0.28201220686E+00 -0.54564824558E+00  0.20029355522E+01  0.51100000000E-03 0. -1.
        -11    1    3    3    0    0 -0.74554011647E+01  0.96878131625E+01  0.12098924898E+02  0.17199439361E+02  0.51100000000E-03 0.  1.
        -12    1    3    3    0    0 -0.30768501514E+02  0.57380335896E+01 -0.13126035178E+01  0.31326484688E+02  0.00000000000E+00 0.  1.
</event>
<event>
 7    1  0.2746803E-013  0.5052887E+02  0.7816164E-02  0.1300439E+00
        -11   -1    0    0    0    0  0.00000000000E+00  0.00000000000E+00  0.45593999997E+02  0.45594000000E+02  0.51100000000E-03 0. -1.
         11   -1    0    0    0    0 -0.00000000000E+00 -0.00000000000E+00 -0.45593999997E+02  0.45594000000E+02  0.51100000000E-03 0.  1.
    9900012    2    1    2    0    0  0.50809491879E+01 -0.82720176393E+01 -0.39483196627E+02  0.50528866508E+02  0.30000020237E+02 0.  0.
         12    1    1    2    0    0 -0.50809491879E+01  0.82720176393E+01  0.39483196627E+02  0.40659133492E+02  0.00000000000E+00 0. -1.
         11    1    3    3    0    0 -0.54032664178E+01 -0.62396862673E+01 -0.13489467129E+02  0.15814382580E+02  0.51100000000E-03 0. -1.
        -11    1    3    3    0    0 -0.85158733784E+00  0.47078370963E+01 -0.19378058107E+02  0.19959911508E+02  0.51100000000E-03 0.  1.
         12    1    3    3    0    0  0.11335802944E+02 -0.67401684683E+01 -0.66156713900E+01  0.14754572420E+02  0.00000000000E+00 0. -1.
</event>
<event>
 7    1  0.2746803E-013  0.5052886E+02  0.7816164E-02  0.1300439E+00
        -11   -1    0    0    0    0  0.00000000000E+00  0.00000000000E+00  0.45593999997E+02  0.45594000000E+02  0.51100000000E-03 0. -1.
         11   -1    0    0    0    0 -0.00000000000E+00 -0.00000000000E+00 -0.45593999997E+02  0.45594000000E+02  0.51100000000E-03 0.  1.
    9900012    2    1    2    0    0  0.73732495704E+01  0.71839718225E+01 -0.39334355201E+02  0.50528858845E+02  0.29999996945E+02 0.  0.
         12    1    1    2    0    0 -0.73732495704E+01 -0.71839718225E+01  0.39334355201E+02  0.40659141155E+02  0.00000000000E+00 0. -1.
         11    1    3    3    0    0  0.31472297148E+01  0.13317936378E+02 -0.18101322575E+02  0.22692077108E+02  0.51100000000E-03 0. -1.
        -11    1    3    3    0    0  0.68608317494E+01  0.12934906391E+01 -0.18021439829E+02  0.19326573004E+02  0.51100000000E-03 0.  1.
         12    1    3    3    0    0 -0.26348118939E+01 -0.74274551944E+01 -0.32115927975E+01  0.85102087330E+01  0.00000000000E+00 0. -1.
</event>
<event>
 7    1  0.2746803E-013  0.5052887E+02  0.7816164E-02  0.1300439E+00
        -11   -1    0    0    0    0  0.00000000000E+00  0.00000000000E+00  0.45593999997E+02  0.45594000000E+02  0.51100000000E-03 0.  1.
         11   -1    0    0    0    0 -0.00000000000E+00 -0.00000000000E+00 -0.45593999997E+02  0.45594000000E+02  0.51100000000E-03 0. -1.
    9900012    2    1    2    0    0  0.86623618250E+01  0.14582300845E+02  0.36952472497E+02  0.50528865308E+02  0.30000016589E+02 0.  0.
         12    1    1    2    0    0 -0.86623618250E+01 -0.14582300845E+02 -0.36952472497E+02  0.40659134692E+02  0.00000000000E+00 0. -1.
         11    1    3    3    0    0  0.10296476908E+00  0.27229607003E+01 -0.76933586915E+00  0.28314297907E+01  0.51100000000E-03 0. -1.
        -11    1    3    3    0    0  0.14966844044E+02  0.15672632461E+02  0.26652323750E+02  0.34350897957E+02  0.51100000000E-03 0.  1.
        -12    1    3    3    0    0 -0.64074469880E+01 -0.38132923159E+01  0.11069484616E+02  0.13346537560E+02  0.00000000000E+00 0.  1.
</event>
<event>
 7    1  0.2746803E-013  0.5052886E+02  0.7816164E-02  0.1300439E+00
        -11   -1    0    0    0    0  0.00000000000E+00  0.00000000000E+00  0.45593999997E+02  0.45594000000E+02  0.51100000000E-03 0.  1.
         11   -1    0    0    0    0 -0.00000000000E+00 -0.00000000000E+00 -0.45593999997E+02  0.45594000000E+02  0.51100000000E-03 0. -1.
    9900012    2    1    2    0    0 -0.36221649043E+02  0.14979441683E+01  0.18409613824E+02  0.50528861086E+02  0.30000003757E+02 0.  0.
         12    1    1    2    0    0  0.36221649043E+02 -0.14979441683E+01 -0.18409613824E+02  0.40659138914E+02  0.00000000000E+00 0. -1.
         11    1    3    3    0    0 -0.12262040234E+02  0.10905832066E+02  0.93944054034E+01  0.18908983497E+02  0.51100000000E-03 0. -1.
        -11    1    3    3    0    0 -0.16682340931E+02 -0.89554188934E+00  0.11327620472E+02  0.20184585208E+02  0.51100000000E-03 0.  1.
         12    1    3    3    0    0 -0.72772678779E+01 -0.85123460082E+01 -0.23124120520E+01  0.11435292380E+02  0.00000000000E+00 0. -1.
</event>
<event>
 7    1  0.2746803E-013  0.5052886E+02  0.7816164E-02  0.1300439E+00
        -11   -1    0    0    0    0  0.00000000000E+00  0.00000000000E+00  0.45593999997E+02  0.45594000000E+02  0.51100000000E-03 0.  1.
         11   -1    0    0    0    0 -0.00000000000E+00 -0.00000000000E+00 -0.45593999997E+02  0.45594000000E+02  0.51100000000E-03 0. -1.
    9900012    2    1    2    0    0 -0.19844495971E+02  0.23839130275E+02  0.26287974040E+02  0.50528859185E+02  0.29999997980E+02 0.  0.
         12    1    1    2    0    0  0.19844495971E+02 -0.23839130275E+02 -0.26287974040E+02  0.40659140815E+02  0.00000000000E+00 0. -1.
         11    1    3    3    0    0 -0.73176930900E+01 -0.35391735993E+01 -0.17653128564E+01  0.83180954351E+01  0.51100000000E-03 0. -1.
        -11    1    3    3    0    0 -0.27688836034E+01  0.62115802874E+01  0.16623645024E+01  0.70009929350E+01  0.51100000000E-03 0.  1.
        -12    1    3    3    0    0 -0.97579192778E+01  0.21166723587E+02  0.26390922394E+02  0.35209770815E+02  0.00000000000E+00 0.  1.
</event>
<event>
 7    1  0.2746803E-013  0.5052886E+02  0.7816164E-02  0.1300439E+00
        -11   -1    0    0    0    0  0.00000000000E+00  0.00000000000E+00  0.45593999997E+02  0.45594000000E+02  0.51100000000E-03 0.  1.
         11   -1    0    0    0    0 -0.00000000000E+00 -0.00000000000E+00 -0.45593999997E+02  0.45594000000E+02  0.51100000000E-03 0. -1.
    9900012    2    1    2    0    0 -0.21074520108E+02  0.31735991444E+02  0.14207640082E+02  0.50528860961E+02  0.30000003376E+02 0.  0.
         12    1    1    2    0    0  0.21074520108E+02 -0.31735991444E+02 -0.14207640082E+02  0.40659139039E+02  0.00000000000E+00 0. -1.
         11    1    3    3    0    0  0.12194814377E+01 -0.23010820436E+00 -0.21515445852E+01  0.24837932937E+01  0.51100000000E-03 0. -1.
        -11    1    3    3    0    0  0.44664678506E+01  0.22587972077E+01  0.49437401930E+00  0.50295035359E+01  0.51100000000E-03 0.  1.
        -12    1    3    3    0    0 -0.26760469396E+02  0.29707302441E+02  0.15864810648E+02  0.43015564131E+02  0.00000000000E+00 0.  1.
</event>
<event>
 7    1  0.2746803E-013  0.5052886E+02  0.7816164E-02  0.1300439E+00
        -11   -1    0    0    0    0  0.00000000000E+00  0.00000000000E+00  0.45593999997E+02  0.45594000000E+02  0.51100000000E-03 0.  1.
         11   -1    0    0    0    0 -0.00000000000E+00 -0.00000000000E+00 -0.45593999997E+02  0.45594000000E+02  0.51100000000E-03 0. -1.
    9900012    2    1    2    0    0  0.35881344072E+02 -0.16760248850E+02  0.92081065562E+01  0.50528855638E+02  0.29999987197E+02 0.  0.
         12    1    1    2    0    0 -0.35881344072E+02  0.16760248850E+02 -0.92081065562E+01  0.40659144362E+02  0.00000000000E+00 0. -1.
         11    1    3    3    0    0  0.14650893241E+01 -0.28983252148E+01 -0.27321358629E+01  0.42439771928E+01  0.51100000000E-03 0. -1.
        -11    1    3    3    0    0  0.17462510396E+02 -0.15289361306E+02  0.16728432685E+02  0.28610213191E+02  0.51100000000E-03 0.  1.
         12    1    3    3    0    0  0.16953744351E+02  0.14274376703E+01 -0.47881902660E+01  0.17674665254E+02  0.00000000000E+00 0. -1.
</event>
<event>
 7    1  0.2746803E-013  0.5052887E+02  0.7816164E-02  0.1300439E+00
        -11   -1    0    0    0    0  0.00000000000E+00  0.00000000000E+00  0.45593999997E+02  0.45594000000E+02  0.51100000000E-03 0.  1.
         11   -1    0    0    0    0 -0.00000000000E+00 -0.00000000000E+00 -0.45593999997E+02  0.45594000000E+02  0.51100000000E-03 0. -1.
    9900012    2    1    2    0    0 -0.10834532747E+01 -0.40012262099E+02 -0.71421367386E+01  0.50528866875E+02  0.30000021354E+02 0.  0.
         12    1    1    2    0    0  0.10834532747E+01  0.40012262099E+02  0.71421367386E+01  0.40659133125E+02  0.00000000000E+00 0. -1.
         11    1    3    3    0    0 -0.23019445596E+01 -0.12111091872E+01 -0.52233040067E+01  0.58351211835E+01  0.51100000000E-03 0. -1.
        -11    1    3    3    0    0  0.93976461667E+01 -0.78249310009E+01 -0.31644688218E+01  0.12631672962E+02  0.51100000000E-03 0.  1.
        -12    1    3    3    0    0 -0.81791548817E+01 -0.30976221911E+02  0.12456360898E+01  0.32062072729E+02  0.00000000000E+00 0.  1.
</event>
<event>
 7    1  0.2746803E-013  0.5052886E+02  0.7816164E-02  0.1300439E+00
        -11   -1    0    0    0    0  0.00000000000E+00  0.00000000000E+00  0.45593999997E+02  0.45594000000E+02  0.51100000000E-03 0.  1.
         11   -1    0    0    0    0 -0.00000000000E+00 -0.00000000000E+00 -0.45593999997E+02  0.45594000000E+02  0.51100000000E-03 0. -1.
    9900012    2    1    2    0    0  0.12681766231E+01  0.42157189040E+01  0.40420104157E+02  0.50528863538E+02  0.30000011209E+02 0.  0.
         12    1    1    2    0    0 -0.12681766231E+01 -0.42157189040E+01 -0.40420104157E+02  0.40659136462E+02  0.00000000000E+00 0. -1.
         11    1    3    3    0    0 -0.34322189164E+01  0.57145158801E+01 -0.20806585461E+01  0.69831911531E+01  0.51100000000E-03 0. -1.
        -11    1    3    3    0    0  0.34434224249E+01 -0.42291316212E+01  0.16642415953E+02  0.17513215618E+02  0.51100000000E-03 0.  1.
        -12    1    3    3    0    0  0.12569731146E+01  0.27303346450E+01  0.25858346750E+02  0.26032456767E+02  0.00000000000E+00 0.  1.
</event>
<event>
 7    1  0.2746803E-013  0.5052885E+02  0.7816164E-02  0.1300439E+00
        -11   -1    0    0    0    0  0.00000000000E+00  0.00000000000E+00  0.45593999997E+02  0.45594000000E+02  0.51100000000E-03 0. -1.
         11   -1    0    0    0    0 -0.00000000000E+00 -0.00000000000E+00 -0.45593999997E+02  0.45594000000E+02  0.51100000000E-03 0.  1.
    9900012    2    1    2    0    0 -0.21000445495E+02 -0.32723910508E+02 -0.11886676533E+02  0.50528854548E+02  0.29999983883E+02 0.  0.
         12    1    1    2    0    0  0.21000445495E+02  0.32723910508E+02  0.11886676533E+02  0.40659145452E+02  0.00000000000E+00 0. -1.
         11    1    3    3    0    0  0.44524620515E+01 -0.50313330194E+01 -0.91848593040E+01  0.11379822976E+02  0.51100000000E-03 0. -1.
        -11    1    3    3    0    0 -0.59062919284E+01 -0.77232341710E+01 -0.53199058143E+01  0.11083051409E+02  0.51100000000E-03 0.  1.
        -12    1    3    3    0    0 -0.19546615618E+02 -0.19969343317E+02  0.26180885850E+01  0.28065980163E+02  0.00000000000E+00 0.  1.
</event>
<event>
 7    1  0.2746803E-013  0.5052883E+02  0.7816164E-02  0.1300439E+00
        -11   -1    0    0    0    0  0.00000000000E+00  0.00000000000E+00  0.45593999997E+02  0.45594000000E+02  0.51100000000E-03 0.  1.
         11   -1    0    0    0    0 -0.00000000000E+00 -0.00000000000E+00 -0.45593999997E+02  0.45594000000E+02  0.51100000000E-03 0. -1.
    9900012    2    1    2    0    0  0.35929058106E+02 -0.99181202670E+01  0.16245043322E+02  0.50528834261E+02  0.29999922221E+02 0.  0.
         12    1    1    2    0    0 -0.35929058106E+02  0.99181202670E+01 -0.16245043322E+02  0.40659165739E+02  0.00000000000E+00 0. -1.
         11    1    3    3    0    0  0.28168115339E+02 -0.68802041394E+01  0.50672913359E+01  0.29435647989E+02  0.51100000000E-03 0. -1.
        -11    1    3    3    0    0  0.10740688051E+02  0.29672573000E+01  0.62799307050E+01  0.12790798474E+02  0.51100000000E-03 0.  1.
         12    1    3    3    0    0 -0.29797452839E+01 -0.60051734276E+01  0.48978212813E+01  0.83023877984E+01  0.00000000000E+00 0. -1.
</event>
<event>
 7    1  0.2746803E-013  0.5052887E+02  0.7816164E-02  0.1300439E+00
        -11   -1    0    0    0    0  0.00000000000E+00  0.00000000000E+00  0.45593999997E+02  0.45594000000E+02  0.51100000000E-03 0.  1.
         11   -1    0    0    0    0 -0.00000000000E+00 -0.00000000000E+00 -0.45593999997E+02  0.45594000000E+02  0.51100000000E-03 0. -1.
    9900012    2    1    2    0    0 -0.38163417202E+02  0.18194172349E+01  0.13907126740E+02  0.50528869835E+02  0.30000030350E+02 0.  0.
         12    1    1    2    0    0  0.38163417202E+02 -0.18194172349E+01 -0.13907126740E+02  0.40659130165E+02  0.00000000000E+00 0. -1.
         11    1    3    3    0    0 -0.25207517401E+02  0.10378588616E+02 -0.19141468395E+01  0.27327604973E+02  0.51100000000E-03 0. -1.
        -11    1    3    3    0    0 -0.89294860499E+01 -0.18326860697E+01  0.89919398268E+01  0.12804274343E+02  0.51100000000E-03 0.  1.
        -12    1    3    3    0    0 -0.40264137514E+01 -0.67264853110E+01  0.68293337528E+01  0.10396990519E+02  0.00000000000E+00 0.  1.
</event>
<event>
 7    1  0.2746803E-013  0.5052886E+02  0.7816164E-02  0.1300439E+00
        -11   -1    0    0    0    0  0.00000000000E+00  0.00000000000E+00  0.45593999997E+02  0.45594000000E+02  0.51100000000E-03 0.  1.
         11   -1    0    0    0    0 -0.00000000000E+00 -0.00000000000E+00 -0.45593999997E+02  0.45594000000E+02  0.51100000000E-03 0. -1.
    9900012    2    1    2    0    0 -0.18727534853E+02 -0.34775103923E+02  0.96507455191E+01  0.50528864451E+02  0.30000013985E+02 0.  0.
         12    1    1    2    0    0  0.18727534853E+02  0.34775103923E+02 -0.96507455191E+01  0.40659135549E+02  0.00000000000E+00 0. -1.
         11    1    3    3    0    0 -0.74476095486E+00  0.30320427192E+01  0.19268014862E+00  0.31281109046E+01  0.51100000000E-03 0. -1.
        -11    1    3    3    0    0 -0.81155587330E+01 -0.10187439154E+02 -0.58941009652E+01  0.14296385435E+02  0.51100000000E-03 0.  1.
        -12    1    3    3    0    0 -0.98672151654E+01 -0.27619707488E+02  0.15352166336E+02  0.33104368111E+02  0.00000000000E+00 0.  1.
</event>
<event>
 7    1  0.2746803E-013  0.5052885E+02  0.7816164E-02  0.1300439E+00
        -11   -1    0    0    0    0  0.00000000000E+00  0.00000000000E+00  0.45593999997E+02  0.45594000000E+02  0.51100000000E-03 0.  1.
         11   -1    0    0    0    0 -0.00000000000E+00 -0.00000000000E+00 -0.45593999997E+02  0.45594000000E+02  0.51100000000E-03 0. -1.
    9900012    2    1    2    0    0 -0.16051236092E+02 -0.36838911436E+02  0.61982681367E+01  0.50528854611E+02  0.29999984074E+02 0.  0.
         12    1    1    2    0    0  0.16051236092E+02  0.36838911436E+02 -0.61982681367E+01  0.40659145389E+02  0.00000000000E+00 0. -1.
         11    1    3    3    0    0 -0.38234050908E+01 -0.15773726907E+02  0.39169958255E+01  0.16696459013E+02  0.51100000000E-03 0. -1.
        -11    1    3    3    0    0 -0.83503141369E+01 -0.20180703962E+02  0.10849242745E+02  0.24386361495E+02  0.51100000000E-03 0.  1.
         12    1    3    3    0    0 -0.38775168643E+01 -0.88448056777E+00 -0.85679704335E+01  0.94460341021E+01  0.00000000000E+00 0. -1.
</event>
<event>
 7    1  0.2746803E-013  0.5052886E+02  0.7816164E-02  0.1300439E+00
        -11   -1    0    0    0    0  0.00000000000E+00  0.00000000000E+00  0.45593999997E+02  0.45594000000E+02  0.51100000000E-03 0.  1.
         11   -1    0    0    0    0 -0.00000000000E+00 -0.00000000000E+00 -0.45593999997E+02  0.45594000000E+02  0.51100000000E-03 0. -1.
    9900012    2    1    2    0    0 -0.13835640516E+02  0.53435065017E+01  0.37857467212E+02  0.50528857929E+02  0.29999994161E+02 0.  0.
         12    1    1    2    0    0  0.13835640516E+02 -0.53435065017E+01 -0.37857467212E+02  0.40659142071E+02  0.00000000000E+00 0. -1.
         11    1    3    3    0    0 -0.20926203346E+02  0.47181583081E+01  0.28355356487E+02  0.35555495301E+02  0.51100000000E-03 0.  1.
        -11    1    3    3    0    0  0.12294358885E+01 -0.39380186159E+01  0.38018604070E+01  0.56101377914E+01  0.51100000000E-03 0. -1.
        -12    1    3    3    0    0  0.58611269416E+01  0.45633668095E+01  0.57002503178E+01  0.93632248371E+01  0.00000000000E+00 0.  1.
</event>
<event>
 7    1  0.2746803E-013  0.5052886E+02  0.7816164E-02  0.1300439E+00
        -11   -1    0    0    0    0  0.00000000000E+00  0.00000000000E+00  0.45593999997E+02  0.45594000000E+02  0.51100000000E-03 0. -1.
         11   -1    0    0    0    0 -0.00000000000E+00 -0.00000000000E+00 -0.45593999997E+02  0.45594000000E+02  0.51100000000E-03 0.  1.
    9900012    2    1    2    0    0  0.23746793660E+02 -0.16745917741E+02 -0.28439928611E+02  0.50528861919E+02  0.30000006290E+02 0.  0.
         12    1    1    2    0    0 -0.23746793660E+02  0.16745917741E+02  0.28439928611E+02  0.40659138081E+02  0.00000000000E+00 0. -1.
         11    1    3    3    0    0  0.14387185378E+02 -0.88831845535E+01 -0.11167877567E+02  0.20263848611E+02  0.51100000000E-03 0. -1.
        -11    1    3    3    0    0  0.11781185863E+02 -0.15117153659E+01 -0.18885077910E+00  0.11879279800E+02  0.51100000000E-03 0.  1.
         12    1    3    3    0    0 -0.24215775817E+01 -0.63510178213E+01 -0.17083200265E+02  0.18385733508E+02  0.00000000000E+00 0. -1.
</event>
<event>
 7    1  0.2746803E-013  0.5052886E+02  0.7816164E-02  0.1300439E+00
        -11   -1    0    0    0    0  0.00000000000E+00  0.00000000000E+00  0.45593999997E+02  0.45594000000E+02  0.51100000000E-03 0. -1.
         11   -1    0    0    0    0 -0.00000000000E+00 -0.00000000000E+00 -0.45593999997E+02  0.45594000000E+02  0.51100000000E-03 0.  1.
    9900012    2    1    2    0    0  0.25728960750E+02  0.26386769726E+02 -0.17173372994E+02  0.50528858619E+02  0.29999996257E+02 0.  0.
         12    1    1    2    0    0 -0.25728960750E+02 -0.26386769726E+02  0.17173372994E+02  0.40659141381E+02  0.00000000000E+00 0. -1.
         11    1    3    3    0    0  0.14016928115E+02  0.10436230830E+02 -0.56502688240E+01  0.18366129853E+02  0.51100000000E-03 0. -1.
        -11    1    3    3    0    0  0.10935425237E+02  0.20728374555E+02 -0.13370270972E+02  0.26981719421E+02  0.51100000000E-03 0.  1.
         12    1    3    3    0    0  0.77660739826E+00 -0.47778356588E+01  0.18471668020E+01  0.51810093445E+01  0.00000000000E+00 0. -1.
</event>
<event>
 7    1  0.2746803E-013  0.5052886E+02  0.7816164E-02  0.1300439E+00
        -11   -1    0    0    0    0  0.00000000000E+00  0.00000000000E+00  0.45593999997E+02  0.45594000000E+02  0.51100000000E-03 0. -1.
         11   -1    0    0    0    0 -0.00000000000E+00 -0.00000000000E+00 -0.45593999997E+02  0.45594000000E+02  0.51100000000E-03 0.  1.
    9900012    2    1    2    0    0 -0.14971057582E+01 -0.39817928833E+02 -0.80905591227E+01  0.50528856759E+02  0.29999990605E+02 0.  0.
         12    1    1    2    0    0  0.14971057582E+01  0.39817928833E+02  0.80905591227E+01  0.40659143241E+02  0.00000000000E+00 0. -1.
         11    1    3    3    0    0 -0.34854293138E+01 -0.89902688045E+01 -0.10938905479E+02  0.14581934166E+02  0.51100000000E-03 0.  1.
        -11    1    3    3    0    0 -0.63458182630E+00  0.21081859229E+01  0.18760060766E+01  0.28924973708E+01  0.51100000000E-03 0. -1.
        -12    1    3    3    0    0  0.26229053819E+01 -0.32935845951E+02  0.97234028014E+00  0.33054425222E+02  0.00000000000E+00 0.  1.
</event>
<event>
 7    1  0.2746803E-013  0.5052885E+02  0.7816164E-02  0.1300439E+00
        -11   -1    0    0    0    0  0.00000000000E+00  0.00000000000E+00  0.45593999997E+02  0.45594000000E+02  0.51100000000E-03 0.  1.
         11   -1    0    0    0    0 -0.00000000000E+00 -0.00000000000E+00 -0.45593999997E+02  0.45594000000E+02  0.51100000000E-03 0. -1.
    9900012    2    1    2    0    0  0.18545547562E+02  0.21800853069E+02  0.28878229229E+02  0.50528847865E+02  0.29999963571E+02 0.  0.
         12    1    1    2    0    0 -0.18545547562E+02 -0.21800853069E+02 -0.28878229229E+02  0.40659152135E+02  0.00000000000E+00 0. -1.
         11    1    3    3    0    0  0.14881888937E+02  0.18517361351E+02  0.25215281679E+02  0.34643523495E+02  0.51100000000E-03 0.  1.
        -11    1    3    3    0    0  0.29842384602E+01 -0.31430879999E+01  0.72852319141E+01  0.84769856474E+01  0.51100000000E-03 0. -1.
         12    1    3    3    0    0  0.67942016441E+00  0.64265797178E+01 -0.36222843632E+01  0.74083387231E+01  0.00000000000E+00 0. -1.
</event>
<event>
 7    1  0.2746803E-013  0.5052886E+02  0.7816164E-02  0.1300439E+00
        -11   -1    0    0    0    0  0.00000000000E+00  0.00000000000E+00  0.45593999997E+02  0.45594000000E+02  0.51100000000E-03 0.  1.
         11   -1    0    0    0    0 -0.00000000000E+00 -0.00000000000E+00 -0.45593999997E+02  0.45594000000E+02  0.51100000000E-03 0. -1.
    9900012    2    1    2    0    0 -0.16843960155E+02 -0.75654067171E+01  0.36224454443E+02  0.50528862378E+02  0.30000007683E+02 0.  0.
         12    1    1    2    0    0  0.16843960155E+02  0.75654067171E+01 -0.36224454443E+02  0.40659137622E+02  0.00000000000E+00 0. -1.
         11    1    3    3    0    0 -0.37431685894E+01 -0.89981824476E+00 -0.72025763034E+00  0.39165999639E+01  0.51100000000E-03 0. -1.
        -11    1    3    3    0    0 -0.16081461566E+02 -0.13220744023E+02  0.23767416978E+02  0.31595752700E+02  0.51100000000E-03 0.  1.
        -12    1    3    3    0    0  0.29806700008E+01  0.65551555505E+01  0.13177295096E+02  0.15016509714E+02  0.00000000000E+00 0.  1.
</event>
<event>
 7    1  0.2746803E-013  0.5052894E+02  0.7816164E-02  0.1300439E+00
        -11   -1    0    0    0    0  0.00000000000E+00  0.00000000000E+00  0.45593999997E+02  0.45594000000E+02  0.51100000000E-03 0.  1.
         11   -1    0    0    0    0 -0.00000000000E+00 -0.00000000000E+00 -0.45593999997E+02  0.45594000000E+02  0.51100000000E-03 0. -1.
    9900012    2    1    2    0    0 -0.38192589434E+02 -0.49099477277E+01  0.13052894956E+02  0.50528935315E+02  0.30000229382E+02 0.  0.
         12    1    1    2    0    0  0.38192589434E+02  0.49099477277E+01 -0.13052894956E+02  0.40659064685E+02  0.00000000000E+00 0. -1.
         11    1    3    3    0    0 -0.15650143639E+02 -0.15916917473E+01 -0.12437759034E+01  0.15779970130E+02  0.51100000000E-03 0. -1.
        -11    1    3    3    0    0  0.77452831482E+00 -0.77404850659E+01  0.20593653284E+01  0.80471105984E+01  0.51100000000E-03 0.  1.
         12    1    3    3    0    0 -0.23316974109E+02  0.44222290855E+01  0.12237305531E+02  0.26701854586E+02  0.00000000000E+00 0. -1.
</event>
<event>
 7    1  0.2746803E-013  0.5052887E+02  0.7816164E-02  0.1300439E+00
        -11   -1    0    0    0    0  0.00000000000E+00  0.00000000000E+00  0.45593999997E+02  0.45594000000E+02  0.51100000000E-03 0.  1.
         11   -1    0    0    0    0 -0.00000000000E+00 -0.00000000000E+00 -0.45593999997E+02  0.45594000000E+02  0.51100000000E-03 0. -1.
    9900012    2    1    2    0    0 -0.23876895705E+02  0.87446725732E+01  0.31726793495E+02  0.50528869753E+02  0.30000030102E+02 0.  0.
         12    1    1    2    0    0  0.23876895705E+02 -0.87446725732E+01 -0.31726793495E+02  0.40659130247E+02  0.00000000000E+00 0. -1.
         11    1    3    3    0    0 -0.11107319752E+02  0.16741443872E+02  0.13989747635E+02  0.24481861329E+02  0.51100000000E-03 0. -1.
        -11    1    3    3    0    0  0.39382476253E-01  0.25080466423E+01  0.24078786035E+01  0.34770286984E+01  0.51100000000E-03 0.  1.
        -12    1    3    3    0    0 -0.12808958430E+02 -0.10504817941E+02  0.15329167257E+02  0.22569979726E+02  0.00000000000E+00 0.  1.
</event>
<event>
 7    1  0.2746803E-013  0.5052886E+02  0.7816164E-02  0.1300439E+00
        -11   -1    0    0    0    0  0.00000000000E+00  0.00000000000E+00  0.45593999997E+02  0.45594000000E+02  0.51100000000E-03 0.  1.
         11   -1    0    0    0    0 -0.00000000000E+00 -0.00000000000E+00 -0.45593999997E+02  0.45594000000E+02  0.51100000000E-03 0. -1.
    9900012    2    1    2    0    0 -0.40037519768E+02  0.60328151619E+01 -0.37105070566E+01  0.50528859446E+02  0.29999998773E+02 0.  0.
         12    1    1    2    0    0  0.40037519768E+02 -0.60328151619E+01  0.37105070566E+01  0.40659140554E+02  0.00000000000E+00 0. -1.
         11    1    3    3    0    0 -0.27705095998E+02 -0.64008608966E+01 -0.10315965135E+02  0.30248347086E+02  0.51100000000E-03 0. -1.
        -11    1    3    3    0    0 -0.13595987380E+01 -0.29372380374E+00  0.26863537655E+01  0.30251081329E+01  0.51100000000E-03 0.  1.
        -12    1    3    3    0    0 -0.10972825032E+02  0.12727399862E+02  0.39191043133E+01  0.17255404227E+02  0.00000000000E+00 0.  1.
</event>
<event>
 7    1  0.2746803E-013  0.5052886E+02  0.7816164E-02  0.1300439E+00
        -11   -1    0    0    0    0  0.00000000000E+00  0.00000000000E+00  0.45593999997E+02  0.45594000000E+02  0.51100000000E-03 0. -1.
         11   -1    0    0    0    0 -0.00000000000E+00 -0.00000000000E+00 -0.45593999997E+02  0.45594000000E+02  0.51100000000E-03 0.  1.
    9900012    2    1    2    0    0 -0.39157155966E+02  0.79154942726E+01 -0.75649126225E+01  0.50528858151E+02  0.29999994834E+02 0.  0.
         12    1    1    2    0    0  0.39157155966E+02 -0.79154942726E+01  0.75649126225E+01  0.40659141849E+02  0.00000000000E+00 0. -1.
         11    1    3    3    0    0 -0.22666297558E+02  0.10198323445E+02 -0.14013324051E+02  0.28533140333E+02  0.51100000000E-03 0.  1.
        -11    1    3    3    0    0 -0.23923689047E+01  0.45448883121E+01  0.30267593951E+01  0.59616030933E+01  0.51100000000E-03 0. -1.
        -12    1    3    3    0    0 -0.14098489504E+02 -0.68277174845E+01  0.34216520333E+01  0.16034114724E+02  0.00000000000E+00 0.  1.
</event>
<event>
 7    1  0.2746803E-013  0.5052886E+02  0.7816164E-02  0.1300439E+00
        -11   -1    0    0    0    0  0.00000000000E+00  0.00000000000E+00  0.45593999997E+02  0.45594000000E+02  0.51100000000E-03 0. -1.
         11   -1    0    0    0    0 -0.00000000000E+00 -0.00000000000E+00 -0.45593999997E+02  0.45594000000E+02  0.51100000000E-03 0.  1.
    9900012    2    1    2    0    0 -0.30109757608E+02  0.15714981429E+02 -0.22351900720E+02  0.50528860679E+02  0.30000002520E+02 0.  0.
         12    1    1    2    0    0  0.30109757608E+02 -0.15714981429E+02  0.22351900720E+02  0.40659139321E+02  0.00000000000E+00 0. -1.
         11    1    3    3    0    0 -0.10795960441E+01 -0.39007827170E-01  0.24070168709E+01  0.26383289611E+01  0.51100000000E-03 0. -1.
        -11    1    3    3    0    0 -0.13172371144E+02 -0.43025851058E+01 -0.15264891483E+02  0.20616510674E+02  0.51100000000E-03 0.  1.
         12    1    3    3    0    0 -0.15857790420E+02  0.20056574362E+02 -0.94940261084E+01  0.27274021044E+02  0.00000000000E+00 0. -1.
</event>
<event>
 7    1  0.2746803E-013  0.5052887E+02  0.7816164E-02  0.1300439E+00
        -11   -1    0    0    0    0  0.00000000000E+00  0.00000000000E+00  0.45593999997E+02  0.45594000000E+02  0.51100000000E-03 0. -1.
         11   -1    0    0    0    0 -0.00000000000E+00 -0.00000000000E+00 -0.45593999997E+02  0.45594000000E+02  0.51100000000E-03 0.  1.
    9900012    2    1    2    0    0  0.13578551936E+02  0.37927917525E+02  0.55009916888E+01  0.50528869291E+02  0.30000028697E+02 0.  0.
         12    1    1    2    0    0 -0.13578551936E+02 -0.37927917525E+02 -0.55009916888E+01  0.40659130709E+02  0.00000000000E+00 0. -1.
         11    1    3    3    0    0  0.21646140607E+02  0.21860014876E+02  0.83451441361E+01  0.31875650339E+02  0.51100000000E-03 0. -1.
        -11    1    3    3    0    0 -0.30249345835E+00  0.27477488593E+01 -0.15780199902E+01  0.31830446803E+01  0.51100000000E-03 0.  1.
         12    1    3    3    0    0 -0.77650952126E+01  0.13320153789E+02 -0.12661324571E+01  0.15470174272E+02  0.00000000000E+00 0. -1.
</event>
<event>
 7    1  0.2746803E-013  0.5052887E+02  0.7816164E-02  0.1300439E+00
        -11   -1    0    0    0    0  0.00000000000E+00  0.00000000000E+00  0.45593999997E+02  0.45594000000E+02  0.51100000000E-03 0. -1.
         11   -1    0    0    0    0 -0.00000000000E+00 -0.00000000000E+00 -0.45593999997E+02  0.45594000000E+02  0.51100000000E-03 0.  1.
    9900012    2    1    2    0    0  0.10316349421E+02 -0.33384436416E+02  0.20789834637E+02  0.50528869606E+02  0.30000029655E+02 0.  0.
         12    1    1    2    0    0 -0.10316349421E+02  0.33384436416E+02 -0.20789834637E+02  0.40659130394E+02  0.00000000000E+00 0. -1.
         11    1    3    3    0    0  0.19941782751E+00 -0.19000863068E+01 -0.53624420653E+01  0.56926163236E+01  0.51100000000E-03 0. -1.
        -11    1    3    3    0    0  0.26158409407E+01  0.36487418860E+00  0.56130012048E+01  0.62033490782E+01  0.51100000000E-03 0.  1.
        -12    1    3    3    0    0  0.75010906528E+01 -0.31849224297E+02  0.20539275497E+02  0.38632904204E+02  0.00000000000E+00 0.  1.
</event>
<event>
 7    1  0.2746803E-013  0.5052886E+02  0.7816164E-02  0.1300439E+00
        -11   -1    0    0    0    0  0.00000000000E+00  0.00000000000E+00  0.45593999997E+02  0.45594000000E+02  0.51100000000E-03 0.  1.
         11   -1    0    0    0    0 -0.00000000000E+00 -0.00000000000E+00 -0.45593999997E+02  0.45594000000E+02  0.51100000000E-03 0. -1.
    9900012    2    1    2    0    0  0.25534527216E+02 -0.70802245702E+01  0.30838673744E+02  0.50528862547E+02  0.30000008198E+02 0.  0.
         12    1    1    2    0    0 -0.25534527216E+02  0.70802245702E+01 -0.30838673744E+02  0.40659137453E+02  0.00000000000E+00 0. -1.
         11    1    3    3    0    0  0.82498421742E+01  0.66466828911E+01  0.80043689711E+01  0.13278110266E+02  0.51100000000E-03 0. -1.
        -11    1    3    3    0    0  0.17605312283E+02 -0.77499031524E+01  0.24393636097E+02  0.31065374644E+02  0.51100000000E-03 0.  1.
         12    1    3    3    0    0 -0.32062724108E+00 -0.59770043089E+01 -0.15593313238E+01  0.61853776371E+01  0.00000000000E+00 0. -1.
</event>
<event>
 7    1  0.2746803E-013  0.5052886E+02  0.7816164E-02  0.1300439E+00
        -11   -1    0    0    0    0  0.00000000000E+00  0.00000000000E+00  0.45593999997E+02  0.45594000000E+02  0.51100000000E-03 0. -1.
         11   -1    0    0    0    0 -0.00000000000E+00 -0.00000000000E+00 -0.45593999997E+02  0.45594000000E+02  0.51100000000E-03 0.  1.
    9900012    2    1    2    0    0 -0.22703430813E+01  0.20714111080E+02 -0.34913272674E+02  0.50528862474E+02  0.30000007977E+02 0.  0.
         12    1    1    2    0    0  0.22703430813E+01 -0.20714111080E+02  0.34913272674E+02  0.40659137526E+02  0.00000000000E+00 0. -1.
         11    1    3    3    0    0 -0.96586463070E+01  0.17145815814E+01 -0.18435128558E+02  0.20882605290E+02  0.51100000000E-03 0. -1.
        -11    1    3    3    0    0  0.16570581867E+01 -0.21002111683E+01 -0.99194929074E+00  0.28531898714E+01  0.51100000000E-03 0.  1.
        -12    1    3    3    0    0  0.57312450390E+01  0.21099740666E+02 -0.15486194825E+02  0.26793067313E+02  0.00000000000E+00 0.  1.
</event>
<event>
 7    1  0.2746803E-013  0.5052886E+02  0.7816164E-02  0.1300439E+00
        -11   -1    0    0    0    0  0.00000000000E+00  0.00000000000E+00  0.45593999997E+02  0.45594000000E+02  0.51100000000E-03 0. -1.
         11   -1    0    0    0    0 -0.00000000000E+00 -0.00000000000E+00 -0.45593999997E+02  0.45594000000E+02  0.51100000000E-03 0.  1.
    9900012    2    1    2    0    0  0.11133596532E+02 -0.10201312109E+02 -0.37751052882E+02  0.50528859156E+02  0.29999997891E+02 0.  0.
         12    1    1    2    0    0 -0.11133596532E+02  0.10201312109E+02  0.37751052882E+02  0.40659140844E+02  0.00000000000E+00 0. -1.
         11    1    3    3    0    0 -0.10283366459E+01 -0.20085440035E+01  0.21381606773E+01  0.31086100775E+01  0.51100000000E-03 0. -1.
        -11    1    3    3    0    0 -0.38208940842E+01 -0.37371583439E+01 -0.14272038755E+01  0.55319522100E+01  0.51100000000E-03 0.  1.
        -12    1    3    3    0    0  0.15982827262E+02 -0.44556097616E+01 -0.38462009684E+02  0.41888296868E+02  0.00000000000E+00 0.  1.
</event>
<event>
 7    1  0.2746803E-013  0.5052889E+02  0.7816164E-02  0.1300439E+00
        -11   -1    0    0    0    0  0.00000000000E+00  0.00000000000E+00  0.45593999997E+02  0.45594000000E+02  0.51100000000E-03 0.  1.
         11   -1    0    0    0    0 -0.00000000000E+00 -0.00000000000E+00 -0.45593999997E+02  0.45594000000E+02  0.51100000000E-03 0. -1.
    9900012    2    1    2    0    0 -0.59896167008E+01 -0.25588732948E+02  0.31024253083E+02  0.50528892269E+02  0.30000098542E+02 0.  0.
         12    1    1    2    0    0  0.59896167008E+01  0.25588732948E+02 -0.31024253083E+02  0.40659107731E+02  0.00000000000E+00 0. -1.
         11    1    3    3    0    0 -0.12711701074E+01 -0.84149610720E+01  0.24729504081E+01  0.88624447681E+01  0.51100000000E-03 0.  1.
        -11    1    3    3    0    0  0.17164018949E+01 -0.33526240450E+01  0.25923803797E+02  0.26195986850E+02  0.51100000000E-03 0. -1.
         12    1    3    3    0    0 -0.64348484883E+01 -0.13821147831E+02  0.26274988779E+01  0.15470460652E+02  0.00000000000E+00 0. -1.
</event>
<event>
 7    1  0.2746803E-013  0.5052882E+02  0.7816164E-02  0.1300439E+00
        -11   -1    0    0    0    0  0.00000000000E+00  0.00000000000E+00  0.45593999997E+02  0.45594000000E+02  0.51100000000E-03 0.  1.
         11   -1    0    0    0    0 -0.00000000000E+00 -0.00000000000E+00 -0.45593999997E+02  0.45594000000E+02  0.51100000000E-03 0. -1.
    9900012    2    1    2    0    0  0.13717432313E+02  0.31891020788E+02  0.21165160178E+02  0.50528817009E+02  0.29999869781E+02 0.  0.
         12    1    1    2    0    0 -0.13717432313E+02 -0.31891020788E+02 -0.21165160178E+02  0.40659182991E+02  0.00000000000E+00 0. -1.
         11    1    3    3    0    0  0.85194731655E+01  0.15732950537E+02 -0.15857888595E+01  0.17961678156E+02  0.51100000000E-03 0.  1.
        -11    1    3    3    0    0  0.32047364649E+01 -0.27735246993E+01  0.35422768516E+01  0.55236311084E+01  0.51100000000E-03 0. -1.
        -12    1    3    3    0    0  0.19932226821E+01  0.18931594950E+02  0.19208672186E+02  0.27043507745E+02  0.00000000000E+00 0.  1.
</event>
<event>
 7    1  0.2746803E-013  0.5052886E+02  0.7816164E-02  0.1300439E+00
        -11   -1    0    0    0    0  0.00000000000E+00  0.00000000000E+00  0.45593999997E+02  0.45594000000E+02  0.51100000000E-03 0.  1.
         11   -1    0    0    0    0 -0.00000000000E+00 -0.00000000000E+00 -0.45593999997E+02  0.45594000000E+02  0.51100000000E-03 0. -1.
    9900012    2    1    2    0    0  0.37955821644E+02  0.13965973900E+02 -0.41800934492E+01  0.50528855827E+02  0.29999987771E+02 0.  0.
         12    1    1    2    0    0 -0.37955821644E+02 -0.13965973900E+02  0.41800934492E+01  0.40659144173E+02  0.00000000000E+00 0. -1.
         11    1    3    3    0    0  0.49089413202E+01  0.47167221695E+01  0.54541453770E+01  0.87231230052E+01  0.51100000000E-03 0. -1.
        -11    1    3    3    0    0  0.28090618431E+02  0.10822417111E+02  0.83649007279E+00  0.30114901160E+02  0.51100000000E-03 0.  1.
         12    1    3    3    0    0  0.49562618923E+01 -0.15731653804E+01 -0.10470728899E+02  0.11690831661E+02  0.00000000000E+00 0. -1.
</event>
<event>
 7    1  0.2746803E-013  0.5052886E+02  0.7816164E-02  0.1300439E+00
        -11   -1    0    0    0    0  0.00000000000E+00  0.00000000000E+00  0.45593999997E+02  0.45594000000E+02  0.51100000000E-03 0. -1.
         11   -1    0    0    0    0 -0.00000000000E+00 -0.00000000000E+00 -0.45593999997E+02  0.45594000000E+02  0.51100000000E-03 0.  1.
    9900012    2    1    2    0    0 -0.82421124622E+01  0.17953449122E+02 -0.35537403995E+02  0.50528857905E+02  0.29999994087E+02 0.  0.
         12    1    1    2    0    0  0.82421124622E+01 -0.17953449122E+02  0.35537403995E+02  0.40659142095E+02  0.00000000000E+00 0. -1.
         11    1    3    3    0    0 -0.50645091109E+01  0.15473866842E+02 -0.33076929242E+01  0.16614169866E+02  0.51100000000E-03 0.  1.
        -11    1    3    3    0    0 -0.49782678442E+01  0.12334823629E-01 -0.75301840351E+01  0.90270136114E+01  0.51100000000E-03 0. -1.
        -12    1    3    3    0    0  0.18006644930E+01  0.24672474562E+01 -0.24699527036E+02  0.24887674428E+02  0.00000000000E+00 0.  1.
</event>
<event>
 7    1  0.2746803E-013  0.5052886E+02  0.7816164E-02  0.1300439E+00
        -11   -1    0    0    0    0  0.00000000000E+00  0.00000000000E+00  0.45593999997E+02  0.45594000000E+02  0.51100000000E-03 0.  1.
         11   -1    0    0    0    0 -0.00000000000E+00 -0.00000000000E+00 -0.45593999997E+02  0.45594000000E+02  0.51100000000E-03 0. -1.
    9900012    2    1    2    0    0 -0.30493515082E+02  0.11679722045E+02  0.24225918788E+02  0.50528861910E+02  0.30000006261E+02 0.  0.
         12    1    1    2    0    0  0.30493515082E+02 -0.11679722045E+02 -0.24225918788E+02  0.40659138090E+02  0.00000000000E+00 0. -1.
         11    1    3    3    0    0 -0.11607897633E+02 -0.55170562615E+01  0.23292054240E+01  0.13061638313E+02  0.51100000000E-03 0. -1.
        -11    1    3    3    0    0 -0.89324939547E+01 -0.26535088051E-01  0.12762534804E+02  0.15577947466E+02  0.51100000000E-03 0.  1.
        -12    1    3    3    0    0 -0.99531234950E+01  0.17223313394E+02  0.91341785603E+01  0.21889276131E+02  0.00000000000E+00 0.  1.
</event>
<event>
 7    1  0.2746803E-013  0.5052886E+02  0.7816164E-02  0.1300439E+00
        -11   -1    0    0    0    0  0.00000000000E+00  0.00000000000E+00  0.45593999997E+02  0.45594000000E+02  0.51100000000E-03 0. -1.
         11   -1    0    0    0    0 -0.00000000000E+00 -0.00000000000E+00 -0.45593999997E+02  0.45594000000E+02  0.51100000000E-03 0.  1.
    9900012    2    1    2    0    0 -0.19469358536E+02 -0.19415095795E+02 -0.29952697836E+02  0.50528856204E+02  0.29999988919E+02 0.  0.
         12    1    1    2    0    0  0.19469358536E+02  0.19415095795E+02  0.29952697836E+02  0.40659143796E+02  0.00000000000E+00 0. -1.
         11    1    3    3    0    0 -0.31195848443E+01  0.38402887231E+01 -0.10371250425E+02  0.11490973097E+02  0.51100000000E-03 0. -1.
        -11    1    3    3    0    0 -0.14940787573E+02 -0.95627266603E+01 -0.17848448982E+02  0.25164260486E+02  0.51100000000E-03 0.  1.
         12    1    3    3    0    0 -0.14089861188E+01 -0.13692657858E+02 -0.17329984296E+01  0.13873622622E+02  0.00000000000E+00 0. -1.
</event>
<event>
 7    1  0.2746803E-013  0.5052885E+02  0.7816164E-02  0.1300439E+00
        -11   -1    0    0    0    0  0.00000000000E+00  0.00000000000E+00  0.45593999997E+02  0.45594000000E+02  0.51100000000E-03 0.  1.
         11   -1    0    0    0    0 -0.00000000000E+00 -0.00000000000E+00 -0.45593999997E+02  0.45594000000E+02  0.51100000000E-03 0. -1.
    9900012    2    1    2    0    0  0.14267541779E+02 -0.13549353501E+02  0.35581153047E+02  0.50528853663E+02  0.29999981193E+02 0.  0.
         12    1    1    2    0    0 -0.14267541779E+02  0.13549353501E+02 -0.35581153047E+02  0.40659146337E+02  0.00000000000E+00 0. -1.
         11    1    3    3    0    0 -0.50304962595E+00 -0.12469927130E+02  0.26098648216E+02  0.28929078459E+02  0.51100000000E-03 0. -1.
        -11    1    3    3    0    0  0.21174169730E+01 -0.42207188941E+01  0.68171165335E+01  0.82928282699E+01  0.51100000000E-03 0.  1.
         12    1    3    3    0    0  0.12653174432E+02  0.31412925226E+01  0.26653882977E+01  0.13306946934E+02  0.00000000000E+00 0. -1.
</event>
<event>
 7    1  0.2746803E-013  0.5052886E+02  0.7816164E-02  0.1300439E+00
        -11   -1    0    0    0    0  0.00000000000E+00  0.00000000000E+00  0.45593999997E+02  0.45594000000E+02  0.51100000000E-03 0. -1.
         11   -1    0    0    0    0 -0.00000000000E+00 -0.00000000000E+00 -0.45593999997E+02  0.45594000000E+02  0.51100000000E-03 0.  1.
    9900012    2    1    2    0    0 -0.24658762086E+02 -0.32144251417E+02 -0.34435755959E+01  0.50528860072E+02  0.30000000676E+02 0.  0.
         12    1    1    2    0    0  0.24658762086E+02  0.32144251417E+02  0.34435755959E+01  0.40659139928E+02  0.00000000000E+00 0. -1.
         11    1    3    3    0    0 -0.79542686159E+01  0.33216409828E-01  0.21728387059E+01  0.82457698760E+01  0.51100000000E-03 0. -1.
        -11    1    3    3    0    0 -0.68458888315E+01 -0.12361982331E+02 -0.12746534327E+02  0.19030473947E+02  0.51100000000E-03 0.  1.
         12    1    3    3    0    0 -0.98586046391E+01 -0.19815485495E+02  0.71301200252E+01  0.23252616249E+02  0.00000000000E+00 0. -1.
</event>
<event>
 7    1  0.2746803E-013  0.5052886E+02  0.7816164E-02  0.1300439E+00
        -11   -1    0    0    0    0  0.00000000000E+00  0.00000000000E+00  0.45593999997E+02  0.45594000000E+02  0.51100000000E-03 0.  1.
         11   -1    0    0    0    0 -0.00000000000E+00 -0.00000000000E+00 -0.45593999997E+02  0.45594000000E+02  0.51100000000E-03 0. -1.
    9900012    2    1    2    0    0  0.32887829441E+02  0.19747501412E+02 -0.13475615405E+02  0.50528863907E+02  0.30000012331E+02 0.  0.
         12    1    1    2    0    0 -0.32887829441E+02 -0.19747501412E+02  0.13475615405E+02  0.40659136093E+02  0.00000000000E+00 0. -1.
         11    1    3    3    0    0  0.37125085613E+01  0.35005207920E+01  0.42358458035E+01  0.66316480279E+01  0.51100000000E-03 0. -1.
        -11    1    3    3    0    0  0.28649616777E+02  0.14777094782E+02 -0.68905282329E+01  0.32964260211E+02  0.51100000000E-03 0.  1.
         12    1    3    3    0    0  0.52570410264E+00  0.14698858373E+01 -0.10820932976E+02  0.10932955668E+02  0.00000000000E+00 0. -1.
</event>
<event>
 7    1  0.2746803E-013  0.5052885E+02  0.7816164E-02  0.1300439E+00
        -11   -1    0    0    0    0  0.00000000000E+00  0.00000000000E+00  0.45593999997E+02  0.45594000000E+02  0.51100000000E-03 0.  1.
         11   -1    0    0    0    0 -0.00000000000E+00 -0.00000000000E+00 -0.45593999997E+02  0.45594000000E+02  0.51100000000E-03 0. -1.
    9900012    2    1    2    0    0 -0.20206034002E+01  0.31122987922E+02  0.26085300093E+02  0.50528854704E+02  0.29999984358E+02 0.  0.
         12    1    1    2    0    0  0.20206034002E+01 -0.31122987922E+02 -0.26085300093E+02  0.40659145296E+02  0.00000000000E+00 0. -1.
         11    1    3    3    0    0 -0.55683239550E+01  0.10577118219E+02 -0.59938852936E+00  0.11968330224E+02  0.51100000000E-03 0. -1.
        -11    1    3    3    0    0 -0.28487820152E+01  0.20601981201E+02  0.16565142816E+02  0.26588740947E+02  0.51100000000E-03 0.  1.
        -12    1    3    3    0    0  0.63965025700E+01 -0.56111498228E-01  0.10119545806E+02  0.11971783533E+02  0.00000000000E+00 0.  1.
</event>
<event>
 7    1  0.2746803E-013  0.5052887E+02  0.7816164E-02  0.1300439E+00
        -11   -1    0    0    0    0  0.00000000000E+00  0.00000000000E+00  0.45593999997E+02  0.45594000000E+02  0.51100000000E-03 0.  1.
         11   -1    0    0    0    0 -0.00000000000E+00 -0.00000000000E+00 -0.45593999997E+02  0.45594000000E+02  0.51100000000E-03 0. -1.
    9900012    2    1    2    0    0  0.31556340851E+02  0.22437923701E+02  0.12405712693E+02  0.50528870947E+02  0.30000033732E+02 0.  0.
         12    1    1    2    0    0 -0.31556340851E+02 -0.22437923701E+02 -0.12405712693E+02  0.40659129053E+02  0.00000000000E+00 0. -1.
         11    1    3    3    0    0  0.90886404072E+01  0.87694515950E+01  0.11065538079E+02  0.16791450175E+02  0.51100000000E-03 0. -1.
        -11    1    3    3    0    0  0.24422198931E+02  0.16076133489E+02  0.41760452769E+01  0.29535152327E+02  0.51100000000E-03 0.  1.
         12    1    3    3    0    0 -0.19544984871E+01 -0.24076613832E+01 -0.28358706630E+01  0.42022684457E+01  0.00000000000E+00 0. -1.
</event>
<event>
 7    1  0.2746803E-013  0.5052886E+02  0.7816164E-02  0.1300439E+00
        -11   -1    0    0    0    0  0.00000000000E+00  0.00000000000E+00  0.45593999997E+02  0.45594000000E+02  0.51100000000E-03 0.  1.
         11   -1    0    0    0    0 -0.00000000000E+00 -0.00000000000E+00 -0.45593999997E+02  0.45594000000E+02  0.51100000000E-03 0. -1.
    9900012    2    1    2    0    0 -0.24059811773E+02  0.28736381429E+01  0.32650159853E+02  0.50528864776E+02  0.30000014972E+02 0.  0.
         12    1    1    2    0    0  0.24059811773E+02 -0.28736381429E+01 -0.32650159853E+02  0.40659135224E+02  0.00000000000E+00 0. -1.
         11    1    3    3    0    0 -0.18551072292E+02  0.65985228160E+01  0.96609374818E+01  0.21932088360E+02  0.51100000000E-03 0. -1.
        -11    1    3    3    0    0  0.76086625578E+00  0.49317329917E+00 -0.21569490004E+01  0.23397791805E+01  0.51100000000E-03 0.  1.
        -12    1    3    3    0    0 -0.62696057372E+01 -0.42180579722E+01  0.25146171372E+02  0.26256997236E+02  0.00000000000E+00 0.  1.
</event>
<event>
 7    1  0.2746803E-013  0.5052886E+02  0.7816164E-02  0.1300439E+00
        -11   -1    0    0    0    0  0.00000000000E+00  0.00000000000E+00  0.45593999997E+02  0.45594000000E+02  0.51100000000E-03 0.  1.
         11   -1    0    0    0    0 -0.00000000000E+00 -0.00000000000E+00 -0.45593999997E+02  0.45594000000E+02  0.51100000000E-03 0. -1.
    9900012    2    1    2    0    0 -0.38045813548E+02  0.11265440940E+02  0.88753348312E+01  0.50528860112E+02  0.30000000795E+02 0.  0.
         12    1    1    2    0    0  0.38045813548E+02 -0.11265440940E+02 -0.88753348312E+01  0.40659139888E+02  0.00000000000E+00 0. -1.
         11    1    3    3    0    0 -0.29903651311E+02 -0.38081837091E-01 -0.27614873476E+01  0.30030911152E+02  0.51100000000E-03 0. -1.
        -11    1    3    3    0    0  0.95036309345E+00 -0.15149077121E-01  0.39646035621E+01  0.40769475309E+01  0.51100000000E-03 0.  1.
        -12    1    3    3    0    0 -0.90925253300E+01  0.11318671855E+02  0.76722186166E+01  0.16421001429E+02  0.00000000000E+00 0.  1.
</event>
<event>
 7    1  0.2746803E-013  0.5052886E+02  0.7816164E-02  0.1300439E+00
        -11   -1    0    0    0    0  0.00000000000E+00  0.00000000000E+00  0.45593999997E+02  0.45594000000E+02  0.51100000000E-03 0.  1.
         11   -1    0    0    0    0 -0.00000000000E+00 -0.00000000000E+00 -0.45593999997E+02  0.45594000000E+02  0.51100000000E-03 0. -1.
    9900012    2    1    2    0    0 -0.15463269838E+02  0.34779067232E+02  0.14299291318E+02  0.50528856332E+02  0.29999989307E+02 0.  0.
         12    1    1    2    0    0  0.15463269838E+02 -0.34779067232E+02 -0.14299291318E+02  0.40659143668E+02  0.00000000000E+00 0. -1.
         11    1    3    3    0    0 -0.41613165354E+01 -0.20784496769E+01 -0.25454258315E+01  0.53024240958E+01  0.51100000000E-03 0. -1.
        -11    1    3    3    0    0 -0.11982212669E+02  0.17086479151E+02  0.14259315280E+02  0.25275467607E+02  0.51100000000E-03 0.  1.
        -12    1    3    3    0    0  0.68025936686E+00  0.19771037757E+02  0.25854018694E+01  0.19950964629E+02  0.00000000000E+00 0.  1.
</event>
<event>
 7    1  0.2746803E-013  0.5052884E+02  0.7816164E-02  0.1300439E+00
        -11   -1    0    0    0    0  0.00000000000E+00  0.00000000000E+00  0.45593999997E+02  0.45594000000E+02  0.51100000000E-03 0. -1.
         11   -1    0    0    0    0 -0.00000000000E+00 -0.00000000000E+00 -0.45593999997E+02  0.45594000000E+02  0.51100000000E-03 0.  1.
    9900012    2    1    2    0    0 -0.25682046008E+02  0.18407590139E+02 -0.25588279225E+02  0.50528844874E+02  0.29999954478E+02 0.  0.
         12    1    1    2    0    0  0.25682046008E+02 -0.18407590139E+02  0.25588279225E+02  0.40659155126E+02  0.00000000000E+00 0. -1.
         11    1    3    3    0    0 -0.21960725500E+02  0.36794262803E+01 -0.13915796533E+02  0.26257590058E+02  0.51100000000E-03 0. -1.
        -11    1    3    3    0    0 -0.59269298783E+01  0.32887993737E+01  0.12283369324E+01  0.68886508826E+01  0.51100000000E-03 0.  1.
        -12    1    3    3    0    0  0.22056093702E+01  0.11439364485E+02 -0.12900819624E+02  0.17382603933E+02  0.00000000000E+00 0.  1.
</event>
<event>
 7    1  0.2746803E-013  0.5052885E+02  0.7816164E-02  0.1300439E+00
        -11   -1    0    0    0    0  0.00000000000E+00  0.00000000000E+00  0.45593999997E+02  0.45594000000E+02  0.51100000000E-03 0.  1.
         11   -1    0    0    0    0 -0.00000000000E+00 -0.00000000000E+00 -0.45593999997E+02  0.45594000000E+02  0.51100000000E-03 0. -1.
    9900012    2    1    2    0    0  0.14703707693E+02 -0.97306368119E+01  0.36637172237E+02  0.50528847252E+02  0.29999961706E+02 0.  0.
         12    1    1    2    0    0 -0.14703707693E+02  0.97306368119E+01 -0.36637172237E+02  0.40659152748E+02  0.00000000000E+00 0. -1.
         11    1    3    3    0    0 -0.85079842624E+00  0.52425305329E+01  0.66668482358E+01  0.85237814384E+01  0.51100000000E-03 0. -1.
        -11    1    3    3    0    0 -0.11429613682E+01 -0.12484668818E+02  0.13381620109E+02  0.18336877411E+02  0.51100000000E-03 0.  1.
         12    1    3    3    0    0  0.16697467488E+02 -0.24884985271E+01  0.16588703893E+02  0.23668188402E+02  0.00000000000E+00 0. -1.
</event>
<event>
 7    1  0.2746803E-013  0.5052883E+02  0.7816164E-02  0.1300439E+00
        -11   -1    0    0    0    0  0.00000000000E+00  0.00000000000E+00  0.45593999997E+02  0.45594000000E+02  0.51100000000E-03 0.  1.
         11   -1    0    0    0    0 -0.00000000000E+00 -0.00000000000E+00 -0.45593999997E+02  0.45594000000E+02  0.51100000000E-03 0. -1.
    9900012    2    1    2    0    0 -0.28918817532E+02 -0.19463678486E+01  0.28514587812E+02  0.50528830391E+02  0.29999910456E+02 0.  0.
         12    1    1    2    0    0  0.28918817532E+02  0.19463678486E+01 -0.28514587812E+02  0.40659169609E+02  0.00000000000E+00 0. -1.
         11    1    3    3    0    0 -0.86109714496E+01 -0.44254909801E+01  0.58666569217E+00  0.96993802182E+01  0.51100000000E-03 0.  1.
        -11    1    3    3    0    0 -0.19098638000E+02 -0.66851692737E+01  0.16354874720E+02  0.26017905162E+02  0.51100000000E-03 0. -1.
        -12    1    3    3    0    0 -0.12092080820E+01  0.91642924052E+01  0.11573047400E+02  0.14811545010E+02  0.00000000000E+00 0.  1.
</event>
<event>
 7    1  0.2746803E-013  0.5052886E+02  0.7816164E-02  0.1300439E+00
        -11   -1    0    0    0    0  0.00000000000E+00  0.00000000000E+00  0.45593999997E+02  0.45594000000E+02  0.51100000000E-03 0. -1.
         11   -1    0    0    0    0 -0.00000000000E+00 -0.00000000000E+00 -0.45593999997E+02  0.45594000000E+02  0.51100000000E-03 0.  1.
    9900012    2    1    2    0    0 -0.24437873053E+02 -0.30476564819E+01 -0.32352245522E+02  0.50528860318E+02  0.30000001423E+02 0.  0.
         12    1    1    2    0    0  0.24437873053E+02  0.30476564819E+01  0.32352245522E+02  0.40659139682E+02  0.00000000000E+00 0. -1.
         11    1    3    3    0    0  0.17699767969E+01 -0.39905260863E+00  0.25661578052E+01  0.31428055919E+01  0.51100000000E-03 0. -1.
        -11    1    3    3    0    0 -0.75178736922E+01  0.62533687514E+01 -0.49433908261E+01  0.10957196663E+02  0.51100000000E-03 0.  1.
        -12    1    3    3    0    0 -0.18689976157E+02 -0.89019726247E+01 -0.29975012501E+02  0.36428858063E+02  0.00000000000E+00 0.  1.
</event>
<event>
 7    1  0.2746803E-013  0.5052886E+02  0.7816164E-02  0.1300439E+00
        -11   -1    0    0    0    0  0.00000000000E+00  0.00000000000E+00  0.45593999997E+02  0.45594000000E+02  0.51100000000E-03 0. -1.
         11   -1    0    0    0    0 -0.00000000000E+00 -0.00000000000E+00 -0.45593999997E+02  0.45594000000E+02  0.51100000000E-03 0.  1.
    9900012    2    1    2    0    0 -0.23536122340E+02 -0.76103370638E+01 -0.32269175402E+02  0.50528856303E+02  0.29999989219E+02 0.  0.
         12    1    1    2    0    0  0.23536122340E+02  0.76103370638E+01  0.32269175402E+02  0.40659143697E+02  0.00000000000E+00 0. -1.
         11    1    3    3    0    0 -0.71469686892E+01 -0.13832662979E+02 -0.74423852645E+01  0.17257196331E+02  0.51100000000E-03 0. -1.
        -11    1    3    3    0    0 -0.19417292060E+01  0.12859611809E+01  0.15481287456E+01  0.27965534756E+01  0.51100000000E-03 0.  1.
        -12    1    3    3    0    0 -0.14447424445E+02  0.49363647342E+01 -0.26374918883E+02  0.30475106496E+02  0.00000000000E+00 0.  1.
</event>
<event>
 7    1  0.2746803E-013  0.5052884E+02  0.7816164E-02  0.1300439E+00
        -11   -1    0    0    0    0  0.00000000000E+00  0.00000000000E+00  0.45593999997E+02  0.45594000000E+02  0.51100000000E-03 0.  1.
         11   -1    0    0    0    0 -0.00000000000E+00 -0.00000000000E+00 -0.45593999997E+02  0.45594000000E+02  0.51100000000E-03 0. -1.
    9900012    2    1    2    0    0  0.31769052570E+01  0.40464137651E+02 -0.23933482546E+01  0.50528840162E+02  0.29999940158E+02 0.  0.
         12    1    1    2    0    0 -0.31769052570E+01 -0.40464137651E+02  0.23933482546E+01  0.40659159838E+02  0.00000000000E+00 0. -1.
         11    1    3    3    0    0 -0.37472338875E+01  0.41068625774E+01  0.33067590207E+01  0.64685962557E+01  0.51100000000E-03 0. -1.
        -11    1    3    3    0    0 -0.72909185365E+01  0.21934403175E+02 -0.57116634355E+01  0.23809633244E+02  0.51100000000E-03 0.  1.
         12    1    3    3    0    0  0.14215057681E+02  0.14422871898E+02  0.11556160144E-01  0.20250610663E+02  0.00000000000E+00 0. -1.
</event>
<event>
 7    1  0.2746803E-013  0.5052888E+02  0.7816164E-02  0.1300439E+00
        -11   -1    0    0    0    0  0.00000000000E+00  0.00000000000E+00  0.45593999997E+02  0.45594000000E+02  0.51100000000E-03 0. -1.
         11   -1    0    0    0    0 -0.00000000000E+00 -0.00000000000E+00 -0.45593999997E+02  0.45594000000E+02  0.51100000000E-03 0.  1.
    9900012    2    1    2    0    0  0.57787225830E+01 -0.38005673045E+02 -0.13241557398E+02  0.50528884656E+02  0.30000075399E+02 0.  0.
         12    1    1    2    0    0 -0.57787225830E+01  0.38005673045E+02  0.13241557398E+02  0.40659115344E+02  0.00000000000E+00 0. -1.
         11    1    3    3    0    0  0.93640997711E+01 -0.10470463079E+02  0.22715552542E+01  0.14229438680E+02  0.51100000000E-03 0. -1.
        -11    1    3    3    0    0  0.81712472186E+00 -0.28187252382E+02 -0.12075220002E+02  0.30675720497E+02  0.51100000000E-03 0.  1.
         12    1    3    3    0    0 -0.44025019099E+01  0.65204241651E+00 -0.34378926511E+01  0.56237254788E+01  0.00000000000E+00 0. -1.
</event>
<event>
 7    1  0.2746803E-013  0.5052887E+02  0.7816164E-02  0.1300439E+00
        -11   -1    0    0    0    0  0.00000000000E+00  0.00000000000E+00  0.45593999997E+02  0.45594000000E+02  0.51100000000E-03 0. -1.
         11   -1    0    0    0    0 -0.00000000000E+00 -0.00000000000E+00 -0.45593999997E+02  0.45594000000E+02  0.51100000000E-03 0.  1.
    9900012    2    1    2    0    0 -0.33234113981E+02 -0.34470031432E+01 -0.23168448675E+02  0.50528866011E+02  0.30000018727E+02 0.  0.
         12    1    1    2    0    0  0.33234113981E+02  0.34470031432E+01  0.23168448675E+02  0.40659133989E+02  0.00000000000E+00 0. -1.
         11    1    3    3    0    0 -0.13551518946E+02  0.15865322685E+01 -0.17445463705E+02  0.22147346444E+02  0.51100000000E-03 0.  1.
        -11    1    3    3    0    0 -0.11104494691E+02  0.67413678706E+01 -0.45571647403E+01  0.13766756838E+02  0.51100000000E-03 0. -1.
         12    1    3    3    0    0 -0.85781003439E+01 -0.11774903282E+02 -0.11658202297E+01  0.14614762729E+02  0.00000000000E+00 0. -1.
</event>
<event>
 7    1  0.2746803E-013  0.5052886E+02  0.7816164E-02  0.1300439E+00
        -11   -1    0    0    0    0  0.00000000000E+00  0.00000000000E+00  0.45593999997E+02  0.45594000000E+02  0.51100000000E-03 0. -1.
         11   -1    0    0    0    0 -0.00000000000E+00 -0.00000000000E+00 -0.45593999997E+02  0.45594000000E+02  0.51100000000E-03 0.  1.
    9900012    2    1    2    0    0 -0.21552409287E+02 -0.27787926408E+02  0.20408096632E+02  0.50528860704E+02  0.30000002597E+02 0.  0.
         12    1    1    2    0    0  0.21552409287E+02  0.27787926408E+02 -0.20408096632E+02  0.40659139296E+02  0.00000000000E+00 0. -1.
         11    1    3    3    0    0 -0.14516328498E+02 -0.34148707454E+01  0.90948172449E+00  0.14940290912E+02  0.51100000000E-03 0. -1.
        -11    1    3    3    0    0 -0.11978146206E+02 -0.18782455080E+02  0.13868938985E+02  0.26241266627E+02  0.51100000000E-03 0.  1.
         12    1    3    3    0    0  0.49420654171E+01 -0.55906005826E+01  0.56296759228E+01  0.93473031649E+01  0.00000000000E+00 0. -1.
</event>
<event>
 7    1  0.2746803E-013  0.5052886E+02  0.7816164E-02  0.1300439E+00
        -11   -1    0    0    0    0  0.00000000000E+00  0.00000000000E+00  0.45593999997E+02  0.45594000000E+02  0.51100000000E-03 0.  1.
         11   -1    0    0    0    0 -0.00000000000E+00 -0.00000000000E+00 -0.45593999997E+02  0.45594000000E+02  0.51100000000E-03 0. -1.
    9900012    2    1    2    0    0 -0.20999784376E+02  0.67501064965E+00  0.34809750623E+02  0.50528864228E+02  0.30000013309E+02 0.  0.
         12    1    1    2    0    0  0.20999784376E+02 -0.67501064965E+00 -0.34809750623E+02  0.40659135772E+02  0.00000000000E+00 0. -1.
         11    1    3    3    0    0 -0.35683720944E+01  0.49250394404E+01 -0.53697163513E+00  0.61055410646E+01  0.51100000000E-03 0. -1.
        -11    1    3    3    0    0  0.76528630564E+00 -0.66796228130E+01  0.17803320652E+02  0.19030534689E+02  0.51100000000E-03 0.  1.
        -12    1    3    3    0    0 -0.18196698587E+02  0.24295940222E+01  0.17543401606E+02  0.25392788475E+02  0.00000000000E+00 0.  1.
</event>
<event>
 7    1  0.2746803E-013  0.5052887E+02  0.7816164E-02  0.1300439E+00
        -11   -1    0    0    0    0  0.00000000000E+00  0.00000000000E+00  0.45593999997E+02  0.45594000000E+02  0.51100000000E-03 0.  1.
         11   -1    0    0    0    0 -0.00000000000E+00 -0.00000000000E+00 -0.45593999997E+02  0.45594000000E+02  0.51100000000E-03 0. -1.
    9900012    2    1    2    0    0  0.45811529325E+01 -0.22152756222E+02  0.33785100063E+02  0.50528873636E+02  0.30000041904E+02 0.  0.
         12    1    1    2    0    0 -0.45811529325E+01  0.22152756222E+02 -0.33785100063E+02  0.40659126364E+02  0.00000000000E+00 0. -1.
         11    1    3    3    0    0  0.30252213303E+01 -0.43036758587E+01  0.63483517940E+00  0.52987362607E+01  0.51100000000E-03 0. -1.
        -11    1    3    3    0    0 -0.10626263789E+02 -0.14763385220E+02  0.18940833186E+02  0.26260810866E+02  0.51100000000E-03 0.  1.
         12    1    3    3    0    0  0.12182195391E+02 -0.30856951430E+01  0.14209431698E+02  0.18969326510E+02  0.00000000000E+00 0. -1.
</event>
<event>
 7    1  0.2746803E-013  0.5052886E+02  0.7816164E-02  0.1300439E+00
        -11   -1    0    0    0    0  0.00000000000E+00  0.00000000000E+00  0.45593999997E+02  0.45594000000E+02  0.51100000000E-03 0.  1.
         11   -1    0    0    0    0 -0.00000000000E+00 -0.00000000000E+00 -0.45593999997E+02  0.45594000000E+02  0.51100000000E-03 0. -1.
    9900012    2    1    2    0    0 -0.59099793622E+01 -0.39104837136E+02  0.94365984567E+01  0.50528861618E+02  0.30000005374E+02 0.  0.
         12    1    1    2    0    0  0.59099793622E+01  0.39104837136E+02 -0.94365984567E+01  0.40659138382E+02  0.00000000000E+00 0. -1.
         11    1    3    3    0    0  0.18415770010E+01 -0.18551976047E+02 -0.16846225631E+01  0.18719112547E+02  0.51100000000E-03 0. -1.
        -11    1    3    3    0    0  0.67487441252E+01 -0.73938892669E+01  0.55747812997E+01  0.11458330269E+02  0.51100000000E-03 0.  1.
         12    1    3    3    0    0 -0.14500300488E+02 -0.13158971822E+02  0.55464397201E+01  0.20351418802E+02  0.00000000000E+00 0. -1.
</event>
<event>
 7    1  0.2746803E-013  0.5052885E+02  0.7816164E-02  0.1300439E+00
        -11   -1    0    0    0    0  0.00000000000E+00  0.00000000000E+00  0.45593999997E+02  0.45594000000E+02  0.51100000000E-03 0. -1.
         11   -1    0    0    0    0 -0.00000000000E+00 -0.00000000000E+00 -0.45593999997E+02  0.45594000000E+02  0.51100000000E-03 0.  1.
    9900012    2    1    2    0    0 -0.62429702752E+01 -0.71909183897E+00 -0.40170565476E+02  0.50528854638E+02  0.29999984157E+02 0.  0.
         12    1    1    2    0    0  0.62429702752E+01  0.71909183897E+00  0.40170565476E+02  0.40659145362E+02  0.00000000000E+00 0. -1.
         11    1    3    3    0    0  0.81588965473E+01 -0.11862470929E+01 -0.46523668946E+01  0.94667466966E+01  0.51100000000E-03 0. -1.
        -11    1    3    3    0    0 -0.71292854271E+01 -0.71210704509E+01 -0.18234582803E+02  0.20833539434E+02  0.51100000000E-03 0.  1.
        -12    1    3    3    0    0 -0.72725813953E+01  0.75882257048E+01 -0.17283615778E+02  0.20228568508E+02  0.00000000000E+00 0.  1.
</event>
<event>
 7    1  0.2746803E-013  0.5052886E+02  0.7816164E-02  0.1300439E+00
        -11   -1    0    0    0    0  0.00000000000E+00  0.00000000000E+00  0.45593999997E+02  0.45594000000E+02  0.51100000000E-03 0.  1.
         11   -1    0    0    0    0 -0.00000000000E+00 -0.00000000000E+00 -0.45593999997E+02  0.45594000000E+02  0.51100000000E-03 0. -1.
    9900012    2    1    2    0    0  0.39309967428E+01  0.25636186912E+02  0.31312920265E+02  0.50528858466E+02  0.29999995794E+02 0.  0.
         12    1    1    2    0    0 -0.39309967428E+01 -0.25636186912E+02 -0.31312920265E+02  0.40659141534E+02  0.00000000000E+00 0. -1.
         11    1    3    3    0    0 -0.78209113887E+01  0.53959348288E+00  0.15698774520E+02  0.17547345605E+02  0.51100000000E-03 0. -1.
        -11    1    3    3    0    0  0.15258525832E+01  0.13515688795E+02  0.73687907042E+01  0.15469361538E+02  0.51100000000E-03 0.  1.
        -12    1    3    3    0    0  0.10226055548E+02  0.11580904634E+02  0.82453550399E+01  0.17512151323E+02  0.00000000000E+00 0.  1.
</event>
<event>
 7    1  0.2746803E-013  0.5052886E+02  0.7816164E-02  0.1300439E+00
        -11   -1    0    0    0    0  0.00000000000E+00  0.00000000000E+00  0.45593999997E+02  0.45594000000E+02  0.51100000000E-03 0. -1.
         11   -1    0    0    0    0 -0.00000000000E+00 -0.00000000000E+00 -0.45593999997E+02  0.45594000000E+02  0.51100000000E-03 0.  1.
    9900012    2    1    2    0    0 -0.69735779979E+00 -0.40400646609E+02  0.45240221418E+01  0.50528864118E+02  0.30000012972E+02 0.  0.
         12    1    1    2    0    0  0.69735779979E+00  0.40400646609E+02 -0.45240221418E+01  0.40659135882E+02  0.00000000000E+00 0. -1.
         11    1    3    3    0    0 -0.11596984475E+02 -0.15547581424E+02  0.28280646508E+01  0.19601410331E+02  0.51100000000E-03 0. -1.
        -11    1    3    3    0    0 -0.22356493568E+01 -0.49873104506E+00  0.23055856511E+01  0.32500132549E+01  0.51100000000E-03 0.  1.
        -12    1    3    3    0    0  0.13135276032E+02 -0.24354334140E+02 -0.60962816015E+00  0.27677440531E+02  0.00000000000E+00 0.  1.
</event>
<event>
 7    1  0.2746803E-013  0.5052886E+02  0.7816164E-02  0.1300439E+00
        -11   -1    0    0    0    0  0.00000000000E+00  0.00000000000E+00  0.45593999997E+02  0.45594000000E+02  0.51100000000E-03 0. -1.
         11   -1    0    0    0    0 -0.00000000000E+00 -0.00000000000E+00 -0.45593999997E+02  0.45594000000E+02  0.51100000000E-03 0.  1.
    9900012    2    1    2    0    0  0.77197185858E+01  0.39620421714E+02  0.48778723637E+01  0.50528861905E+02  0.30000006246E+02 0.  0.
         12    1    1    2    0    0 -0.77197185858E+01 -0.39620421714E+02 -0.48778723637E+01  0.40659138095E+02  0.00000000000E+00 0. -1.
         11    1    3    3    0    0  0.99728021377E+01  0.76092650058E+01 -0.15928416225E+01  0.12644953187E+02  0.51100000000E-03 0. -1.
        -11    1    3    3    0    0  0.22315682260E+01  0.22197641466E+02 -0.42083849911E+01  0.22702988524E+02  0.51100000000E-03 0.  1.
         12    1    3    3    0    0 -0.44846517779E+01  0.98135152419E+01  0.10679098977E+02  0.15180920194E+02  0.00000000000E+00 0. -1.
</event>
<event>
 7    1  0.2746803E-013  0.5052885E+02  0.7816164E-02  0.1300439E+00
        -11   -1    0    0    0    0  0.00000000000E+00  0.00000000000E+00  0.45593999997E+02  0.45594000000E+02  0.51100000000E-03 0.  1.
         11   -1    0    0    0    0 -0.00000000000E+00 -0.00000000000E+00 -0.45593999997E+02  0.45594000000E+02  0.51100000000E-03 0. -1.
    9900012    2    1    2    0    0  0.41071469659E+01  0.37239924226E+02  0.15795111094E+02  0.50528854078E+02  0.29999982457E+02 0.  0.
         12    1    1    2    0    0 -0.41071469659E+01 -0.37239924226E+02 -0.15795111094E+02  0.40659145922E+02  0.00000000000E+00 0. -1.
         11    1    3    3    0    0  0.73995781756E+01  0.37518273905E+02  0.59855508084E+01  0.38706607353E+02  0.51100000000E-03 0.  1.
        -11    1    3    3    0    0 -0.38214865016E+01  0.40476577612E-01  0.26841770483E+01  0.46701396257E+01  0.51100000000E-03 0. -1.
        -12    1    3    3    0    0  0.52905529190E+00 -0.31882625655E+00  0.71253832377E+01  0.71521070999E+01  0.00000000000E+00 0.  1.
</event>
<event>
 7    1  0.2746803E-013  0.5052886E+02  0.7816164E-02  0.1300439E+00
        -11   -1    0    0    0    0  0.00000000000E+00  0.00000000000E+00  0.45593999997E+02  0.45594000000E+02  0.51100000000E-03 0.  1.
         11   -1    0    0    0    0 -0.00000000000E+00 -0.00000000000E+00 -0.45593999997E+02  0.45594000000E+02  0.51100000000E-03 0. -1.
    9900012    2    1    2    0    0  0.51018513800E+01  0.21934719277E+02  0.33852690884E+02  0.50528862314E+02  0.30000007491E+02 0.  0.
         12    1    1    2    0    0 -0.51018513800E+01 -0.21934719277E+02 -0.33852690884E+02  0.40659137686E+02  0.00000000000E+00 0. -1.
         11    1    3    3    0    0 -0.37361311995E+01 -0.20967183775E+00  0.91250671748E+01  0.98625295855E+01  0.51100000000E-03 0. -1.
        -11    1    3    3    0    0  0.12947608779E+02  0.98600313407E+01  0.22105244186E+02  0.27450002038E+02  0.51100000000E-03 0.  1.
         12    1    3    3    0    0 -0.41096261996E+01  0.12284359774E+02  0.26223795233E+01  0.13216330691E+02  0.00000000000E+00 0. -1.
</event>
<event>
 7    1  0.2746803E-013  0.5052886E+02  0.7816164E-02  0.1300439E+00
        -11   -1    0    0    0    0  0.00000000000E+00  0.00000000000E+00  0.45593999997E+02  0.45594000000E+02  0.51100000000E-03 0.  1.
         11   -1    0    0    0    0 -0.00000000000E+00 -0.00000000000E+00 -0.45593999997E+02  0.45594000000E+02  0.51100000000E-03 0. -1.
    9900012    2    1    2    0    0 -0.31835044789E+02  0.25278625502E+02  0.82859684628E+00  0.50528861339E+02  0.30000004525E+02 0.  0.
         12    1    1    2    0    0  0.31835044789E+02 -0.25278625502E+02 -0.82859684628E+00  0.40659138661E+02  0.00000000000E+00 0. -1.
         11    1    3    3    0    0 -0.17866400422E+02  0.17801649726E+02  0.11990613552E+02  0.27926364078E+02  0.51100000000E-03 0. -1.
        -11    1    3    3    0    0 -0.45861544148E+00  0.51615284149E+01 -0.44079253302E+00  0.52005770852E+01  0.51100000000E-03 0.  1.
         12    1    3    3    0    0 -0.13510028925E+02  0.23154473611E+01 -0.10721224172E+02  0.17401920175E+02  0.00000000000E+00 0. -1.
</event>
<event>
 7    1  0.2746803E-013  0.5052886E+02  0.7816164E-02  0.1300439E+00
        -11   -1    0    0    0    0  0.00000000000E+00  0.00000000000E+00  0.45593999997E+02  0.45594000000E+02  0.51100000000E-03 0.  1.
         11   -1    0    0    0    0 -0.00000000000E+00 -0.00000000000E+00 -0.45593999997E+02  0.45594000000E+02  0.51100000000E-03 0. -1.
    9900012    2    1    2    0    0 -0.26769570051E+02 -0.11536320748E+02  0.28345531480E+02  0.50528859183E+02  0.29999997973E+02 0.  0.
         12    1    1    2    0    0  0.26769570051E+02  0.11536320748E+02 -0.28345531480E+02  0.40659140817E+02  0.00000000000E+00 0. -1.
         11    1    3    3    0    0 -0.12160736976E+02 -0.83869176815E+01  0.12081730805E+02  0.19083818578E+02  0.51100000000E-03 0.  1.
        -11    1    3    3    0    0 -0.28913530235E+01 -0.11057829075E+01  0.18991325511E+02  0.19241962558E+02  0.51100000000E-03 0. -1.
         12    1    3    3    0    0 -0.11717480051E+02 -0.20436201588E+01 -0.27275248364E+01  0.12203078047E+02  0.00000000000E+00 0. -1.
</event>
<event>
 7    1  0.2746803E-013  0.5052886E+02  0.7816164E-02  0.1300439E+00
        -11   -1    0    0    0    0  0.00000000000E+00  0.00000000000E+00  0.45593999997E+02  0.45594000000E+02  0.51100000000E-03 0.  1.
         11   -1    0    0    0    0 -0.00000000000E+00 -0.00000000000E+00 -0.45593999997E+02  0.45594000000E+02  0.51100000000E-03 0. -1.
    9900012    2    1    2    0    0 -0.54055378409E+01 -0.10385539126E+02  0.38936953336E+02  0.50528860838E+02  0.30000003003E+02 0.  0.
         12    1    1    2    0    0  0.54055378409E+01  0.10385539126E+02 -0.38936953336E+02  0.40659139162E+02  0.00000000000E+00 0. -1.
         11    1    3    3    0    0  0.48414580654E+00  0.28513281281E+01  0.95701561579E+00  0.30463664267E+01  0.51100000000E-03 0. -1.
        -11    1    3    3    0    0  0.38630467624E+01 -0.17450898774E+02  0.23831368489E+02  0.29789110806E+02  0.51100000000E-03 0.  1.
         12    1    3    3    0    0 -0.97527304098E+01  0.42140315202E+01  0.14148569232E+02  0.17693383605E+02  0.00000000000E+00 0. -1.
</event>
<event>
 7    1  0.2746803E-013  0.5052881E+02  0.7816164E-02  0.1300439E+00
        -11   -1    0    0    0    0  0.00000000000E+00  0.00000000000E+00  0.45593999997E+02  0.45594000000E+02  0.51100000000E-03 0.  1.
         11   -1    0    0    0    0 -0.00000000000E+00 -0.00000000000E+00 -0.45593999997E+02  0.45594000000E+02  0.51100000000E-03 0. -1.
    9900012    2    1    2    0    0  0.29634596426E+02 -0.15571024824E+01 -0.27794522909E+02  0.50528814356E+02  0.29999861716E+02 0.  0.
         12    1    1    2    0    0 -0.29634596426E+02  0.15571024824E+01  0.27794522909E+02  0.40659185644E+02  0.00000000000E+00 0. -1.
         11    1    3    3    0    0  0.64544521777E+01 -0.52839596481E+01 -0.99752024195E-01  0.83420700791E+01  0.51100000000E-03 0. -1.
        -11    1    3    3    0    0  0.21675314169E+02 -0.52678303198E+01 -0.22537733416E+02  0.31709914986E+02  0.51100000000E-03 0.  1.
        -12    1    3    3    0    0  0.15048300791E+01  0.89946874855E+01 -0.51570374687E+01  0.10476829291E+02  0.00000000000E+00 0.  1.
</event>
<event>
 7    1  0.2746803E-013  0.5052886E+02  0.7816164E-02  0.1300439E+00
        -11   -1    0    0    0    0  0.00000000000E+00  0.00000000000E+00  0.45593999997E+02  0.45594000000E+02  0.51100000000E-03 0. -1.
         11   -1    0    0    0    0 -0.00000000000E+00 -0.00000000000E+00 -0.45593999997E+02  0.45594000000E+02  0.51100000000E-03 0.  1.
    9900012    2    1    2    0    0 -0.19604738799E+02  0.35147481029E+02  0.57857130899E+01  0.50528859797E+02  0.29999999839E+02 0.  0.
         12    1    1    2    0    0  0.19604738799E+02 -0.35147481029E+02 -0.57857130899E+01  0.40659140203E+02  0.00000000000E+00 0. -1.
         11    1    3    3    0    0  0.33861476384E+01  0.75341312206E+01 -0.17000677726E+01  0.84332294983E+01  0.51100000000E-03 0.  1.
        -11    1    3    3    0    0 -0.17767958017E+02  0.94428411370E+01 -0.32066905559E+01  0.20375240990E+02  0.51100000000E-03 0. -1.
         12    1    3    3    0    0 -0.52229284209E+01  0.18170508672E+02  0.10692471418E+02  0.21720389308E+02  0.00000000000E+00 0. -1.
</event>
<event>
 7    1  0.2746803E-013  0.5052886E+02  0.7816164E-02  0.1300439E+00
        -11   -1    0    0    0    0  0.00000000000E+00  0.00000000000E+00  0.45593999997E+02  0.45594000000E+02  0.51100000000E-03 0.  1.
         11   -1    0    0    0    0 -0.00000000000E+00 -0.00000000000E+00 -0.45593999997E+02  0.45594000000E+02  0.51100000000E-03 0. -1.
    9900012    2    1    2    0    0  0.36060265053E+02  0.13438796464E+02  0.13123328656E+02  0.50528859317E+02  0.29999998379E+02 0.  0.
         12    1    1    2    0    0 -0.36060265053E+02 -0.13438796464E+02 -0.13123328656E+02  0.40659140683E+02  0.00000000000E+00 0. -1.
         11    1    3    3    0    0  0.18374970788E+01  0.81431792008E+01  0.15237518714E+01  0.84858460413E+01  0.51100000000E-03 0. -1.
        -11    1    3    3    0    0  0.65785055147E+01 -0.43349876931E+01  0.99930808664E+01  0.12725192280E+02  0.51100000000E-03 0.  1.
        -12    1    3    3    0    0  0.27644262460E+02  0.96306049564E+01  0.16064959186E+01  0.29317820995E+02  0.00000000000E+00 0.  1.
</event>
<event>
 7    1  0.2746803E-013  0.5052886E+02  0.7816164E-02  0.1300439E+00
        -11   -1    0    0    0    0  0.00000000000E+00  0.00000000000E+00  0.45593999997E+02  0.45594000000E+02  0.51100000000E-03 0. -1.
         11   -1    0    0    0    0 -0.00000000000E+00 -0.00000000000E+00 -0.45593999997E+02  0.45594000000E+02  0.51100000000E-03 0.  1.
    9900012    2    1    2    0    0  0.19290848000E+02 -0.35650521293E+02 -0.31731660483E+01  0.50528862431E+02  0.30000007847E+02 0.  0.
         12    1    1    2    0    0 -0.19290848000E+02  0.35650521293E+02  0.31731660483E+01  0.40659137569E+02  0.00000000000E+00 0. -1.
         11    1    3    3    0    0  0.39135647773E+01 -0.15718256573E+02 -0.11422823707E+02  0.19820708379E+02  0.51100000000E-03 0. -1.
        -11    1    3    3    0    0  0.10648471187E+02 -0.21855167245E+02  0.55635358020E+01  0.24939751499E+02  0.51100000000E-03 0.  1.
         12    1    3    3    0    0  0.47288120359E+01  0.19229025248E+01  0.26861218566E+01  0.57684025535E+01  0.00000000000E+00 0. -1.
</event>
<event>
 7    1  0.2746803E-013  0.5052886E+02  0.7816164E-02  0.1300439E+00
        -11   -1    0    0    0    0  0.00000000000E+00  0.00000000000E+00  0.45593999997E+02  0.45594000000E+02  0.51100000000E-03 0.  1.
         11   -1    0    0    0    0 -0.00000000000E+00 -0.00000000000E+00 -0.45593999997E+02  0.45594000000E+02  0.51100000000E-03 0. -1.
    9900012    2    1    2    0    0  0.14840540496E+01 -0.38885942280E+02  0.11783315688E+02  0.50528862626E+02  0.30000008437E+02 0.  0.
         12    1    1    2    0    0 -0.14840540496E+01  0.38885942280E+02 -0.11783315688E+02  0.40659137374E+02  0.00000000000E+00 0. -1.
         11    1    3    3    0    0 -0.73831195974E+01 -0.63684403627E+00  0.19296378906E+01  0.76576450666E+01  0.51100000000E-03 0. -1.
        -11    1    3    3    0    0 -0.21849347288E+01 -0.11168430581E+02  0.72790892059E+01  0.13508994091E+02  0.51100000000E-03 0.  1.
        -12    1    3    3    0    0  0.11052108376E+02 -0.27080667663E+02  0.25745885917E+01  0.29362223469E+02  0.00000000000E+00 0.  1.
</event>
<event>
 7    1  0.2746803E-013  0.5052886E+02  0.7816164E-02  0.1300439E+00
        -11   -1    0    0    0    0  0.00000000000E+00  0.00000000000E+00  0.45593999997E+02  0.45594000000E+02  0.51100000000E-03 0.  1.
         11   -1    0    0    0    0 -0.00000000000E+00 -0.00000000000E+00 -0.45593999997E+02  0.45594000000E+02  0.51100000000E-03 0. -1.
    9900012    2    1    2    0    0 -0.24993224509E+02 -0.23157430490E+02  0.22186435709E+02  0.50528858497E+02  0.29999995888E+02 0.  0.
         12    1    1    2    0    0  0.24993224509E+02  0.23157430490E+02 -0.22186435709E+02  0.40659141503E+02  0.00000000000E+00 0. -1.
         11    1    3    3    0    0 -0.13568397244E+02  0.32037005685E+00  0.59084425907E+01  0.14802490833E+02  0.51100000000E-03 0. -1.
        -11    1    3    3    0    0 -0.15129289212E+02 -0.14496825208E+02  0.15335124385E+02  0.25965734600E+02  0.51100000000E-03 0.  1.
        -12    1    3    3    0    0  0.37044619470E+01 -0.89809753394E+01  0.94286873281E+00  0.97606330641E+01  0.00000000000E+00 0.  1.
</event>
<event>
 7    1  0.2746803E-013  0.5052887E+02  0.7816164E-02  0.1300439E+00
        -11   -1    0    0    0    0  0.00000000000E+00  0.00000000000E+00  0.45593999997E+02  0.45594000000E+02  0.51100000000E-03 0.  1.
         11   -1    0    0    0    0 -0.00000000000E+00 -0.00000000000E+00 -0.45593999997E+02  0.45594000000E+02  0.51100000000E-03 0. -1.
    9900012    2    1    2    0    0  0.39415212153E+02  0.96419405132E+01  0.25766810229E+01  0.50528865097E+02  0.30000015949E+02 0.  0.
         12    1    1    2    0    0 -0.39415212153E+02 -0.96419405132E+01 -0.25766810229E+01  0.40659134903E+02  0.00000000000E+00 0. -1.
         11    1    3    3    0    0  0.57256332046E+01 -0.56179470848E+01 -0.52779913632E+00  0.80388293445E+01  0.51100000000E-03 0. -1.
        -11    1    3    3    0    0  0.16981189522E+02  0.38378391655E+01 -0.82694682999E+01  0.19273658533E+02  0.51100000000E-03 0.  1.
        -12    1    3    3    0    0  0.16708389427E+02  0.11422048432E+02  0.11373948459E+02  0.23216377219E+02  0.00000000000E+00 0.  1.
</event>
<event>
 7    1  0.2746803E-013  0.5052886E+02  0.7816164E-02  0.1300439E+00
        -11   -1    0    0    0    0  0.00000000000E+00  0.00000000000E+00  0.45593999997E+02  0.45594000000E+02  0.51100000000E-03 0. -1.
         11   -1    0    0    0    0 -0.00000000000E+00 -0.00000000000E+00 -0.45593999997E+02  0.45594000000E+02  0.51100000000E-03 0.  1.
    9900012    2    1    2    0    0 -0.10387078005E+02 -0.17703396211E+02 -0.35097926159E+02  0.50528855302E+02  0.29999986176E+02 0.  0.
         12    1    1    2    0    0  0.10387078005E+02  0.17703396211E+02  0.35097926159E+02  0.40659144698E+02  0.00000000000E+00 0. -1.
         11    1    3    3    0    0  0.48980926134E+01 -0.10996818677E+02 -0.10218345372E+02  0.15790374115E+02  0.51100000000E-03 0. -1.
        -11    1    3    3    0    0 -0.80904406969E+01 -0.93127518115E+01 -0.47772242962E+01  0.13228924719E+02  0.51100000000E-03 0.  1.
        -12    1    3    3    0    0 -0.71947299217E+01  0.26061742779E+01 -0.20102356491E+02  0.21509556469E+02  0.00000000000E+00 0.  1.
</event>
<event>
 7    1  0.2746803E-013  0.5052886E+02  0.7816164E-02  0.1300439E+00
        -11   -1    0    0    0    0  0.00000000000E+00  0.00000000000E+00  0.45593999997E+02  0.45594000000E+02  0.51100000000E-03 0.  1.
         11   -1    0    0    0    0 -0.00000000000E+00 -0.00000000000E+00 -0.45593999997E+02  0.45594000000E+02  0.51100000000E-03 0. -1.
    9900012    2    1    2    0    0  0.17812407655E+02  0.21445322213E+02  0.29596988587E+02  0.50528862716E+02  0.30000008710E+02 0.  0.
         12    1    1    2    0    0 -0.17812407655E+02 -0.21445322213E+02 -0.29596988587E+02  0.40659137284E+02  0.00000000000E+00 0. -1.
         11    1    3    3    0    0 -0.10504428030E+01  0.84051946231E+01  0.99384612142E+01  0.13058473812E+02  0.51100000000E-03 0. -1.
        -11    1    3    3    0    0  0.16496462906E+01 -0.44939528434E+00 -0.45416089804E+01  0.48527828508E+01  0.51100000000E-03 0.  1.
        -12    1    3    3    0    0  0.17213204168E+02  0.13489522875E+02  0.24200136353E+02  0.32617606053E+02  0.00000000000E+00 0.  1.
</event>
<event>
 7    1  0.2746803E-013  0.5052886E+02  0.7816164E-02  0.1300439E+00
        -11   -1    0    0    0    0  0.00000000000E+00  0.00000000000E+00  0.45593999997E+02  0.45594000000E+02  0.51100000000E-03 0. -1.
         11   -1    0    0    0    0 -0.00000000000E+00 -0.00000000000E+00 -0.45593999997E+02  0.45594000000E+02  0.51100000000E-03 0.  1.
    9900012    2    1    2    0    0  0.18577317904E+02 -0.36011490928E+02 -0.33498237148E+01  0.50528861565E+02  0.30000005214E+02 0.  0.
         12    1    1    2    0    0 -0.18577317904E+02  0.36011490928E+02  0.33498237148E+01  0.40659138435E+02  0.00000000000E+00 0. -1.
         11    1    3    3    0    0  0.14420987042E+02 -0.22278264794E+02  0.71192173602E+01  0.27476702960E+02  0.51100000000E-03 0. -1.
        -11    1    3    3    0    0  0.77211784999E+01 -0.14658624358E+02 -0.99678852257E+01  0.19335216617E+02  0.51100000000E-03 0.  1.
        -12    1    3    3    0    0 -0.35648476383E+01  0.92539822403E+00 -0.50115584933E+00  0.37169419880E+01  0.00000000000E+00 0.  1.
</event>
<event>
 7    1  0.2746803E-013  0.5052885E+02  0.7816164E-02  0.1300439E+00
        -11   -1    0    0    0    0  0.00000000000E+00  0.00000000000E+00  0.45593999997E+02  0.45594000000E+02  0.51100000000E-03 0.  1.
         11   -1    0    0    0    0 -0.00000000000E+00 -0.00000000000E+00 -0.45593999997E+02  0.45594000000E+02  0.51100000000E-03 0. -1.
    9900012    2    1    2    0    0  0.30976294571E+02  0.25725593933E+02  0.56417619335E+01  0.50528849908E+02  0.29999969779E+02 0.  0.
         12    1    1    2    0    0 -0.30976294571E+02 -0.25725593933E+02 -0.56417619335E+01  0.40659150092E+02  0.00000000000E+00 0. -1.
         11    1    3    3    0    0  0.14699018582E+02  0.21075214399E+02  0.34776102076E+01  0.25929126137E+02  0.51100000000E-03 0. -1.
        -11    1    3    3    0    0  0.11861481444E+02  0.44732911873E+01  0.96327726863E+01  0.15921538430E+02  0.51100000000E-03 0.  1.
        -12    1    3    3    0    0  0.44157945452E+01  0.17708834617E+00 -0.74686209604E+01  0.86781853401E+01  0.00000000000E+00 0.  1.
</event>
<event>
 7    1  0.2746803E-013  0.5052886E+02  0.7816164E-02  0.1300439E+00
        -11   -1    0    0    0    0  0.00000000000E+00  0.00000000000E+00  0.45593999997E+02  0.45594000000E+02  0.51100000000E-03 0. -1.
         11   -1    0    0    0    0 -0.00000000000E+00 -0.00000000000E+00 -0.45593999997E+02  0.45594000000E+02  0.51100000000E-03 0.  1.
    9900012    2    1    2    0    0 -0.19221409986E+01  0.27211611697E+02 -0.30149607888E+02  0.50528864581E+02  0.30000014381E+02 0.  0.
         12    1    1    2    0    0  0.19221409986E+01 -0.27211611697E+02  0.30149607888E+02  0.40659135419E+02  0.00000000000E+00 0. -1.
         11    1    3    3    0    0  0.36622099992E+01  0.78583540319E+01 -0.89788492952E+01  0.12481395959E+02  0.51100000000E-03 0.  1.
        -11    1    3    3    0    0  0.42407245807E+01 -0.32277544987E+01  0.35308006646E+00  0.53410495099E+01  0.51100000000E-03 0. -1.
        -12    1    3    3    0    0 -0.98250755786E+01  0.22581012164E+02 -0.21523838660E+02  0.32706419112E+02  0.00000000000E+00 0.  1.
</event>
<event>
 7    1  0.2746803E-013  0.5052886E+02  0.7816164E-02  0.1300439E+00
        -11   -1    0    0    0    0  0.00000000000E+00  0.00000000000E+00  0.45593999997E+02  0.45594000000E+02  0.51100000000E-03 0.  1.
         11   -1    0    0    0    0 -0.00000000000E+00 -0.00000000000E+00 -0.45593999997E+02  0.45594000000E+02  0.51100000000E-03 0. -1.
    9900012    2    1    2    0    0  0.13302756154E+02  0.26357426849E+02  0.27955111994E+02  0.50528861323E+02  0.30000004476E+02 0.  0.
         12    1    1    2    0    0 -0.13302756154E+02 -0.26357426849E+02 -0.27955111994E+02  0.40659138677E+02  0.00000000000E+00 0. -1.
         11    1    3    3    0    0  0.83883322767E+01  0.52859049795E+01  0.18718527260E+02  0.21182260807E+02  0.51100000000E-03 0. -1.
        -11    1    3    3    0    0  0.41792032029E+01  0.15856873990E+02  0.14508312055E+02  0.21895143550E+02  0.51100000000E-03 0.  1.
         12    1    3    3    0    0  0.73522067422E+00  0.52146478801E+01 -0.52717273218E+01  0.74514569655E+01  0.00000000000E+00 0. -1.
</event>
<event>
 7    1  0.2746803E-013  0.5052892E+02  0.7816164E-02  0.1300439E+00
        -11   -1    0    0    0    0  0.00000000000E+00  0.00000000000E+00  0.45593999997E+02  0.45594000000E+02  0.51100000000E-03 0.  1.
         11   -1    0    0    0    0 -0.00000000000E+00 -0.00000000000E+00 -0.45593999997E+02  0.45594000000E+02  0.51100000000E-03 0. -1.
    9900012    2    1    2    0    0 -0.37197345723E+02  0.15609271058E+02  0.50861320325E+01  0.50528922159E+02  0.30000189394E+02 0.  0.
         12    1    1    2    0    0  0.37197345723E+02 -0.15609271058E+02 -0.50861320325E+01  0.40659077841E+02  0.00000000000E+00 0. -1.
         11    1    3    3    0    0  0.64499495974E+00  0.15696887779E-01 -0.31951212777E+01  0.32596111932E+01  0.51100000000E-03 0. -1.
        -11    1    3    3    0    0 -0.63483339301E+01 -0.41420231799E+01  0.66225534234E+01  0.10065580650E+02  0.51100000000E-03 0.  1.
         12    1    3    3    0    0 -0.31494006753E+02  0.19735597350E+02  0.16586998868E+01  0.37203730316E+02  0.00000000000E+00 0. -1.
</event>
<event>
 7    1  0.2746803E-013  0.5052886E+02  0.7816164E-02  0.1300439E+00
        -11   -1    0    0    0    0  0.00000000000E+00  0.00000000000E+00  0.45593999997E+02  0.45594000000E+02  0.51100000000E-03 0. -1.
         11   -1    0    0    0    0 -0.00000000000E+00 -0.00000000000E+00 -0.45593999997E+02  0.45594000000E+02  0.51100000000E-03 0.  1.
    9900012    2    1    2    0    0 -0.89951136269E+01 -0.54978041199E+01 -0.39268664709E+02  0.50528856535E+02  0.29999989922E+02 0.  0.
         12    1    1    2    0    0  0.89951136269E+01  0.54978041199E+01  0.39268664709E+02  0.40659143465E+02  0.00000000000E+00 0. -1.
         11    1    3    3    0    0 -0.42776943277E+01 -0.77166717915E+01 -0.31987458034E+01  0.93849702863E+01  0.51100000000E-03 0. -1.
        -11    1    3    3    0    0  0.62125890202E+01 -0.38297530489E+01 -0.13662422303E+02  0.15489514330E+02  0.51100000000E-03 0.  1.
        -12    1    3    3    0    0 -0.10930008319E+02  0.60486207205E+01 -0.22407496603E+02  0.25654371918E+02  0.00000000000E+00 0.  1.
</event>
<event>
 7    1  0.2746803E-013  0.5052885E+02  0.7816164E-02  0.1300439E+00
        -11   -1    0    0    0    0  0.00000000000E+00  0.00000000000E+00  0.45593999997E+02  0.45594000000E+02  0.51100000000E-03 0. -1.
         11   -1    0    0    0    0 -0.00000000000E+00 -0.00000000000E+00 -0.45593999997E+02  0.45594000000E+02  0.51100000000E-03 0.  1.
    9900012    2    1    2    0    0 -0.21909211453E+02 -0.31890133823E+02 -0.12496879432E+02  0.50528853707E+02  0.29999981328E+02 0.  0.
         12    1    1    2    0    0  0.21909211453E+02  0.31890133823E+02  0.12496879432E+02  0.40659146293E+02  0.00000000000E+00 0. -1.
         11    1    3    3    0    0 -0.14936533789E+01 -0.11784577375E+02 -0.66625472563E+01  0.13619721015E+02  0.51100000000E-03 0. -1.
        -11    1    3    3    0    0 -0.80015672934E+01 -0.19230260456E+02  0.37981121730E+01  0.21172001622E+02  0.51100000000E-03 0.  1.
         12    1    3    3    0    0 -0.12413990781E+02 -0.87529599208E+00 -0.96324443487E+01  0.15737131070E+02  0.00000000000E+00 0. -1.
</event>
<event>
 7    1  0.2746803E-013  0.5052886E+02  0.7816164E-02  0.1300439E+00
        -11   -1    0    0    0    0  0.00000000000E+00  0.00000000000E+00  0.45593999997E+02  0.45594000000E+02  0.51100000000E-03 0. -1.
         11   -1    0    0    0    0 -0.00000000000E+00 -0.00000000000E+00 -0.45593999997E+02  0.45594000000E+02  0.51100000000E-03 0.  1.
    9900012    2    1    2    0    0  0.14701278769E+02 -0.12258721273E+02 -0.35871457753E+02  0.50528864175E+02  0.30000013147E+02 0.  0.
         12    1    1    2    0    0 -0.14701278769E+02  0.12258721273E+02  0.35871457753E+02  0.40659135825E+02  0.00000000000E+00 0. -1.
         11    1    3    3    0    0 -0.34301547972E+01  0.43080504817E+01 -0.29999540227E+01  0.62709636647E+01  0.51100000000E-03 0. -1.
        -11    1    3    3    0    0  0.83037725977E+01 -0.95889682746E+00 -0.20253320238E+02  0.21910479306E+02  0.51100000000E-03 0.  1.
         12    1    3    3    0    0  0.98276609681E+01 -0.15607874927E+02 -0.12618183493E+02  0.22347421205E+02  0.00000000000E+00 0. -1.
</event>
<event>
 7    1  0.2746803E-013  0.5052886E+02  0.7816164E-02  0.1300439E+00
        -11   -1    0    0    0    0  0.00000000000E+00  0.00000000000E+00  0.45593999997E+02  0.45594000000E+02  0.51100000000E-03 0.  1.
         11   -1    0    0    0    0 -0.00000000000E+00 -0.00000000000E+00 -0.45593999997E+02  0.45594000000E+02  0.51100000000E-03 0. -1.
    9900012    2    1    2    0    0 -0.15630269836E+02 -0.19009340836E+02  0.32365180937E+02  0.50528864356E+02  0.30000013697E+02 0.  0.
         12    1    1    2    0    0  0.15630269836E+02  0.19009340836E+02 -0.32365180937E+02  0.40659135644E+02  0.00000000000E+00 0. -1.
         11    1    3    3    0    0 -0.37065675975E+01  0.33630620370E+01 -0.34122069244E+01  0.60573910205E+01  0.51100000000E-03 0. -1.
        -11    1    3    3    0    0 -0.29740838428E+01 -0.11818677781E+02  0.12991932779E+02  0.17813383643E+02  0.51100000000E-03 0.  1.
        -12    1    3    3    0    0 -0.89496183962E+01 -0.10553725092E+02  0.22785455083E+02  0.26658089693E+02  0.00000000000E+00 0.  1.
</event>
<event>
 7    1  0.2746803E-013  0.5052886E+02  0.7816164E-02  0.1300439E+00
        -11   -1    0    0    0    0  0.00000000000E+00  0.00000000000E+00  0.45593999997E+02  0.45594000000E+02  0.51100000000E-03 0.  1.
         11   -1    0    0    0    0 -0.00000000000E+00 -0.00000000000E+00 -0.45593999997E+02  0.45594000000E+02  0.51100000000E-03 0. -1.
    9900012    2    1    2    0    0 -0.33823939724E+02  0.11419666766E+02  0.19460163185E+02  0.50528860330E+02  0.30000001459E+02 0.  0.
         12    1    1    2    0    0  0.33823939724E+02 -0.11419666766E+02 -0.19460163185E+02  0.40659139670E+02  0.00000000000E+00 0. -1.
         11    1    3    3    0    0 -0.12010951515E+02  0.62470347205E+01 -0.10374541559E+01  0.13578096718E+02  0.51100000000E-03 0.  1.
        -11    1    3    3    0    0 -0.18652127508E+02  0.12079246157E+02  0.18937700525E+02  0.29196687308E+02  0.51100000000E-03 0. -1.
         12    1    3    3    0    0 -0.31608607016E+01 -0.69066141118E+01  0.15599168158E+01  0.77540763045E+01  0.00000000000E+00 0. -1.
</event>
<event>
 7    1  0.2746803E-013  0.5052878E+02  0.7816164E-02  0.1300439E+00
        -11   -1    0    0    0    0  0.00000000000E+00  0.00000000000E+00  0.45593999997E+02  0.45594000000E+02  0.51100000000E-03 0.  1.
         11   -1    0    0    0    0 -0.00000000000E+00 -0.00000000000E+00 -0.45593999997E+02  0.45594000000E+02  0.51100000000E-03 0. -1.
    9900012    2    1    2    0    0 -0.50304173234E+01  0.15715101823E+02  0.37160503915E+02  0.50528775032E+02  0.29999742187E+02 0.  0.
         12    1    1    2    0    0  0.50304173234E+01 -0.15715101823E+02 -0.37160503915E+02  0.40659224968E+02  0.00000000000E+00 0. -1.
         11    1    3    3    0    0 -0.38982477307E+01  0.90150359144E+01  0.22593790812E+02  0.24636286072E+02  0.51100000000E-03 0.  1.
        -11    1    3    3    0    0  0.39002653468E+01 -0.39019723132E+01  0.12911175140E+02  0.14040509302E+02  0.51100000000E-03 0. -1.
         12    1    3    3    0    0 -0.50324349395E+01  0.10602038221E+02  0.16555379631E+01  0.11851979658E+02  0.00000000000E+00 0. -1.
</event>
<event>
 7    1  0.2746803E-013  0.5052884E+02  0.7816164E-02  0.1300439E+00
        -11   -1    0    0    0    0  0.00000000000E+00  0.00000000000E+00  0.45593999997E+02  0.45594000000E+02  0.51100000000E-03 0.  1.
         11   -1    0    0    0    0 -0.00000000000E+00 -0.00000000000E+00 -0.45593999997E+02  0.45594000000E+02  0.51100000000E-03 0. -1.
    9900012    2    1    2    0    0  0.85409019858E+01 -0.32821699227E+02  0.22426681793E+02  0.50528843552E+02  0.29999950460E+02 0.  0.
         12    1    1    2    0    0 -0.85409019858E+01  0.32821699227E+02 -0.22426681793E+02  0.40659156448E+02  0.00000000000E+00 0. -1.
         11    1    3    3    0    0 -0.18157239365E+01 -0.33360242984E+01 -0.64280829320E+01  0.74663352439E+01  0.51100000000E-03 0. -1.
        -11    1    3    3    0    0  0.20048899969E+01 -0.12091976181E+02  0.79250980026E+01  0.14595980627E+02  0.51100000000E-03 0.  1.
        -12    1    3    3    0    0  0.83517359253E+01 -0.17393698747E+02  0.20929666722E+02  0.28466527680E+02  0.00000000000E+00 0.  1.
</event>
<event>
 7    1  0.2746803E-013  0.5052885E+02  0.7816164E-02  0.1300439E+00
        -11   -1    0    0    0    0  0.00000000000E+00  0.00000000000E+00  0.45593999997E+02  0.45594000000E+02  0.51100000000E-03 0. -1.
         11   -1    0    0    0    0 -0.00000000000E+00 -0.00000000000E+00 -0.45593999997E+02  0.45594000000E+02  0.51100000000E-03 0.  1.
    9900012    2    1    2    0    0 -0.39793995230E+02  0.83618161326E-01 -0.83424869829E+01  0.50528854197E+02  0.29999982817E+02 0.  0.
         12    1    1    2    0    0  0.39793995230E+02 -0.83618161326E-01  0.83424869829E+01  0.40659145803E+02  0.00000000000E+00 0. -1.
         11    1    3    3    0    0 -0.30238210959E+02 -0.50198656237E+01 -0.74592265023E+01  0.31546608584E+02  0.51100000000E-03 0. -1.
        -11    1    3    3    0    0 -0.13070400621E+02  0.21184460263E+01  0.22176493421E+01  0.13425392166E+02  0.51100000000E-03 0.  1.
         12    1    3    3    0    0  0.35146163494E+01  0.29850377588E+01 -0.31009098227E+01  0.55568534471E+01  0.00000000000E+00 0. -1.
</event>
<event>
 7    1  0.2746803E-013  0.5052887E+02  0.7816164E-02  0.1300439E+00
        -11   -1    0    0    0    0  0.00000000000E+00  0.00000000000E+00  0.45593999997E+02  0.45594000000E+02  0.51100000000E-03 0. -1.
         11   -1    0    0    0    0 -0.00000000000E+00 -0.00000000000E+00 -0.45593999997E+02  0.45594000000E+02  0.51100000000E-03 0.  1.
    9900012    2    1    2    0    0  0.25320004847E+02 -0.31683946858E+02 -0.28618316996E+01  0.50528865545E+02  0.30000017311E+02 0.  0.
         12    1    1    2    0    0 -0.25320004847E+02  0.31683946858E+02  0.28618316996E+01  0.40659134455E+02  0.00000000000E+00 0. -1.
         11    1    3    3    0    0  0.15422997191E+02 -0.10646713650E+02 -0.43814780913E+01  0.19246264687E+02  0.51100000000E-03 0. -1.
        -11    1    3    3    0    0  0.62536211892E+01 -0.24856457902E+02 -0.48706254714E+00  0.25635688164E+02  0.51100000000E-03 0.  1.
         12    1    3    3    0    0  0.36433864666E+01  0.38192246943E+01  0.20067089389E+01  0.56469126942E+01  0.00000000000E+00 0. -1.
</event>
<event>
 7    1  0.2746803E-013  0.5052886E+02  0.7816164E-02  0.1300439E+00
        -11   -1    0    0    0    0  0.00000000000E+00  0.00000000000E+00  0.45593999997E+02  0.45594000000E+02  0.51100000000E-03 0. -1.
         11   -1    0    0    0    0 -0.00000000000E+00 -0.00000000000E+00 -0.45593999997E+02  0.45594000000E+02  0.51100000000E-03 0.  1.
    9900012    2    1    2    0    0  0.34610709428E+02  0.19272747532E+02 -0.91556285367E+01  0.50528861563E+02  0.30000005207E+02 0.  0.
         12    1    1    2    0    0 -0.34610709428E+02 -0.19272747532E+02  0.91556285367E+01  0.40659138437E+02  0.00000000000E+00 0. -1.
         11    1    3    3    0    0  0.63604117005E+01  0.23605050422E+00 -0.58127303930E+01  0.86196514850E+01  0.51100000000E-03 0. -1.
        -11    1    3    3    0    0  0.11864156658E+02  0.17094927421E+02 -0.11202258573E+02  0.23632294728E+02  0.51100000000E-03 0.  1.
         12    1    3    3    0    0  0.16386141070E+02  0.19417696067E+01  0.78593604291E+01  0.18276915350E+02  0.00000000000E+00 0. -1.
</event>
<event>
 7    1  0.2746803E-013  0.5052884E+02  0.7816164E-02  0.1300439E+00
        -11   -1    0    0    0    0  0.00000000000E+00  0.00000000000E+00  0.45593999997E+02  0.45594000000E+02  0.51100000000E-03 0.  1.
         11   -1    0    0    0    0 -0.00000000000E+00 -0.00000000000E+00 -0.45593999997E+02  0.45594000000E+02  0.51100000000E-03 0. -1.
    9900012    2    1    2    0    0 -0.13707674770E+02 -0.88955774828E+01  0.37230838947E+02  0.50528843404E+02  0.29999950011E+02 0.  0.
         12    1    1    2    0    0  0.13707674770E+02  0.88955774828E+01 -0.37230838947E+02  0.40659156596E+02  0.00000000000E+00 0. -1.
         11    1    3    3    0    0 -0.31194743202E+01 -0.18034158179E+02  0.15302273040E+02  0.23856268395E+02  0.51100000000E-03 0. -1.
        -11    1    3    3    0    0 -0.13024296184E+01 -0.84104713668E+00  0.23868069425E+01  0.28461431515E+01  0.51100000000E-03 0.  1.
         12    1    3    3    0    0 -0.92857708316E+01  0.99796278333E+01  0.19541758965E+02  0.23826431858E+02  0.00000000000E+00 0. -1.
</event>
<event>
 7    1  0.2746803E-013  0.5052886E+02  0.7816164E-02  0.1300439E+00
        -11   -1    0    0    0    0  0.00000000000E+00  0.00000000000E+00  0.45593999997E+02  0.45594000000E+02  0.51100000000E-03 0.  1.
         11   -1    0    0    0    0 -0.00000000000E+00 -0.00000000000E+00 -0.45593999997E+02  0.45594000000E+02  0.51100000000E-03 0. -1.
    9900012    2    1    2    0    0 -0.35891335785E+02  0.16899519635E+02  0.89097826055E+01  0.50528856202E+02  0.29999988911E+02 0.  0.
         12    1    1    2    0    0  0.35891335785E+02 -0.16899519635E+02 -0.89097826055E+01  0.40659143798E+02  0.00000000000E+00 0. -1.
         11    1    3    3    0    0  0.16484523390E+01 -0.17307439950E+01  0.70649732104E+00  0.24923901412E+01  0.51100000000E-03 0.  1.
        -11    1    3    3    0    0 -0.12545099683E+00 -0.34765180588E+01  0.23229562952E+01  0.41830660976E+01  0.51100000000E-03 0. -1.
         12    1    3    3    0    0 -0.37414337127E+02  0.22106781689E+02  0.58803289893E+01  0.43853399963E+02  0.00000000000E+00 0. -1.
</event>
<event>
 7    1  0.2746803E-013  0.5052885E+02  0.7816164E-02  0.1300439E+00
        -11   -1    0    0    0    0  0.00000000000E+00  0.00000000000E+00  0.45593999997E+02  0.45594000000E+02  0.51100000000E-03 0.  1.
         11   -1    0    0    0    0 -0.00000000000E+00 -0.00000000000E+00 -0.45593999997E+02  0.45594000000E+02  0.51100000000E-03 0. -1.
    9900012    2    1    2    0    0  0.36904918274E+02  0.15147053620E+02  0.78587437177E+01  0.50528854915E+02  0.29999985001E+02 0.  0.
         12    1    1    2    0    0 -0.36904918274E+02 -0.15147053620E+02 -0.78587437177E+01  0.40659145085E+02  0.00000000000E+00 0. -1.
         11    1    3    3    0    0  0.17894978010E+02  0.18807028110E+01  0.92997033735E+01  0.20254672649E+02  0.51100000000E-03 0. -1.
        -11    1    3    3    0    0  0.18608508727E+01  0.10661686817E+02  0.48004192812E+01  0.11839694139E+02  0.51100000000E-03 0.  1.
        -12    1    3    3    0    0  0.17149089392E+02  0.26046639912E+01 -0.62413789369E+01  0.18434488127E+02  0.00000000000E+00 0.  1.
</event>
<event>
 7    1  0.2746803E-013  0.5052886E+02  0.7816164E-02  0.1300439E+00
        -11   -1    0    0    0    0  0.00000000000E+00  0.00000000000E+00  0.45593999997E+02  0.45594000000E+02  0.51100000000E-03 0.  1.
         11   -1    0    0    0    0 -0.00000000000E+00 -0.00000000000E+00 -0.45593999997E+02  0.45594000000E+02  0.51100000000E-03 0. -1.
    9900012    2    1    2    0    0 -0.10790774888E+01  0.55623347119E+01  0.40262409104E+02  0.50528861267E+02  0.30000004306E+02 0.  0.
         12    1    1    2    0    0  0.10790774888E+01 -0.55623347119E+01 -0.40262409104E+02  0.40659138733E+02  0.00000000000E+00 0. -1.
         11    1    3    3    0    0 -0.17494867802E+01 -0.18824451738E+01  0.19496166185E+02  0.19664811212E+02  0.51100000000E-03 0. -1.
        -11    1    3    3    0    0 -0.92545837455E+01  0.73447107227E+01  0.15901893553E+02  0.19810661643E+02  0.51100000000E-03 0.  1.
         12    1    3    3    0    0  0.99249930370E+01  0.10006916307E+00  0.48643493663E+01  0.11053388412E+02  0.00000000000E+00 0. -1.
</event>
<event>
 7    1  0.2746803E-013  0.5052885E+02  0.7816164E-02  0.1300439E+00
        -11   -1    0    0    0    0  0.00000000000E+00  0.00000000000E+00  0.45593999997E+02  0.45594000000E+02  0.51100000000E-03 0.  1.
         11   -1    0    0    0    0 -0.00000000000E+00 -0.00000000000E+00 -0.45593999997E+02  0.45594000000E+02  0.51100000000E-03 0. -1.
    9900012    2    1    2    0    0  0.29199035418E+02  0.27069841643E+02  0.82344849934E+01  0.50528846799E+02  0.29999960331E+02 0.  0.
         12    1    1    2    0    0 -0.29199035418E+02 -0.27069841643E+02 -0.82344849934E+01  0.40659153201E+02  0.00000000000E+00 0. -1.
         11    1    3    3    0    0  0.10699368388E+02  0.16729964065E+02 -0.51819440207E+01  0.20523662578E+02  0.51100000000E-03 0. -1.
        -11    1    3    3    0    0  0.16927602212E+01 -0.13530236309E+01 -0.30426485760E+01  0.37354813251E+01  0.51100000000E-03 0.  1.
         12    1    3    3    0    0  0.16806906809E+02  0.11692901209E+02  0.16459077590E+02  0.26269702896E+02  0.00000000000E+00 0. -1.
</event>
<event>
 7    1  0.2746803E-013  0.5052886E+02  0.7816164E-02  0.1300439E+00
        -11   -1    0    0    0    0  0.00000000000E+00  0.00000000000E+00  0.45593999997E+02  0.45594000000E+02  0.51100000000E-03 0. -1.
         11   -1    0    0    0    0 -0.00000000000E+00 -0.00000000000E+00 -0.45593999997E+02  0.45594000000E+02  0.51100000000E-03 0.  1.
    9900012    2    1    2    0    0 -0.22987736137E+02 -0.31506094062E+02 -0.11493278386E+02  0.50528862973E+02  0.30000009491E+02 0.  0.
         12    1    1    2    0    0  0.22987736137E+02  0.31506094062E+02  0.11493278386E+02  0.40659137027E+02  0.00000000000E+00 0. -1.
         11    1    3    3    0    0 -0.84439831786E+01 -0.84893855900E+01  0.53430527691E+01  0.13111778398E+02  0.51100000000E-03 0. -1.
        -11    1    3    3    0    0 -0.41244739401E+01 -0.21012573831E+02 -0.59709356048E+01  0.22230420971E+02  0.51100000000E-03 0.  1.
        -12    1    3    3    0    0 -0.10419279018E+02 -0.20041346407E+01 -0.10865395550E+02  0.15186663603E+02  0.00000000000E+00 0.  1.
</event>
<event>
 7    1  0.2746803E-013  0.5052887E+02  0.7816164E-02  0.1300439E+00
        -11   -1    0    0    0    0  0.00000000000E+00  0.00000000000E+00  0.45593999997E+02  0.45594000000E+02  0.51100000000E-03 0. -1.
         11   -1    0    0    0    0 -0.00000000000E+00 -0.00000000000E+00 -0.45593999997E+02  0.45594000000E+02  0.51100000000E-03 0.  1.
    9900012    2    1    2    0    0 -0.71983746501E+01  0.96970908228E+01 -0.38824153986E+02  0.50528866946E+02  0.30000021568E+02 0.  0.
         12    1    1    2    0    0  0.71983746501E+01 -0.96970908228E+01  0.38824153986E+02  0.40659133054E+02  0.00000000000E+00 0. -1.
         11    1    3    3    0    0 -0.70526590132E+01  0.79642216134E+01 -0.66484114702E+01  0.12544727992E+02  0.51100000000E-03 0. -1.
        -11    1    3    3    0    0  0.86153307612E+01  0.35115800538E+01 -0.82198966600E+01  0.12414580942E+02  0.51100000000E-03 0.  1.
         12    1    3    3    0    0 -0.87610463981E+01 -0.17787108444E+01 -0.23955845855E+02  0.25569558011E+02  0.00000000000E+00 0. -1.
</event>
<event>
 7    1  0.2746803E-013  0.5052886E+02  0.7816164E-02  0.1300439E+00
        -11   -1    0    0    0    0  0.00000000000E+00  0.00000000000E+00  0.45593999997E+02  0.45594000000E+02  0.51100000000E-03 0. -1.
         11   -1    0    0    0    0 -0.00000000000E+00 -0.00000000000E+00 -0.45593999997E+02  0.45594000000E+02  0.51100000000E-03 0.  1.
    9900012    2    1    2    0    0 -0.32190114803E+02 -0.18325514424E+02 -0.16767169106E+02  0.50528856750E+02  0.29999990578E+02 0.  0.
         12    1    1    2    0    0  0.32190114803E+02  0.18325514424E+02  0.16767169106E+02  0.40659143250E+02  0.00000000000E+00 0. -1.
         11    1    3    3    0    0 -0.16155440166E+02 -0.17232416088E+01  0.18344040166E+01  0.16350316417E+02  0.51100000000E-03 0. -1.
        -11    1    3    3    0    0  0.35690093354E+01 -0.32087408117E+01 -0.44126187073E+01  0.65195896612E+01  0.51100000000E-03 0.  1.
        -12    1    3    3    0    0 -0.19603683973E+02 -0.13393532004E+02 -0.14188954416E+02  0.27658950672E+02  0.00000000000E+00 0.  1.
</event>
<event>
 7    1  0.2746803E-013  0.5052886E+02  0.7816164E-02  0.1300439E+00
        -11   -1    0    0    0    0  0.00000000000E+00  0.00000000000E+00  0.45593999997E+02  0.45594000000E+02  0.51100000000E-03 0.  1.
         11   -1    0    0    0    0 -0.00000000000E+00 -0.00000000000E+00 -0.45593999997E+02  0.45594000000E+02  0.51100000000E-03 0. -1.
    9900012    2    1    2    0    0  0.27342792945E+02 -0.58971448931E+01  0.29508665376E+02  0.50528856180E+02  0.29999988844E+02 0.  0.
         12    1    1    2    0    0 -0.27342792945E+02  0.58971448931E+01 -0.29508665376E+02  0.40659143820E+02  0.00000000000E+00 0. -1.
         11    1    3    3    0    0  0.19781419328E+02  0.34839143748E-01  0.47604912764E+01  0.20346204605E+02  0.51100000000E-03 0. -1.
        -11    1    3    3    0    0  0.35448143771E+01  0.46110418916E+01  0.10557711810E+02  0.12053741959E+02  0.51100000000E-03 0.  1.
        -12    1    3    3    0    0  0.40165592400E+01 -0.10543025928E+02  0.14190462290E+02  0.18128909615E+02  0.00000000000E+00 0.  1.
</event>
<event>
 7    1  0.2746803E-013  0.5052885E+02  0.7816164E-02  0.1300439E+00
        -11   -1    0    0    0    0  0.00000000000E+00  0.00000000000E+00  0.45593999997E+02  0.45594000000E+02  0.51100000000E-03 0. -1.
         11   -1    0    0    0    0 -0.00000000000E+00 -0.00000000000E+00 -0.45593999997E+02  0.45594000000E+02  0.51100000000E-03 0.  1.
    9900012    2    1    2    0    0 -0.40089077369E+02  0.74211535296E+00  0.67439799764E+01  0.50528854345E+02  0.29999983267E+02 0.  0.
         12    1    1    2    0    0  0.40089077369E+02 -0.74211535296E+00 -0.67439799764E+01  0.40659145655E+02  0.00000000000E+00 0. -1.
         11    1    3    3    0    0 -0.79019500336E+01  0.19175724744E+01 -0.51039485548E+01  0.96004265342E+01  0.51100000000E-03 0.  1.
        -11    1    3    3    0    0 -0.35266265592E+02 -0.32877031931E+01  0.10301178010E+02  0.36886755750E+02  0.51100000000E-03 0. -1.
         12    1    3    3    0    0  0.30791382571E+01  0.21122460717E+01  0.15467505211E+01  0.40416720609E+01  0.00000000000E+00 0. -1.
</event>
<event>
 7    1  0.2746803E-013  0.5052883E+02  0.7816164E-02  0.1300439E+00
        -11   -1    0    0    0    0  0.00000000000E+00  0.00000000000E+00  0.45593999997E+02  0.45594000000E+02  0.51100000000E-03 0.  1.
         11   -1    0    0    0    0 -0.00000000000E+00 -0.00000000000E+00 -0.45593999997E+02  0.45594000000E+02  0.51100000000E-03 0. -1.
    9900012    2    1    2    0    0  0.35996860346E+02 -0.30384378577E+01  0.18659109352E+02  0.50528826113E+02  0.29999897452E+02 0.  0.
         12    1    1    2    0    0 -0.35996860346E+02  0.30384378577E+01 -0.18659109352E+02  0.40659173887E+02  0.00000000000E+00 0. -1.
         11    1    3    3    0    0  0.62074479468E+00  0.44464158338E+00  0.68148575082E+01  0.68575005181E+01  0.51100000000E-03 0. -1.
        -11    1    3    3    0    0  0.29374313419E+02  0.33709117482E+01  0.16043924086E+02  0.33639572458E+02  0.51100000000E-03 0.  1.
         12    1    3    3    0    0  0.60018021321E+01 -0.68539911893E+01 -0.41996722413E+01  0.10031753136E+02  0.00000000000E+00 0. -1.
</event>
<event>
 7    1  0.2746803E-013  0.5052886E+02  0.7816164E-02  0.1300439E+00
        -11   -1    0    0    0    0  0.00000000000E+00  0.00000000000E+00  0.45593999997E+02  0.45594000000E+02  0.51100000000E-03 0.  1.
         11   -1    0    0    0    0 -0.00000000000E+00 -0.00000000000E+00 -0.45593999997E+02  0.45594000000E+02  0.51100000000E-03 0. -1.
    9900012    2    1    2    0    0 -0.31848077419E+02 -0.18576649193E+02  0.17139832406E+02  0.50528858526E+02  0.29999995976E+02 0.  0.
         12    1    1    2    0    0  0.31848077419E+02  0.18576649193E+02 -0.17139832406E+02  0.40659141474E+02  0.00000000000E+00 0. -1.
         11    1    3    3    0    0 -0.93348804831E+01 -0.41107280912E+01 -0.68697008046E+01  0.12297596045E+02  0.51100000000E-03 0. -1.
        -11    1    3    3    0    0  0.98146958394E+00 -0.37969013180E+01  0.37299163058E+01  0.54122100913E+01  0.51100000000E-03 0.  1.
        -12    1    3    3    0    0 -0.23494666520E+02 -0.10669019783E+02  0.20279616904E+02  0.32819052390E+02  0.00000000000E+00 0.  1.
</event>
<event>
 7    1  0.2746803E-013  0.5052886E+02  0.7816164E-02  0.1300439E+00
        -11   -1    0    0    0    0  0.00000000000E+00  0.00000000000E+00  0.45593999997E+02  0.45594000000E+02  0.51100000000E-03 0.  1.
         11   -1    0    0    0    0 -0.00000000000E+00 -0.00000000000E+00 -0.45593999997E+02  0.45594000000E+02  0.51100000000E-03 0. -1.
    9900012    2    1    2    0    0  0.14746977177E+02  0.37689015690E+02  0.39026614927E+01  0.50528855810E+02  0.29999987720E+02 0.  0.
         12    1    1    2    0    0 -0.14746977177E+02 -0.37689015690E+02 -0.39026614927E+01  0.40659144190E+02  0.00000000000E+00 0. -1.
         11    1    3    3    0    0  0.23630281186E+01  0.11468297098E+02 -0.20025175797E+01  0.11879217867E+02  0.51100000000E-03 0. -1.
        -11    1    3    3    0    0  0.73992683004E-01  0.25691722741E+02  0.22127378042E+01  0.25786940516E+02  0.51100000000E-03 0.  1.
        -12    1    3    3    0    0  0.12309956375E+02  0.52899585083E+00  0.36924412682E+01  0.12862697427E+02  0.00000000000E+00 0.  1.
</event>
<event>
 7    1  0.2746803E-013  0.5052886E+02  0.7816164E-02  0.1300439E+00
        -11   -1    0    0    0    0  0.00000000000E+00  0.00000000000E+00  0.45593999997E+02  0.45594000000E+02  0.51100000000E-03 0.  1.
         11   -1    0    0    0    0 -0.00000000000E+00 -0.00000000000E+00 -0.45593999997E+02  0.45594000000E+02  0.51100000000E-03 0. -1.
    9900012    2    1    2    0    0  0.95480336399E+01 -0.12692263594E+02  0.37428689469E+02  0.50528864533E+02  0.30000014235E+02 0.  0.
         12    1    1    2    0    0 -0.95480336399E+01  0.12692263594E+02 -0.37428689469E+02  0.40659135467E+02  0.00000000000E+00 0. -1.
         11    1    3    3    0    0  0.50118053868E+01  0.66399070595E+01  0.75121737035E+01  0.11208894370E+02  0.51100000000E-03 0. -1.
        -11    1    3    3    0    0  0.74740072046E+01 -0.14487968625E+02  0.29417544862E+02  0.33632632435E+02  0.51100000000E-03 0.  1.
         12    1    3    3    0    0 -0.29377789515E+01 -0.48442020285E+01  0.49897090379E+00  0.56873377272E+01  0.00000000000E+00 0. -1.
</event>
<event>
 7    1  0.2746803E-013  0.5052889E+02  0.7816164E-02  0.1300439E+00
        -11   -1    0    0    0    0  0.00000000000E+00  0.00000000000E+00  0.45593999997E+02  0.45594000000E+02  0.51100000000E-03 0. -1.
         11   -1    0    0    0    0 -0.00000000000E+00 -0.00000000000E+00 -0.45593999997E+02  0.45594000000E+02  0.51100000000E-03 0.  1.
    9900012    2    1    2    0    0  0.32653349775E+02  0.23464531751E+02 -0.60280936165E+01  0.50528887682E+02  0.30000084597E+02 0.  0.
         12    1    1    2    0    0 -0.32653349775E+02 -0.23464531751E+02  0.60280936165E+01  0.40659112318E+02  0.00000000000E+00 0. -1.
         11    1    3    3    0    0  0.62673785457E+01  0.12406437996E+02  0.89712470146E+00  0.13928552350E+02  0.51100000000E-03 0. -1.
        -11    1    3    3    0    0  0.29186574114E+02  0.80898624581E+01 -0.95395770799E+01  0.31753826765E+02  0.51100000000E-03 0.  1.
         12    1    3    3    0    0 -0.28006028843E+01  0.29682312972E+01  0.26143587619E+01  0.48465085665E+01  0.00000000000E+00 0. -1.
</event>
<event>
 7    1  0.2746803E-013  0.5052886E+02  0.7816164E-02  0.1300439E+00
        -11   -1    0    0    0    0  0.00000000000E+00  0.00000000000E+00  0.45593999997E+02  0.45594000000E+02  0.51100000000E-03 0. -1.
         11   -1    0    0    0    0 -0.00000000000E+00 -0.00000000000E+00 -0.45593999997E+02  0.45594000000E+02  0.51100000000E-03 0.  1.
    9900012    2    1    2    0    0 -0.52785745532E+00  0.39360877938E+02  0.10178824731E+02  0.50528858120E+02  0.29999994741E+02 0.  0.
         12    1    1    2    0    0  0.52785745532E+00 -0.39360877938E+02 -0.10178824731E+02  0.40659141880E+02  0.00000000000E+00 0. -1.
         11    1    3    3    0    0  0.10844353318E+02  0.11915733064E+02  0.51524755524E+01  0.16915457367E+02  0.51100000000E-03 0. -1.
        -11    1    3    3    0    0 -0.18817488814E+01  0.15931943736E+01 -0.39431827769E+01  0.46505846770E+01  0.51100000000E-03 0.  1.
         12    1    3    3    0    0 -0.94904618919E+01  0.25851950500E+02  0.89695319551E+01  0.28962816076E+02  0.00000000000E+00 0. -1.
</event>
<event>
 7    1  0.2746803E-013  0.5052883E+02  0.7816164E-02  0.1300439E+00
        -11   -1    0    0    0    0  0.00000000000E+00  0.00000000000E+00  0.45593999997E+02  0.45594000000E+02  0.51100000000E-03 0. -1.
         11   -1    0    0    0    0 -0.00000000000E+00 -0.00000000000E+00 -0.45593999997E+02  0.45594000000E+02  0.51100000000E-03 0.  1.
    9900012    2    1    2    0    0 -0.64255089888E+01 -0.38346841099E+02 -0.11891188548E+02  0.50528834329E+02  0.29999922425E+02 0.  0.
         12    1    1    2    0    0  0.64255089888E+01  0.38346841099E+02  0.11891188548E+02  0.40659165671E+02  0.00000000000E+00 0. -1.
         11    1    3    3    0    0  0.26098520185E+01 -0.16590353337E+02 -0.37776556443E+01  0.17214001099E+02  0.51100000000E-03 0. -1.
        -11    1    3    3    0    0 -0.32537988573E+01 -0.13251558865E+02  0.67633894352E+01  0.15229394481E+02  0.51100000000E-03 0.  1.
         12    1    3    3    0    0 -0.57815621500E+01 -0.85049288968E+01 -0.14876922339E+02  0.18085438748E+02  0.00000000000E+00 0. -1.
</event>
<event>
 7    1  0.2746803E-013  0.5052888E+02  0.7816164E-02  0.1300439E+00
        -11   -1    0    0    0    0  0.00000000000E+00  0.00000000000E+00  0.45593999997E+02  0.45594000000E+02  0.51100000000E-03 0.  1.
         11   -1    0    0    0    0 -0.00000000000E+00 -0.00000000000E+00 -0.45593999997E+02  0.45594000000E+02  0.51100000000E-03 0. -1.
    9900012    2    1    2    0    0  0.35491220799E+02  0.19650982591E+02  0.27159249287E+01  0.50528879021E+02  0.30000058272E+02 0.  0.
         12    1    1    2    0    0 -0.35491220799E+02 -0.19650982591E+02 -0.27159249287E+01  0.40659120979E+02  0.00000000000E+00 0. -1.
         11    1    3    3    0    0  0.26337940659E+01  0.83605028650E+01  0.36736816231E+01  0.95042525359E+01  0.51100000000E-03 0.  1.
        -11    1    3    3    0    0  0.30215697670E+02  0.13734385974E+02  0.54888954037E+01  0.33641488028E+02  0.51100000000E-03 0. -1.
         12    1    3    3    0    0  0.26417290633E+01 -0.24439062485E+01 -0.64466520981E+01  0.73831384566E+01  0.00000000000E+00 0. -1.
</event>
<event>
 7    1  0.2746803E-013  0.5052884E+02  0.7816164E-02  0.1300439E+00
        -11   -1    0    0    0    0  0.00000000000E+00  0.00000000000E+00  0.45593999997E+02  0.45594000000E+02  0.51100000000E-03 0.  1.
         11   -1    0    0    0    0 -0.00000000000E+00 -0.00000000000E+00 -0.45593999997E+02  0.45594000000E+02  0.51100000000E-03 0. -1.
    9900012    2    1    2    0    0  0.34491339009E+02  0.44095994272E+01  0.21072975131E+02  0.50528839721E+02  0.29999938815E+02 0.  0.
         12    1    1    2    0    0 -0.34491339009E+02 -0.44095994272E+01 -0.21072975131E+02  0.40659160279E+02  0.00000000000E+00 0. -1.
         11    1    3    3    0    0 -0.16694397479E+01  0.17974924471E+00  0.12429842415E+00  0.16836832309E+01  0.51100000000E-03 0. -1.
        -11    1    3    3    0    0  0.17587053586E+02  0.14595340951E+02  0.10827615424E+02  0.25289635967E+02  0.51100000000E-03 0.  1.
        -12    1    3    3    0    0  0.18573725171E+02 -0.10365490769E+02  0.10121061283E+02  0.23555520523E+02  0.00000000000E+00 0.  1.
</event>
<event>
 7    1  0.2746803E-013  0.5052886E+02  0.7816164E-02  0.1300439E+00
        -11   -1    0    0    0    0  0.00000000000E+00  0.00000000000E+00  0.45593999997E+02  0.45594000000E+02  0.51100000000E-03 0. -1.
         11   -1    0    0    0    0 -0.00000000000E+00 -0.00000000000E+00 -0.45593999997E+02  0.45594000000E+02  0.51100000000E-03 0.  1.
    9900012    2    1    2    0    0  0.32307766009E+02  0.52607289119E+01 -0.24118434268E+02  0.50528857305E+02  0.29999992265E+02 0.  0.
         12    1    1    2    0    0 -0.32307766009E+02 -0.52607289119E+01  0.24118434268E+02  0.40659142695E+02  0.00000000000E+00 0. -1.
         11    1    3    3    0    0  0.13711273401E+02  0.10614949307E+02 -0.62321223424E+01  0.18425946820E+02  0.51100000000E-03 0. -1.
        -11    1    3    3    0    0  0.14646337506E+02  0.37778061150E+01 -0.15921707105E+02  0.21961051404E+02  0.51100000000E-03 0.  1.
         12    1    3    3    0    0  0.39501551017E+01 -0.91320265103E+01 -0.19646048205E+01  0.10141859081E+02  0.00000000000E+00 0. -1.
</event>
<event>
 7    1  0.2746803E-013  0.5052886E+02  0.7816164E-02  0.1300439E+00
        -11   -1    0    0    0    0  0.00000000000E+00  0.00000000000E+00  0.45593999997E+02  0.45594000000E+02  0.51100000000E-03 0.  1.
         11   -1    0    0    0    0 -0.00000000000E+00 -0.00000000000E+00 -0.45593999997E+02  0.45594000000E+02  0.51100000000E-03 0. -1.
    9900012    2    1    2    0    0 -0.81650257034E+01 -0.32634143923E+02  0.22836599872E+02  0.50528864643E+02  0.30000014568E+02 0.  0.
         12    1    1    2    0    0  0.81650257034E+01  0.32634143923E+02 -0.22836599872E+02  0.40659135357E+02  0.00000000000E+00 0. -1.
         11    1    3    3    0    0 -0.28720688237E+00 -0.46999731644E+01  0.62959494565E+01  0.78620108979E+01  0.51100000000E-03 0.  1.
        -11    1    3    3    0    0 -0.92218840531E+01 -0.15449088253E+02  0.22465363587E+02  0.28782113103E+02  0.51100000000E-03 0. -1.
         12    1    3    3    0    0  0.13440652321E+01 -0.12485082505E+02 -0.59247131716E+01  0.13884740641E+02  0.00000000000E+00 0. -1.
</event>
<event>
 7    1  0.2746803E-013  0.5052886E+02  0.7816164E-02  0.1300439E+00
        -11   -1    0    0    0    0  0.00000000000E+00  0.00000000000E+00  0.45593999997E+02  0.45594000000E+02  0.51100000000E-03 0.  1.
         11   -1    0    0    0    0 -0.00000000000E+00 -0.00000000000E+00 -0.45593999997E+02  0.45594000000E+02  0.51100000000E-03 0. -1.
    9900012    2    1    2    0    0  0.24431612704E+02  0.16806429779E+01  0.32456698853E+02  0.50528861291E+02  0.30000004381E+02 0.  0.
         12    1    1    2    0    0 -0.24431612704E+02 -0.16806429779E+01 -0.32456698853E+02  0.40659138709E+02  0.00000000000E+00 0. -1.
         11    1    3    3    0    0  0.91531735809E+01  0.19430163392E+01  0.37483269275E+01  0.10079972922E+02  0.51100000000E-03 0. -1.
        -11    1    3    3    0    0  0.57113614607E+01  0.97445946657E+01  0.22704133766E+02  0.25358518594E+02  0.51100000000E-03 0.  1.
         12    1    3    3    0    0  0.95670776621E+01 -0.10006968027E+02  0.60042381586E+01  0.15090369775E+02  0.00000000000E+00 0. -1.
</event>
<event>
 7    1  0.2746803E-013  0.5052886E+02  0.7816164E-02  0.1300439E+00
        -11   -1    0    0    0    0  0.00000000000E+00  0.00000000000E+00  0.45593999997E+02  0.45594000000E+02  0.51100000000E-03 0.  1.
         11   -1    0    0    0    0 -0.00000000000E+00 -0.00000000000E+00 -0.45593999997E+02  0.45594000000E+02  0.51100000000E-03 0. -1.
    9900012    2    1    2    0    0  0.10125428353E+02 -0.13629659598E+02  0.36944193237E+02  0.50528864077E+02  0.30000012847E+02 0.  0.
         12    1    1    2    0    0 -0.10125428353E+02  0.13629659598E+02 -0.36944193237E+02  0.40659135923E+02  0.00000000000E+00 0. -1.
         11    1    3    3    0    0 -0.40319607260E+01  0.30588562327E+01  0.40037568069E+00  0.50767715820E+01  0.51100000000E-03 0. -1.
        -11    1    3    3    0    0  0.86027573783E+01 -0.95487537864E+01  0.71705454655E+01  0.14717433741E+02  0.51100000000E-03 0.  1.
        -12    1    3    3    0    0  0.55546317011E+01 -0.71397620439E+01  0.29373272091E+02  0.30734658754E+02  0.00000000000E+00 0.  1.
</event>
<event>
 7    1  0.2746803E-013  0.5052888E+02  0.7816164E-02  0.1300439E+00
        -11   -1    0    0    0    0  0.00000000000E+00  0.00000000000E+00  0.45593999997E+02  0.45594000000E+02  0.51100000000E-03 0.  1.
         11   -1    0    0    0    0 -0.00000000000E+00 -0.00000000000E+00 -0.45593999997E+02  0.45594000000E+02  0.51100000000E-03 0. -1.
    9900012    2    1    2    0    0  0.16817201025E+02 -0.32756879105E+01  0.36872963514E+02  0.50528882696E+02  0.30000069444E+02 0.  0.
         12    1    1    2    0    0 -0.16817201025E+02  0.32756879105E+01 -0.36872963514E+02  0.40659117304E+02  0.00000000000E+00 0. -1.
         11    1    3    3    0    0 -0.54652499937E+00  0.14542819756E+01 -0.21232464061E+01  0.26309316223E+01  0.51100000000E-03 0. -1.
        -11    1    3    3    0    0  0.11245965691E+02  0.75750676496E+01  0.14803445919E+02  0.20074745466E+02  0.51100000000E-03 0.  1.
        -12    1    3    3    0    0  0.61177603334E+01 -0.12305037536E+02  0.24192764002E+02  0.27823205608E+02  0.00000000000E+00 0.  1.
</event>
<event>
 7    1  0.2746803E-013  0.5052886E+02  0.7816164E-02  0.1300439E+00
        -11   -1    0    0    0    0  0.00000000000E+00  0.00000000000E+00  0.45593999997E+02  0.45594000000E+02  0.51100000000E-03 0. -1.
         11   -1    0    0    0    0 -0.00000000000E+00 -0.00000000000E+00 -0.45593999997E+02  0.45594000000E+02  0.51100000000E-03 0.  1.
    9900012    2    1    2    0    0 -0.10875723221E+01 -0.32429815109E+02 -0.24500812563E+02  0.50528861571E+02  0.30000005231E+02 0.  0.
         12    1    1    2    0    0  0.10875723221E+01  0.32429815109E+02  0.24500812563E+02  0.40659138429E+02  0.00000000000E+00 0. -1.
         11    1    3    3    0    0 -0.95726986569E+01 -0.11705230237E+02 -0.21052419221E+02  0.25920133676E+02  0.51100000000E-03 0. -1.
        -11    1    3    3    0    0 -0.19462334466E+01 -0.51552604576E+01  0.20912054161E+00  0.55143691095E+01  0.51100000000E-03 0.  1.
        -12    1    3    3    0    0  0.10431359781E+02 -0.15569324414E+02 -0.36575138837E+01  0.19094358785E+02  0.00000000000E+00 0.  1.
</event>
<event>
 7    1  0.2746803E-013  0.5052886E+02  0.7816164E-02  0.1300439E+00
        -11   -1    0    0    0    0  0.00000000000E+00  0.00000000000E+00  0.45593999997E+02  0.45594000000E+02  0.51100000000E-03 0.  1.
         11   -1    0    0    0    0 -0.00000000000E+00 -0.00000000000E+00 -0.45593999997E+02  0.45594000000E+02  0.51100000000E-03 0. -1.
    9900012    2    1    2    0    0 -0.11846538004E+02  0.29939900340E+02 -0.24827962689E+02  0.50528858023E+02  0.29999994446E+02 0.  0.
         12    1    1    2    0    0  0.11846538004E+02 -0.29939900340E+02  0.24827962689E+02  0.40659141977E+02  0.00000000000E+00 0. -1.
         11    1    3    3    0    0  0.27337275306E+00  0.15296341741E+02 -0.13207173793E+02  0.20210943649E+02  0.51100000000E-03 0. -1.
        -11    1    3    3    0    0 -0.13220440238E+02  0.13058789852E+02 -0.16637916085E+02  0.24942579746E+02  0.51100000000E-03 0.  1.
         12    1    3    3    0    0  0.11005294808E+01  0.15847687473E+01  0.50171271897E+01  0.53753346276E+01  0.00000000000E+00 0. -1.
</event>
<event>
 7    1  0.2746803E-013  0.5052886E+02  0.7816164E-02  0.1300439E+00
        -11   -1    0    0    0    0  0.00000000000E+00  0.00000000000E+00  0.45593999997E+02  0.45594000000E+02  0.51100000000E-03 0. -1.
         11   -1    0    0    0    0 -0.00000000000E+00 -0.00000000000E+00 -0.45593999997E+02  0.45594000000E+02  0.51100000000E-03 0.  1.
    9900012    2    1    2    0    0  0.24387658892E+02  0.32228044344E+01 -0.32373156890E+02  0.50528860047E+02  0.30000000599E+02 0.  0.
         12    1    1    2    0    0 -0.24387658892E+02 -0.32228044344E+01  0.32373156890E+02  0.40659139953E+02  0.00000000000E+00 0. -1.
         11    1    3    3    0    0 -0.23979114535E+01  0.48360034270E+01 -0.18693388819E+01  0.57123844935E+01  0.51100000000E-03 0. -1.
        -11    1    3    3    0    0  0.11508319402E+02 -0.98896126436E+01 -0.11301444275E+02  0.18920055408E+02  0.51100000000E-03 0.  1.
         12    1    3    3    0    0  0.15277250944E+02  0.82764136510E+01 -0.19202373734E+02  0.25896420145E+02  0.00000000000E+00 0. -1.
</event>
<event>
 7    1  0.2746803E-013  0.5052886E+02  0.7816164E-02  0.1300439E+00
        -11   -1    0    0    0    0  0.00000000000E+00  0.00000000000E+00  0.45593999997E+02  0.45594000000E+02  0.51100000000E-03 0.  1.
         11   -1    0    0    0    0 -0.00000000000E+00 -0.00000000000E+00 -0.45593999997E+02  0.45594000000E+02  0.51100000000E-03 0. -1.
    9900012    2    1    2    0    0  0.34576045749E+02 -0.19551331050E+02  0.86837743957E+01  0.50528862980E+02  0.30000009514E+02 0.  0.
         12    1    1    2    0    0 -0.34576045749E+02  0.19551331050E+02 -0.86837743957E+01  0.40659137020E+02  0.00000000000E+00 0. -1.
         11    1    3    3    0    0  0.87246392329E+01  0.41792117533E+01  0.50871754156E+01  0.10929981454E+02  0.51100000000E-03 0. -1.
        -11    1    3    3    0    0  0.16612846794E+02 -0.13512985611E+02  0.10876624712E+02  0.24018501705E+02  0.51100000000E-03 0.  1.
        -12    1    3    3    0    0  0.92385597219E+01 -0.10217557192E+02 -0.72800257323E+01  0.15580379821E+02  0.00000000000E+00 0.  1.
</event>
<event>
 7    1  0.2746803E-013  0.5052885E+02  0.7816164E-02  0.1300439E+00
        -11   -1    0    0    0    0  0.00000000000E+00  0.00000000000E+00  0.45593999997E+02  0.45594000000E+02  0.51100000000E-03 0.  1.
         11   -1    0    0    0    0 -0.00000000000E+00 -0.00000000000E+00 -0.45593999997E+02  0.45594000000E+02  0.51100000000E-03 0. -1.
    9900012    2    1    2    0    0 -0.22989945514E+02  0.14138434248E+02  0.30409431620E+02  0.50528850363E+02  0.29999971163E+02 0.  0.
         12    1    1    2    0    0  0.22989945514E+02 -0.14138434248E+02 -0.30409431620E+02  0.40659149637E+02  0.00000000000E+00 0. -1.
         11    1    3    3    0    0  0.21976130056E+01  0.16330051355E+01 -0.87917185740E+00  0.28756133452E+01  0.51100000000E-03 0. -1.
        -11    1    3    3    0    0 -0.43489705777E+01  0.11141334108E+02  0.21471153618E+02  0.24577495982E+02  0.51100000000E-03 0.  1.
        -12    1    3    3    0    0 -0.20838587942E+02  0.13640950047E+01  0.98174498599E+01  0.23075741036E+02  0.00000000000E+00 0.  1.
</event>
<event>
 7    1  0.2746803E-013  0.5052886E+02  0.7816164E-02  0.1300439E+00
        -11   -1    0    0    0    0  0.00000000000E+00  0.00000000000E+00  0.45593999997E+02  0.45594000000E+02  0.51100000000E-03 0.  1.
         11   -1    0    0    0    0 -0.00000000000E+00 -0.00000000000E+00 -0.45593999997E+02  0.45594000000E+02  0.51100000000E-03 0. -1.
    9900012    2    1    2    0    0 -0.28507026342E+02  0.28216556754E+02  0.66588936301E+01  0.50528862155E+02  0.30000007007E+02 0.  0.
         12    1    1    2    0    0  0.28507026342E+02 -0.28216556754E+02 -0.66588936301E+01  0.40659137845E+02  0.00000000000E+00 0. -1.
         11    1    3    3    0    0  0.13259499824E+01  0.11796879022E+02 -0.41021651380E+01  0.12559946541E+02  0.51100000000E-03 0. -1.
        -11    1    3    3    0    0 -0.82258181308E+01 -0.13654684951E+01  0.13718208601E+01  0.84504722273E+01  0.51100000000E-03 0.  1.
        -12    1    3    3    0    0 -0.21607158194E+02  0.17785146227E+02  0.93892379079E+01  0.29518443387E+02  0.00000000000E+00 0.  1.
</event>
<event>
 7    1  0.2746803E-013  0.5052883E+02  0.7816164E-02  0.1300439E+00
        -11   -1    0    0    0    0  0.00000000000E+00  0.00000000000E+00  0.45593999997E+02  0.45594000000E+02  0.51100000000E-03 0. -1.
         11   -1    0    0    0    0 -0.00000000000E+00 -0.00000000000E+00 -0.45593999997E+02  0.45594000000E+02  0.51100000000E-03 0.  1.
    9900012    2    1    2    0    0 -0.38228585813E+02 -0.10782364940E+02 -0.86881641490E+01  0.50528826826E+02  0.29999899620E+02 0.  0.
         12    1    1    2    0    0  0.38228585813E+02  0.10782364940E+02  0.86881641490E+01  0.40659173174E+02  0.00000000000E+00 0. -1.
         11    1    3    3    0    0 -0.11756180558E+02 -0.58209918670E+00 -0.13793355690E+02  0.18132933636E+02  0.51100000000E-03 0. -1.
        -11    1    3    3    0    0 -0.82359933965E+01  0.37224939240E+01  0.10914912121E+01  0.91038399354E+01  0.51100000000E-03 0.  1.
         12    1    3    3    0    0 -0.18236411858E+02 -0.13922759677E+02  0.40137003293E+01  0.23292053255E+02  0.00000000000E+00 0. -1.
</event>
<event>
 7    1  0.2746803E-013  0.5052887E+02  0.7816164E-02  0.1300439E+00
        -11   -1    0    0    0    0  0.00000000000E+00  0.00000000000E+00  0.45593999997E+02  0.45594000000E+02  0.51100000000E-03 0.  1.
         11   -1    0    0    0    0 -0.00000000000E+00 -0.00000000000E+00 -0.45593999997E+02  0.45594000000E+02  0.51100000000E-03 0. -1.
    9900012    2    1    2    0    0  0.91448794672E+01  0.33812607494E+02  0.20645676983E+02  0.50528865429E+02  0.30000016957E+02 0.  0.
         12    1    1    2    0    0 -0.91448794672E+01 -0.33812607494E+02 -0.20645676983E+02  0.40659134571E+02  0.00000000000E+00 0. -1.
         11    1    3    3    0    0  0.17525110574E+01  0.15052884676E+01 -0.18544273406E+01  0.29624465227E+01  0.51100000000E-03 0. -1.
        -11    1    3    3    0    0  0.14747628865E+02  0.17610290622E+02  0.49013169494E+01  0.23486970878E+02  0.51100000000E-03 0.  1.
        -12    1    3    3    0    0 -0.73552604553E+01  0.14697028404E+02  0.17598787374E+02  0.24079448028E+02  0.00000000000E+00 0.  1.
</event>
<event>
 7    1  0.2746803E-013  0.5052886E+02  0.7816164E-02  0.1300439E+00
        -11   -1    0    0    0    0  0.00000000000E+00  0.00000000000E+00  0.45593999997E+02  0.45594000000E+02  0.51100000000E-03 0. -1.
         11   -1    0    0    0    0 -0.00000000000E+00 -0.00000000000E+00 -0.45593999997E+02  0.45594000000E+02  0.51100000000E-03 0.  1.
    9900012    2    1    2    0    0 -0.29905461986E+02  0.27559907515E+01 -0.27408634673E+02  0.50528863312E+02  0.30000010523E+02 0.  0.
         12    1    1    2    0    0  0.29905461986E+02 -0.27559907515E+01  0.27408634673E+02  0.40659136688E+02  0.00000000000E+00 0. -1.
         11    1    3    3    0    0  0.11158103890E+01 -0.22939303687E+01 -0.41357308748E+00  0.25842198669E+01  0.51100000000E-03 0. -1.
        -11    1    3    3    0    0 -0.15009111442E+02  0.28268239177E+00 -0.27389080702E+02  0.31233236745E+02  0.51100000000E-03 0.  1.
        -12    1    3    3    0    0 -0.16012160933E+02  0.47672387284E+01  0.39401911705E+00  0.16711406700E+02  0.00000000000E+00 0.  1.
</event>
<event>
 7    1  0.2746803E-013  0.5052887E+02  0.7816164E-02  0.1300439E+00
        -11   -1    0    0    0    0  0.00000000000E+00  0.00000000000E+00  0.45593999997E+02  0.45594000000E+02  0.51100000000E-03 0.  1.
         11   -1    0    0    0    0 -0.00000000000E+00 -0.00000000000E+00 -0.45593999997E+02  0.45594000000E+02  0.51100000000E-03 0. -1.
    9900012    2    1    2    0    0  0.33475955915E+02 -0.14376372140E+02  0.18051180441E+02  0.50528870452E+02  0.30000032225E+02 0.  0.
         12    1    1    2    0    0 -0.33475955915E+02  0.14376372140E+02 -0.18051180441E+02  0.40659129548E+02  0.00000000000E+00 0. -1.
         11    1    3    3    0    0  0.23335257208E+02 -0.49095150073E+01  0.95550608710E+01  0.25689234225E+02  0.51100000000E-03 0. -1.
        -11    1    3    3    0    0  0.10672978544E+02 -0.10547403092E+02 -0.12146743784E+01  0.15054421845E+02  0.51100000000E-03 0.  1.
         12    1    3    3    0    0 -0.53227983654E+00  0.10805459586E+01  0.97107939485E+01  0.97852143821E+01  0.00000000000E+00 0. -1.
</event>
<event>
 7    1  0.2746803E-013  0.5052886E+02  0.7816164E-02  0.1300439E+00
        -11   -1    0    0    0    0  0.00000000000E+00  0.00000000000E+00  0.45593999997E+02  0.45594000000E+02  0.51100000000E-03 0.  1.
         11   -1    0    0    0    0 -0.00000000000E+00 -0.00000000000E+00 -0.45593999997E+02  0.45594000000E+02  0.51100000000E-03 0. -1.
    9900012    2    1    2    0    0  0.16377026065E+02  0.32608720391E+02  0.17934044390E+02  0.50528861095E+02  0.30000003786E+02 0.  0.
         12    1    1    2    0    0 -0.16377026065E+02 -0.32608720391E+02 -0.17934044390E+02  0.40659138905E+02  0.00000000000E+00 0. -1.
         11    1    3    3    0    0 -0.22435784999E+01  0.12461912216E+02 -0.16853131906E+00  0.12663384367E+02  0.51100000000E-03 0. -1.
        -11    1    3    3    0    0  0.19170139488E+02  0.22008841080E+02  0.19814199295E+02  0.35277270694E+02  0.51100000000E-03 0.  1.
         12    1    3    3    0    0 -0.54953492276E+00 -0.18620329052E+01 -0.17116235864E+01  0.25882060337E+01  0.00000000000E+00 0. -1.
</event>
<event>
 7    1  0.2746803E-013  0.5052888E+02  0.7816164E-02  0.1300439E+00
        -11   -1    0    0    0    0  0.00000000000E+00  0.00000000000E+00  0.45593999997E+02  0.45594000000E+02  0.51100000000E-03 0. -1.
         11   -1    0    0    0    0 -0.00000000000E+00 -0.00000000000E+00 -0.45593999997E+02  0.45594000000E+02  0.51100000000E-03 0.  1.
    9900012    2    1    2    0    0 -0.37937537011E+02 -0.13878329747E+02 -0.46151519097E+01  0.50528875831E+02  0.30000048577E+02 0.  0.
         12    1    1    2    0    0  0.37937537011E+02  0.13878329747E+02  0.46151519097E+01  0.40659124169E+02  0.00000000000E+00 0. -1.
         11    1    3    3    0    0 -0.40074568039E+00  0.36946537674E+01 -0.23794232943E+01  0.44127903911E+01  0.51100000000E-03 0. -1.
        -11    1    3    3    0    0 -0.26291720659E+02 -0.30260496539E+01 -0.64778011826E+01  0.27246531158E+02  0.51100000000E-03 0.  1.
        -12    1    3    3    0    0 -0.11245070671E+02 -0.14546933861E+02  0.42420725672E+01  0.18869554282E+02  0.00000000000E+00 0.  1.
</event>
<event>
 7    1  0.2746803E-013  0.5052886E+02  0.7816164E-02  0.1300439E+00
        -11   -1    0    0    0    0  0.00000000000E+00  0.00000000000E+00  0.45593999997E+02  0.45594000000E+02  0.51100000000E-03 0.  1.
         11   -1    0    0    0    0 -0.00000000000E+00 -0.00000000000E+00 -0.45593999997E+02  0.45594000000E+02  0.51100000000E-03 0. -1.
    9900012    2    1    2    0    0 -0.23414749752E+02  0.52759345889E+01  0.32818897975E+02  0.50528855198E+02  0.29999985860E+02 0.  0.
         12    1    1    2    0    0  0.23414749752E+02 -0.52759345889E+01 -0.32818897975E+02  0.40659144802E+02  0.00000000000E+00 0. -1.
         11    1    3    3    0    0  0.34062210733E+01  0.49176268048E+00  0.13252658966E+02  0.13692229273E+02  0.51100000000E-03 0. -1.
        -11    1    3    3    0    0 -0.70896941726E+01 -0.12907750374E+01  0.13525981668E+02  0.15325861934E+02  0.51100000000E-03 0.  1.
         12    1    3    3    0    0 -0.19731276653E+02  0.60749469458E+01  0.60402573404E+01  0.21510763991E+02  0.00000000000E+00 0. -1.
</event>
<event>
 7    1  0.2746803E-013  0.5052887E+02  0.7816164E-02  0.1300439E+00
        -11   -1    0    0    0    0  0.00000000000E+00  0.00000000000E+00  0.45593999997E+02  0.45594000000E+02  0.51100000000E-03 0.  1.
         11   -1    0    0    0    0 -0.00000000000E+00 -0.00000000000E+00 -0.45593999997E+02  0.45594000000E+02  0.51100000000E-03 0. -1.
    9900012    2    1    2    0    0 -0.31638750759E+01  0.37627676902E+02 -0.15076901815E+02  0.50528866428E+02  0.30000019994E+02 0.  0.
         12    1    1    2    0    0  0.31638750759E+01 -0.37627676902E+02  0.15076901815E+02  0.40659133572E+02  0.00000000000E+00 0. -1.
         11    1    3    3    0    0 -0.27981553406E+00  0.72926964505E+00  0.38315909080E+01  0.39103989689E+01  0.51100000000E-03 0. -1.
        -11    1    3    3    0    0 -0.35708980042E+01  0.24669512205E+02 -0.10312968588E+01  0.24947940165E+02  0.51100000000E-03 0.  1.
        -12    1    3    3    0    0  0.68683846236E+00  0.12228895052E+02 -0.17877195864E+02  0.21670527294E+02  0.00000000000E+00 0.  1.
</event>
<event>
 7    1  0.2746803E-013  0.5052886E+02  0.7816164E-02  0.1300439E+00
        -11   -1    0    0    0    0  0.00000000000E+00  0.00000000000E+00  0.45593999997E+02  0.45594000000E+02  0.51100000000E-03 0.  1.
         11   -1    0    0    0    0 -0.00000000000E+00 -0.00000000000E+00 -0.45593999997E+02  0.45594000000E+02  0.51100000000E-03 0. -1.
    9900012    2    1    2    0    0 -0.28912371933E+02  0.27606087781E+02 -0.74258995307E+01  0.50528864284E+02  0.30000013478E+02 0.  0.
         12    1    1    2    0    0  0.28912371933E+02 -0.27606087781E+02  0.74258995307E+01  0.40659135716E+02  0.00000000000E+00 0. -1.
         11    1    3    3    0    0 -0.37504485318E+01  0.11724761863E+02  0.34911518592E+00  0.12314941600E+02  0.51100000000E-03 0. -1.
        -11    1    3    3    0    0 -0.20861050535E+02  0.13278259069E+02  0.43316579494E+01  0.25104956765E+02  0.51100000000E-03 0.  1.
         12    1    3    3    0    0 -0.43008728663E+01  0.26030668490E+01 -0.12106672666E+02  0.13108965919E+02  0.00000000000E+00 0. -1.
</event>
<event>
 7    1  0.2746803E-013  0.5052885E+02  0.7816164E-02  0.1300439E+00
        -11   -1    0    0    0    0  0.00000000000E+00  0.00000000000E+00  0.45593999997E+02  0.45594000000E+02  0.51100000000E-03 0.  1.
         11   -1    0    0    0    0 -0.00000000000E+00 -0.00000000000E+00 -0.45593999997E+02  0.45594000000E+02  0.51100000000E-03 0. -1.
    9900012    2    1    2    0    0  0.75306491181E+01 -0.22289521459E+02  0.33160719959E+02  0.50528846157E+02  0.29999958380E+02 0.  0.
         12    1    1    2    0    0 -0.75306491181E+01  0.22289521459E+02 -0.33160719959E+02  0.40659153843E+02  0.00000000000E+00 0. -1.
         11    1    3    3    0    0 -0.45607575171E+01  0.39894626779E+01  0.22058928177E+01  0.64484327532E+01  0.51100000000E-03 0. -1.
        -11    1    3    3    0    0  0.54723108879E+01 -0.17644430934E+01  0.37396152201E+01  0.68588751365E+01  0.51100000000E-03 0.  1.
        -12    1    3    3    0    0  0.66190957473E+01 -0.24514541044E+02  0.27215211921E+02  0.37221538268E+02  0.00000000000E+00 0.  1.
</event>
<event>
 7    1  0.2746803E-013  0.5052887E+02  0.7816164E-02  0.1300439E+00
        -11   -1    0    0    0    0  0.00000000000E+00  0.00000000000E+00  0.45593999997E+02  0.45594000000E+02  0.51100000000E-03 0. -1.
         11   -1    0    0    0    0 -0.00000000000E+00 -0.00000000000E+00 -0.45593999997E+02  0.45594000000E+02  0.51100000000E-03 0.  1.
    9900012    2    1    2    0    0 -0.31026252967E+02  0.23724245050E+02 -0.11300291736E+02  0.50528871017E+02  0.30000033943E+02 0.  0.
         12    1    1    2    0    0  0.31026252967E+02 -0.23724245050E+02  0.11300291736E+02  0.40659128983E+02  0.00000000000E+00 0. -1.
         11    1    3    3    0    0 -0.16702374696E+02  0.19163153853E+02 -0.33101579951E+01  0.25634994291E+02  0.51100000000E-03 0. -1.
        -11    1    3    3    0    0 -0.15000154663E+02  0.88257717788E+01 -0.10063356844E+02  0.20103980666E+02  0.51100000000E-03 0.  1.
         12    1    3    3    0    0  0.67627639188E+00 -0.42646805818E+01  0.20732231038E+01  0.47898960595E+01  0.00000000000E+00 0. -1.
</event>
<event>
 7    1  0.2746803E-013  0.5052888E+02  0.7816164E-02  0.1300439E+00
        -11   -1    0    0    0    0  0.00000000000E+00  0.00000000000E+00  0.45593999997E+02  0.45594000000E+02  0.51100000000E-03 0.  1.
         11   -1    0    0    0    0 -0.00000000000E+00 -0.00000000000E+00 -0.45593999997E+02  0.45594000000E+02  0.51100000000E-03 0. -1.
    9900012    2    1    2    0    0  0.19641517448E+02  0.89140587833E+01  0.34466134270E+02  0.50528879705E+02  0.30000060352E+02 0.  0.
         12    1    1    2    0    0 -0.19641517448E+02 -0.89140587833E+01 -0.34466134270E+02  0.40659120295E+02  0.00000000000E+00 0. -1.
         11    1    3    3    0    0 -0.17775264350E+01 -0.35790330406E+01  0.24319429999E+01  0.46779722903E+01  0.51100000000E-03 0. -1.
        -11    1    3    3    0    0  0.18903685748E+02  0.11112453518E+00  0.25149588260E+02  0.31462095821E+02  0.51100000000E-03 0.  1.
         12    1    3    3    0    0  0.25153581355E+01  0.12381967289E+02  0.68846030097E+01  0.14388811594E+02  0.00000000000E+00 0. -1.
</event>
<event>
 7    1  0.2746803E-013  0.5052886E+02  0.7816164E-02  0.1300439E+00
        -11   -1    0    0    0    0  0.00000000000E+00  0.00000000000E+00  0.45593999997E+02  0.45594000000E+02  0.51100000000E-03 0.  1.
         11   -1    0    0    0    0 -0.00000000000E+00 -0.00000000000E+00 -0.45593999997E+02  0.45594000000E+02  0.51100000000E-03 0. -1.
    9900012    2    1    2    0    0 -0.28708846455E+02 -0.27812328474E+02  0.74459407081E+01  0.50528861877E+02  0.30000006161E+02 0.  0.
         12    1    1    2    0    0  0.28708846455E+02  0.27812328474E+02 -0.74459407081E+01  0.40659138123E+02  0.00000000000E+00 0. -1.
         11    1    3    3    0    0 -0.95375511261E+01 -0.15682655970E+02 -0.49716751302E+01  0.19016522648E+02  0.51100000000E-03 0. -1.
        -11    1    3    3    0    0 -0.20589149331E+02 -0.12139173034E+02  0.55996452776E+01  0.24548495262E+02  0.51100000000E-03 0.  1.
         12    1    3    3    0    0  0.14178540031E+01  0.95005293887E-02  0.68179705607E+01  0.69638439673E+01  0.00000000000E+00 0. -1.
</event>
<event>
 7    1  0.2746803E-013  0.5052887E+02  0.7816164E-02  0.1300439E+00
        -11   -1    0    0    0    0  0.00000000000E+00  0.00000000000E+00  0.45593999997E+02  0.45594000000E+02  0.51100000000E-03 0. -1.
         11   -1    0    0    0    0 -0.00000000000E+00 -0.00000000000E+00 -0.45593999997E+02  0.45594000000E+02  0.51100000000E-03 0.  1.
    9900012    2    1    2    0    0 -0.35973152175E+02 -0.17522662876E+02  0.72148210957E+01  0.50528867752E+02  0.30000024020E+02 0.  0.
         12    1    1    2    0    0  0.35973152175E+02  0.17522662876E+02 -0.72148210957E+01  0.40659132248E+02  0.00000000000E+00 0. -1.
         11    1    3    3    0    0 -0.69483749010E+01 -0.88328094366E+01  0.99748424621E+01  0.15026507203E+02  0.51100000000E-03 0. -1.
        -11    1    3    3    0    0 -0.26092789158E+02 -0.10782297394E+02  0.33282689007E+01  0.28428312600E+02  0.51100000000E-03 0.  1.
         12    1    3    3    0    0 -0.29319881166E+01  0.20924439549E+01 -0.60882902670E+01  0.70740479498E+01  0.00000000000E+00 0. -1.
</event>
<event>
 7    1  0.2746803E-013  0.5052881E+02  0.7816164E-02  0.1300439E+00
        -11   -1    0    0    0    0  0.00000000000E+00  0.00000000000E+00  0.45593999997E+02  0.45594000000E+02  0.51100000000E-03 0.  1.
         11   -1    0    0    0    0 -0.00000000000E+00 -0.00000000000E+00 -0.45593999997E+02  0.45594000000E+02  0.51100000000E-03 0. -1.
    9900012    2    1    2    0    0 -0.38057888458E+01  0.52110292477E+01  0.40143880196E+02  0.50528807045E+02  0.29999839495E+02 0.  0.
         12    1    1    2    0    0  0.38057888458E+01 -0.52110292477E+01 -0.40143880196E+02  0.40659192955E+02  0.00000000000E+00 0. -1.
         11    1    3    3    0    0 -0.10892574396E+02  0.21992339420E+01  0.60200393022E+01  0.12638262553E+02  0.51100000000E-03 0.  1.
        -11    1    3    3    0    0  0.31606360368E+01  0.64485494408E+01  0.62126300344E+01  0.94957981367E+01  0.51100000000E-03 0. -1.
        -12    1    3    3    0    0  0.39261495132E+01 -0.34367541350E+01  0.27911210859E+02  0.28394746356E+02  0.00000000000E+00 0.  1.
</event>
<event>
 7    1  0.2746803E-013  0.5052885E+02  0.7816164E-02  0.1300439E+00
        -11   -1    0    0    0    0  0.00000000000E+00  0.00000000000E+00  0.45593999997E+02  0.45594000000E+02  0.51100000000E-03 0. -1.
         11   -1    0    0    0    0 -0.00000000000E+00 -0.00000000000E+00 -0.45593999997E+02  0.45594000000E+02  0.51100000000E-03 0.  1.
    9900012    2    1    2    0    0 -0.20306805560E+02 -0.15015080313E+02 -0.31864511522E+02  0.50528854861E+02  0.29999984836E+02 0.  0.
         12    1    1    2    0    0  0.20306805560E+02  0.15015080313E+02  0.31864511522E+02  0.40659145139E+02  0.00000000000E+00 0. -1.
         11    1    3    3    0    0 -0.79174246077E+01 -0.14498434822E+02 -0.72843781180E+01  0.18054151587E+02  0.51100000000E-03 0. -1.
        -11    1    3    3    0    0 -0.61313833321E+01 -0.63409805066E+01 -0.21748240719E+02  0.23468870233E+02  0.51100000000E-03 0.  1.
         12    1    3    3    0    0 -0.62579976202E+01  0.58243350156E+01 -0.28318926850E+01  0.90058330413E+01  0.00000000000E+00 0. -1.
</event>
<event>
 7    1  0.2746803E-013  0.5052886E+02  0.7816164E-02  0.1300439E+00
        -11   -1    0    0    0    0  0.00000000000E+00  0.00000000000E+00  0.45593999997E+02  0.45594000000E+02  0.51100000000E-03 0.  1.
         11   -1    0    0    0    0 -0.00000000000E+00 -0.00000000000E+00 -0.45593999997E+02  0.45594000000E+02  0.51100000000E-03 0. -1.
    9900012    2    1    2    0    0  0.47799327609E+01 -0.15901413903E+02  0.37114184481E+02  0.50528863130E+02  0.30000009971E+02 0.  0.
         12    1    1    2    0    0 -0.47799327609E+01  0.15901413903E+02 -0.37114184481E+02  0.40659136870E+02  0.00000000000E+00 0. -1.
         11    1    3    3    0    0  0.28283509882E+01 -0.33806716226E+01  0.13090257169E+02  0.13812434360E+02  0.51100000000E-03 0. -1.
        -11    1    3    3    0    0  0.67734841338E+01 -0.18676300329E+02  0.15954471776E+02  0.25479981381E+02  0.51100000000E-03 0.  1.
         12    1    3    3    0    0 -0.48219023612E+01  0.61555580490E+01  0.80694555360E+01  0.11236447389E+02  0.00000000000E+00 0. -1.
</event>
<event>
 7    1  0.2746803E-013  0.5052886E+02  0.7816164E-02  0.1300439E+00
        -11   -1    0    0    0    0  0.00000000000E+00  0.00000000000E+00  0.45593999997E+02  0.45594000000E+02  0.51100000000E-03 0.  1.
         11   -1    0    0    0    0 -0.00000000000E+00 -0.00000000000E+00 -0.45593999997E+02  0.45594000000E+02  0.51100000000E-03 0. -1.
    9900012    2    1    2    0    0 -0.14711682744E+02  0.25856410206E+02  0.27716026796E+02  0.50528859586E+02  0.29999999196E+02 0.  0.
         12    1    1    2    0    0  0.14711682744E+02 -0.25856410206E+02 -0.27716026796E+02  0.40659140414E+02  0.00000000000E+00 0. -1.
         11    1    3    3    0    0 -0.30057020807E+01  0.11636339483E+02 -0.19607104820E+01  0.12177151860E+02  0.51100000000E-03 0. -1.
        -11    1    3    3    0    0 -0.94035905258E+01  0.16589478426E+01  0.55261151126E+01  0.11032568659E+02  0.51100000000E-03 0.  1.
         12    1    3    3    0    0 -0.23023901372E+01  0.12561122880E+02  0.24150622165E+02  0.27319139066E+02  0.00000000000E+00 0. -1.
</event>
<event>
 7    1  0.2746803E-013  0.5052889E+02  0.7816164E-02  0.1300439E+00
        -11   -1    0    0    0    0  0.00000000000E+00  0.00000000000E+00  0.45593999997E+02  0.45594000000E+02  0.51100000000E-03 0.  1.
         11   -1    0    0    0    0 -0.00000000000E+00 -0.00000000000E+00 -0.45593999997E+02  0.45594000000E+02  0.51100000000E-03 0. -1.
    9900012    2    1    2    0    0 -0.34209334538E+02 -0.21596725661E+02  0.40578676098E+01  0.50528887634E+02  0.30000084453E+02 0.  0.
         12    1    1    2    0    0  0.34209334538E+02  0.21596725661E+02 -0.40578676098E+01  0.40659112366E+02  0.00000000000E+00 0. -1.
         11    1    3    3    0    0 -0.25966428826E+01  0.74665343644E+00  0.40169898774E+01  0.48411004483E+01  0.51100000000E-03 0. -1.
        -11    1    3    3    0    0 -0.33176310271E+02 -0.23294140335E+02  0.45783703029E+01  0.40795171430E+02  0.51100000000E-03 0.  1.
         12    1    3    3    0    0  0.15636186151E+01  0.95076123759E+00 -0.45374925704E+01  0.48926157555E+01  0.00000000000E+00 0. -1.
</event>
<event>
 7    1  0.2746803E-013  0.5052886E+02  0.7816164E-02  0.1300439E+00
        -11   -1    0    0    0    0  0.00000000000E+00  0.00000000000E+00  0.45593999997E+02  0.45594000000E+02  0.51100000000E-03 0.  1.
         11   -1    0    0    0    0 -0.00000000000E+00 -0.00000000000E+00 -0.45593999997E+02  0.45594000000E+02  0.51100000000E-03 0. -1.
    9900012    2    1    2    0    0 -0.15895307485E+02  0.29256175517E+02  0.23336258686E+02  0.50528861108E+02  0.30000003825E+02 0.  0.
         12    1    1    2    0    0  0.15895307485E+02 -0.29256175517E+02 -0.23336258686E+02  0.40659138892E+02  0.00000000000E+00 0. -1.
         11    1    3    3    0    0  0.26148193034E+01  0.84693896530E+01  0.41973929028E+01  0.98074435265E+01  0.51100000000E-03 0. -1.
        -11    1    3    3    0    0 -0.12270342698E+02  0.20499913451E+02  0.38422131362E+01  0.24198561186E+02  0.51100000000E-03 0.  1.
         12    1    3    3    0    0 -0.62397840907E+01  0.28687241299E+00  0.15296652647E+02  0.16522856396E+02  0.00000000000E+00 0. -1.
</event>
<event>
 7    1  0.2746803E-013  0.5052891E+02  0.7816164E-02  0.1300439E+00
        -11   -1    0    0    0    0  0.00000000000E+00  0.00000000000E+00  0.45593999997E+02  0.45594000000E+02  0.51100000000E-03 0.  1.
         11   -1    0    0    0    0 -0.00000000000E+00 -0.00000000000E+00 -0.45593999997E+02  0.45594000000E+02  0.51100000000E-03 0. -1.
    9900012    2    1    2    0    0 -0.13948531933E+01  0.25671854830E+02  0.31498758581E+02  0.50528910759E+02  0.30000154742E+02 0.  0.
         12    1    1    2    0    0  0.13948531933E+01 -0.25671854830E+02 -0.31498758581E+02  0.40659089241E+02  0.00000000000E+00 0. -1.
         11    1    3    3    0    0  0.79898201174E+00  0.11271847064E+02  0.77491383888E+01  0.13701899668E+02  0.51100000000E-03 0. -1.
        -11    1    3    3    0    0 -0.12587846161E+02  0.11071485773E+02  0.17572166674E+02  0.24286059995E+02  0.51100000000E-03 0.  1.
         12    1    3    3    0    0  0.10394010956E+02  0.33285219928E+01  0.61774535173E+01  0.12540951095E+02  0.00000000000E+00 0. -1.
</event>
<event>
 7    1  0.2746803E-013  0.5052888E+02  0.7816164E-02  0.1300439E+00
        -11   -1    0    0    0    0  0.00000000000E+00  0.00000000000E+00  0.45593999997E+02  0.45594000000E+02  0.51100000000E-03 0. -1.
         11   -1    0    0    0    0 -0.00000000000E+00 -0.00000000000E+00 -0.45593999997E+02  0.45594000000E+02  0.51100000000E-03 0.  1.
    9900012    2    1    2    0    0  0.29493519719E+02 -0.27987053994E+02  0.14522703746E+00  0.50528880635E+02  0.30000063178E+02 0.  0.
         12    1    1    2    0    0 -0.29493519719E+02  0.27987053994E+02 -0.14522703746E+00  0.40659119365E+02  0.00000000000E+00 0. -1.
         11    1    3    3    0    0  0.13382169185E+02 -0.75309961209E+01 -0.78804901493E+01  0.17259793739E+02  0.51100000000E-03 0. -1.
        -11    1    3    3    0    0  0.54870613642E+01  0.10634236103E+01  0.73846236932E+01  0.92612839034E+01  0.51100000000E-03 0.  1.
         12    1    3    3    0    0  0.10624289170E+02 -0.21519481483E+02  0.64109349357E+00  0.24007802993E+02  0.00000000000E+00 0. -1.
</event>
<event>
 7    1  0.2746803E-013  0.5052886E+02  0.7816164E-02  0.1300439E+00
        -11   -1    0    0    0    0  0.00000000000E+00  0.00000000000E+00  0.45593999997E+02  0.45594000000E+02  0.51100000000E-03 0.  1.
         11   -1    0    0    0    0 -0.00000000000E+00 -0.00000000000E+00 -0.45593999997E+02  0.45594000000E+02  0.51100000000E-03 0. -1.
    9900012    2    1    2    0    0  0.11700491831E+02  0.95792775233E+01  0.37742574639E+02  0.50528855797E+02  0.29999987681E+02 0.  0.
         12    1    1    2    0    0 -0.11700491831E+02 -0.95792775233E+01 -0.37742574639E+02  0.40659144203E+02  0.00000000000E+00 0. -1.
         11    1    3    3    0    0  0.69366247996E+01  0.55492732026E+01  0.29507662723E+02  0.30815797188E+02  0.51100000000E-03 0. -1.
        -11    1    3    3    0    0 -0.28589160447E+01 -0.18842471279E+01  0.93912281759E+01  0.99959469338E+01  0.51100000000E-03 0.  1.
         12    1    3    3    0    0  0.76227830761E+01  0.59142514487E+01 -0.11563162602E+01  0.97171116756E+01  0.00000000000E+00 0. -1.
</event>
<event>
 7    1  0.2746803E-013  0.5052885E+02  0.7816164E-02  0.1300439E+00
        -11   -1    0    0    0    0  0.00000000000E+00  0.00000000000E+00  0.45593999997E+02  0.45594000000E+02  0.51100000000E-03 0.  1.
         11   -1    0    0    0    0 -0.00000000000E+00 -0.00000000000E+00 -0.45593999997E+02  0.45594000000E+02  0.51100000000E-03 0. -1.
    9900012    2    1    2    0    0  0.61234823739E+01 -0.29052048479E+01  0.40090261949E+02  0.50528851525E+02  0.29999974695E+02 0.  0.
         12    1    1    2    0    0 -0.61234823739E+01  0.29052048479E+01 -0.40090261949E+02  0.40659148475E+02  0.00000000000E+00 0. -1.
         11    1    3    3    0    0  0.11014442546E+02 -0.21446151476E+01  0.20401596983E+02  0.23283953239E+02  0.51100000000E-03 0. -1.
        -11    1    3    3    0    0 -0.66992514789E+01  0.75705464927E+01  0.12625509267E+02  0.16173949088E+02  0.51100000000E-03 0.  1.
         12    1    3    3    0    0  0.18082913071E+01 -0.83311361930E+01  0.70631556986E+01  0.11070949198E+02  0.00000000000E+00 0. -1.
</event>
<event>
 7    1  0.2746803E-013  0.5052888E+02  0.7816164E-02  0.1300439E+00
        -11   -1    0    0    0    0  0.00000000000E+00  0.00000000000E+00  0.45593999997E+02  0.45594000000E+02  0.51100000000E-03 0.  1.
         11   -1    0    0    0    0 -0.00000000000E+00 -0.00000000000E+00 -0.45593999997E+02  0.45594000000E+02  0.51100000000E-03 0. -1.
    9900012    2    1    2    0    0  0.22980764865E+02 -0.15384673074E+02  0.29805380158E+02  0.50528875492E+02  0.30000047546E+02 0.  0.
         12    1    1    2    0    0 -0.22980764865E+02  0.15384673074E+02 -0.29805380158E+02  0.40659124508E+02  0.00000000000E+00 0. -1.
         11    1    3    3    0    0  0.14459643678E+02 -0.11980442683E+02  0.32410551145E+01  0.19055622286E+02  0.51100000000E-03 0. -1.
        -11    1    3    3    0    0  0.72776583517E+01 -0.40903929424E+01  0.47348475681E+01  0.95976250844E+01  0.51100000000E-03 0.  1.
        -12    1    3    3    0    0  0.12434628350E+01  0.68616255139E+00  0.21829477475E+02  0.21875628122E+02  0.00000000000E+00 0.  1.
</event>
<event>
 7    1  0.2746803E-013  0.5052885E+02  0.7816164E-02  0.1300439E+00
        -11   -1    0    0    0    0  0.00000000000E+00  0.00000000000E+00  0.45593999997E+02  0.45594000000E+02  0.51100000000E-03 0.  1.
         11   -1    0    0    0    0 -0.00000000000E+00 -0.00000000000E+00 -0.45593999997E+02  0.45594000000E+02  0.51100000000E-03 0. -1.
    9900012    2    1    2    0    0  0.30544343778E+02 -0.12059305787E+02  0.23974622321E+02  0.50528852096E+02  0.29999976430E+02 0.  0.
         12    1    1    2    0    0 -0.30544343778E+02  0.12059305787E+02 -0.23974622321E+02  0.40659147904E+02  0.00000000000E+00 0. -1.
         11    1    3    3    0    0 -0.12585236777E+01 -0.11235777619E+01  0.71644664930E+01  0.73604272447E+01  0.51100000000E-03 0. -1.
        -11    1    3    3    0    0  0.64801857754E+01 -0.12796750080E+02  0.53219498799E+01  0.15299436953E+02  0.51100000000E-03 0.  1.
        -12    1    3    3    0    0  0.25322681680E+02  0.18610220545E+01  0.11488205948E+02  0.27868987898E+02  0.00000000000E+00 0.  1.
</event>
<event>
 7    1  0.2746803E-013  0.5052886E+02  0.7816164E-02  0.1300439E+00
        -11   -1    0    0    0    0  0.00000000000E+00  0.00000000000E+00  0.45593999997E+02  0.45594000000E+02  0.51100000000E-03 0.  1.
         11   -1    0    0    0    0 -0.00000000000E+00 -0.00000000000E+00 -0.45593999997E+02  0.45594000000E+02  0.51100000000E-03 0. -1.
    9900012    2    1    2    0    0 -0.15609962106E+02  0.12781341278E+02  0.35300594742E+02  0.50528860917E+02  0.30000003245E+02 0.  0.
         12    1    1    2    0    0  0.15609962106E+02 -0.12781341278E+02 -0.35300594742E+02  0.40659139083E+02  0.00000000000E+00 0. -1.
         11    1    3    3    0    0 -0.69240787892E+01  0.12059948992E+01 -0.77501370685E+00  0.70709219542E+01  0.51100000000E-03 0. -1.
        -11    1    3    3    0    0 -0.10949719360E+02 -0.13801665255E+01  0.17752674939E+02  0.20903556670E+02  0.51100000000E-03 0.  1.
         12    1    3    3    0    0  0.22638360430E+01  0.12955512904E+02  0.18322933509E+02  0.22554382293E+02  0.00000000000E+00 0. -1.
</event>
<event>
 7    1  0.2746803E-013  0.5052887E+02  0.7816164E-02  0.1300439E+00
        -11   -1    0    0    0    0  0.00000000000E+00  0.00000000000E+00  0.45593999997E+02  0.45594000000E+02  0.51100000000E-03 0.  1.
         11   -1    0    0    0    0 -0.00000000000E+00 -0.00000000000E+00 -0.45593999997E+02  0.45594000000E+02  0.51100000000E-03 0. -1.
    9900012    2    1    2    0    0  0.19247611617E+02  0.30497693816E+02  0.18777244014E+02  0.50528870965E+02  0.30000033786E+02 0.  0.
         12    1    1    2    0    0 -0.19247611617E+02 -0.30497693816E+02 -0.18777244014E+02  0.40659129035E+02  0.00000000000E+00 0. -1.
         11    1    3    3    0    0 -0.45245297714E+01  0.70171877783E+00  0.24383637584E+01  0.51874268163E+01  0.51100000000E-03 0. -1.
        -11    1    3    3    0    0  0.14162647610E+02  0.42190576249E+01  0.78340689828E+01  0.16725838444E+02  0.51100000000E-03 0.  1.
        -12    1    3    3    0    0  0.96094937789E+01  0.25576917414E+02  0.85048112729E+01  0.28615605705E+02  0.00000000000E+00 0.  1.
</event>
<event>
 7    1  0.2746803E-013  0.5052887E+02  0.7816164E-02  0.1300439E+00
        -11   -1    0    0    0    0  0.00000000000E+00  0.00000000000E+00  0.45593999997E+02  0.45594000000E+02  0.51100000000E-03 0. -1.
         11   -1    0    0    0    0 -0.00000000000E+00 -0.00000000000E+00 -0.45593999997E+02  0.45594000000E+02  0.51100000000E-03 0.  1.
    9900012    2    1    2    0    0  0.25551689546E+02  0.27273843592E+02 -0.16012926920E+02  0.50528865584E+02  0.30000017429E+02 0.  0.
         12    1    1    2    0    0 -0.25551689546E+02 -0.27273843592E+02  0.16012926920E+02  0.40659134416E+02  0.00000000000E+00 0. -1.
         11    1    3    3    0    0 -0.63149911334E+00 -0.21872307635E+01  0.49696253652E+00  0.23301805868E+01  0.51100000000E-03 0. -1.
        -11    1    3    3    0    0  0.21910873075E+02  0.20833596911E+02 -0.21743085525E+02  0.37240930273E+02  0.51100000000E-03 0.  1.
         12    1    3    3    0    0  0.42723155835E+01  0.86274774452E+01  0.52331960686E+01  0.10957754725E+02  0.00000000000E+00 0. -1.
</event>
<event>
 7    1  0.2746803E-013  0.5052885E+02  0.7816164E-02  0.1300439E+00
        -11   -1    0    0    0    0  0.00000000000E+00  0.00000000000E+00  0.45593999997E+02  0.45594000000E+02  0.51100000000E-03 0.  1.
         11   -1    0    0    0    0 -0.00000000000E+00 -0.00000000000E+00 -0.45593999997E+02  0.45594000000E+02  0.51100000000E-03 0. -1.
    9900012    2    1    2    0    0 -0.20616248289E+02 -0.77361699790E+01  0.34180232812E+02  0.50528851773E+02  0.29999975450E+02 0.  0.
         12    1    1    2    0    0  0.20616248289E+02  0.77361699790E+01 -0.34180232812E+02  0.40659148227E+02  0.00000000000E+00 0. -1.
         11    1    3    3    0    0 -0.15541189702E+02 -0.68063304750E+01  0.15903801499E+02  0.23254797662E+02  0.51100000000E-03 0.  1.
        -11    1    3    3    0    0 -0.49228888483E+01  0.22272163685E+01 -0.27142836668E+01  0.60467068268E+01  0.51100000000E-03 0. -1.
         12    1    3    3    0    0 -0.15216973827E+00 -0.31570558725E+01  0.20990714979E+02  0.21227347285E+02  0.00000000000E+00 0. -1.
</event>
<event>
 7    1  0.2746803E-013  0.5052885E+02  0.7816164E-02  0.1300439E+00
        -11   -1    0    0    0    0  0.00000000000E+00  0.00000000000E+00  0.45593999997E+02  0.45594000000E+02  0.51100000000E-03 0.  1.
         11   -1    0    0    0    0 -0.00000000000E+00 -0.00000000000E+00 -0.45593999997E+02  0.45594000000E+02  0.51100000000E-03 0. -1.
    9900012    2    1    2    0    0  0.54679825482E+01 -0.21430028376E+02  0.34117756574E+02  0.50528852654E+02  0.29999978126E+02 0.  0.
         12    1    1    2    0    0 -0.54679825482E+01  0.21430028376E+02 -0.34117756574E+02  0.40659147346E+02  0.00000000000E+00 0. -1.
         11    1    3    3    0    0  0.12386209979E+01  0.10915272079E+01  0.19340127026E+02  0.19410464376E+02  0.51100000000E-03 0. -1.
        -11    1    3    3    0    0  0.46471401483E+01 -0.32197410941E+00  0.41999155560E+00  0.46771756492E+01  0.51100000000E-03 0.  1.
        -12    1    3    3    0    0 -0.41777859804E+00 -0.22199581474E+02  0.14357637992E+02  0.26441212629E+02  0.00000000000E+00 0.  1.
</event>
<event>
 7    1  0.2746803E-013  0.5052886E+02  0.7816164E-02  0.1300439E+00
        -11   -1    0    0    0    0  0.00000000000E+00  0.00000000000E+00  0.45593999997E+02  0.45594000000E+02  0.51100000000E-03 0.  1.
         11   -1    0    0    0    0 -0.00000000000E+00 -0.00000000000E+00 -0.45593999997E+02  0.45594000000E+02  0.51100000000E-03 0. -1.
    9900012    2    1    2    0    0  0.21289298160E+01  0.30812490333E+02  0.26442840147E+02  0.50528859604E+02  0.29999999253E+02 0.  0.
         12    1    1    2    0    0 -0.21289298160E+01 -0.30812490333E+02 -0.26442840147E+02  0.40659140396E+02  0.00000000000E+00 0. -1.
         11    1    3    3    0    0  0.15391321507E+00  0.81155528860E+01 -0.70900414530E+00  0.81479184497E+01  0.51100000000E-03 0. -1.
        -11    1    3    3    0    0 -0.14529778860E+01  0.18677675405E+02  0.46981690629E+01  0.19314230403E+02  0.51100000000E-03 0.  1.
         12    1    3    3    0    0  0.34279944870E+01  0.40192620418E+01  0.22453675230E+02  0.23066710751E+02  0.00000000000E+00 0. -1.
</event>
<event>
 7    1  0.2746803E-013  0.5052887E+02  0.7816164E-02  0.1300439E+00
        -11   -1    0    0    0    0  0.00000000000E+00  0.00000000000E+00  0.45593999997E+02  0.45594000000E+02  0.51100000000E-03 0.  1.
         11   -1    0    0    0    0 -0.00000000000E+00 -0.00000000000E+00 -0.45593999997E+02  0.45594000000E+02  0.51100000000E-03 0. -1.
    9900012    2    1    2    0    0 -0.27364788733E+02 -0.29779528025E+01  0.29924326811E+02  0.50528865720E+02  0.30000017843E+02 0.  0.
         12    1    1    2    0    0  0.27364788733E+02  0.29779528025E+01 -0.29924326811E+02  0.40659134280E+02  0.00000000000E+00 0. -1.
         11    1    3    3    0    0 -0.41679692996E+01  0.24750776446E+01 -0.31550044446E+01  0.57837730536E+01  0.51100000000E-03 0. -1.
        -11    1    3    3    0    0 -0.23254342084E+01 -0.80580639666E+01  0.53766632790E+01  0.99623565196E+01  0.51100000000E-03 0.  1.
        -12    1    3    3    0    0 -0.20871385225E+02  0.26050335195E+01  0.27702667976E+02  0.34782736147E+02  0.00000000000E+00 0.  1.
</event>
<event>
 7    1  0.2746803E-013  0.5052886E+02  0.7816164E-02  0.1300439E+00
        -11   -1    0    0    0    0  0.00000000000E+00  0.00000000000E+00  0.45593999997E+02  0.45594000000E+02  0.51100000000E-03 0.  1.
         11   -1    0    0    0    0 -0.00000000000E+00 -0.00000000000E+00 -0.45593999997E+02  0.45594000000E+02  0.51100000000E-03 0. -1.
    9900012    2    1    2    0    0  0.91603154434E+01 -0.20723915183E+02  0.33760531674E+02  0.50528861563E+02  0.30000005206E+02 0.  0.
         12    1    1    2    0    0 -0.91603154434E+01  0.20723915183E+02 -0.33760531674E+02  0.40659138437E+02  0.00000000000E+00 0. -1.
         11    1    3    3    0    0 -0.25255561595E+01 -0.81534431963E+01  0.32178339837E+00  0.85416985832E+01  0.51100000000E-03 0. -1.
        -11    1    3    3    0    0  0.99930424720E+01 -0.11013409287E+02  0.88797185980E+01  0.17320666402E+02  0.51100000000E-03 0.  1.
         12    1    3    3    0    0  0.16928291309E+01 -0.15570627002E+01  0.24559029678E+02  0.24666496578E+02  0.00000000000E+00 0. -1.
</event>
<event>
 7    1  0.2746803E-013  0.5052886E+02  0.7816164E-02  0.1300439E+00
        -11   -1    0    0    0    0  0.00000000000E+00  0.00000000000E+00  0.45593999997E+02  0.45594000000E+02  0.51100000000E-03 0. -1.
         11   -1    0    0    0    0 -0.00000000000E+00 -0.00000000000E+00 -0.45593999997E+02  0.45594000000E+02  0.51100000000E-03 0.  1.
    9900012    2    1    2    0    0  0.36951456641E+02  0.13085340404E+02 -0.10794872954E+02  0.50528861255E+02  0.30000004270E+02 0.  0.
         12    1    1    2    0    0 -0.36951456641E+02 -0.13085340404E+02  0.10794872954E+02  0.40659138745E+02  0.00000000000E+00 0. -1.
         11    1    3    3    0    0  0.61459402510E+01  0.75319170512E+01 -0.48253736166E+01  0.10852952909E+02  0.51100000000E-03 0. -1.
        -11    1    3    3    0    0  0.20370703935E+01  0.98607212246E+01 -0.25475526303E+01  0.10386216998E+02  0.51100000000E-03 0.  1.
        -12    1    3    3    0    0  0.28768445997E+02 -0.43072978720E+01 -0.34219467074E+01  0.29289691349E+02  0.00000000000E+00 0.  1.
</event>
<event>
 7    1  0.2746803E-013  0.5052886E+02  0.7816164E-02  0.1300439E+00
        -11   -1    0    0    0    0  0.00000000000E+00  0.00000000000E+00  0.45593999997E+02  0.45594000000E+02  0.51100000000E-03 0. -1.
         11   -1    0    0    0    0 -0.00000000000E+00 -0.00000000000E+00 -0.45593999997E+02  0.45594000000E+02  0.51100000000E-03 0.  1.
    9900012    2    1    2    0    0 -0.15994769434E+02 -0.22535452849E+02 -0.29824260716E+02  0.50528858204E+02  0.29999994996E+02 0.  0.
         12    1    1    2    0    0  0.15994769434E+02  0.22535452849E+02  0.29824260716E+02  0.40659141796E+02  0.00000000000E+00 0. -1.
         11    1    3    3    0    0 -0.22873137767E+01 -0.23628233062E+01 -0.22065337000E+01  0.39602436188E+01  0.51100000000E-03 0. -1.
        -11    1    3    3    0    0 -0.10674661771E+02 -0.27129914438E+02 -0.17797739303E+02  0.34157578748E+02  0.51100000000E-03 0.  1.
         12    1    3    3    0    0 -0.30327938864E+01  0.69572848957E+01 -0.98199877124E+01  0.12411035837E+02  0.00000000000E+00 0. -1.
</event>
<event>
 7    1  0.2746803E-013  0.5052886E+02  0.7816164E-02  0.1300439E+00
        -11   -1    0    0    0    0  0.00000000000E+00  0.00000000000E+00  0.45593999997E+02  0.45594000000E+02  0.51100000000E-03 0. -1.
         11   -1    0    0    0    0 -0.00000000000E+00 -0.00000000000E+00 -0.45593999997E+02  0.45594000000E+02  0.51100000000E-03 0.  1.
    9900012    2    1    2    0    0 -0.11273196855E+02  0.32431889583E+02 -0.21777353979E+02  0.50528861106E+02  0.30000003817E+02 0.  0.
         12    1    1    2    0    0  0.11273196855E+02 -0.32431889583E+02  0.21777353979E+02  0.40659138894E+02  0.00000000000E+00 0. -1.
         11    1    3    3    0    0  0.35187546898E+01  0.42674511273E+00 -0.67801963083E+01  0.76508044151E+01  0.51100000000E-03 0. -1.
        -11    1    3    3    0    0 -0.10837227022E+02  0.35141663769E+01 -0.47468988670E+01  0.12342119103E+02  0.51100000000E-03 0.  1.
        -12    1    3    3    0    0 -0.39547245227E+01  0.28490978094E+02 -0.10250258804E+02  0.30535937587E+02  0.00000000000E+00 0.  1.
</event>
<event>
 7    1  0.2746803E-013  0.5052887E+02  0.7816164E-02  0.1300439E+00
        -11   -1    0    0    0    0  0.00000000000E+00  0.00000000000E+00  0.45593999997E+02  0.45594000000E+02  0.51100000000E-03 0.  1.
         11   -1    0    0    0    0 -0.00000000000E+00 -0.00000000000E+00 -0.45593999997E+02  0.45594000000E+02  0.51100000000E-03 0. -1.
    9900012    2    1    2    0    0  0.36424905484E+02  0.44509990171E+01  0.17509424381E+02  0.50528867275E+02  0.30000022570E+02 0.  0.
         12    1    1    2    0    0 -0.36424905484E+02 -0.44509990171E+01 -0.17509424381E+02  0.40659132725E+02  0.00000000000E+00 0. -1.
         11    1    3    3    0    0  0.22084180094E+02 -0.83604044602E+01  0.19523794699E+01  0.23694285366E+02  0.51100000000E-03 0. -1.
        -11    1    3    3    0    0  0.33065991680E+01 -0.16268959348E+01  0.23570999542E+01  0.43745067032E+01  0.51100000000E-03 0.  1.
         12    1    3    3    0    0  0.11034126222E+02  0.14438299412E+02  0.13199944956E+02  0.22460075206E+02  0.00000000000E+00 0. -1.
</event>
<event>
 7    1  0.2746803E-013  0.5052886E+02  0.7816164E-02  0.1300439E+00
        -11   -1    0    0    0    0  0.00000000000E+00  0.00000000000E+00  0.45593999997E+02  0.45594000000E+02  0.51100000000E-03 0.  1.
         11   -1    0    0    0    0 -0.00000000000E+00 -0.00000000000E+00 -0.45593999997E+02  0.45594000000E+02  0.51100000000E-03 0. -1.
    9900012    2    1    2    0    0  0.32950462926E+02  0.19711212286E+02  0.13375388380E+02  0.50528856980E+02  0.29999991277E+02 0.  0.
         12    1    1    2    0    0 -0.32950462926E+02 -0.19711212286E+02 -0.13375388380E+02  0.40659143020E+02  0.00000000000E+00 0. -1.
         11    1    3    3    0    0  0.29501689358E+01 -0.13732582188E+01  0.75955455139E+01  0.82632709504E+01  0.51100000000E-03 0.  1.
        -11    1    3    3    0    0  0.21050708707E+02  0.74192653102E+01  0.11307381323E+02  0.25020685591E+02  0.51100000000E-03 0. -1.
         12    1    3    3    0    0  0.89495852826E+01  0.13665205194E+02 -0.55275384573E+01  0.17244900439E+02  0.00000000000E+00 0. -1.
</event>
<event>
 7    1  0.2746803E-013  0.5052886E+02  0.7816164E-02  0.1300439E+00
        -11   -1    0    0    0    0  0.00000000000E+00  0.00000000000E+00  0.45593999997E+02  0.45594000000E+02  0.51100000000E-03 0.  1.
         11   -1    0    0    0    0 -0.00000000000E+00 -0.00000000000E+00 -0.45593999997E+02  0.45594000000E+02  0.51100000000E-03 0. -1.
    9900012    2    1    2    0    0  0.33148663641E+02 -0.20215381864E+02  0.12069382697E+02  0.50528861252E+02  0.30000004261E+02 0.  0.
         12    1    1    2    0    0 -0.33148663641E+02  0.20215381864E+02 -0.12069382697E+02  0.40659138748E+02  0.00000000000E+00 0. -1.
         11    1    3    3    0    0  0.31786571874E+01 -0.19288641996E+01  0.11150264423E+02  0.11753840886E+02  0.51100000000E-03 0. -1.
        -11    1    3    3    0    0 -0.83949454236E+00 -0.16264060822E+01 -0.30172975350E+01  0.35290271332E+01  0.51100000000E-03 0.  1.
        -12    1    3    3    0    0  0.30809500996E+02 -0.16660111582E+02  0.39364158091E+01  0.35245993233E+02  0.00000000000E+00 0.  1.
</event>
<event>
 7    1  0.2746803E-013  0.5052889E+02  0.7816164E-02  0.1300439E+00
        -11   -1    0    0    0    0  0.00000000000E+00  0.00000000000E+00  0.45593999997E+02  0.45594000000E+02  0.51100000000E-03 0.  1.
         11   -1    0    0    0    0 -0.00000000000E+00 -0.00000000000E+00 -0.45593999997E+02  0.45594000000E+02  0.51100000000E-03 0. -1.
    9900012    2    1    2    0    0 -0.24823352337E+02  0.18889719408E+02  0.26079542036E+02  0.50528894828E+02  0.30000106319E+02 0.  0.
         12    1    1    2    0    0  0.24823352337E+02 -0.18889719408E+02 -0.26079542036E+02  0.40659105172E+02  0.00000000000E+00 0. -1.
         11    1    3    3    0    0  0.16177716846E+01  0.72768550644E+01  0.11775700893E+02  0.13936891211E+02  0.51100000000E-03 0. -1.
        -11    1    3    3    0    0 -0.10441135898E+02  0.14000173635E+02  0.82988473265E+01  0.19336314227E+02  0.51100000000E-03 0.  1.
         12    1    3    3    0    0 -0.15999988123E+02 -0.23873092912E+01  0.60049938168E+01  0.17255689390E+02  0.00000000000E+00 0. -1.
</event>
<event>
 7    1  0.2746803E-013  0.5052888E+02  0.7816164E-02  0.1300439E+00
        -11   -1    0    0    0    0  0.00000000000E+00  0.00000000000E+00  0.45593999997E+02  0.45594000000E+02  0.51100000000E-03 0. -1.
         11   -1    0    0    0    0 -0.00000000000E+00 -0.00000000000E+00 -0.45593999997E+02  0.45594000000E+02  0.51100000000E-03 0.  1.
    9900012    2    1    2    0    0 -0.36156078490E+02 -0.16585387933E+02 -0.84158676401E+01  0.50528881308E+02  0.30000065225E+02 0.  0.
         12    1    1    2    0    0  0.36156078490E+02  0.16585387933E+02  0.84158676401E+01  0.40659118692E+02  0.00000000000E+00 0. -1.
         11    1    3    3    0    0 -0.58173630832E+01 -0.13563818658E+02  0.18387220168E+01  0.14872786852E+02  0.51100000000E-03 0. -1.
        -11    1    3    3    0    0 -0.14192030402E+02 -0.87709161286E+01 -0.26009021793E+01  0.16885123306E+02  0.51100000000E-03 0.  1.
        -12    1    3    3    0    0 -0.16146685005E+02  0.57493468543E+01 -0.76536874776E+01  0.18770971150E+02  0.00000000000E+00 0.  1.
</event>
<event>
 7    1  0.2746803E-013  0.5052889E+02  0.7816164E-02  0.1300439E+00
        -11   -1    0    0    0    0  0.00000000000E+00  0.00000000000E+00  0.45593999997E+02  0.45594000000E+02  0.51100000000E-03 0.  1.
         11   -1    0    0    0    0 -0.00000000000E+00 -0.00000000000E+00 -0.45593999997E+02  0.45594000000E+02  0.51100000000E-03 0. -1.
    9900012    2    1    2    0    0  0.38207181167E+02  0.11957294122E+02  0.70991471665E+01  0.50528887049E+02  0.30000082674E+02 0.  0.
         12    1    1    2    0    0 -0.38207181167E+02 -0.11957294122E+02 -0.70991471665E+01  0.40659112951E+02  0.00000000000E+00 0. -1.
         11    1    3    3    0    0  0.17365138538E+02  0.13834897672E+02 -0.56781657603E+01  0.22917111439E+02  0.51100000000E-03 0. -1.
        -11    1    3    3    0    0  0.91262858632E+01 -0.36367852921E+01 -0.47540792090E+00  0.98357162357E+01  0.51100000000E-03 0.  1.
        -12    1    3    3    0    0  0.11715756766E+02  0.17591817417E+01  0.13252720848E+02  0.17776059374E+02  0.00000000000E+00 0.  1.
</event>
<event>
 7    1  0.2746803E-013  0.5052886E+02  0.7816164E-02  0.1300439E+00
        -11   -1    0    0    0    0  0.00000000000E+00  0.00000000000E+00  0.45593999997E+02  0.45594000000E+02  0.51100000000E-03 0. -1.
         11   -1    0    0    0    0 -0.00000000000E+00 -0.00000000000E+00 -0.45593999997E+02  0.45594000000E+02  0.51100000000E-03 0.  1.
    9900012    2    1    2    0    0  0.35134012358E+02  0.92562440250E+01 -0.18250724945E+02  0.50528857869E+02  0.29999993979E+02 0.  0.
         12    1    1    2    0    0 -0.35134012358E+02 -0.92562440250E+01  0.18250724945E+02  0.40659142131E+02  0.00000000000E+00 0. -1.
         11    1    3    3    0    0  0.74915732453E+01  0.19262031621E+01 -0.76419915377E+01  0.10873544189E+02  0.51100000000E-03 0. -1.
        -11    1    3    3    0    0  0.18966065156E+02  0.16812141840E+02 -0.65587755729E+01  0.26179711191E+02  0.51100000000E-03 0.  1.
         12    1    3    3    0    0  0.86763739565E+01 -0.94821009774E+01 -0.40499578341E+01  0.13475602489E+02  0.00000000000E+00 0. -1.
</event>
<event>
 7    1  0.2746803E-013  0.5052885E+02  0.7816164E-02  0.1300439E+00
        -11   -1    0    0    0    0  0.00000000000E+00  0.00000000000E+00  0.45593999997E+02  0.45594000000E+02  0.51100000000E-03 0.  1.
         11   -1    0    0    0    0 -0.00000000000E+00 -0.00000000000E+00 -0.45593999997E+02  0.45594000000E+02  0.51100000000E-03 0. -1.
    9900012    2    1    2    0    0  0.28119779201E+02 -0.11785327875E+02  0.26898890877E+02  0.50528852618E+02  0.29999978016E+02 0.  0.
         12    1    1    2    0    0 -0.28119779201E+02  0.11785327875E+02 -0.26898890877E+02  0.40659147382E+02  0.00000000000E+00 0. -1.
         11    1    3    3    0    0  0.15068734232E+02 -0.72595667820E+01  0.80019864781E+01  0.18541840498E+02  0.51100000000E-03 0.  1.
        -11    1    3    3    0    0  0.70286682095E+01  0.30528288294E+00 -0.38119165397E+01  0.80016299843E+01  0.51100000000E-03 0. -1.
        -12    1    3    3    0    0  0.60223767602E+01 -0.48310439757E+01  0.22708820939E+02  0.23985382135E+02  0.00000000000E+00 0.  1.
</event>
<event>
 7    1  0.2746803E-013  0.5052885E+02  0.7816164E-02  0.1300439E+00
        -11   -1    0    0    0    0  0.00000000000E+00  0.00000000000E+00  0.45593999997E+02  0.45594000000E+02  0.51100000000E-03 0.  1.
         11   -1    0    0    0    0 -0.00000000000E+00 -0.00000000000E+00 -0.45593999997E+02  0.45594000000E+02  0.51100000000E-03 0. -1.
    9900012    2    1    2    0    0  0.17246883723E+02 -0.27093717656E+02  0.24932741943E+02  0.50528853976E+02  0.29999982146E+02 0.  0.
         12    1    1    2    0    0 -0.17246883723E+02  0.27093717656E+02 -0.24932741943E+02  0.40659146024E+02  0.00000000000E+00 0. -1.
         11    1    3    3    0    0  0.11087936024E+02 -0.27421804586E+02  0.15737962507E+02  0.33504942265E+02  0.51100000000E-03 0. -1.
        -11    1    3    3    0    0  0.67329720237E+01 -0.39580021539E+01  0.11552271881E+01  0.78951404953E+01  0.51100000000E-03 0.  1.
        -12    1    3    3    0    0 -0.57402432475E+00  0.42860890839E+01  0.80395522484E+01  0.91287712160E+01  0.00000000000E+00 0.  1.
</event>
<event>
 7    1  0.2746803E-013  0.5052886E+02  0.7816164E-02  0.1300439E+00
        -11   -1    0    0    0    0  0.00000000000E+00  0.00000000000E+00  0.45593999997E+02  0.45594000000E+02  0.51100000000E-03 0.  1.
         11   -1    0    0    0    0 -0.00000000000E+00 -0.00000000000E+00 -0.45593999997E+02  0.45594000000E+02  0.51100000000E-03 0. -1.
    9900012    2    1    2    0    0  0.28952275482E+02  0.20796405572E+02  0.19556101088E+02  0.50528857977E+02  0.29999994306E+02 0.  0.
         12    1    1    2    0    0 -0.28952275482E+02 -0.20796405572E+02 -0.19556101088E+02  0.40659142023E+02  0.00000000000E+00 0. -1.
         11    1    3    3    0    0  0.24881917900E+02  0.17934520516E+02  0.79390704028E+01  0.31682577288E+02  0.51100000000E-03 0. -1.
        -11    1    3    3    0    0  0.82016014583E+01  0.47504193912E+01  0.10546086977E+02  0.14179305401E+02  0.51100000000E-03 0.  1.
         12    1    3    3    0    0 -0.41312438764E+01 -0.18885343352E+01  0.10709437082E+01  0.46669752868E+01  0.00000000000E+00 0. -1.
</event>
<event>
 7    1  0.2746803E-013  0.5052886E+02  0.7816164E-02  0.1300439E+00
        -11   -1    0    0    0    0  0.00000000000E+00  0.00000000000E+00  0.45593999997E+02  0.45594000000E+02  0.51100000000E-03 0.  1.
         11   -1    0    0    0    0 -0.00000000000E+00 -0.00000000000E+00 -0.45593999997E+02  0.45594000000E+02  0.51100000000E-03 0. -1.
    9900012    2    1    2    0    0 -0.40565767025E+02 -0.15099256222E+01  0.23030494876E+01  0.50528863676E+02  0.30000011629E+02 0.  0.
         12    1    1    2    0    0  0.40565767025E+02  0.15099256222E+01 -0.23030494876E+01  0.40659136324E+02  0.00000000000E+00 0. -1.
         11    1    3    3    0    0 -0.16034371985E+02  0.36958707955E+00 -0.96081285582E+01  0.18696358315E+02  0.51100000000E-03 0. -1.
        -11    1    3    3    0    0 -0.73593443563E+01  0.69431332847E+01  0.28862062690E+01  0.10521275400E+02  0.51100000000E-03 0.  1.
        -12    1    3    3    0    0 -0.17172050683E+02 -0.88226459865E+01  0.90249717768E+01  0.21311229961E+02  0.00000000000E+00 0.  1.
</event>
<event>
 7    1  0.2746803E-013  0.5052886E+02  0.7816164E-02  0.1300439E+00
        -11   -1    0    0    0    0  0.00000000000E+00  0.00000000000E+00  0.45593999997E+02  0.45594000000E+02  0.51100000000E-03 0.  1.
         11   -1    0    0    0    0 -0.00000000000E+00 -0.00000000000E+00 -0.45593999997E+02  0.45594000000E+02  0.51100000000E-03 0. -1.
    9900012    2    1    2    0    0  0.32738004687E+02  0.92392151728E+01  0.22271626134E+02  0.50528863529E+02  0.30000011184E+02 0.  0.
         12    1    1    2    0    0 -0.32738004687E+02 -0.92392151728E+01 -0.22271626134E+02  0.40659136471E+02  0.00000000000E+00 0. -1.
         11    1    3    3    0    0  0.11170755790E+02 -0.80268970259E-01  0.17818795160E+01  0.11312264269E+02  0.51100000000E-03 0. -1.
        -11    1    3    3    0    0  0.13513237777E+02 -0.63457454731E+01  0.13935294988E+02  0.20422255690E+02  0.51100000000E-03 0.  1.
         12    1    3    3    0    0  0.80540111196E+01  0.15665229616E+02  0.65544516304E+01  0.18794343570E+02  0.00000000000E+00 0. -1.
</event>
<event>
 7    1  0.2746803E-013  0.5052878E+02  0.7816164E-02  0.1300439E+00
        -11   -1    0    0    0    0  0.00000000000E+00  0.00000000000E+00  0.45593999997E+02  0.45594000000E+02  0.51100000000E-03 0. -1.
         11   -1    0    0    0    0 -0.00000000000E+00 -0.00000000000E+00 -0.45593999997E+02  0.45594000000E+02  0.51100000000E-03 0.  1.
    9900012    2    1    2    0    0 -0.36014977372E+02 -0.35729041415E+00  0.18867057088E+02  0.50528780939E+02  0.29999760140E+02 0.  0.
         12    1    1    2    0    0  0.36014977372E+02  0.35729041415E+00 -0.18867057088E+02  0.40659219061E+02  0.00000000000E+00 0. -1.
         11    1    3    3    0    0 -0.40435079450E+01 -0.44193371609E+01 -0.57254340823E+01  0.82861989558E+01  0.51100000000E-03 0. -1.
        -11    1    3    3    0    0 -0.74324247992E+01  0.27934910713E+01  0.12617940411E+02  0.14908284651E+02  0.51100000000E-03 0.  1.
        -12    1    3    3    0    0 -0.24539044628E+02  0.12685556755E+01  0.11974550759E+02  0.27334297332E+02  0.00000000000E+00 0.  1.
</event>
<event>
 7    1  0.2746803E-013  0.5052886E+02  0.7816164E-02  0.1300439E+00
        -11   -1    0    0    0    0  0.00000000000E+00  0.00000000000E+00  0.45593999997E+02  0.45594000000E+02  0.51100000000E-03 0. -1.
         11   -1    0    0    0    0 -0.00000000000E+00 -0.00000000000E+00 -0.45593999997E+02  0.45594000000E+02  0.51100000000E-03 0.  1.
    9900012    2    1    2    0    0 -0.19026693934E+02 -0.20279493377E+02 -0.29662983171E+02  0.50528861983E+02  0.30000006483E+02 0.  0.
         12    1    1    2    0    0  0.19026693934E+02  0.20279493377E+02  0.29662983171E+02  0.40659138017E+02  0.00000000000E+00 0. -1.
         11    1    3    3    0    0 -0.26339745176E+01  0.14371942519E+01 -0.83450689390E+01  0.88681184552E+01  0.51100000000E-03 0. -1.
        -11    1    3    3    0    0 -0.11408745692E+02  0.19787996485E+00 -0.11572211600E+01  0.11468992799E+02  0.51100000000E-03 0.  1.
        -12    1    3    3    0    0 -0.49839737246E+01 -0.21914567594E+02 -0.20160693072E+02  0.30191750729E+02  0.00000000000E+00 0.  1.
</event>
<event>
 7    1  0.2746803E-013  0.5052886E+02  0.7816164E-02  0.1300439E+00
        -11   -1    0    0    0    0  0.00000000000E+00  0.00000000000E+00  0.45593999997E+02  0.45594000000E+02  0.51100000000E-03 0.  1.
         11   -1    0    0    0    0 -0.00000000000E+00 -0.00000000000E+00 -0.45593999997E+02  0.45594000000E+02  0.51100000000E-03 0. -1.
    9900012    2    1    2    0    0  0.26794133738E+02 -0.15937943451E+02  0.26100227949E+02  0.50528861504E+02  0.30000005029E+02 0.  0.
         12    1    1    2    0    0 -0.26794133738E+02  0.15937943451E+02 -0.26100227949E+02  0.40659138496E+02  0.00000000000E+00 0. -1.
         11    1    3    3    0    0  0.11905784061E+02 -0.49305938531E+01  0.38106124201E+01  0.13437976675E+02  0.51100000000E-03 0. -1.
        -11    1    3    3    0    0  0.18334426100E+02 -0.11125562782E+02  0.24828957354E+02  0.32808633790E+02  0.51100000000E-03 0.  1.
        -12    1    3    3    0    0 -0.34460764219E+01  0.11821318411E+00 -0.25393418251E+01  0.42822510397E+01  0.00000000000E+00 0.  1.
</event>
<event>
 7    1  0.2746803E-013  0.5052885E+02  0.7816164E-02  0.1300439E+00
        -11   -1    0    0    0    0  0.00000000000E+00  0.00000000000E+00  0.45593999997E+02  0.45594000000E+02  0.51100000000E-03 0. -1.
         11   -1    0    0    0    0 -0.00000000000E+00 -0.00000000000E+00 -0.45593999997E+02  0.45594000000E+02  0.51100000000E-03 0.  1.
    9900012    2    1    2    0    0 -0.29601353612E+02 -0.25352340135E+02 -0.11583827513E+02  0.50528851634E+02  0.29999975028E+02 0.  0.
         12    1    1    2    0    0  0.29601353612E+02  0.25352340135E+02  0.11583827513E+02  0.40659148366E+02  0.00000000000E+00 0. -1.
         11    1    3    3    0    0 -0.27239996590E+02 -0.24564271562E+02 -0.17968420556E+01  0.36723963474E+02  0.51100000000E-03 0.  1.
        -11    1    3    3    0    0 -0.15914513264E+01 -0.30532003584E+01  0.28293358733E+00  0.34546781947E+01  0.51100000000E-03 0. -1.
        -12    1    3    3    0    0 -0.76990569605E+00  0.22651317856E+01 -0.10069919044E+02  0.10350209966E+02  0.00000000000E+00 0.  1.
</event>
<event>
 7    1  0.2746803E-013  0.5052886E+02  0.7816164E-02  0.1300439E+00
        -11   -1    0    0    0    0  0.00000000000E+00  0.00000000000E+00  0.45593999997E+02  0.45594000000E+02  0.51100000000E-03 0.  1.
         11   -1    0    0    0    0 -0.00000000000E+00 -0.00000000000E+00 -0.45593999997E+02  0.45594000000E+02  0.51100000000E-03 0. -1.
    9900012    2    1    2    0    0 -0.26271958613E+01  0.36423194022E+02  0.17877762327E+02  0.50528860724E+02  0.30000002657E+02 0.  0.
         12    1    1    2    0    0  0.26271958613E+01 -0.36423194022E+02 -0.17877762327E+02  0.40659139276E+02  0.00000000000E+00 0. -1.
         11    1    3    3    0    0 -0.52581668960E+01  0.77566272504E+00  0.44380503544E+01  0.69243240088E+01  0.51100000000E-03 0. -1.
        -11    1    3    3    0    0 -0.71977044130E+01  0.57456082317E+01  0.67687198639E+01  0.11429546431E+02  0.51100000000E-03 0.  1.
         12    1    3    3    0    0  0.98286754477E+01  0.29901923065E+02  0.66709921083E+01  0.32174990284E+02  0.00000000000E+00 0. -1.
</event>
<event>
 7    1  0.2746803E-013  0.5052886E+02  0.7816164E-02  0.1300439E+00
        -11   -1    0    0    0    0  0.00000000000E+00  0.00000000000E+00  0.45593999997E+02  0.45594000000E+02  0.51100000000E-03 0. -1.
         11   -1    0    0    0    0 -0.00000000000E+00 -0.00000000000E+00 -0.45593999997E+02  0.45594000000E+02  0.51100000000E-03 0.  1.
    9900012    2    1    2    0    0  0.27957385803E+02  0.95580390130E+01 -0.27931954215E+02  0.50528860843E+02  0.30000003020E+02 0.  0.
         12    1    1    2    0    0 -0.27957385803E+02 -0.95580390130E+01  0.27931954215E+02  0.40659139157E+02  0.00000000000E+00 0. -1.
         11    1    3    3    0    0  0.11054267827E+02  0.15990169647E+02 -0.38754380918E+01  0.19821740165E+02  0.51100000000E-03 0. -1.
        -11    1    3    3    0    0  0.38450442609E+01  0.64305717359E-01 -0.87854954486E+01  0.95902779486E+01  0.51100000000E-03 0.  1.
        -12    1    3    3    0    0  0.13058073715E+02 -0.64964363515E+01 -0.15271020674E+02  0.21116842729E+02  0.00000000000E+00 0.  1.
</event>
<event>
 7    1  0.2746803E-013  0.5052886E+02  0.7816164E-02  0.1300439E+00
        -11   -1    0    0    0    0  0.00000000000E+00  0.00000000000E+00  0.45593999997E+02  0.45594000000E+02  0.51100000000E-03 0.  1.
         11   -1    0    0    0    0 -0.00000000000E+00 -0.00000000000E+00 -0.45593999997E+02  0.45594000000E+02  0.51100000000E-03 0. -1.
    9900012    2    1    2    0    0  0.12004993168E+02  0.17510643096E+02  0.34675974154E+02  0.50528859993E+02  0.30000000434E+02 0.  0.
         12    1    1    2    0    0 -0.12004993168E+02 -0.17510643096E+02 -0.34675974154E+02  0.40659140007E+02  0.00000000000E+00 0. -1.
         11    1    3    3    0    0  0.10244492200E+01 -0.48500218485E+01  0.77090501686E+01  0.91652421080E+01  0.51100000000E-03 0. -1.
        -11    1    3    3    0    0  0.90534590611E+01  0.75838813459E+01  0.15652471038E+01  0.11913453571E+02  0.51100000000E-03 0.  1.
        -12    1    3    3    0    0  0.19270848866E+01  0.14776783599E+02  0.25401676882E+02  0.29450164313E+02  0.00000000000E+00 0.  1.
</event>
<event>
 7    1  0.2746803E-013  0.5052886E+02  0.7816164E-02  0.1300439E+00
        -11   -1    0    0    0    0  0.00000000000E+00  0.00000000000E+00  0.45593999997E+02  0.45594000000E+02  0.51100000000E-03 0.  1.
         11   -1    0    0    0    0 -0.00000000000E+00 -0.00000000000E+00 -0.45593999997E+02  0.45594000000E+02  0.51100000000E-03 0. -1.
    9900012    2    1    2    0    0  0.13024271701E+02  0.20538279033E+02  0.32583939394E+02  0.50528860002E+02  0.30000000461E+02 0.  0.
         12    1    1    2    0    0 -0.13024271701E+02 -0.20538279033E+02 -0.32583939394E+02  0.40659139998E+02  0.00000000000E+00 0. -1.
         11    1    3    3    0    0 -0.21201553462E+00  0.12162548705E+02  0.92711822136E+01  0.15294684093E+02  0.51100000000E-03 0. -1.
        -11    1    3    3    0    0  0.11460448592E+02  0.12559247544E+02  0.71498170422E+01  0.18444415545E+02  0.51100000000E-03 0.  1.
         12    1    3    3    0    0  0.17758386436E+01 -0.41835172158E+01  0.16162940138E+02  0.16789760364E+02  0.00000000000E+00 0. -1.
</event>
<event>
 7    1  0.2746803E-013  0.5052887E+02  0.7816164E-02  0.1300439E+00
        -11   -1    0    0    0    0  0.00000000000E+00  0.00000000000E+00  0.45593999997E+02  0.45594000000E+02  0.51100000000E-03 0.  1.
         11   -1    0    0    0    0 -0.00000000000E+00 -0.00000000000E+00 -0.45593999997E+02  0.45594000000E+02  0.51100000000E-03 0. -1.
    9900012    2    1    2    0    0 -0.38219724593E+02 -0.73071683105E+01  0.11790794806E+02  0.50528869429E+02  0.30000029115E+02 0.  0.
         12    1    1    2    0    0  0.38219724593E+02  0.73071683105E+01 -0.11790794806E+02  0.40659130571E+02  0.00000000000E+00 0. -1.
         11    1    3    3    0    0 -0.23716498436E+01 -0.10238568976E+02  0.55808363206E+01  0.11899527384E+02  0.51100000000E-03 0. -1.
        -11    1    3    3    0    0 -0.17748856150E+02 -0.47999847049E+01  0.40741469857E+01  0.18832430054E+02  0.51100000000E-03 0.  1.
        -12    1    3    3    0    0 -0.18099218599E+02  0.77313853701E+01  0.21358114997E+01  0.19796911991E+02  0.00000000000E+00 0.  1.
</event>
<event>
 7    1  0.2746803E-013  0.5052886E+02  0.7816164E-02  0.1300439E+00
        -11   -1    0    0    0    0  0.00000000000E+00  0.00000000000E+00  0.45593999997E+02  0.45594000000E+02  0.51100000000E-03 0.  1.
         11   -1    0    0    0    0 -0.00000000000E+00 -0.00000000000E+00 -0.45593999997E+02  0.45594000000E+02  0.51100000000E-03 0. -1.
    9900012    2    1    2    0    0  0.12616309890E+01  0.13850951431E+02  0.38206352798E+02  0.50528856350E+02  0.29999989360E+02 0.  0.
         12    1    1    2    0    0 -0.12616309890E+01 -0.13850951431E+02 -0.38206352798E+02  0.40659143650E+02  0.00000000000E+00 0. -1.
         11    1    3    3    0    0 -0.94609227852E+01 -0.35778406374E+01  0.10214409308E+02  0.14375123003E+02  0.51100000000E-03 0. -1.
        -11    1    3    3    0    0  0.22109472043E+01  0.84643634947E+01  0.18842994291E+02  0.20774796534E+02  0.51100000000E-03 0.  1.
        -12    1    3    3    0    0  0.85116065698E+01  0.89644285737E+01  0.91489491978E+01  0.15378936812E+02  0.00000000000E+00 0.  1.
</event>
<event>
 7    1  0.2746803E-013  0.5052889E+02  0.7816164E-02  0.1300439E+00
        -11   -1    0    0    0    0  0.00000000000E+00  0.00000000000E+00  0.45593999997E+02  0.45594000000E+02  0.51100000000E-03 0.  1.
         11   -1    0    0    0    0 -0.00000000000E+00 -0.00000000000E+00 -0.45593999997E+02  0.45594000000E+02  0.51100000000E-03 0. -1.
    9900012    2    1    2    0    0  0.14084135695E+02  0.59838711933E+00  0.38137147760E+02  0.50528892967E+02  0.30000100663E+02 0.  0.
         12    1    1    2    0    0 -0.14084135695E+02 -0.59838711933E+00 -0.38137147760E+02  0.40659107033E+02  0.00000000000E+00 0. -1.
         11    1    3    3    0    0  0.92503387726E+01  0.10997596213E+02  0.77297984406E+01  0.16317649159E+02  0.51100000000E-03 0. -1.
        -11    1    3    3    0    0  0.16565011462E+01 -0.57539472471E+00 -0.33156441553E+00  0.17846597321E+01  0.51100000000E-03 0.  1.
         12    1    3    3    0    0  0.31772957760E+01 -0.98238143694E+01  0.30738913735E+02  0.32426584076E+02  0.00000000000E+00 0. -1.
</event>
<event>
 7    1  0.2746803E-013  0.5052886E+02  0.7816164E-02  0.1300439E+00
        -11   -1    0    0    0    0  0.00000000000E+00  0.00000000000E+00  0.45593999997E+02  0.45594000000E+02  0.51100000000E-03 0.  1.
         11   -1    0    0    0    0 -0.00000000000E+00 -0.00000000000E+00 -0.45593999997E+02  0.45594000000E+02  0.51100000000E-03 0. -1.
    9900012    2    1    2    0    0  0.38093208379E+02  0.13105006327E+01  0.14154715233E+02  0.50528857119E+02  0.29999991699E+02 0.  0.
         12    1    1    2    0    0 -0.38093208379E+02 -0.13105006327E+01 -0.14154715233E+02  0.40659142881E+02  0.00000000000E+00 0. -1.
         11    1    3    3    0    0  0.25941033834E+02  0.55096753250E+01  0.13086836619E+02  0.29572944587E+02  0.51100000000E-03 0.  1.
        -11    1    3    3    0    0  0.10544362231E+02  0.44323621171E+01 -0.20858182030E+01  0.11626695430E+02  0.51100000000E-03 0. -1.
        -12    1    3    3    0    0  0.16078123139E+01 -0.86315368094E+01  0.31536968169E+01  0.93292171023E+01  0.00000000000E+00 0.  1.
</event>
<event>
 7    1  0.2746803E-013  0.5052886E+02  0.7816164E-02  0.1300439E+00
        -11   -1    0    0    0    0  0.00000000000E+00  0.00000000000E+00  0.45593999997E+02  0.45594000000E+02  0.51100000000E-03 0.  1.
         11   -1    0    0    0    0 -0.00000000000E+00 -0.00000000000E+00 -0.45593999997E+02  0.45594000000E+02  0.51100000000E-03 0. -1.
    9900012    2    1    2    0    0 -0.61685374546E+01 -0.33572530488E+02  0.22090722184E+02  0.50528860015E+02  0.30000000502E+02 0.  0.
         12    1    1    2    0    0  0.61685374546E+01  0.33572530488E+02 -0.22090722184E+02  0.40659139985E+02  0.00000000000E+00 0. -1.
         11    1    3    3    0    0 -0.73953218268E+01 -0.19913874415E+02  0.24529067690E+02  0.32448857316E+02  0.51100000000E-03 0. -1.
        -11    1    3    3    0    0  0.56254647873E+00 -0.44852830977E+01  0.46371628460E+01  0.64759171187E+01  0.51100000000E-03 0.  1.
         12    1    3    3    0    0  0.66423789348E+00 -0.91733729748E+01 -0.70755083518E+01  0.11604085580E+02  0.00000000000E+00 0. -1.
</event>
<event>
 7    1  0.2746803E-013  0.5052886E+02  0.7816164E-02  0.1300439E+00
        -11   -1    0    0    0    0  0.00000000000E+00  0.00000000000E+00  0.45593999997E+02  0.45594000000E+02  0.51100000000E-03 0.  1.
         11   -1    0    0    0    0 -0.00000000000E+00 -0.00000000000E+00 -0.45593999997E+02  0.45594000000E+02  0.51100000000E-03 0. -1.
    9900012    2    1    2    0    0 -0.29124752025E+02 -0.27203699968E+02  0.80543985061E+01  0.50528858251E+02  0.29999995140E+02 0.  0.
         12    1    1    2    0    0  0.29124752025E+02  0.27203699968E+02 -0.80543985061E+01  0.40659141749E+02  0.00000000000E+00 0. -1.
         11    1    3    3    0    0  0.34935891501E+01  0.15291953374E+00  0.52763744202E+00  0.35365167984E+01  0.51100000000E-03 0. -1.
        -11    1    3    3    0    0 -0.23586521167E+02 -0.11030122291E+02  0.10543448109E+02  0.28091847159E+02  0.51100000000E-03 0.  1.
         12    1    3    3    0    0 -0.90318200079E+01 -0.16326497211E+02 -0.30166870449E+01  0.18900494294E+02  0.00000000000E+00 0. -1.
</event>
<event>
 7    1  0.2746803E-013  0.5052876E+02  0.7816164E-02  0.1300439E+00
        -11   -1    0    0    0    0  0.00000000000E+00  0.00000000000E+00  0.45593999997E+02  0.45594000000E+02  0.51100000000E-03 0.  1.
         11   -1    0    0    0    0 -0.00000000000E+00 -0.00000000000E+00 -0.45593999997E+02  0.45594000000E+02  0.51100000000E-03 0. -1.
    9900012    2    1    2    0    0 -0.11469180370E+02  0.38765880454E+02 -0.43402910989E+01  0.50528761043E+02  0.29999699664E+02 0.  0.
         12    1    1    2    0    0  0.11469180370E+02 -0.38765880454E+02  0.43402910989E+01  0.40659238957E+02  0.00000000000E+00 0. -1.
         11    1    3    3    0    0 -0.23453525067E+01  0.15584052445E+01 -0.83358397359E+01  0.87986095294E+01  0.51100000000E-03 0. -1.
        -11    1    3    3    0    0 -0.31418432862E+01  0.17659294713E+02 -0.60800385289E+01  0.18939079644E+02  0.51100000000E-03 0.  1.
        -12    1    3    3    0    0 -0.59819845772E+01  0.19548180497E+02  0.10075587166E+02  0.22791071870E+02  0.00000000000E+00 0.  1.
</event>
<event>
 7    1  0.2746803E-013  0.5052885E+02  0.7816164E-02  0.1300439E+00
        -11   -1    0    0    0    0  0.00000000000E+00  0.00000000000E+00  0.45593999997E+02  0.45594000000E+02  0.51100000000E-03 0. -1.
         11   -1    0    0    0    0 -0.00000000000E+00 -0.00000000000E+00 -0.45593999997E+02  0.45594000000E+02  0.51100000000E-03 0.  1.
    9900012    2    1    2    0    0  0.10239864048E+02  0.23932376874E+02 -0.31233840248E+02  0.50528852749E+02  0.29999978415E+02 0.  0.
         12    1    1    2    0    0 -0.10239864048E+02 -0.23932376874E+02  0.31233840248E+02  0.40659147251E+02  0.00000000000E+00 0. -1.
         11    1    3    3    0    0 -0.93675362657E+00  0.22162198717E+02 -0.16195150635E+02  0.27464949730E+02  0.51100000000E-03 0. -1.
        -11    1    3    3    0    0  0.46139068987E+01  0.63011170959E+01 -0.12417633649E+02  0.14669350334E+02  0.51100000000E-03 0.  1.
         12    1    3    3    0    0  0.65627107764E+01 -0.45309389388E+01 -0.26210559630E+01  0.83945526839E+01  0.00000000000E+00 0. -1.
</event>
<event>
 7    1  0.2746803E-013  0.5052886E+02  0.7816164E-02  0.1300439E+00
        -11   -1    0    0    0    0  0.00000000000E+00  0.00000000000E+00  0.45593999997E+02  0.45594000000E+02  0.51100000000E-03 0.  1.
         11   -1    0    0    0    0 -0.00000000000E+00 -0.00000000000E+00 -0.45593999997E+02  0.45594000000E+02  0.51100000000E-03 0. -1.
    9900012    2    1    2    0    0 -0.80962178842E+01  0.31521784144E+02  0.24371987201E+02  0.50528863514E+02  0.30000011138E+02 0.  0.
         12    1    1    2    0    0  0.80962178842E+01 -0.31521784144E+02 -0.24371987201E+02  0.40659136486E+02  0.00000000000E+00 0. -1.
         11    1    3    3    0    0 -0.63187521209E+01  0.22706898269E+02  0.23812352549E+02  0.33504596574E+02  0.51100000000E-03 0.  1.
        -11    1    3    3    0    0  0.85933567230E+00  0.12254422205E+02  0.20229063051E+01  0.12449958697E+02  0.51100000000E-03 0. -1.
         12    1    3    3    0    0 -0.26368014356E+01 -0.34395363303E+01 -0.14632716529E+01  0.45743082437E+01  0.00000000000E+00 0. -1.
</event>
<event>
 7    1  0.2746803E-013  0.5052886E+02  0.7816164E-02  0.1300439E+00
        -11   -1    0    0    0    0  0.00000000000E+00  0.00000000000E+00  0.45593999997E+02  0.45594000000E+02  0.51100000000E-03 0.  1.
         11   -1    0    0    0    0 -0.00000000000E+00 -0.00000000000E+00 -0.45593999997E+02  0.45594000000E+02  0.51100000000E-03 0. -1.
    9900012    2    1    2    0    0 -0.34683576918E+02 -0.12696256280E+02  0.17000596025E+02  0.50528859619E+02  0.29999999297E+02 0.  0.
         12    1    1    2    0    0  0.34683576918E+02  0.12696256280E+02 -0.17000596025E+02  0.40659140381E+02  0.00000000000E+00 0. -1.
         11    1    3    3    0    0 -0.16381971141E+02 -0.92674644674E+00  0.12388772912E+02  0.20559901069E+02  0.51100000000E-03 0.  1.
        -11    1    3    3    0    0 -0.14986720321E+01  0.51714672317E+01  0.27228036594E+01  0.60335521227E+01  0.51100000000E-03 0. -1.
         12    1    3    3    0    0 -0.16802933745E+02 -0.16940977065E+02  0.18890194536E+01  0.23935406427E+02  0.00000000000E+00 0. -1.
</event>
<event>
 7    1  0.2746803E-013  0.5052891E+02  0.7816164E-02  0.1300439E+00
        -11   -1    0    0    0    0  0.00000000000E+00  0.00000000000E+00  0.45593999997E+02  0.45594000000E+02  0.51100000000E-03 0.  1.
         11   -1    0    0    0    0 -0.00000000000E+00 -0.00000000000E+00 -0.45593999997E+02  0.45594000000E+02  0.51100000000E-03 0. -1.
    9900012    2    1    2    0    0  0.32677580798E+01  0.12060407036E+02  0.38691471938E+02  0.50528909240E+02  0.30000150125E+02 0.  0.
         12    1    1    2    0    0 -0.32677580798E+01 -0.12060407036E+02 -0.38691471938E+02  0.40659090760E+02  0.00000000000E+00 0. -1.
         11    1    3    3    0    0  0.68609552694E+00  0.18884403350E+02  0.32234031165E+02  0.37364745181E+02  0.51100000000E-03 0.  1.
        -11    1    3    3    0    0  0.50860206893E+01 -0.11399087853E+01  0.35480775508E+01  0.63052242671E+01  0.51100000000E-03 0. -1.
        -12    1    3    3    0    0 -0.25043581365E+01 -0.56840875293E+01  0.29093632216E+01  0.68589397921E+01  0.00000000000E+00 0.  1.
</event>
<event>
 7    1  0.2746803E-013  0.5052886E+02  0.7816164E-02  0.1300439E+00
        -11   -1    0    0    0    0  0.00000000000E+00  0.00000000000E+00  0.45593999997E+02  0.45594000000E+02  0.51100000000E-03 0. -1.
         11   -1    0    0    0    0 -0.00000000000E+00 -0.00000000000E+00 -0.45593999997E+02  0.45594000000E+02  0.51100000000E-03 0.  1.
    9900012    2    1    2    0    0 -0.36173706908E+02 -0.63049525723E+01 -0.17460693975E+02  0.50528864096E+02  0.30000012906E+02 0.  0.
         12    1    1    2    0    0  0.36173706908E+02  0.63049525723E+01  0.17460693975E+02  0.40659135904E+02  0.00000000000E+00 0. -1.
         11    1    3    3    0    0 -0.47791652574E+01  0.12071497007E+01 -0.79145286637E+01  0.93240224789E+01  0.51100000000E-03 0. -1.
        -11    1    3    3    0    0 -0.24967182607E+02 -0.97094386985E+01 -0.16517391342E+02  0.31471536730E+02  0.51100000000E-03 0.  1.
         12    1    3    3    0    0 -0.64273590435E+01  0.21973364255E+01  0.69712260312E+01  0.97333048868E+01  0.00000000000E+00 0. -1.
</event>
<event>
 7    1  0.2746803E-013  0.5052884E+02  0.7816164E-02  0.1300439E+00
        -11   -1    0    0    0    0  0.00000000000E+00  0.00000000000E+00  0.45593999997E+02  0.45594000000E+02  0.51100000000E-03 0.  1.
         11   -1    0    0    0    0 -0.00000000000E+00 -0.00000000000E+00 -0.45593999997E+02  0.45594000000E+02  0.51100000000E-03 0. -1.
    9900012    2    1    2    0    0  0.35058911249E+02 -0.16727498861E+02 -0.12009599256E+02  0.50528844200E+02  0.29999952430E+02 0.  0.
         12    1    1    2    0    0 -0.35058911249E+02  0.16727498861E+02  0.12009599256E+02  0.40659155800E+02  0.00000000000E+00 0. -1.
         11    1    3    3    0    0  0.18654334044E+02  0.24422807544E+01 -0.31674947289E+01  0.19078310644E+02  0.51100000000E-03 0. -1.
        -11    1    3    3    0    0  0.12670131472E+02 -0.88047942346E+01  0.25092600655E+01  0.15631795142E+02  0.51100000000E-03 0.  1.
         12    1    3    3    0    0  0.37344457319E+01 -0.10364985381E+02 -0.11351364593E+02  0.15818738413E+02  0.00000000000E+00 0. -1.
</event>
<event>
 7    1  0.2746803E-013  0.5052886E+02  0.7816164E-02  0.1300439E+00
        -11   -1    0    0    0    0  0.00000000000E+00  0.00000000000E+00  0.45593999997E+02  0.45594000000E+02  0.51100000000E-03 0.  1.
         11   -1    0    0    0    0 -0.00000000000E+00 -0.00000000000E+00 -0.45593999997E+02  0.45594000000E+02  0.51100000000E-03 0. -1.
    9900012    2    1    2    0    0  0.84145171171E+01  0.27768565504E+02  0.28482773951E+02  0.50528859079E+02  0.29999997657E+02 0.  0.
         12    1    1    2    0    0 -0.84145171171E+01 -0.27768565504E+02 -0.28482773951E+02  0.40659140921E+02  0.00000000000E+00 0. -1.
         11    1    3    3    0    0  0.64401276268E+00 -0.27991588474E+01  0.36208324785E+01  0.46217389357E+01  0.51100000000E-03 0. -1.
        -11    1    3    3    0    0 -0.68889443913E+01  0.89433901535E+01  0.12993786258E+02  0.17212793609E+02  0.51100000000E-03 0.  1.
        -12    1    3    3    0    0  0.14659448746E+02  0.21624334198E+02  0.11868155215E+02  0.28694326534E+02  0.00000000000E+00 0.  1.
</event>
<event>
 7    1  0.2746803E-013  0.5052886E+02  0.7816164E-02  0.1300439E+00
        -11   -1    0    0    0    0  0.00000000000E+00  0.00000000000E+00  0.45593999997E+02  0.45594000000E+02  0.51100000000E-03 0.  1.
         11   -1    0    0    0    0 -0.00000000000E+00 -0.00000000000E+00 -0.45593999997E+02  0.45594000000E+02  0.51100000000E-03 0. -1.
    9900012    2    1    2    0    0  0.22232143025E+02 -0.15665095513E+02  0.30224205305E+02  0.50528856044E+02  0.29999988431E+02 0.  0.
         12    1    1    2    0    0 -0.22232143025E+02  0.15665095513E+02 -0.30224205305E+02  0.40659143956E+02  0.00000000000E+00 0. -1.
         11    1    3    3    0    0  0.27810571999E+01 -0.15660091144E+01 -0.14024665953E+01  0.34861980017E+01  0.51100000000E-03 0. -1.
        -11    1    3    3    0    0  0.43490774441E+01 -0.16582591809E+02  0.80630184652E+01  0.18944896219E+02  0.51100000000E-03 0.  1.
        -12    1    3    3    0    0  0.15102008381E+02  0.24835054100E+01  0.23563653435E+02  0.28097761823E+02  0.00000000000E+00 0.  1.
</event>
<event>
 7    1  0.2746803E-013  0.5052886E+02  0.7816164E-02  0.1300439E+00
        -11   -1    0    0    0    0  0.00000000000E+00  0.00000000000E+00  0.45593999997E+02  0.45594000000E+02  0.51100000000E-03 0.  1.
         11   -1    0    0    0    0 -0.00000000000E+00 -0.00000000000E+00 -0.45593999997E+02  0.45594000000E+02  0.51100000000E-03 0. -1.
    9900012    2    1    2    0    0  0.14365198388E+02 -0.21361715870E+02  0.31471958557E+02  0.50528855825E+02  0.29999987766E+02 0.  0.
         12    1    1    2    0    0 -0.14365198388E+02  0.21361715870E+02 -0.31471958557E+02  0.40659144175E+02  0.00000000000E+00 0. -1.
         11    1    3    3    0    0  0.24003587608E+01 -0.71833155633E+01 -0.34685905396E+01  0.83302380071E+01  0.51100000000E-03 0. -1.
        -11    1    3    3    0    0  0.33645531466E+01 -0.13911244988E+02  0.16454076664E+02  0.21807787465E+02  0.51100000000E-03 0.  1.
         12    1    3    3    0    0  0.86002864801E+01 -0.26715531896E+00  0.18486472433E+02  0.20390830354E+02  0.00000000000E+00 0. -1.
</event>
<event>
 7    1  0.2746803E-013  0.5052886E+02  0.7816164E-02  0.1300439E+00
        -11   -1    0    0    0    0  0.00000000000E+00  0.00000000000E+00  0.45593999997E+02  0.45594000000E+02  0.51100000000E-03 0.  1.
         11   -1    0    0    0    0 -0.00000000000E+00 -0.00000000000E+00 -0.45593999997E+02  0.45594000000E+02  0.51100000000E-03 0. -1.
    9900012    2    1    2    0    0 -0.22753356501E+02 -0.18007854720E+02  0.28481000946E+02  0.50528862299E+02  0.30000007445E+02 0.  0.
         12    1    1    2    0    0  0.22753356501E+02  0.18007854720E+02 -0.28481000946E+02  0.40659137701E+02  0.00000000000E+00 0. -1.
         11    1    3    3    0    0 -0.38363164807E+00  0.29424617829E+01 -0.21003118304E+01  0.36354593426E+01  0.51100000000E-03 0. -1.
        -11    1    3    3    0    0 -0.38353856328E+01  0.83762471171E+00  0.12382961803E+02  0.12990363405E+02  0.51100000000E-03 0.  1.
        -12    1    3    3    0    0 -0.18534339221E+02 -0.21787941215E+02  0.18198350973E+02  0.33903039552E+02  0.00000000000E+00 0.  1.
</event>
<event>
 7    1  0.2746803E-013  0.5052886E+02  0.7816164E-02  0.1300439E+00
        -11   -1    0    0    0    0  0.00000000000E+00  0.00000000000E+00  0.45593999997E+02  0.45594000000E+02  0.51100000000E-03 0.  1.
         11   -1    0    0    0    0 -0.00000000000E+00 -0.00000000000E+00 -0.45593999997E+02  0.45594000000E+02  0.51100000000E-03 0. -1.
    9900012    2    1    2    0    0 -0.23669549337E+02  0.12910836978E+02  0.30433996528E+02  0.50528862996E+02  0.30000009562E+02 0.  0.
         12    1    1    2    0    0  0.23669549337E+02 -0.12910836978E+02 -0.30433996528E+02  0.40659137004E+02  0.00000000000E+00 0. -1.
         11    1    3    3    0    0 -0.22323305913E+02  0.12063332194E+02  0.21854597006E+02  0.33488466389E+02  0.51100000000E-03 0. -1.
        -11    1    3    3    0    0 -0.45039261423E+01 -0.18677957336E+01  0.11133923900E+02  0.12154763398E+02  0.51100000000E-03 0.  1.
        -12    1    3    3    0    0  0.31576827191E+01  0.27153005174E+01 -0.25545243779E+01  0.48856332089E+01  0.00000000000E+00 0.  1.
</event>
<event>
 7    1  0.2746803E-013  0.5052886E+02  0.7816164E-02  0.1300439E+00
        -11   -1    0    0    0    0  0.00000000000E+00  0.00000000000E+00  0.45593999997E+02  0.45594000000E+02  0.51100000000E-03 0. -1.
         11   -1    0    0    0    0 -0.00000000000E+00 -0.00000000000E+00 -0.45593999997E+02  0.45594000000E+02  0.51100000000E-03 0.  1.
    9900012    2    1    2    0    0  0.11251556115E+02  0.36405350817E+02 -0.14185156433E+02  0.50528859009E+02  0.29999997442E+02 0.  0.
         12    1    1    2    0    0 -0.11251556115E+02 -0.36405350817E+02  0.14185156433E+02  0.40659140991E+02  0.00000000000E+00 0. -1.
         11    1    3    3    0    0  0.29950328910E+01  0.12451196829E+02 -0.12678994996E+02  0.18021083177E+02  0.51100000000E-03 0. -1.
        -11    1    3    3    0    0  0.91716819833E+01  0.26638274025E+02 -0.43322991108E+01  0.28504143721E+02  0.51100000000E-03 0.  1.
         12    1    3    3    0    0 -0.91515875923E+00 -0.26841200371E+01  0.28261376733E+01  0.40036321106E+01  0.00000000000E+00 0. -1.
</event>
<event>
 7    1  0.2746803E-013  0.5052883E+02  0.7816164E-02  0.1300439E+00
        -11   -1    0    0    0    0  0.00000000000E+00  0.00000000000E+00  0.45593999997E+02  0.45594000000E+02  0.51100000000E-03 0. -1.
         11   -1    0    0    0    0 -0.00000000000E+00 -0.00000000000E+00 -0.45593999997E+02  0.45594000000E+02  0.51100000000E-03 0.  1.
    9900012    2    1    2    0    0 -0.80663193555E+01 -0.73935576869E+01 -0.39159131424E+02  0.50528834034E+02  0.29999921528E+02 0.  0.
         12    1    1    2    0    0  0.80663193555E+01  0.73935576869E+01  0.39159131424E+02  0.40659165966E+02  0.00000000000E+00 0. -1.
         11    1    3    3    0    0 -0.75478196516E+01 -0.16746163942E+01 -0.10886516415E+01  0.78076298720E+01  0.51100000000E-03 0. -1.
        -11    1    3    3    0    0 -0.16629992637E+01  0.26718367531E+01 -0.32347584624E+02  0.32500315528E+02  0.51100000000E-03 0.  1.
         12    1    3    3    0    0  0.11444995598E+01 -0.83907780458E+01 -0.57228951585E+01  0.10220888633E+02  0.00000000000E+00 0. -1.
</event>
<event>
 7    1  0.2746803E-013  0.5052885E+02  0.7816164E-02  0.1300439E+00
        -11   -1    0    0    0    0  0.00000000000E+00  0.00000000000E+00  0.45593999997E+02  0.45594000000E+02  0.51100000000E-03 0. -1.
         11   -1    0    0    0    0 -0.00000000000E+00 -0.00000000000E+00 -0.45593999997E+02  0.45594000000E+02  0.51100000000E-03 0.  1.
    9900012    2    1    2    0    0  0.29303951964E+01  0.21724721459E+02 -0.34243476756E+02  0.50528850491E+02  0.29999971553E+02 0.  0.
         12    1    1    2    0    0 -0.29303951964E+01 -0.21724721459E+02  0.34243476756E+02  0.40659149509E+02  0.00000000000E+00 0. -1.
         11    1    3    3    0    0 -0.65834612842E+01  0.89801892244E+01 -0.47336839573E+01  0.12099319198E+02  0.51100000000E-03 0. -1.
        -11    1    3    3    0    0 -0.44684795588E+01  0.86369063608E+01 -0.88610591312E+01  0.13156056789E+02  0.51100000000E-03 0.  1.
        -12    1    3    3    0    0  0.13982336039E+02  0.41076258732E+01 -0.20648733667E+02  0.25273474504E+02  0.00000000000E+00 0.  1.
</event>
<event>
 7    1  0.2746803E-013  0.5052890E+02  0.7816164E-02  0.1300439E+00
        -11   -1    0    0    0    0  0.00000000000E+00  0.00000000000E+00  0.45593999997E+02  0.45594000000E+02  0.51100000000E-03 0.  1.
         11   -1    0    0    0    0 -0.00000000000E+00 -0.00000000000E+00 -0.45593999997E+02  0.45594000000E+02  0.51100000000E-03 0. -1.
    9900012    2    1    2    0    0  0.14005663217E+02 -0.37811109810E+02  0.52272070298E+01  0.50528901135E+02  0.30000125490E+02 0.  0.
         12    1    1    2    0    0 -0.14005663217E+02  0.37811109810E+02 -0.52272070298E+01  0.40659098865E+02  0.00000000000E+00 0. -1.
         11    1    3    3    0    0 -0.56206110401E+01 -0.67990301712E+01 -0.52485943000E+00  0.88370559246E+01  0.51100000000E-03 0. -1.
        -11    1    3    3    0    0  0.67840249120E+01 -0.25419040029E+02 -0.59065252308E+00  0.26315384486E+02  0.51100000000E-03 0.  1.
        -12    1    3    3    0    0  0.12842249345E+02 -0.55930396099E+01  0.63427189829E+01  0.15376460724E+02  0.00000000000E+00 0.  1.
</event>
<event>
 7    1  0.2746803E-013  0.5052885E+02  0.7816164E-02  0.1300439E+00
        -11   -1    0    0    0    0  0.00000000000E+00  0.00000000000E+00  0.45593999997E+02  0.45594000000E+02  0.51100000000E-03 0. -1.
         11   -1    0    0    0    0 -0.00000000000E+00 -0.00000000000E+00 -0.45593999997E+02  0.45594000000E+02  0.51100000000E-03 0.  1.
    9900012    2    1    2    0    0 -0.11269703421E+02  0.15770512222E+02 -0.35741445966E+02  0.50528853050E+02  0.29999979332E+02 0.  0.
         12    1    1    2    0    0  0.11269703421E+02 -0.15770512222E+02  0.35741445966E+02  0.40659146950E+02  0.00000000000E+00 0. -1.
         11    1    3    3    0    0 -0.49301916571E+01  0.58228552019E+01 -0.22111857487E+02  0.23391166586E+02  0.51100000000E-03 0.  1.
        -11    1    3    3    0    0  0.70537309207E+01  0.54923839651E+01 -0.78076007132E+01  0.11869289392E+02  0.51100000000E-03 0. -1.
        -12    1    3    3    0    0 -0.13393242685E+02  0.44552730553E+01 -0.58219877654E+01  0.15268397072E+02  0.00000000000E+00 0.  1.
</event>
<event>
 7    1  0.2746803E-013  0.5052886E+02  0.7816164E-02  0.1300439E+00
        -11   -1    0    0    0    0  0.00000000000E+00  0.00000000000E+00  0.45593999997E+02  0.45594000000E+02  0.51100000000E-03 0.  1.
         11   -1    0    0    0    0 -0.00000000000E+00 -0.00000000000E+00 -0.45593999997E+02  0.45594000000E+02  0.51100000000E-03 0. -1.
    9900012    2    1    2    0    0 -0.12240015802E-01 -0.20095388120E+02  0.35346016768E+02  0.50528859885E+02  0.30000000107E+02 0.  0.
         12    1    1    2    0    0  0.12240015802E-01  0.20095388120E+02 -0.35346016768E+02  0.40659140115E+02  0.00000000000E+00 0. -1.
         11    1    3    3    0    0 -0.15791366532E+01  0.20149203132E+01  0.12101697776E+02  0.12369505478E+02  0.51100000000E-03 0. -1.
        -11    1    3    3    0    0 -0.23555431726E+01 -0.23182622935E+02  0.24589142869E+02  0.33876371368E+02  0.51100000000E-03 0.  1.
         12    1    3    3    0    0  0.39224398100E+01  0.10723145021E+01 -0.13448238772E+01  0.42829830393E+01  0.00000000000E+00 0. -1.
</event>
<event>
 7    1  0.2746803E-013  0.5052881E+02  0.7816164E-02  0.1300439E+00
        -11   -1    0    0    0    0  0.00000000000E+00  0.00000000000E+00  0.45593999997E+02  0.45594000000E+02  0.51100000000E-03 0. -1.
         11   -1    0    0    0    0 -0.00000000000E+00 -0.00000000000E+00 -0.45593999997E+02  0.45594000000E+02  0.51100000000E-03 0.  1.
    9900012    2    1    2    0    0  0.21531340717E+02 -0.21017687791E+01 -0.34426064498E+02  0.50528806920E+02  0.29999839114E+02 0.  0.
         12    1    1    2    0    0 -0.21531340717E+02  0.21017687791E+01  0.34426064498E+02  0.40659193080E+02  0.00000000000E+00 0. -1.
         11    1    3    3    0    0  0.10444243789E+02 -0.92382257350E+01 -0.79189822737E+01  0.16035501974E+02  0.51100000000E-03 0. -1.
        -11    1    3    3    0    0  0.10369304792E+02  0.59106740660E+01 -0.50019845326E+01  0.12941344571E+02  0.51100000000E-03 0.  1.
        -12    1    3    3    0    0  0.71779213553E+00  0.12257828900E+01 -0.21505097692E+02  0.21551960374E+02  0.00000000000E+00 0.  1.
</event>
<event>
 7    1  0.2746803E-013  0.5052888E+02  0.7816164E-02  0.1300439E+00
        -11   -1    0    0    0    0  0.00000000000E+00  0.00000000000E+00  0.45593999997E+02  0.45594000000E+02  0.51100000000E-03 0.  1.
         11   -1    0    0    0    0 -0.00000000000E+00 -0.00000000000E+00 -0.45593999997E+02  0.45594000000E+02  0.51100000000E-03 0. -1.
    9900012    2    1    2    0    0  0.27234192340E+02  0.19980439813E+02  0.22632828045E+02  0.50528879095E+02  0.30000058496E+02 0.  0.
         12    1    1    2    0    0 -0.27234192340E+02 -0.19980439813E+02 -0.22632828045E+02  0.40659120905E+02  0.00000000000E+00 0. -1.
         11    1    3    3    0    0  0.20806925363E+02  0.13776051459E+02  0.10182872588E+02  0.26951783452E+02  0.51100000000E-03 0. -1.
        -11    1    3    3    0    0 -0.41092472516E+01  0.63446632645E+01  0.10375945736E+02  0.12837480870E+02  0.51100000000E-03 0.  1.
         12    1    3    3    0    0  0.10536514228E+02 -0.14027491074E+00  0.20740097211E+01  0.10739614772E+02  0.00000000000E+00 0. -1.
</event>
<event>
 7    1  0.2746803E-013  0.5052886E+02  0.7816164E-02  0.1300439E+00
        -11   -1    0    0    0    0  0.00000000000E+00  0.00000000000E+00  0.45593999997E+02  0.45594000000E+02  0.51100000000E-03 0.  1.
         11   -1    0    0    0    0 -0.00000000000E+00 -0.00000000000E+00 -0.45593999997E+02  0.45594000000E+02  0.51100000000E-03 0. -1.
    9900012    2    1    2    0    0  0.13335210975E+01  0.39676795501E+02  0.87829106499E+01  0.50528857126E+02  0.29999991721E+02 0.  0.
         12    1    1    2    0    0 -0.13335210975E+01 -0.39676795501E+02 -0.87829106499E+01  0.40659142874E+02  0.00000000000E+00 0. -1.
         11    1    3    3    0    0  0.19842314705E+01  0.16721604244E+02  0.71809613458E-01  0.16839073012E+02  0.51100000000E-03 0.  1.
        -11    1    3    3    0    0 -0.10200655060E+02  0.15278728511E+02 -0.47310602931E+00  0.18377070989E+02  0.51100000000E-03 0. -1.
        -12    1    3    3    0    0  0.95499446873E+01  0.76764627466E+01  0.91842070658E+01  0.15312713125E+02  0.00000000000E+00 0.  1.
</event>
<event>
 7    1  0.2746803E-013  0.5052886E+02  0.7816164E-02  0.1300439E+00
        -11   -1    0    0    0    0  0.00000000000E+00  0.00000000000E+00  0.45593999997E+02  0.45594000000E+02  0.51100000000E-03 0.  1.
         11   -1    0    0    0    0 -0.00000000000E+00 -0.00000000000E+00 -0.45593999997E+02  0.45594000000E+02  0.51100000000E-03 0. -1.
    9900012    2    1    2    0    0 -0.16968326763E+01  0.24942627203E+02  0.32064806841E+02  0.50528859199E+02  0.29999998022E+02 0.  0.
         12    1    1    2    0    0  0.16968326763E+01 -0.24942627203E+02 -0.32064806841E+02  0.40659140801E+02  0.00000000000E+00 0. -1.
         11    1    3    3    0    0 -0.53866468296E+01  0.21106656960E+01  0.15739010594E+02  0.16768641224E+02  0.51100000000E-03 0. -1.
        -11    1    3    3    0    0 -0.17847990966E+01  0.12024475847E+01  0.10475636156E+02  0.10694407003E+02  0.51100000000E-03 0.  1.
         12    1    3    3    0    0  0.54746132499E+01  0.21629513922E+02  0.58501600907E+01  0.23065810973E+02  0.00000000000E+00 0. -1.
</event>
<event>
 7    1  0.2746803E-013  0.5052885E+02  0.7816164E-02  0.1300439E+00
        -11   -1    0    0    0    0  0.00000000000E+00  0.00000000000E+00  0.45593999997E+02  0.45594000000E+02  0.51100000000E-03 0.  1.
         11   -1    0    0    0    0 -0.00000000000E+00 -0.00000000000E+00 -0.45593999997E+02  0.45594000000E+02  0.51100000000E-03 0. -1.
    9900012    2    1    2    0    0 -0.27852013318E+01 -0.72490963396E+01  0.39910649075E+02  0.50528847847E+02  0.29999963516E+02 0.  0.
         12    1    1    2    0    0  0.27852013318E+01  0.72490963396E+01 -0.39910649075E+02  0.40659152153E+02  0.00000000000E+00 0. -1.
         11    1    3    3    0    0 -0.51951327670E+01 -0.14760064962E+01  0.42210623651E+01  0.68545873250E+01  0.51100000000E-03 0. -1.
        -11    1    3    3    0    0  0.13079217622E+01 -0.67591991479E+01  0.39234141908E+02  0.39833595419E+02  0.51100000000E-03 0.  1.
         12    1    3    3    0    0  0.11020096730E+01  0.98610930447E+00 -0.35445551983E+01  0.38406651030E+01  0.00000000000E+00 0. -1.
</event>
<event>
 7    1  0.2746803E-013  0.5052887E+02  0.7816164E-02  0.1300439E+00
        -11   -1    0    0    0    0  0.00000000000E+00  0.00000000000E+00  0.45593999997E+02  0.45594000000E+02  0.51100000000E-03 0. -1.
         11   -1    0    0    0    0 -0.00000000000E+00 -0.00000000000E+00 -0.45593999997E+02  0.45594000000E+02  0.51100000000E-03 0.  1.
    9900012    2    1    2    0    0  0.17115058447E+02  0.35963681898E+02 -0.81763925044E+01  0.50528867745E+02  0.30000023998E+02 0.  0.
         12    1    1    2    0    0 -0.17115058447E+02 -0.35963681898E+02  0.81763925044E+01  0.40659132255E+02  0.00000000000E+00 0. -1.
         11    1    3    3    0    0  0.25501226246E+01  0.32661188881E+01  0.82872268880E+01  0.92654620902E+01  0.51100000000E-03 0. -1.
        -11    1    3    3    0    0  0.64269144741E+01  0.10148925607E+02  0.29127430086E+00  0.12016270703E+02  0.51100000000E-03 0.  1.
        -12    1    3    3    0    0  0.81380213486E+01  0.22548637403E+02 -0.16754893693E+02  0.29247134952E+02  0.00000000000E+00 0.  1.
</event>
<event>
 7    1  0.2746803E-013  0.5052886E+02  0.7816164E-02  0.1300439E+00
        -11   -1    0    0    0    0  0.00000000000E+00  0.00000000000E+00  0.45593999997E+02  0.45594000000E+02  0.51100000000E-03 0.  1.
         11   -1    0    0    0    0 -0.00000000000E+00 -0.00000000000E+00 -0.45593999997E+02  0.45594000000E+02  0.51100000000E-03 0. -1.
    9900012    2    1    2    0    0 -0.11939342251E+02  0.17205467796E+02  0.34850962250E+02  0.50528860988E+02  0.30000003458E+02 0.  0.
         12    1    1    2    0    0  0.11939342251E+02 -0.17205467796E+02 -0.34850962250E+02  0.40659139012E+02  0.00000000000E+00 0. -1.
         11    1    3    3    0    0  0.46175520202E+01  0.21207687142E+01 -0.17121243931E+01  0.53619788135E+01  0.51100000000E-03 0. -1.
        -11    1    3    3    0    0  0.17050808988E+01  0.56373678480E+01  0.95307961832E+01  0.11203717833E+02  0.51100000000E-03 0.  1.
        -12    1    3    3    0    0 -0.18261975170E+02  0.94473312334E+01  0.27032290460E+02  0.33963164341E+02  0.00000000000E+00 0.  1.
</event>
<event>
 7    1  0.2746803E-013  0.5052887E+02  0.7816164E-02  0.1300439E+00
        -11   -1    0    0    0    0  0.00000000000E+00  0.00000000000E+00  0.45593999997E+02  0.45594000000E+02  0.51100000000E-03 0.  1.
         11   -1    0    0    0    0 -0.00000000000E+00 -0.00000000000E+00 -0.45593999997E+02  0.45594000000E+02  0.51100000000E-03 0. -1.
    9900012    2    1    2    0    0 -0.22402711615E+02 -0.33793260899E+02  0.30493408721E+01  0.50528874952E+02  0.30000045904E+02 0.  0.
         12    1    1    2    0    0  0.22402711615E+02  0.33793260899E+02 -0.30493408721E+01  0.40659125048E+02  0.00000000000E+00 0. -1.
         11    1    3    3    0    0  0.82500041623E-01 -0.34284231699E+01 -0.44321834845E+01  0.56040291211E+01  0.51100000000E-03 0. -1.
        -11    1    3    3    0    0 -0.64185078848E+01 -0.25445498833E+02 -0.66553960535E+00  0.26250973269E+02  0.51100000000E-03 0.  1.
        -12    1    3    3    0    0 -0.16066703772E+02 -0.49193388963E+01  0.81470639619E+01  0.18673872562E+02  0.00000000000E+00 0.  1.
</event>
<event>
 7    1  0.2746803E-013  0.5052887E+02  0.7816164E-02  0.1300439E+00
        -11   -1    0    0    0    0  0.00000000000E+00  0.00000000000E+00  0.45593999997E+02  0.45594000000E+02  0.51100000000E-03 0. -1.
         11   -1    0    0    0    0 -0.00000000000E+00 -0.00000000000E+00 -0.45593999997E+02  0.45594000000E+02  0.51100000000E-03 0.  1.
    9900012    2    1    2    0    0 -0.12418286693E+02 -0.19481474140E+02 -0.33457785618E+02  0.50528866985E+02  0.30000021689E+02 0.  0.
         12    1    1    2    0    0  0.12418286693E+02  0.19481474140E+02  0.33457785618E+02  0.40659133015E+02  0.00000000000E+00 0. -1.
         11    1    3    3    0    0 -0.13138882188E+02  0.16701120058E-01 -0.16280620584E+02  0.20921020791E+02  0.51100000000E-03 0. -1.
        -11    1    3    3    0    0 -0.54576955962E+01 -0.11054665525E+02 -0.14041155511E+02  0.18685452080E+02  0.51100000000E-03 0.  1.
         12    1    3    3    0    0  0.61782910915E+01 -0.84435097357E+01 -0.31360095234E+01  0.10922394115E+02  0.00000000000E+00 0. -1.
</event>
<event>
 7    1  0.2746803E-013  0.5052887E+02  0.7816164E-02  0.1300439E+00
        -11   -1    0    0    0    0  0.00000000000E+00  0.00000000000E+00  0.45593999997E+02  0.45594000000E+02  0.51100000000E-03 0. -1.
         11   -1    0    0    0    0 -0.00000000000E+00 -0.00000000000E+00 -0.45593999997E+02  0.45594000000E+02  0.51100000000E-03 0.  1.
    9900012    2    1    2    0    0 -0.13458790470E+02 -0.24248124460E+02 -0.29733049324E+02  0.50528870609E+02  0.30000032703E+02 0.  0.
         12    1    1    2    0    0  0.13458790470E+02  0.24248124460E+02  0.29733049324E+02  0.40659129391E+02  0.00000000000E+00 0. -1.
         11    1    3    3    0    0 -0.17277117481E+02 -0.18978886936E+02 -0.12168642138E+02  0.28403746047E+02  0.51100000000E-03 0. -1.
        -11    1    3    3    0    0 -0.84225700859E+00 -0.76632704110E+01 -0.13285822288E+02  0.15360604948E+02  0.51100000000E-03 0.  1.
        -12    1    3    3    0    0  0.46605840196E+01  0.23940328871E+01 -0.42785848983E+01  0.67645196134E+01  0.00000000000E+00 0.  1.
</event>
<event>
 7    1  0.2746803E-013  0.5052888E+02  0.7816164E-02  0.1300439E+00
        -11   -1    0    0    0    0  0.00000000000E+00  0.00000000000E+00  0.45593999997E+02  0.45594000000E+02  0.51100000000E-03 0.  1.
         11   -1    0    0    0    0 -0.00000000000E+00 -0.00000000000E+00 -0.45593999997E+02  0.45594000000E+02  0.51100000000E-03 0. -1.
    9900012    2    1    2    0    0  0.17479947942E+02  0.32266380081E+02 -0.17507039358E+02  0.50528876907E+02  0.30000051847E+02 0.  0.
         12    1    1    2    0    0 -0.17479947942E+02 -0.32266380081E+02  0.17507039358E+02  0.40659123093E+02  0.00000000000E+00 0. -1.
         11    1    3    3    0    0  0.72898542435E+01  0.63248359843E+01 -0.16119313939E+02  0.18787703618E+02  0.51100000000E-03 0. -1.
        -11    1    3    3    0    0  0.79717652697E+01  0.30341687957E+01 -0.18239670571E+01  0.87225041062E+01  0.51100000000E-03 0.  1.
        -12    1    3    3    0    0  0.22183284292E+01  0.22907375301E+02  0.43624163746E+00  0.23018669183E+02  0.00000000000E+00 0.  1.
</event>
<event>
 7    1  0.2746803E-013  0.5052886E+02  0.7816164E-02  0.1300439E+00
        -11   -1    0    0    0    0  0.00000000000E+00  0.00000000000E+00  0.45593999997E+02  0.45594000000E+02  0.51100000000E-03 0.  1.
         11   -1    0    0    0    0 -0.00000000000E+00 -0.00000000000E+00 -0.45593999997E+02  0.45594000000E+02  0.51100000000E-03 0. -1.
    9900012    2    1    2    0    0  0.85150707292E+01  0.94249145326E+01  0.38624213939E+02  0.50528863931E+02  0.30000012405E+02 0.  0.
         12    1    1    2    0    0 -0.85150707292E+01 -0.94249145326E+01 -0.38624213939E+02  0.40659136069E+02  0.00000000000E+00 0. -1.
         11    1    3    3    0    0  0.44438926121E+01  0.83523326476E+01  0.70767179309E+01  0.11814803390E+02  0.51100000000E-03 0. -1.
        -11    1    3    3    0    0  0.67947498807E+01  0.92875257250E+01  0.91481667182E+01  0.14700874620E+02  0.51100000000E-03 0.  1.
         12    1    3    3    0    0 -0.27235717636E+01 -0.82149438400E+01  0.22399329290E+02  0.24013185921E+02  0.00000000000E+00 0. -1.
</event>
<event>
 7    1  0.3203319E-013  0.5052886E+02  0.7816164E-02  0.1300439E+00
        -11   -1    0    0    0    0  0.00000000000E+00  0.00000000000E+00  0.45593999997E+02  0.45594000000E+02  0.51100000000E-03 0. -1.
         11   -1    0    0    0    0 -0.00000000000E+00 -0.00000000000E+00 -0.45593999997E+02  0.45594000000E+02  0.51100000000E-03 0.  1.
    9900012    2    1    2    0    0 -0.41051025659E-01  0.40516874337E+02  0.33980958577E+01  0.50528857772E+02  0.29999993685E+02 0.  0.
         12    1    1    2    0    0  0.41051025659E-01 -0.40516874337E+02 -0.33980958577E+01  0.40659142228E+02  0.00000000000E+00 0. -1.
         11    1    3    3    0    0 -0.10127576924E+02  0.30393666142E+01  0.76114642438E+00  0.10601174836E+02  0.51100000000E-03 0. -1.
        -11    1    3    3    0    0  0.30150176293E+00  0.65047078022E+01 -0.26280886627E+01  0.70220351170E+01  0.51100000000E-03 0.  1.
         12    1    3    3    0    0  0.97850241353E+01  0.30972799921E+02  0.52650380960E+01  0.32905647819E+02  0.00000000000E+00 0. -1.
</event>
<event>
 7    1  0.2746803E-013  0.5052886E+02  0.7816164E-02  0.1300439E+00
        -11   -1    0    0    0    0  0.00000000000E+00  0.00000000000E+00  0.45593999997E+02  0.45594000000E+02  0.51100000000E-03 0. -1.
         11   -1    0    0    0    0 -0.00000000000E+00 -0.00000000000E+00 -0.45593999997E+02  0.45594000000E+02  0.51100000000E-03 0.  1.
    9900012    2    1    2    0    0 -0.19873836977E+02  0.64395904047E+01 -0.34881624487E+02  0.50528862679E+02  0.30000008600E+02 0.  0.
         12    1    1    2    0    0  0.19873836977E+02 -0.64395904047E+01  0.34881624487E+02  0.40659137321E+02  0.00000000000E+00 0. -1.
         11    1    3    3    0    0 -0.99015547601E+01  0.41743106392E+01 -0.19573777396E+02  0.22329317450E+02  0.51100000000E-03 0. -1.
        -11    1    3    3    0    0 -0.13622519955E+02 -0.52617367086E+01 -0.12924278629E+02  0.19501176925E+02  0.51100000000E-03 0.  1.
         12    1    3    3    0    0  0.36502377377E+01  0.75270164742E+01 -0.23835684626E+01  0.86983683045E+01  0.00000000000E+00 0. -1.
</event>
<event>
 7    1  0.2746803E-013  0.5052886E+02  0.7816164E-02  0.1300439E+00
        -11   -1    0    0    0    0  0.00000000000E+00  0.00000000000E+00  0.45593999997E+02  0.45594000000E+02  0.51100000000E-03 0.  1.
         11   -1    0    0    0    0 -0.00000000000E+00 -0.00000000000E+00 -0.45593999997E+02  0.45594000000E+02  0.51100000000E-03 0. -1.
    9900012    2    1    2    0    0  0.12459124008E+02  0.13202673317E+02  0.36381662231E+02  0.50528859571E+02  0.29999999151E+02 0.  0.
         12    1    1    2    0    0 -0.12459124008E+02 -0.13202673317E+02 -0.36381662231E+02  0.40659140429E+02  0.00000000000E+00 0. -1.
         11    1    3    3    0    0  0.74654081322E+01  0.17123420143E+02  0.12889355549E+02  0.22695359056E+02  0.51100000000E-03 0. -1.
        -11    1    3    3    0    0  0.43150395943E+01 -0.44285013501E+00  0.23878253815E+02  0.24269047951E+02  0.51100000000E-03 0.  1.
        -12    1    3    3    0    0  0.67867628179E+00 -0.34778966908E+01 -0.38594713284E+00  0.35644525634E+01  0.00000000000E+00 0.  1.
</event>
