<event>
 7    1  0.1098446E-012  0.5052886E+02  0.7816164E-02  0.1300439E+00
        -11   -1    0    0    0    0  0.00000000000E+00  0.00000000000E+00  0.45593999997E+02  0.45594000000E+02  0.51100000000E-03 0.  1.
         11   -1    0    0    0    0 -0.00000000000E+00 -0.00000000000E+00 -0.45593999997E+02  0.45594000000E+02  0.51100000000E-03 0. -1.
    9900012    2    1    2    0    0  0.68507337967E+01  0.32499178259E+02 -0.23452851589E+02  0.50528863404E+02  0.30000010804E+02 0.  0.
        -12    1    1    2    0    0 -0.68507337967E+01 -0.32499178259E+02  0.23452851589E+02  0.40659136596E+02  0.00000000000E+00 0.  1.
         11    1    3    3    0    0 -0.10304757247E+02  0.72641376927E+01 -0.10751082769E+02  0.16569293869E+02  0.51100000000E-03 0. -1.
        -11    1    3    3    0    0  0.87315553862E+01  0.18375988652E+02 -0.60661762577E+01  0.21230061542E+02  0.51100000000E-03 0.  1.
         12    1    3    3    0    0  0.84239356576E+01  0.68590519136E+01 -0.66355925622E+01  0.12729507994E+02  0.00000000000E+00 0. -1.
</event>
<event>
 7    1  0.1098446E-012  0.5052884E+02  0.7816164E-02  0.1300439E+00
        -11   -1    0    0    0    0  0.00000000000E+00  0.00000000000E+00  0.45593999997E+02  0.45594000000E+02  0.51100000000E-03 0.  1.
         11   -1    0    0    0    0 -0.00000000000E+00 -0.00000000000E+00 -0.45593999997E+02  0.45594000000E+02  0.51100000000E-03 0. -1.
    9900012    2    1    2    0    0 -0.22456864167E+02  0.32848372738E+02 -0.83570740163E+01  0.50528843272E+02  0.29999949609E+02 0.  0.
        -12    1    1    2    0    0  0.22456864167E+02 -0.32848372738E+02  0.83570740163E+01  0.40659156728E+02  0.00000000000E+00 0.  1.
         11    1    3    3    0    0 -0.21275352143E+02  0.21187313040E+02  0.35102593282E+00  0.30027754864E+02  0.51100000000E-03 0. -1.
        -11    1    3    3    0    0  0.60981220519E+01  0.20976156702E+01 -0.20809923158E+01  0.67762536360E+01  0.51100000000E-03 0.  1.
         12    1    3    3    0    0 -0.72796340758E+01  0.95634440272E+01 -0.66271076333E+01  0.13724834772E+02  0.00000000000E+00 0. -1.
</event>
<event>
 7    1  0.1098446E-012  0.5052886E+02  0.7816164E-02  0.1300439E+00
        -11   -1    0    0    0    0  0.00000000000E+00  0.00000000000E+00  0.45593999997E+02  0.45594000000E+02  0.51100000000E-03 0. -1.
         11   -1    0    0    0    0 -0.00000000000E+00 -0.00000000000E+00 -0.45593999997E+02  0.45594000000E+02  0.51100000000E-03 0.  1.
    9900012    2    1    2    0    0 -0.38987554813E+02 -0.11534164909E+02  0.31464670098E+00  0.50528863352E+02  0.30000010643E+02 0.  0.
        -12    1    1    2    0    0  0.38987554813E+02  0.11534164909E+02 -0.31464670098E+00  0.40659136648E+02  0.00000000000E+00 0.  1.
         11    1    3    3    0    0 -0.75243502484E+01 -0.59839058198E+01  0.11823080401E+02  0.15238379374E+02  0.51100000000E-03 0. -1.
        -11    1    3    3    0    0 -0.98024672251E+01 -0.38511216533E+01 -0.81242309145E+01  0.13301226631E+02  0.51100000000E-03 0.  1.
         12    1    3    3    0    0 -0.21660737340E+02 -0.16991374363E+01 -0.33842027860E+01  0.21989257346E+02  0.00000000000E+00 0. -1.
</event>
<event>
 7    1  0.1098446E-012  0.5052887E+02  0.7816164E-02  0.1300439E+00
        -11   -1    0    0    0    0  0.00000000000E+00  0.00000000000E+00  0.45593999997E+02  0.45594000000E+02  0.51100000000E-03 0.  1.
         11   -1    0    0    0    0 -0.00000000000E+00 -0.00000000000E+00 -0.45593999997E+02  0.45594000000E+02  0.51100000000E-03 0. -1.
    9900012    2    1    2    0    0 -0.35928326587E+02  0.15726274779E+02  0.10724029620E+02  0.50528865958E+02  0.30000018565E+02 0.  0.
        -12    1    1    2    0    0  0.35928326587E+02 -0.15726274779E+02 -0.10724029620E+02  0.40659134042E+02  0.00000000000E+00 0.  1.
         11    1    3    3    0    0 -0.18210155700E+02 -0.41385246885E+01 -0.20150909508E+01  0.18782911091E+02  0.51100000000E-03 0. -1.
        -11    1    3    3    0    0 -0.16774703697E+02  0.13346372696E+02  0.13147373154E+02  0.25146963422E+02  0.51100000000E-03 0.  1.
         12    1    3    3    0    0 -0.94346718964E+00  0.65184267717E+01 -0.40825258336E+00  0.65989914447E+01  0.00000000000E+00 0. -1.
</event>
<event>
 7    1  0.1098446E-012  0.5052886E+02  0.7816164E-02  0.1300439E+00
        -11   -1    0    0    0    0  0.00000000000E+00  0.00000000000E+00  0.45593999997E+02  0.45594000000E+02  0.51100000000E-03 0.  1.
         11   -1    0    0    0    0 -0.00000000000E+00 -0.00000000000E+00 -0.45593999997E+02  0.45594000000E+02  0.51100000000E-03 0. -1.
    9900012    2    1    2    0    0 -0.88393034861E+01  0.13695235189E+02 -0.37248800525E+02  0.50528857196E+02  0.29999991934E+02 0.  0.
        -12    1    1    2    0    0  0.88393034861E+01 -0.13695235189E+02  0.37248800525E+02  0.40659142804E+02  0.00000000000E+00 0.  1.
         11    1    3    3    0    0 -0.41778051587E+01  0.25320148147E+01 -0.10644668508E+02  0.11712135709E+02  0.51100000000E-03 0. -1.
        -11    1    3    3    0    0  0.56623472605E+01 -0.52830709905E+01 -0.31320329379E+01  0.83536007909E+01  0.51100000000E-03 0.  1.
        -12    1    3    3    0    0 -0.10323845588E+02  0.16446291365E+02 -0.23472099079E+02  0.30463120696E+02  0.00000000000E+00 0.  1.
</event>
<event>
 7    1  0.1098446E-012  0.5052881E+02  0.7816164E-02  0.1300439E+00
        -11   -1    0    0    0    0  0.00000000000E+00  0.00000000000E+00  0.45593999997E+02  0.45594000000E+02  0.51100000000E-03 0. -1.
         11   -1    0    0    0    0 -0.00000000000E+00 -0.00000000000E+00 -0.45593999997E+02  0.45594000000E+02  0.51100000000E-03 0.  1.
    9900012    2    1    2    0    0 -0.13866191442E+02  0.17976684945E+02  0.33730359575E+02  0.50528811324E+02  0.29999852500E+02 0.  0.
        -12    1    1    2    0    0  0.13866191442E+02 -0.17976684945E+02 -0.33730359575E+02  0.40659188676E+02  0.00000000000E+00 0.  1.
         11    1    3    3    0    0 -0.20846949565E+02  0.54157627259E+01  0.24358021544E+02  0.32515211915E+02  0.51100000000E-03 0. -1.
        -11    1    3    3    0    0  0.58155055330E+01  0.68970224802E+01  0.80292137716E+01  0.12077139469E+02  0.51100000000E-03 0.  1.
         12    1    3    3    0    0  0.11652525900E+01  0.56638997389E+01  0.13431242594E+01  0.59364599406E+01  0.00000000000E+00 0. -1.
</event>
<event>
 7    1  0.1098446E-012  0.5052886E+02  0.7816164E-02  0.1300439E+00
        -11   -1    0    0    0    0  0.00000000000E+00  0.00000000000E+00  0.45593999997E+02  0.45594000000E+02  0.51100000000E-03 0.  1.
         11   -1    0    0    0    0 -0.00000000000E+00 -0.00000000000E+00 -0.45593999997E+02  0.45594000000E+02  0.51100000000E-03 0. -1.
    9900012    2    1    2    0    0  0.12133251168E+02  0.32726751733E+02 -0.20854480405E+02  0.50528863070E+02  0.30000009788E+02 0.  0.
        -12    1    1    2    0    0 -0.12133251168E+02 -0.32726751733E+02  0.20854480405E+02  0.40659136930E+02  0.00000000000E+00 0.  1.
         11    1    3    3    0    0  0.12342172357E+02  0.98564461501E+01  0.33273240865E+01  0.16141556153E+02  0.51100000000E-03 0. -1.
        -11    1    3    3    0    0 -0.62139890912E-01  0.11359689588E+02 -0.59456333557E+01  0.12821737993E+02  0.51100000000E-03 0.  1.
         12    1    3    3    0    0 -0.14678129800E+00  0.11510615995E+02 -0.18236171136E+02  0.21565568925E+02  0.00000000000E+00 0. -1.
</event>
<event>
 7    1  0.1098446E-012  0.5052884E+02  0.7816164E-02  0.1300439E+00
        -11   -1    0    0    0    0  0.00000000000E+00  0.00000000000E+00  0.45593999997E+02  0.45594000000E+02  0.51100000000E-03 0.  1.
         11   -1    0    0    0    0 -0.00000000000E+00 -0.00000000000E+00 -0.45593999997E+02  0.45594000000E+02  0.51100000000E-03 0. -1.
    9900012    2    1    2    0    0 -0.25211089172E+02  0.81222049748E+01 -0.30847981051E+02  0.50528841550E+02  0.29999944376E+02 0.  0.
        -12    1    1    2    0    0  0.25211089172E+02 -0.81222049748E+01  0.30847981051E+02  0.40659158450E+02  0.00000000000E+00 0.  1.
         11    1    3    3    0    0 -0.24985147252E+02  0.74375347980E+01 -0.24047873191E+02  0.35466529466E+02  0.51100000000E-03 0. -1.
        -11    1    3    3    0    0  0.20529848924E+01  0.48807188274E+01  0.14854343965E+01  0.54993344004E+01  0.51100000000E-03 0.  1.
         12    1    3    3    0    0 -0.22789268124E+01 -0.41960486505E+01 -0.82855422566E+01  0.95629776837E+01  0.00000000000E+00 0. -1.
</event>
<event>
 7    1  0.1098446E-012  0.5052885E+02  0.7816164E-02  0.1300439E+00
        -11   -1    0    0    0    0  0.00000000000E+00  0.00000000000E+00  0.45593999997E+02  0.45594000000E+02  0.51100000000E-03 0. -1.
         11   -1    0    0    0    0 -0.00000000000E+00 -0.00000000000E+00 -0.45593999997E+02  0.45594000000E+02  0.51100000000E-03 0.  1.
    9900012    2    1    2    0    0  0.11260237756E+01 -0.30894417244E+02  0.26408962915E+02  0.50528852584E+02  0.29999977913E+02 0.  0.
        -12    1    1    2    0    0 -0.11260237756E+01  0.30894417244E+02 -0.26408962915E+02  0.40659147416E+02  0.00000000000E+00 0.  1.
         11    1    3    3    0    0  0.60464822188E+01 -0.89081809222E+01  0.10973463470E+02  0.15373110790E+02  0.51100000000E-03 0. -1.
        -11    1    3    3    0    0 -0.72490738672E+01 -0.25938821563E+02  0.13967087147E+02  0.30338936363E+02  0.51100000000E-03 0.  1.
        -12    1    3    3    0    0  0.23286154240E+01  0.39525852413E+01  0.14684122988E+01  0.48168054312E+01  0.00000000000E+00 0.  1.
</event>
<event>
 7    1  0.1098446E-012  0.5052886E+02  0.7816164E-02  0.1300439E+00
        -11   -1    0    0    0    0  0.00000000000E+00  0.00000000000E+00  0.45593999997E+02  0.45594000000E+02  0.51100000000E-03 0.  1.
         11   -1    0    0    0    0 -0.00000000000E+00 -0.00000000000E+00 -0.45593999997E+02  0.45594000000E+02  0.51100000000E-03 0. -1.
    9900012    2    1    2    0    0 -0.23000539651E+01 -0.87548195262E+01 -0.39638729228E+02  0.50528856280E+02  0.29999989150E+02 0.  0.
        -12    1    1    2    0    0  0.23000539651E+01  0.87548195262E+01  0.39638729228E+02  0.40659143720E+02  0.00000000000E+00 0.  1.
         11    1    3    3    0    0 -0.49942301790E+01 -0.10840192667E+02 -0.18987769620E+01  0.12085423714E+02  0.51100000000E-03 0.  1.
        -11    1    3    3    0    0  0.10127314065E+01  0.41613173436E+01 -0.28673737218E+02  0.28991815970E+02  0.51100000000E-03 0. -1.
        -12    1    3    3    0    0  0.16814448074E+01 -0.20759442025E+01 -0.90662150482E+01  0.94516165957E+01  0.00000000000E+00 0.  1.
</event>
<event>
 7    1  0.1098446E-012  0.5052889E+02  0.7816164E-02  0.1300439E+00
        -11   -1    0    0    0    0  0.00000000000E+00  0.00000000000E+00  0.45593999997E+02  0.45594000000E+02  0.51100000000E-03 0.  1.
         11   -1    0    0    0    0 -0.00000000000E+00 -0.00000000000E+00 -0.45593999997E+02  0.45594000000E+02  0.51100000000E-03 0. -1.
    9900012    2    1    2    0    0 -0.34348882557E+01  0.26034140649E+02 -0.31041712762E+02  0.50528894404E+02  0.30000105030E+02 0.  0.
        -12    1    1    2    0    0  0.34348882557E+01 -0.26034140649E+02  0.31041712762E+02  0.40659105596E+02  0.00000000000E+00 0.  1.
         11    1    3    3    0    0 -0.98826647522E+01  0.23148615391E+02 -0.10989977728E+02  0.27464614832E+02  0.51100000000E-03 0. -1.
        -11    1    3    3    0    0 -0.95692762209E+00  0.39473891349E+00 -0.11241829260E+02  0.11289386814E+02  0.51100000000E-03 0.  1.
         12    1    3    3    0    0  0.74047041186E+01  0.24907863444E+01 -0.88099057749E+01  0.11774892758E+02  0.00000000000E+00 0. -1.
</event>
<event>
 7    1  0.1098446E-012  0.5052886E+02  0.7816164E-02  0.1300439E+00
        -11   -1    0    0    0    0  0.00000000000E+00  0.00000000000E+00  0.45593999997E+02  0.45594000000E+02  0.51100000000E-03 0.  1.
         11   -1    0    0    0    0 -0.00000000000E+00 -0.00000000000E+00 -0.45593999997E+02  0.45594000000E+02  0.51100000000E-03 0. -1.
    9900012    2    1    2    0    0  0.40629711368E+02  0.11128387466E+01 -0.10741047901E+01  0.50528861334E+02  0.30000004511E+02 0.  0.
        -12    1    1    2    0    0 -0.40629711368E+02 -0.11128387466E+01  0.10741047901E+01  0.40659138666E+02  0.00000000000E+00 0.  1.
         11    1    3    3    0    0  0.17437777756E+01 -0.26272512285E+01 -0.29427192057E+01  0.43130970929E+01  0.51100000000E-03 0. -1.
        -11    1    3    3    0    0  0.33702566323E+01  0.77495815112E+01  0.58137553152E+01  0.10257406811E+02  0.51100000000E-03 0.  1.
        -12    1    3    3    0    0  0.35515676960E+02 -0.40094915361E+01 -0.39451408996E+01  0.35958357430E+02  0.00000000000E+00 0.  1.
</event>
<event>
 7    1  0.1098446E-012  0.5052886E+02  0.7816164E-02  0.1300439E+00
        -11   -1    0    0    0    0  0.00000000000E+00  0.00000000000E+00  0.45593999997E+02  0.45594000000E+02  0.51100000000E-03 0. -1.
         11   -1    0    0    0    0 -0.00000000000E+00 -0.00000000000E+00 -0.45593999997E+02  0.45594000000E+02  0.51100000000E-03 0.  1.
    9900012    2    1    2    0    0  0.24866498741E+02  0.96336664848E+01  0.30692270322E+02  0.50528858997E+02  0.29999997408E+02 0.  0.
        -12    1    1    2    0    0 -0.24866498741E+02 -0.96336664848E+01 -0.30692270322E+02  0.40659141003E+02  0.00000000000E+00 0.  1.
         11    1    3    3    0    0  0.24429890935E+02  0.14801850194E-01  0.21028960978E+02  0.32234096703E+02  0.51100000000E-03 0. -1.
        -11    1    3    3    0    0  0.46545446885E+01  0.90146701412E+01  0.96960888750E+01  0.14033645419E+02  0.51100000000E-03 0.  1.
         12    1    3    3    0    0 -0.42179368824E+01  0.60419449343E+00 -0.32779530386E-01  0.42611168756E+01  0.00000000000E+00 0. -1.
</event>
<event>
 7    1  0.1098446E-012  0.5052886E+02  0.7816164E-02  0.1300439E+00
        -11   -1    0    0    0    0  0.00000000000E+00  0.00000000000E+00  0.45593999997E+02  0.45594000000E+02  0.51100000000E-03 0.  1.
         11   -1    0    0    0    0 -0.00000000000E+00 -0.00000000000E+00 -0.45593999997E+02  0.45594000000E+02  0.51100000000E-03 0. -1.
    9900012    2    1    2    0    0 -0.37211138049E+02 -0.67298140209E+01 -0.14940108615E+02  0.50528855431E+02  0.29999986568E+02 0.  0.
        -12    1    1    2    0    0  0.37211138049E+02  0.67298140209E+01  0.14940108615E+02  0.40659144569E+02  0.00000000000E+00 0.  1.
         11    1    3    3    0    0 -0.49882597237E+01  0.81876538612E+01 -0.37937027776E+01  0.10310799768E+02  0.51100000000E-03 0.  1.
        -11    1    3    3    0    0 -0.21342544792E+02 -0.16082866828E+02 -0.11891522232E+02  0.29250147434E+02  0.51100000000E-03 0. -1.
        -12    1    3    3    0    0 -0.10880333533E+02  0.11653989461E+01  0.74511639521E+00  0.10967908230E+02  0.00000000000E+00 0.  1.
</event>
<event>
 7    1  0.1098446E-012  0.5052886E+02  0.7816164E-02  0.1300439E+00
        -11   -1    0    0    0    0  0.00000000000E+00  0.00000000000E+00  0.45593999997E+02  0.45594000000E+02  0.51100000000E-03 0. -1.
         11   -1    0    0    0    0 -0.00000000000E+00 -0.00000000000E+00 -0.45593999997E+02  0.45594000000E+02  0.51100000000E-03 0.  1.
    9900012    2    1    2    0    0 -0.36742438673E+02  0.57519934183E+00  0.17401953558E+02  0.50528860295E+02  0.30000001353E+02 0.  0.
        -12    1    1    2    0    0  0.36742438673E+02 -0.57519934183E+00 -0.17401953558E+02  0.40659139705E+02  0.00000000000E+00 0.  1.
         11    1    3    3    0    0 -0.27283626795E+02 -0.75021034850E+01  0.95666924508E+01  0.29869707941E+02  0.51100000000E-03 0. -1.
        -11    1    3    3    0    0 -0.97424038297E+01  0.11306667741E+02  0.36492603892E+01  0.15364643486E+02  0.51100000000E-03 0.  1.
         12    1    3    3    0    0  0.28359195179E+00 -0.32293649146E+01  0.41860007177E+01  0.52945088682E+01  0.00000000000E+00 0. -1.
</event>
<event>
 7    1  0.1098446E-012  0.5052885E+02  0.7816164E-02  0.1300439E+00
        -11   -1    0    0    0    0  0.00000000000E+00  0.00000000000E+00  0.45593999997E+02  0.45594000000E+02  0.51100000000E-03 0.  1.
         11   -1    0    0    0    0 -0.00000000000E+00 -0.00000000000E+00 -0.45593999997E+02  0.45594000000E+02  0.51100000000E-03 0. -1.
    9900012    2    1    2    0    0 -0.51028267367E+01 -0.12954740385E+02 -0.38200813318E+02  0.50528852477E+02  0.29999977589E+02 0.  0.
        -12    1    1    2    0    0  0.51028267367E+01  0.12954740385E+02  0.38200813318E+02  0.40659147523E+02  0.00000000000E+00 0.  1.
         11    1    3    3    0    0  0.80677361043E+01  0.46042913116E+01 -0.12597967426E+02  0.15652368762E+02  0.51100000000E-03 0.  1.
        -11    1    3    3    0    0 -0.32663689031E+01 -0.49938283767E+01 -0.18680758790E+01  0.62527750174E+01  0.51100000000E-03 0. -1.
         12    1    3    3    0    0 -0.99041939379E+01 -0.12565203320E+02 -0.23734770013E+02  0.28623708698E+02  0.00000000000E+00 0. -1.
</event>
<event>
 7    1  0.1168391E-012  0.5052886E+02  0.7816164E-02  0.1300439E+00
        -11   -1    0    0    0    0  0.00000000000E+00  0.00000000000E+00  0.45593999997E+02  0.45594000000E+02  0.51100000000E-03 0.  1.
         11   -1    0    0    0    0 -0.00000000000E+00 -0.00000000000E+00 -0.45593999997E+02  0.45594000000E+02  0.51100000000E-03 0. -1.
    9900012    2    1    2    0    0 -0.39921844980E+02  0.36073767702E+01 -0.68116667154E+01  0.50528859857E+02  0.30000000021E+02 0.  0.
        -12    1    1    2    0    0  0.39921844980E+02 -0.36073767702E+01  0.68116667154E+01  0.40659140143E+02  0.00000000000E+00 0.  1.
         11    1    3    3    0    0 -0.13119707526E+02  0.52160233665E+01 -0.61655359785E+01  0.15406085145E+02  0.51100000000E-03 0. -1.
        -11    1    3    3    0    0 -0.18363637893E+02  0.38551064077E+01  0.93338979147E+01  0.20957258710E+02  0.51100000000E-03 0.  1.
        -12    1    3    3    0    0 -0.84384995603E+01 -0.54637530040E+01 -0.99800286517E+01  0.14165516002E+02  0.00000000000E+00 0.  1.
</event>
<event>
 7    1  0.1098446E-012  0.5052885E+02  0.7816164E-02  0.1300439E+00
        -11   -1    0    0    0    0  0.00000000000E+00  0.00000000000E+00  0.45593999997E+02  0.45594000000E+02  0.51100000000E-03 0. -1.
         11   -1    0    0    0    0 -0.00000000000E+00 -0.00000000000E+00 -0.45593999997E+02  0.45594000000E+02  0.51100000000E-03 0.  1.
    9900012    2    1    2    0    0 -0.30494029577E+02  0.26589370467E+02  0.40355737663E+01  0.50528851985E+02  0.29999976093E+02 0.  0.
        -12    1    1    2    0    0  0.30494029577E+02 -0.26589370467E+02 -0.40355737663E+01  0.40659148015E+02  0.00000000000E+00 0.  1.
         11    1    3    3    0    0 -0.51670614147E+01  0.10931852720E+02 -0.11183362928E+01  0.12143088729E+02  0.51100000000E-03 0. -1.
        -11    1    3    3    0    0 -0.80146554438E+01  0.71948763653E+00  0.12061189716E+02  0.14499126249E+02  0.51100000000E-03 0.  1.
        -12    1    3    3    0    0 -0.17312312719E+02  0.14938030110E+02 -0.69072796571E+01  0.23886637007E+02  0.00000000000E+00 0.  1.
</event>
<event>
 7    1  0.1098446E-012  0.5052886E+02  0.7816164E-02  0.1300439E+00
        -11   -1    0    0    0    0  0.00000000000E+00  0.00000000000E+00  0.45593999997E+02  0.45594000000E+02  0.51100000000E-03 0.  1.
         11   -1    0    0    0    0 -0.00000000000E+00 -0.00000000000E+00 -0.45593999997E+02  0.45594000000E+02  0.51100000000E-03 0. -1.
    9900012    2    1    2    0    0  0.31826148297E+02 -0.61756311005E+01 -0.24538203411E+02  0.50528861279E+02  0.30000004344E+02 0.  0.
        -12    1    1    2    0    0 -0.31826148297E+02  0.61756311005E+01  0.24538203411E+02  0.40659138721E+02  0.00000000000E+00 0.  1.
         11    1    3    3    0    0  0.20605477642E+02 -0.67741807315E+01  0.60862136562E+00  0.21698978171E+02  0.51100000000E-03 0.  1.
        -11    1    3    3    0    0  0.56326257294E+01 -0.10654282684E+01 -0.20750144750E+02  0.21527427097E+02  0.51100000000E-03 0. -1.
        -12    1    3    3    0    0  0.55880449259E+01  0.16639778994E+01 -0.43966800259E+01  0.73024560111E+01  0.00000000000E+00 0.  1.
</event>
<event>
 7    1  0.1098446E-012  0.5052887E+02  0.7816164E-02  0.1300439E+00
        -11   -1    0    0    0    0  0.00000000000E+00  0.00000000000E+00  0.45593999997E+02  0.45594000000E+02  0.51100000000E-03 0.  1.
         11   -1    0    0    0    0 -0.00000000000E+00 -0.00000000000E+00 -0.45593999997E+02  0.45594000000E+02  0.51100000000E-03 0. -1.
    9900012    2    1    2    0    0  0.13783722057E+02  0.26238711669E+02 -0.27833505117E+02  0.50528868297E+02  0.30000025674E+02 0.  0.
        -12    1    1    2    0    0 -0.13783722057E+02 -0.26238711669E+02  0.27833505117E+02  0.40659131703E+02  0.00000000000E+00 0.  1.
         11    1    3    3    0    0  0.90860129454E+01  0.24070631857E+02 -0.80268007123E+01  0.26951446699E+02  0.51100000000E-03 0. -1.
        -11    1    3    3    0    0  0.17520253209E+01  0.36134550084E+01 -0.19893811174E+02  0.20295082486E+02  0.51100000000E-03 0.  1.
         12    1    3    3    0    0  0.29456837903E+01 -0.14453751963E+01  0.87106769803E-01  0.32823391111E+01  0.00000000000E+00 0. -1.
</event>
<event>
 7    1  0.1098446E-012  0.5052887E+02  0.7816164E-02  0.1300439E+00
        -11   -1    0    0    0    0  0.00000000000E+00  0.00000000000E+00  0.45593999997E+02  0.45594000000E+02  0.51100000000E-03 0. -1.
         11   -1    0    0    0    0 -0.00000000000E+00 -0.00000000000E+00 -0.45593999997E+02  0.45594000000E+02  0.51100000000E-03 0.  1.
    9900012    2    1    2    0    0 -0.37060492815E+02  0.14273489254E+02  0.87150643073E+01  0.50528868565E+02  0.30000026490E+02 0.  0.
        -12    1    1    2    0    0  0.37060492815E+02 -0.14273489254E+02 -0.87150643073E+01  0.40659131435E+02  0.00000000000E+00 0.  1.
         11    1    3    3    0    0 -0.27303540823E+02  0.11471868842E+02  0.11352042127E+01  0.29637405505E+02  0.51100000000E-03 0.  1.
        -11    1    3    3    0    0 -0.30220751319E+01 -0.37618425488E+01  0.10067235206E+02  0.11163942960E+02  0.51100000000E-03 0. -1.
         12    1    3    3    0    0 -0.67348768595E+01  0.65634629610E+01 -0.24873751110E+01  0.97275201000E+01  0.00000000000E+00 0. -1.
</event>
<event>
 7    1  0.1098446E-012  0.5052886E+02  0.7816164E-02  0.1300439E+00
        -11   -1    0    0    0    0  0.00000000000E+00  0.00000000000E+00  0.45593999997E+02  0.45594000000E+02  0.51100000000E-03 0. -1.
         11   -1    0    0    0    0 -0.00000000000E+00 -0.00000000000E+00 -0.45593999997E+02  0.45594000000E+02  0.51100000000E-03 0.  1.
    9900012    2    1    2    0    0 -0.15839229881E+02  0.37422314506E+02  0.13619468356E+01  0.50528859264E+02  0.29999998219E+02 0.  0.
        -12    1    1    2    0    0  0.15839229881E+02 -0.37422314506E+02 -0.13619468356E+01  0.40659140736E+02  0.00000000000E+00 0.  1.
         11    1    3    3    0    0  0.26968065654E+00  0.14156130755E+02 -0.17355258035E+01  0.14264670192E+02  0.51100000000E-03 0. -1.
        -11    1    3    3    0    0 -0.18799737603E+02  0.11611684788E+02 -0.38533509244E+01  0.22430106357E+02  0.51100000000E-03 0.  1.
        -12    1    3    3    0    0  0.26908270656E+01  0.11654498963E+02  0.69508235635E+01  0.13834082715E+02  0.00000000000E+00 0.  1.
</event>
<event>
 7    1  0.1098446E-012  0.5052886E+02  0.7816164E-02  0.1300439E+00
        -11   -1    0    0    0    0  0.00000000000E+00  0.00000000000E+00  0.45593999997E+02  0.45594000000E+02  0.51100000000E-03 0. -1.
         11   -1    0    0    0    0 -0.00000000000E+00 -0.00000000000E+00 -0.45593999997E+02  0.45594000000E+02  0.51100000000E-03 0.  1.
    9900012    2    1    2    0    0 -0.26894723503E+02 -0.21184034253E+02  0.21933446607E+02  0.50528861549E+02  0.30000005164E+02 0.  0.
        -12    1    1    2    0    0  0.26894723503E+02  0.21184034253E+02 -0.21933446607E+02  0.40659138451E+02  0.00000000000E+00 0.  1.
         11    1    3    3    0    0 -0.19552597321E+02 -0.22489510384E+02  0.17064659494E+02  0.34340715531E+02  0.51100000000E-03 0. -1.
        -11    1    3    3    0    0  0.21919128531E+01  0.18487041886E+01  0.59230432116E+01  0.65806253715E+01  0.51100000000E-03 0.  1.
        -12    1    3    3    0    0 -0.95340390349E+01 -0.54322805735E+00 -0.10542560983E+01  0.96075206459E+01  0.00000000000E+00 0.  1.
</event>
<event>
 7    1  0.1098446E-012  0.5052885E+02  0.7816164E-02  0.1300439E+00
        -11   -1    0    0    0    0  0.00000000000E+00  0.00000000000E+00  0.45593999997E+02  0.45594000000E+02  0.51100000000E-03 0.  1.
         11   -1    0    0    0    0 -0.00000000000E+00 -0.00000000000E+00 -0.45593999997E+02  0.45594000000E+02  0.51100000000E-03 0. -1.
    9900012    2    1    2    0    0  0.48463913067E+01 -0.33924729318E+02 -0.21881317829E+02  0.50528845583E+02  0.29999956634E+02 0.  0.
        -12    1    1    2    0    0 -0.48463913067E+01  0.33924729318E+02  0.21881317829E+02  0.40659154417E+02  0.00000000000E+00 0.  1.
         11    1    3    3    0    0  0.96285199004E+01 -0.18182406831E+02 -0.20274290815E+02  0.28885206975E+02  0.51100000000E-03 0. -1.
        -11    1    3    3    0    0 -0.57786410360E+01 -0.37254411789E+01 -0.56779310126E+01  0.89168663243E+01  0.51100000000E-03 0.  1.
         12    1    3    3    0    0  0.99651244236E+00 -0.12016881307E+02  0.40709039986E+01  0.12726772284E+02  0.00000000000E+00 0. -1.
</event>
<event>
 7    1  0.1098446E-012  0.5052886E+02  0.7816164E-02  0.1300439E+00
        -11   -1    0    0    0    0  0.00000000000E+00  0.00000000000E+00  0.45593999997E+02  0.45594000000E+02  0.51100000000E-03 0. -1.
         11   -1    0    0    0    0 -0.00000000000E+00 -0.00000000000E+00 -0.45593999997E+02  0.45594000000E+02  0.51100000000E-03 0.  1.
    9900012    2    1    2    0    0 -0.21154054381E+02 -0.26795974944E+02  0.22082739183E+02  0.50528860071E+02  0.30000000672E+02 0.  0.
        -12    1    1    2    0    0  0.21154054381E+02  0.26795974944E+02 -0.22082739183E+02  0.40659139929E+02  0.00000000000E+00 0.  1.
         11    1    3    3    0    0 -0.16981620745E+02 -0.16266239986E+02 -0.12538476307E+01  0.23548633517E+02  0.51100000000E-03 0. -1.
        -11    1    3    3    0    0 -0.67106535118E+00 -0.84753120344E+01  0.10462713908E+02  0.13481454869E+02  0.51100000000E-03 0.  1.
         12    1    3    3    0    0 -0.35013682853E+01 -0.20544229233E+01  0.12873872905E+02  0.13498771685E+02  0.00000000000E+00 0. -1.
</event>
<event>
 7    1  0.1098446E-012  0.5052886E+02  0.7816164E-02  0.1300439E+00
        -11   -1    0    0    0    0  0.00000000000E+00  0.00000000000E+00  0.45593999997E+02  0.45594000000E+02  0.51100000000E-03 0.  1.
         11   -1    0    0    0    0 -0.00000000000E+00 -0.00000000000E+00 -0.45593999997E+02  0.45594000000E+02  0.51100000000E-03 0. -1.
    9900012    2    1    2    0    0  0.94269963044E-01  0.85408904663E+00 -0.40650056436E+02  0.50528862734E+02  0.30000008767E+02 0.  0.
        -12    1    1    2    0    0 -0.94269963044E-01 -0.85408904663E+00  0.40650056436E+02  0.40659137266E+02  0.00000000000E+00 0.  1.
         11    1    3    3    0    0 -0.13470343128E+01 -0.41344510229E+01 -0.43793624589E+02  0.44008973422E+02  0.51100000000E-03 0. -1.
        -11    1    3    3    0    0  0.10294952731E+01  0.12671937254E+01  0.20473591698E+01  0.26186485610E+01  0.51100000000E-03 0.  1.
         12    1    3    3    0    0  0.41180900273E+00  0.37213463441E+01  0.10962089832E+01  0.39012407517E+01  0.00000000000E+00 0. -1.
</event>
<event>
 7    1  0.1098446E-012  0.5052884E+02  0.7816164E-02  0.1300439E+00
        -11   -1    0    0    0    0  0.00000000000E+00  0.00000000000E+00  0.45593999997E+02  0.45594000000E+02  0.51100000000E-03 0.  1.
         11   -1    0    0    0    0 -0.00000000000E+00 -0.00000000000E+00 -0.45593999997E+02  0.45594000000E+02  0.51100000000E-03 0. -1.
    9900012    2    1    2    0    0  0.36049132075E+02  0.53923611758E+01 -0.18015255654E+02  0.50528844589E+02  0.29999953613E+02 0.  0.
        -12    1    1    2    0    0 -0.36049132075E+02 -0.53923611758E+01  0.18015255654E+02  0.40659155411E+02  0.00000000000E+00 0.  1.
         11    1    3    3    0    0  0.90497079094E+01  0.36135078282E+01 -0.29852457407E+01  0.10191483919E+02  0.51100000000E-03 0. -1.
        -11    1    3    3    0    0  0.90157211647E+01 -0.52025598883E+01  0.58249823498E+01  0.11928129658E+02  0.51100000000E-03 0.  1.
        -12    1    3    3    0    0  0.17983703001E+02  0.69814132360E+01 -0.20854992263E+02  0.28409231012E+02  0.00000000000E+00 0.  1.
</event>
<event>
 7    1  0.1098446E-012  0.5052885E+02  0.7816164E-02  0.1300439E+00
        -11   -1    0    0    0    0  0.00000000000E+00  0.00000000000E+00  0.45593999997E+02  0.45594000000E+02  0.51100000000E-03 0. -1.
         11   -1    0    0    0    0 -0.00000000000E+00 -0.00000000000E+00 -0.45593999997E+02  0.45594000000E+02  0.51100000000E-03 0.  1.
    9900012    2    1    2    0    0 -0.28458896297E+02  0.22290168948E+02  0.18611993652E+02  0.50528847059E+02  0.29999961120E+02 0.  0.
        -12    1    1    2    0    0  0.28458896297E+02 -0.22290168948E+02 -0.18611993652E+02  0.40659152941E+02  0.00000000000E+00 0.  1.
         11    1    3    3    0    0 -0.16583155003E+02  0.27108668811E+02  0.19623302505E+02  0.37349095786E+02  0.51100000000E-03 0. -1.
        -11    1    3    3    0    0 -0.56195658872E+01 -0.36345071451E+01 -0.12493080276E+01  0.68080785657E+01  0.51100000000E-03 0.  1.
        -12    1    3    3    0    0 -0.62561754068E+01 -0.11839927181E+01  0.23799917460E+00  0.63716727070E+01  0.00000000000E+00 0.  1.
</event>
<event>
 7    1  0.1098446E-012  0.5052886E+02  0.7816164E-02  0.1300439E+00
        -11   -1    0    0    0    0  0.00000000000E+00  0.00000000000E+00  0.45593999997E+02  0.45594000000E+02  0.51100000000E-03 0.  1.
         11   -1    0    0    0    0 -0.00000000000E+00 -0.00000000000E+00 -0.45593999997E+02  0.45594000000E+02  0.51100000000E-03 0. -1.
    9900012    2    1    2    0    0  0.22531936643E+02  0.34653317313E+01 -0.33667032045E+02  0.50528859089E+02  0.29999997687E+02 0.  0.
        -12    1    1    2    0    0 -0.22531936643E+02 -0.34653317313E+01  0.33667032045E+02  0.40659140911E+02  0.00000000000E+00 0.  1.
         11    1    3    3    0    0  0.14532925578E+02  0.91828695518E+01 -0.12538164095E+02  0.21277607436E+02  0.51100000000E-03 0. -1.
        -11    1    3    3    0    0 -0.71850526529E+00 -0.40881323695E+01  0.19064976322E+01  0.45676919303E+01  0.51100000000E-03 0.  1.
         12    1    3    3    0    0  0.87175163303E+01 -0.16294054510E+01 -0.23035365582E+02  0.24683559723E+02  0.00000000000E+00 0. -1.
</event>
<event>
 7    1  0.1098446E-012  0.5052886E+02  0.7816164E-02  0.1300439E+00
        -11   -1    0    0    0    0  0.00000000000E+00  0.00000000000E+00  0.45593999997E+02  0.45594000000E+02  0.51100000000E-03 0.  1.
         11   -1    0    0    0    0 -0.00000000000E+00 -0.00000000000E+00 -0.45593999997E+02  0.45594000000E+02  0.51100000000E-03 0. -1.
    9900012    2    1    2    0    0  0.18303794843E+02 -0.87286832180E+00 -0.36295663241E+02  0.50528856196E+02  0.29999988894E+02 0.  0.
        -12    1    1    2    0    0 -0.18303794843E+02  0.87286832180E+00  0.36295663241E+02  0.40659143804E+02  0.00000000000E+00 0.  1.
         11    1    3    3    0    0  0.69340247955E+01  0.11130674569E+02 -0.88183477355E+01  0.15803033673E+02  0.51100000000E-03 0. -1.
        -11    1    3    3    0    0 -0.19236024626E+01 -0.59994264260E+01 -0.55857396637E+01  0.84198486760E+01  0.51100000000E-03 0.  1.
        -12    1    3    3    0    0  0.13293372510E+02 -0.60041164648E+01 -0.21891575842E+02  0.26305973847E+02  0.00000000000E+00 0.  1.
</event>
<event>
 7    1  0.1098446E-012  0.5052885E+02  0.7816164E-02  0.1300439E+00
        -11   -1    0    0    0    0  0.00000000000E+00  0.00000000000E+00  0.45593999997E+02  0.45594000000E+02  0.51100000000E-03 0.  1.
         11   -1    0    0    0    0 -0.00000000000E+00 -0.00000000000E+00 -0.45593999997E+02  0.45594000000E+02  0.51100000000E-03 0. -1.
    9900012    2    1    2    0    0 -0.10971531510E+02 -0.59794817608E+01 -0.38691573160E+02  0.50528849254E+02  0.29999967792E+02 0.  0.
        -12    1    1    2    0    0  0.10971531510E+02  0.59794817608E+01  0.38691573160E+02  0.40659150746E+02  0.00000000000E+00 0.  1.
         11    1    3    3    0    0 -0.15468424283E+02 -0.40704642291E+01 -0.35885262215E+02  0.39288584517E+02  0.51100000000E-03 0. -1.
        -11    1    3    3    0    0  0.58003101950E+01  0.53690859467E+00 -0.50226780627E+01  0.76914994884E+01  0.51100000000E-03 0.  1.
        -12    1    3    3    0    0 -0.13034174220E+01 -0.24459261264E+01  0.22163671176E+01  0.35487652489E+01  0.00000000000E+00 0.  1.
</event>
<event>
 7    1  0.1098446E-012  0.5052886E+02  0.7816164E-02  0.1300439E+00
        -11   -1    0    0    0    0  0.00000000000E+00  0.00000000000E+00  0.45593999997E+02  0.45594000000E+02  0.51100000000E-03 0.  1.
         11   -1    0    0    0    0 -0.00000000000E+00 -0.00000000000E+00 -0.45593999997E+02  0.45594000000E+02  0.51100000000E-03 0. -1.
    9900012    2    1    2    0    0 -0.37652411705E+02 -0.11563772942E+02 -0.10086665623E+02  0.50528858651E+02  0.29999996356E+02 0.  0.
        -12    1    1    2    0    0  0.37652411705E+02  0.11563772942E+02  0.10086665623E+02  0.40659141349E+02  0.00000000000E+00 0.  1.
         11    1    3    3    0    0 -0.92236682703E+01  0.81374047254E+01 -0.81725940841E+01  0.14767691301E+02  0.51100000000E-03 0. -1.
        -11    1    3    3    0    0 -0.18409534859E+02 -0.75396760821E+01 -0.20893611963E+01  0.20003077753E+02  0.51100000000E-03 0.  1.
         12    1    3    3    0    0 -0.10019208576E+02 -0.12161501585E+02  0.17528965727E+00  0.15758089597E+02  0.00000000000E+00 0. -1.
</event>
<event>
 7    1  0.1098446E-012  0.5052886E+02  0.7816164E-02  0.1300439E+00
        -11   -1    0    0    0    0  0.00000000000E+00  0.00000000000E+00  0.45593999997E+02  0.45594000000E+02  0.51100000000E-03 0.  1.
         11   -1    0    0    0    0 -0.00000000000E+00 -0.00000000000E+00 -0.45593999997E+02  0.45594000000E+02  0.51100000000E-03 0. -1.
    9900012    2    1    2    0    0  0.39886690471E+01 -0.29679225302E+02 -0.27502720664E+02  0.50528861554E+02  0.30000005179E+02 0.  0.
        -12    1    1    2    0    0 -0.39886690471E+01  0.29679225302E+02  0.27502720664E+02  0.40659138446E+02  0.00000000000E+00 0.  1.
         11    1    3    3    0    0  0.73035744143E+01 -0.28352411662E+02 -0.16191309753E+02  0.33456837239E+02  0.51100000000E-03 0. -1.
        -11    1    3    3    0    0  0.17064738523E+01  0.22382047329E+01  0.12520411064E+01  0.30804578602E+01  0.51100000000E-03 0.  1.
         12    1    3    3    0    0 -0.50213792195E+01 -0.35650183730E+01 -0.12563452017E+02  0.13991566454E+02  0.00000000000E+00 0. -1.
</event>
<event>
 7    1  0.1098446E-012  0.5052888E+02  0.7816164E-02  0.1300439E+00
        -11   -1    0    0    0    0  0.00000000000E+00  0.00000000000E+00  0.45593999997E+02  0.45594000000E+02  0.51100000000E-03 0.  1.
         11   -1    0    0    0    0 -0.00000000000E+00 -0.00000000000E+00 -0.45593999997E+02  0.45594000000E+02  0.51100000000E-03 0. -1.
    9900012    2    1    2    0    0 -0.22724331724E+02  0.31196866521E+02 -0.12787676007E+02  0.50528875678E+02  0.30000048110E+02 0.  0.
        -12    1    1    2    0    0  0.22724331724E+02 -0.31196866521E+02  0.12787676007E+02  0.40659124322E+02  0.00000000000E+00 0.  1.
         11    1    3    3    0    0 -0.75720144819E+01 -0.83408391492E+00  0.40289707971E+01  0.86176391916E+01  0.51100000000E-03 0. -1.
        -11    1    3    3    0    0 -0.78648189767E+01  0.28395046485E+02 -0.94851813840E+01  0.30953234218E+02  0.51100000000E-03 0.  1.
         12    1    3    3    0    0 -0.72874982650E+01  0.36359039513E+01 -0.73314654198E+01  0.10958002268E+02  0.00000000000E+00 0. -1.
</event>
<event>
 7    1  0.1098446E-012  0.5052886E+02  0.7816164E-02  0.1300439E+00
        -11   -1    0    0    0    0  0.00000000000E+00  0.00000000000E+00  0.45593999997E+02  0.45594000000E+02  0.51100000000E-03 0.  1.
         11   -1    0    0    0    0 -0.00000000000E+00 -0.00000000000E+00 -0.45593999997E+02  0.45594000000E+02  0.51100000000E-03 0. -1.
    9900012    2    1    2    0    0 -0.33367849686E+02 -0.50245851287E+01 -0.22682726860E+02  0.50528856549E+02  0.29999989965E+02 0.  0.
        -12    1    1    2    0    0  0.33367849686E+02  0.50245851287E+01  0.22682726860E+02  0.40659143451E+02  0.00000000000E+00 0.  1.
         11    1    3    3    0    0 -0.17426306392E+02  0.90047322981E+00 -0.12455168163E+02  0.21438708467E+02  0.51100000000E-03 0. -1.
        -11    1    3    3    0    0 -0.38677180017E+01 -0.91512387219E+01 -0.12927775250E+02  0.16304348679E+02  0.51100000000E-03 0.  1.
        -12    1    3    3    0    0 -0.12073825292E+02  0.32261803635E+01  0.27002165524E+01  0.12785799402E+02  0.00000000000E+00 0.  1.
</event>
<event>
 7    1  0.1098446E-012  0.5052887E+02  0.7816164E-02  0.1300439E+00
        -11   -1    0    0    0    0  0.00000000000E+00  0.00000000000E+00  0.45593999997E+02  0.45594000000E+02  0.51100000000E-03 0.  1.
         11   -1    0    0    0    0 -0.00000000000E+00 -0.00000000000E+00 -0.45593999997E+02  0.45594000000E+02  0.51100000000E-03 0. -1.
    9900012    2    1    2    0    0  0.26651007487E+02  0.28357993270E+02 -0.11777650744E+02  0.50528867700E+02  0.30000023860E+02 0.  0.
        -12    1    1    2    0    0 -0.26651007487E+02 -0.28357993270E+02  0.11777650744E+02  0.40659132300E+02  0.00000000000E+00 0.  1.
         11    1    3    3    0    0  0.73107935522E+01  0.72491946699E+01 -0.58771287680E+01  0.11854921701E+02  0.51100000000E-03 0. -1.
        -11    1    3    3    0    0  0.16186122009E+02 -0.28794781551E+00  0.24246955113E+00  0.16190498800E+02  0.51100000000E-03 0.  1.
        -12    1    3    3    0    0  0.31540919260E+01  0.21396746415E+02 -0.61429915266E+01  0.22483447199E+02  0.00000000000E+00 0.  1.
</event>
<event>
 7    1  0.1098446E-012  0.5052886E+02  0.7816164E-02  0.1300439E+00
        -11   -1    0    0    0    0  0.00000000000E+00  0.00000000000E+00  0.45593999997E+02  0.45594000000E+02  0.51100000000E-03 0.  1.
         11   -1    0    0    0    0 -0.00000000000E+00 -0.00000000000E+00 -0.45593999997E+02  0.45594000000E+02  0.51100000000E-03 0. -1.
    9900012    2    1    2    0    0 -0.60809861791E+01 -0.24219299401E+02 -0.32087585151E+02  0.50528856167E+02  0.29999988806E+02 0.  0.
        -12    1    1    2    0    0  0.60809861791E+01  0.24219299401E+02  0.32087585151E+02  0.40659143833E+02  0.00000000000E+00 0.  1.
         11    1    3    3    0    0 -0.15643595755E+02 -0.81793577623E+01 -0.20489539630E+02  0.27045243872E+02  0.51100000000E-03 0. -1.
        -11    1    3    3    0    0  0.42177622569E+01 -0.72032800679E+01 -0.10011955263E+02  0.13035183568E+02  0.51100000000E-03 0.  1.
         12    1    3    3    0    0  0.53448473191E+01 -0.88366615706E+01 -0.15860902579E+01  0.10448428728E+02  0.00000000000E+00 0. -1.
</event>
<event>
 7    1  0.1098446E-012  0.5052886E+02  0.7816164E-02  0.1300439E+00
        -11   -1    0    0    0    0  0.00000000000E+00  0.00000000000E+00  0.45593999997E+02  0.45594000000E+02  0.51100000000E-03 0.  1.
         11   -1    0    0    0    0 -0.00000000000E+00 -0.00000000000E+00 -0.45593999997E+02  0.45594000000E+02  0.51100000000E-03 0. -1.
    9900012    2    1    2    0    0 -0.17129752019E+02 -0.31736978622E+02 -0.18775024492E+02  0.50528858827E+02  0.29999996889E+02 0.  0.
        -12    1    1    2    0    0  0.17129752019E+02  0.31736978622E+02  0.18775024492E+02  0.40659141173E+02  0.00000000000E+00 0.  1.
         11    1    3    3    0    0 -0.50648562071E+01 -0.17263837126E+02  0.17725476676E+01  0.18078572018E+02  0.51100000000E-03 0. -1.
        -11    1    3    3    0    0 -0.33492327926E+01  0.33354439935E+01 -0.69635403260E+01  0.84162605155E+01  0.51100000000E-03 0.  1.
         12    1    3    3    0    0 -0.87156630189E+01 -0.17808585489E+02 -0.13584031833E+02  0.24034026293E+02  0.00000000000E+00 0. -1.
</event>
<event>
 7    1  0.1098446E-012  0.5052886E+02  0.7816164E-02  0.1300439E+00
        -11   -1    0    0    0    0  0.00000000000E+00  0.00000000000E+00  0.45593999997E+02  0.45594000000E+02  0.51100000000E-03 0. -1.
         11   -1    0    0    0    0 -0.00000000000E+00 -0.00000000000E+00 -0.45593999997E+02  0.45594000000E+02  0.51100000000E-03 0.  1.
    9900012    2    1    2    0    0  0.17350947861E+02  0.27678673882E+02  0.24207462584E+02  0.50528860507E+02  0.30000001998E+02 0.  0.
        -12    1    1    2    0    0 -0.17350947861E+02 -0.27678673882E+02 -0.24207462584E+02  0.40659139493E+02  0.00000000000E+00 0.  1.
         11    1    3    3    0    0  0.68284305732E+01 -0.14975507222E+01  0.16137380790E+01  0.71745573457E+01  0.51100000000E-03 0.  1.
        -11    1    3    3    0    0  0.57741760583E+01  0.31279230860E+02  0.19330988721E+02  0.37221210586E+02  0.51100000000E-03 0. -1.
         12    1    3    3    0    0  0.47483412293E+01 -0.21030062557E+01  0.32627357841E+01  0.61330925753E+01  0.00000000000E+00 0. -1.
</event>
<event>
 7    1  0.1098446E-012  0.5052885E+02  0.7816164E-02  0.1300439E+00
        -11   -1    0    0    0    0  0.00000000000E+00  0.00000000000E+00  0.45593999997E+02  0.45594000000E+02  0.51100000000E-03 0.  1.
         11   -1    0    0    0    0 -0.00000000000E+00 -0.00000000000E+00 -0.45593999997E+02  0.45594000000E+02  0.51100000000E-03 0. -1.
    9900012    2    1    2    0    0 -0.19944480394E+02  0.35430799402E+02 -0.20708167929E+00  0.50528846944E+02  0.29999960770E+02 0.  0.
        -12    1    1    2    0    0  0.19944480394E+02 -0.35430799402E+02  0.20708167929E+00  0.40659153056E+02  0.00000000000E+00 0.  1.
         11    1    3    3    0    0 -0.49551977621E+01  0.20982296195E+02 -0.10029566990E+02  0.23778203312E+02  0.51100000000E-03 0. -1.
        -11    1    3    3    0    0 -0.52240085140E+01  0.21583152961E+01  0.94946992395E+01  0.11049792024E+02  0.51100000000E-03 0.  1.
         12    1    3    3    0    0 -0.97652741183E+01  0.12290187911E+02  0.32778607143E+00  0.15700851607E+02  0.00000000000E+00 0. -1.
</event>
<event>
 7    1  0.1098446E-012  0.5052882E+02  0.7816164E-02  0.1300439E+00
        -11   -1    0    0    0    0  0.00000000000E+00  0.00000000000E+00  0.45593999997E+02  0.45594000000E+02  0.51100000000E-03 0. -1.
         11   -1    0    0    0    0 -0.00000000000E+00 -0.00000000000E+00 -0.45593999997E+02  0.45594000000E+02  0.51100000000E-03 0.  1.
    9900012    2    1    2    0    0 -0.49013437392E+01  0.94803182716E+01  0.39233519111E+02  0.50528823584E+02  0.29999889766E+02 0.  0.
        -12    1    1    2    0    0  0.49013437392E+01 -0.94803182716E+01 -0.39233519111E+02  0.40659176416E+02  0.00000000000E+00 0.  1.
         11    1    3    3    0    0 -0.71126311731E+01  0.86314544707E+01  0.16212506841E+02  0.19696114003E+02  0.51100000000E-03 0. -1.
        -11    1    3    3    0    0  0.86185366912E+01 -0.60052788947E+01  0.83535981871E+01  0.13421071203E+02  0.51100000000E-03 0.  1.
        -12    1    3    3    0    0 -0.64072492574E+01  0.68541426955E+01  0.14667414083E+02  0.17411638378E+02  0.00000000000E+00 0.  1.
</event>
<event>
 7    1  0.1098446E-012  0.5052885E+02  0.7816164E-02  0.1300439E+00
        -11   -1    0    0    0    0  0.00000000000E+00  0.00000000000E+00  0.45593999997E+02  0.45594000000E+02  0.51100000000E-03 0.  1.
         11   -1    0    0    0    0 -0.00000000000E+00 -0.00000000000E+00 -0.45593999997E+02  0.45594000000E+02  0.51100000000E-03 0. -1.
    9900012    2    1    2    0    0 -0.27783282487E+02  0.22018646624E+02 -0.19910665735E+02  0.50528853491E+02  0.29999980670E+02 0.  0.
        -12    1    1    2    0    0  0.27783282487E+02 -0.22018646624E+02  0.19910665735E+02  0.40659146509E+02  0.00000000000E+00 0.  1.
         11    1    3    3    0    0 -0.10402162907E+02 -0.15994522881E+01 -0.11798843365E+02  0.15810627621E+02  0.51100000000E-03 0. -1.
        -11    1    3    3    0    0 -0.10243172612E+02  0.79468381851E+01  0.41115337674E+01  0.13600718087E+02  0.51100000000E-03 0.  1.
         12    1    3    3    0    0 -0.71379469674E+01  0.15671260727E+02 -0.12223356137E+02  0.21117507782E+02  0.00000000000E+00 0. -1.
</event>
<event>
 7    1  0.1098446E-012  0.5052885E+02  0.7816164E-02  0.1300439E+00
        -11   -1    0    0    0    0  0.00000000000E+00  0.00000000000E+00  0.45593999997E+02  0.45594000000E+02  0.51100000000E-03 0.  1.
         11   -1    0    0    0    0 -0.00000000000E+00 -0.00000000000E+00 -0.45593999997E+02  0.45594000000E+02  0.51100000000E-03 0. -1.
    9900012    2    1    2    0    0 -0.19328843720E+02  0.57862989392E+01 -0.35299877228E+02  0.50528846206E+02  0.29999958528E+02 0.  0.
        -12    1    1    2    0    0  0.19328843720E+02 -0.57862989392E+01  0.35299877228E+02  0.40659153794E+02  0.00000000000E+00 0.  1.
         11    1    3    3    0    0 -0.15089110735E+02  0.11291408425E+02 -0.26123167056E+02  0.32211752891E+02  0.51100000000E-03 0. -1.
        -11    1    3    3    0    0  0.52082446886E+01 -0.29724641519E+01 -0.26382700360E+01  0.65514750182E+01  0.51100000000E-03 0.  1.
        -12    1    3    3    0    0 -0.94479776729E+01 -0.25326453342E+01 -0.65384401356E+01  0.11765618297E+02  0.00000000000E+00 0.  1.
</event>
<event>
 7    1  0.1098446E-012  0.5052887E+02  0.7816164E-02  0.1300439E+00
        -11   -1    0    0    0    0  0.00000000000E+00  0.00000000000E+00  0.45593999997E+02  0.45594000000E+02  0.51100000000E-03 0.  1.
         11   -1    0    0    0    0 -0.00000000000E+00 -0.00000000000E+00 -0.45593999997E+02  0.45594000000E+02  0.51100000000E-03 0. -1.
    9900012    2    1    2    0    0  0.31090608057E+02 -0.73858899119E+01 -0.25139369111E+02  0.50528866236E+02  0.30000019411E+02 0.  0.
        -12    1    1    2    0    0 -0.31090608057E+02  0.73858899119E+01  0.25139369111E+02  0.40659133764E+02  0.00000000000E+00 0.  1.
         11    1    3    3    0    0  0.16598487070E+02 -0.11610599768E+02 -0.30940397642E+01  0.20491190358E+02  0.51100000000E-03 0. -1.
        -11    1    3    3    0    0 -0.22405035458E+01  0.26120439053E+01 -0.52318098492E+01  0.62621453242E+01  0.51100000000E-03 0.  1.
         12    1    3    3    0    0  0.16732624532E+02  0.16126659504E+01 -0.16813519498E+02  0.23775530554E+02  0.00000000000E+00 0. -1.
</event>
<event>
 7    1  0.1098446E-012  0.5052886E+02  0.7816164E-02  0.1300439E+00
        -11   -1    0    0    0    0  0.00000000000E+00  0.00000000000E+00  0.45593999997E+02  0.45594000000E+02  0.51100000000E-03 0.  1.
         11   -1    0    0    0    0 -0.00000000000E+00 -0.00000000000E+00 -0.45593999997E+02  0.45594000000E+02  0.51100000000E-03 0. -1.
    9900012    2    1    2    0    0  0.15815716447E+02  0.29073459008E+00 -0.37455897071E+02  0.50528860330E+02  0.30000001458E+02 0.  0.
        -12    1    1    2    0    0 -0.15815716447E+02 -0.29073459008E+00  0.37455897071E+02  0.40659139670E+02  0.00000000000E+00 0.  1.
         11    1    3    3    0    0  0.50487520718E+01  0.10939677526E+02 -0.19909798952E+02  0.23271582164E+02  0.51100000000E-03 0. -1.
        -11    1    3    3    0    0 -0.17659920636E+01 -0.12930541891E+01  0.14693669724E+01  0.26362391138E+01  0.51100000000E-03 0.  1.
         12    1    3    3    0    0  0.12532956439E+02 -0.93558887465E+01 -0.19015465092E+02  0.24621039052E+02  0.00000000000E+00 0. -1.
</event>
<event>
 7    1  0.1098446E-012  0.5052885E+02  0.7816164E-02  0.1300439E+00
        -11   -1    0    0    0    0  0.00000000000E+00  0.00000000000E+00  0.45593999997E+02  0.45594000000E+02  0.51100000000E-03 0.  1.
         11   -1    0    0    0    0 -0.00000000000E+00 -0.00000000000E+00 -0.45593999997E+02  0.45594000000E+02  0.51100000000E-03 0. -1.
    9900012    2    1    2    0    0  0.27770332585E+02 -0.12900986612E+02 -0.26749570565E+02  0.50528851548E+02  0.29999974765E+02 0.  0.
        -12    1    1    2    0    0 -0.27770332585E+02  0.12900986612E+02  0.26749570565E+02  0.40659148452E+02  0.00000000000E+00 0.  1.
         11    1    3    3    0    0  0.23885225092E+02 -0.65211921507E+00 -0.19789953766E+02  0.31025336541E+02  0.51100000000E-03 0. -1.
        -11    1    3    3    0    0 -0.12786801332E+01 -0.26254160367E+01  0.33781543345E+01  0.44653957514E+01  0.51100000000E-03 0.  1.
         12    1    3    3    0    0  0.51637876260E+01 -0.96234513602E+01 -0.10337771134E+02  0.15038119256E+02  0.00000000000E+00 0. -1.
</event>
<event>
 7    1  0.1098446E-012  0.5052886E+02  0.7816164E-02  0.1300439E+00
        -11   -1    0    0    0    0  0.00000000000E+00  0.00000000000E+00  0.45593999997E+02  0.45594000000E+02  0.51100000000E-03 0. -1.
         11   -1    0    0    0    0 -0.00000000000E+00 -0.00000000000E+00 -0.45593999997E+02  0.45594000000E+02  0.51100000000E-03 0.  1.
    9900012    2    1    2    0    0  0.34198730414E+02 -0.11221153526E+02  0.18912910061E+02  0.50528860617E+02  0.30000002331E+02 0.  0.
        -12    1    1    2    0    0 -0.34198730414E+02  0.11221153526E+02 -0.18912910061E+02  0.40659139383E+02  0.00000000000E+00 0.  1.
         11    1    3    3    0    0  0.65013454012E+01 -0.11756624276E+02  0.98745514218E+00  0.13470737705E+02  0.51100000000E-03 0. -1.
        -11    1    3    3    0    0  0.19450509505E+02  0.82577482276E+01  0.11355909021E+02  0.23988943198E+02  0.51100000000E-03 0.  1.
         12    1    3    3    0    0  0.82468755077E+01 -0.77222774772E+01  0.65695458978E+01  0.13069179713E+02  0.00000000000E+00 0. -1.
</event>
<event>
 7    1  0.1098446E-012  0.5052894E+02  0.7816164E-02  0.1300439E+00
        -11   -1    0    0    0    0  0.00000000000E+00  0.00000000000E+00  0.45593999997E+02  0.45594000000E+02  0.51100000000E-03 0.  1.
         11   -1    0    0    0    0 -0.00000000000E+00 -0.00000000000E+00 -0.45593999997E+02  0.45594000000E+02  0.51100000000E-03 0. -1.
    9900012    2    1    2    0    0 -0.21021663634E+02  0.24803401110E+02 -0.24413935287E+02  0.50528938467E+02  0.30000238962E+02 0.  0.
        -12    1    1    2    0    0  0.21021663634E+02 -0.24803401110E+02  0.24413935287E+02  0.40659061533E+02  0.00000000000E+00 0.  1.
         11    1    3    3    0    0 -0.22642168493E+02  0.25231556310E+02 -0.14440554180E+02  0.36848729058E+02  0.51100000000E-03 0. -1.
        -11    1    3    3    0    0 -0.27871751167E+00 -0.95347628619E+00  0.16310040602E+01  0.19097054708E+01  0.51100000000E-03 0.  1.
         12    1    3    3    0    0  0.18992223703E+01  0.52532108624E+00 -0.11604385167E+02  0.11770503938E+02  0.00000000000E+00 0. -1.
</event>
<event>
 7    1  0.1098446E-012  0.5052887E+02  0.7816164E-02  0.1300439E+00
        -11   -1    0    0    0    0  0.00000000000E+00  0.00000000000E+00  0.45593999997E+02  0.45594000000E+02  0.51100000000E-03 0.  1.
         11   -1    0    0    0    0 -0.00000000000E+00 -0.00000000000E+00 -0.45593999997E+02  0.45594000000E+02  0.51100000000E-03 0. -1.
    9900012    2    1    2    0    0  0.37105747639E+02 -0.83036819664E+01 -0.14400606183E+02  0.50528866949E+02  0.30000021577E+02 0.  0.
        -12    1    1    2    0    0 -0.37105747639E+02  0.83036819664E+01  0.14400606183E+02  0.40659133051E+02  0.00000000000E+00 0.  1.
         11    1    3    3    0    0  0.28071083143E+02 -0.42472581397E+01 -0.20832721235E+02  0.35214019720E+02  0.51100000000E-03 0. -1.
        -11    1    3    3    0    0  0.61369220932E+01  0.11542030772E+01  0.69342667110E+01  0.93315621737E+01  0.51100000000E-03 0.  1.
         12    1    3    3    0    0  0.28977424026E+01 -0.52106269039E+01 -0.50215165965E+00  0.59832850552E+01  0.00000000000E+00 0. -1.
</event>
<event>
 7    1  0.1098446E-012  0.5052884E+02  0.7816164E-02  0.1300439E+00
        -11   -1    0    0    0    0  0.00000000000E+00  0.00000000000E+00  0.45593999997E+02  0.45594000000E+02  0.51100000000E-03 0.  1.
         11   -1    0    0    0    0 -0.00000000000E+00 -0.00000000000E+00 -0.45593999997E+02  0.45594000000E+02  0.51100000000E-03 0. -1.
    9900012    2    1    2    0    0 -0.92885793193E+01 -0.32468720028E+02 -0.22642252272E+02  0.50528842680E+02  0.29999947811E+02 0.  0.
        -12    1    1    2    0    0  0.92885793193E+01  0.32468720028E+02  0.22642252272E+02  0.40659157320E+02  0.00000000000E+00 0.  1.
         11    1    3    3    0    0  0.56143552044E+01 -0.16143944204E+01 -0.71672923543E+01  0.92464768242E+01  0.51100000000E-03 0. -1.
        -11    1    3    3    0    0 -0.10902998130E+02 -0.10550613796E+02  0.43669588076E+00  0.15178324125E+02  0.51100000000E-03 0.  1.
         12    1    3    3    0    0 -0.39999363939E+01 -0.20303711811E+02 -0.15911655798E+02  0.26104041731E+02  0.00000000000E+00 0. -1.
</event>
<event>
 7    1  0.1098446E-012  0.5052886E+02  0.7816164E-02  0.1300439E+00
        -11   -1    0    0    0    0  0.00000000000E+00  0.00000000000E+00  0.45593999997E+02  0.45594000000E+02  0.51100000000E-03 0.  1.
         11   -1    0    0    0    0 -0.00000000000E+00 -0.00000000000E+00 -0.45593999997E+02  0.45594000000E+02  0.51100000000E-03 0. -1.
    9900012    2    1    2    0    0 -0.21177623933E+02  0.22295737112E+02  0.26600263588E+02  0.50528859923E+02  0.30000000223E+02 0.  0.
        -12    1    1    2    0    0  0.21177623933E+02 -0.22295737112E+02 -0.26600263588E+02  0.40659140077E+02  0.00000000000E+00 0.  1.
         11    1    3    3    0    0 -0.16096186807E+02  0.28738439941E+02  0.20769312283E+02  0.38940332471E+02  0.51100000000E-03 0. -1.
        -11    1    3    3    0    0 -0.25939518729E+01 -0.37878780255E+01  0.64307396335E+01  0.79013301887E+01  0.51100000000E-03 0.  1.
         12    1    3    3    0    0 -0.24874852528E+01 -0.26548248041E+01 -0.59978832812E+00  0.36871972638E+01  0.00000000000E+00 0. -1.
</event>
<event>
 7    1  0.1098446E-012  0.5052885E+02  0.7816164E-02  0.1300439E+00
        -11   -1    0    0    0    0  0.00000000000E+00  0.00000000000E+00  0.45593999997E+02  0.45594000000E+02  0.51100000000E-03 0.  1.
         11   -1    0    0    0    0 -0.00000000000E+00 -0.00000000000E+00 -0.45593999997E+02  0.45594000000E+02  0.51100000000E-03 0. -1.
    9900012    2    1    2    0    0 -0.12152361122E+02  0.28945619009E+02 -0.25838688653E+02  0.50528848854E+02  0.29999966576E+02 0.  0.
        -12    1    1    2    0    0  0.12152361122E+02 -0.28945619009E+02  0.25838688653E+02  0.40659151146E+02  0.00000000000E+00 0.  1.
         11    1    3    3    0    0 -0.61276428649E+01  0.47993850372E+01 -0.23288333083E+02  0.24554603680E+02  0.51100000000E-03 0. -1.
        -11    1    3    3    0    0 -0.26160295686E+01  0.20872183161E+02 -0.29024489450E+01  0.21234779272E+02  0.51100000000E-03 0.  1.
        -12    1    3    3    0    0 -0.34086886885E+01  0.32740508107E+01  0.35209337588E+00  0.47394659015E+01  0.00000000000E+00 0.  1.
</event>
<event>
 7    1  0.1098446E-012  0.5052885E+02  0.7816164E-02  0.1300439E+00
        -11   -1    0    0    0    0  0.00000000000E+00  0.00000000000E+00  0.45593999997E+02  0.45594000000E+02  0.51100000000E-03 0. -1.
         11   -1    0    0    0    0 -0.00000000000E+00 -0.00000000000E+00 -0.45593999997E+02  0.45594000000E+02  0.51100000000E-03 0.  1.
    9900012    2    1    2    0    0 -0.98481086474E+01  0.16101370290E+02  0.36012875434E+02  0.50528848924E+02  0.29999966791E+02 0.  0.
        -12    1    1    2    0    0  0.98481086474E+01 -0.16101370290E+02 -0.36012875434E+02  0.40659151076E+02  0.00000000000E+00 0.  1.
         11    1    3    3    0    0 -0.94886581665E+01  0.10505843734E+02  0.13209920956E+01  0.14218031043E+02  0.51100000000E-03 0. -1.
        -11    1    3    3    0    0  0.15931533060E+01 -0.21635162267E+01  0.75270790206E+01  0.79922374066E+01  0.51100000000E-03 0.  1.
         12    1    3    3    0    0 -0.19526037869E+01  0.77590427819E+01  0.27164804318E+02  0.28318580475E+02  0.00000000000E+00 0. -1.
</event>
<event>
 7    1  0.1098446E-012  0.5052886E+02  0.7816164E-02  0.1300439E+00
        -11   -1    0    0    0    0  0.00000000000E+00  0.00000000000E+00  0.45593999997E+02  0.45594000000E+02  0.51100000000E-03 0.  1.
         11   -1    0    0    0    0 -0.00000000000E+00 -0.00000000000E+00 -0.45593999997E+02  0.45594000000E+02  0.51100000000E-03 0. -1.
    9900012    2    1    2    0    0 -0.14167763806E+02  0.29854851780E+02 -0.23688145752E+02  0.50528856437E+02  0.29999989627E+02 0.  0.
        -12    1    1    2    0    0  0.14167763806E+02 -0.29854851780E+02  0.23688145752E+02  0.40659143563E+02  0.00000000000E+00 0.  1.
         11    1    3    3    0    0 -0.73244480351E+01  0.82915394040E+01 -0.16826404082E+02  0.20137652279E+02  0.51100000000E-03 0. -1.
        -11    1    3    3    0    0  0.33027191442E+01  0.55686123222E-01  0.31727787301E+01  0.45801287997E+01  0.51100000000E-03 0.  1.
         12    1    3    3    0    0 -0.10146034915E+02  0.21507626253E+02 -0.10034520400E+02  0.25811075359E+02  0.00000000000E+00 0. -1.
</event>
<event>
 7    1  0.1098446E-012  0.5052886E+02  0.7816164E-02  0.1300439E+00
        -11   -1    0    0    0    0  0.00000000000E+00  0.00000000000E+00  0.45593999997E+02  0.45594000000E+02  0.51100000000E-03 0.  1.
         11   -1    0    0    0    0 -0.00000000000E+00 -0.00000000000E+00 -0.45593999997E+02  0.45594000000E+02  0.51100000000E-03 0. -1.
    9900012    2    1    2    0    0 -0.24484041283E+02 -0.18492733606E+02 -0.26678005260E+02  0.50528862793E+02  0.30000008946E+02 0.  0.
        -12    1    1    2    0    0  0.24484041283E+02  0.18492733606E+02  0.26678005260E+02  0.40659137207E+02  0.00000000000E+00 0.  1.
         11    1    3    3    0    0 -0.23806036218E+02 -0.12323902679E+02 -0.28556042102E+02  0.39166994759E+02  0.51100000000E-03 0. -1.
        -11    1    3    3    0    0 -0.10191726902E+01  0.20692777657E+01  0.20918673971E+01  0.31139256433E+01  0.51100000000E-03 0.  1.
         12    1    3    3    0    0  0.34116762547E+00 -0.82381086924E+01 -0.21383055559E+00  0.82479423909E+01  0.00000000000E+00 0. -1.
</event>
<event>
 7    1  0.1098446E-012  0.5052886E+02  0.7816164E-02  0.1300439E+00
        -11   -1    0    0    0    0  0.00000000000E+00  0.00000000000E+00  0.45593999997E+02  0.45594000000E+02  0.51100000000E-03 0. -1.
         11   -1    0    0    0    0 -0.00000000000E+00 -0.00000000000E+00 -0.45593999997E+02  0.45594000000E+02  0.51100000000E-03 0.  1.
    9900012    2    1    2    0    0 -0.16625925705E+02  0.34662236675E+01  0.36942242594E+02  0.50528863266E+02  0.30000010382E+02 0.  0.
        -12    1    1    2    0    0  0.16625925705E+02 -0.34662236675E+01 -0.36942242594E+02  0.40659136734E+02  0.00000000000E+00 0.  1.
         11    1    3    3    0    0  0.57208093325E+01 -0.21644208214E+01  0.77273777240E+01  0.98551886669E+01  0.51100000000E-03 0.  1.
        -11    1    3    3    0    0 -0.16673514567E+02  0.40885447897E+01  0.30174964003E+02  0.34716721322E+02  0.51100000000E-03 0. -1.
         12    1    3    3    0    0 -0.56732204707E+01  0.15420996993E+01 -0.96009913267E+00  0.59569532763E+01  0.00000000000E+00 0. -1.
</event>
<event>
 7    1  0.1098446E-012  0.5052887E+02  0.7816164E-02  0.1300439E+00
        -11   -1    0    0    0    0  0.00000000000E+00  0.00000000000E+00  0.45593999997E+02  0.45594000000E+02  0.51100000000E-03 0. -1.
         11   -1    0    0    0    0 -0.00000000000E+00 -0.00000000000E+00 -0.45593999997E+02  0.45594000000E+02  0.51100000000E-03 0.  1.
    9900012    2    1    2    0    0  0.32705804867E+01  0.40145092441E+02 -0.55533483813E+01  0.50528870373E+02  0.30000031985E+02 0.  0.
        -12    1    1    2    0    0 -0.32705804867E+01 -0.40145092441E+02  0.55533483813E+01  0.40659129627E+02  0.00000000000E+00 0.  1.
         11    1    3    3    0    0 -0.93860410942E+01  0.32430206941E+02 -0.15732402920E+01  0.33797798374E+02  0.51100000000E-03 0. -1.
        -11    1    3    3    0    0  0.54051980404E+01  0.27439359482E+01 -0.50299867605E+01  0.78769357885E+01  0.51100000000E-03 0.  1.
         12    1    3    3    0    0  0.72514235405E+01  0.49709495515E+01  0.10498786713E+01  0.88541362103E+01  0.00000000000E+00 0. -1.
</event>
<event>
 7    1  0.1098446E-012  0.5052886E+02  0.7816164E-02  0.1300439E+00
        -11   -1    0    0    0    0  0.00000000000E+00  0.00000000000E+00  0.45593999997E+02  0.45594000000E+02  0.51100000000E-03 0. -1.
         11   -1    0    0    0    0 -0.00000000000E+00 -0.00000000000E+00 -0.45593999997E+02  0.45594000000E+02  0.51100000000E-03 0.  1.
    9900012    2    1    2    0    0  0.24878755629E+02  0.21921879772E+02  0.23529651997E+02  0.50528858131E+02  0.29999994776E+02 0.  0.
        -12    1    1    2    0    0 -0.24878755629E+02 -0.21921879772E+02 -0.23529651997E+02  0.40659141869E+02  0.00000000000E+00 0.  1.
         11    1    3    3    0    0  0.52342368986E+01  0.95187595347E+01  0.46104712325E+01  0.11800867097E+02  0.51100000000E-03 0. -1.
        -11    1    3    3    0    0  0.20758242655E+02 -0.15771100869E+00  0.87466346792E+01  0.22526276421E+02  0.51100000000E-03 0.  1.
        -12    1    3    3    0    0 -0.11137239248E+01  0.12560831246E+02  0.10172546085E+02  0.16201714614E+02  0.00000000000E+00 0.  1.
</event>
<event>
 7    1  0.1098446E-012  0.5052885E+02  0.7816164E-02  0.1300439E+00
        -11   -1    0    0    0    0  0.00000000000E+00  0.00000000000E+00  0.45593999997E+02  0.45594000000E+02  0.51100000000E-03 0.  1.
         11   -1    0    0    0    0 -0.00000000000E+00 -0.00000000000E+00 -0.45593999997E+02  0.45594000000E+02  0.51100000000E-03 0. -1.
    9900012    2    1    2    0    0 -0.32143241231E+02  0.24877607142E+02 -0.10407098693E+01  0.50528851325E+02  0.29999974087E+02 0.  0.
        -12    1    1    2    0    0  0.32143241231E+02 -0.24877607142E+02  0.10407098693E+01  0.40659148675E+02  0.00000000000E+00 0.  1.
         11    1    3    3    0    0 -0.15433833047E+02  0.19484458522E+02 -0.43591151754E+01  0.25235871529E+02  0.51100000000E-03 0. -1.
        -11    1    3    3    0    0 -0.21963477110E+01  0.72283353777E+01  0.69008995987E+01  0.10232066806E+02  0.51100000000E-03 0.  1.
         12    1    3    3    0    0 -0.14513060473E+02 -0.18351867581E+01 -0.35824942925E+01  0.15060912990E+02  0.00000000000E+00 0. -1.
</event>
<event>
 7    1  0.1098446E-012  0.5052884E+02  0.7816164E-02  0.1300439E+00
        -11   -1    0    0    0    0  0.00000000000E+00  0.00000000000E+00  0.45593999997E+02  0.45594000000E+02  0.51100000000E-03 0.  1.
         11   -1    0    0    0    0 -0.00000000000E+00 -0.00000000000E+00 -0.45593999997E+02  0.45594000000E+02  0.51100000000E-03 0. -1.
    9900012    2    1    2    0    0 -0.10867277036E+02  0.98678365725E+01 -0.37916948878E+02  0.50528844561E+02  0.29999953527E+02 0.  0.
        -12    1    1    2    0    0  0.10867277036E+02 -0.98678365725E+01  0.37916948878E+02  0.40659155439E+02  0.00000000000E+00 0.  1.
         11    1    3    3    0    0 -0.15059700402E+02  0.75370124602E+01 -0.26249554801E+02  0.31187181029E+02  0.51100000000E-03 0. -1.
        -11    1    3    3    0    0 -0.17592896335E+01 -0.10637986434E+01  0.27179358594E+01  0.34079235856E+01  0.51100000000E-03 0.  1.
         12    1    3    3    0    0  0.59517129996E+01  0.33946227556E+01 -0.14385329937E+02  0.15933739946E+02  0.00000000000E+00 0. -1.
</event>
<event>
 7    1  0.1098446E-012  0.5052893E+02  0.7816164E-02  0.1300439E+00
        -11   -1    0    0    0    0  0.00000000000E+00  0.00000000000E+00  0.45593999997E+02  0.45594000000E+02  0.51100000000E-03 0.  1.
         11   -1    0    0    0    0 -0.00000000000E+00 -0.00000000000E+00 -0.45593999997E+02  0.45594000000E+02  0.51100000000E-03 0. -1.
    9900012    2    1    2    0    0  0.16593623929E+02 -0.18678110303E+02 -0.32077095886E+02  0.50528926719E+02  0.30000203255E+02 0.  0.
        -12    1    1    2    0    0 -0.16593623929E+02  0.18678110303E+02  0.32077095886E+02  0.40659073281E+02  0.00000000000E+00 0.  1.
         11    1    3    3    0    0  0.33876342120E+00 -0.53401189300E+01 -0.13766811958E+02  0.14770130080E+02  0.51100000000E-03 0. -1.
        -11    1    3    3    0    0  0.30667812681E+01 -0.97855690568E+01  0.27865370200E+01  0.10626725645E+02  0.51100000000E-03 0.  1.
        -12    1    3    3    0    0  0.13188079240E+02 -0.35524223161E+01 -0.21096820948E+02  0.25132070994E+02  0.00000000000E+00 0.  1.
</event>
<event>
 7    1  0.1098446E-012  0.5052886E+02  0.7816164E-02  0.1300439E+00
        -11   -1    0    0    0    0  0.00000000000E+00  0.00000000000E+00  0.45593999997E+02  0.45594000000E+02  0.51100000000E-03 0.  1.
         11   -1    0    0    0    0 -0.00000000000E+00 -0.00000000000E+00 -0.45593999997E+02  0.45594000000E+02  0.51100000000E-03 0. -1.
    9900012    2    1    2    0    0  0.34483018558E+02 -0.57857161330E+01 -0.20751201251E+02  0.50528862854E+02  0.30000009132E+02 0.  0.
        -12    1    1    2    0    0 -0.34483018558E+02  0.57857161330E+01  0.20751201251E+02  0.40659137146E+02  0.00000000000E+00 0.  1.
         11    1    3    3    0    0  0.93366670190E+01 -0.20382975347E+01 -0.81289993898E+01  0.12546259969E+02  0.51100000000E-03 0. -1.
        -11    1    3    3    0    0 -0.34230118206E+01 -0.54432434393E+01 -0.55694761796E+01  0.85067605021E+01  0.51100000000E-03 0.  1.
        -12    1    3    3    0    0  0.28569363360E+02  0.16958248410E+01 -0.70527256814E+01  0.29475842384E+02  0.00000000000E+00 0.  1.
</event>
<event>
 7    1  0.1098446E-012  0.5052887E+02  0.7816164E-02  0.1300439E+00
        -11   -1    0    0    0    0  0.00000000000E+00  0.00000000000E+00  0.45593999997E+02  0.45594000000E+02  0.51100000000E-03 0. -1.
         11   -1    0    0    0    0 -0.00000000000E+00 -0.00000000000E+00 -0.45593999997E+02  0.45594000000E+02  0.51100000000E-03 0.  1.
    9900012    2    1    2    0    0  0.94215316277E+01 -0.19523653991E+02  0.34398064839E+02  0.50528865872E+02  0.30000018305E+02 0.  0.
        -12    1    1    2    0    0 -0.94215316277E+01  0.19523653991E+02 -0.34398064839E+02  0.40659134128E+02  0.00000000000E+00 0.  1.
         11    1    3    3    0    0  0.15858884826E+02 -0.92109686393E+01  0.32885364918E+02  0.37653597402E+02  0.51100000000E-03 0. -1.
        -11    1    3    3    0    0 -0.50854154177E+01 -0.49527351750E+01 -0.15822393089E+00  0.71004275052E+01  0.51100000000E-03 0.  1.
         12    1    3    3    0    0 -0.13519377809E+01 -0.53599501765E+01  0.16709238515E+01  0.57748409654E+01  0.00000000000E+00 0. -1.
</event>
<event>
 7    1  0.1098446E-012  0.5052884E+02  0.7816164E-02  0.1300439E+00
        -11   -1    0    0    0    0  0.00000000000E+00  0.00000000000E+00  0.45593999997E+02  0.45594000000E+02  0.51100000000E-03 0. -1.
         11   -1    0    0    0    0 -0.00000000000E+00 -0.00000000000E+00 -0.45593999997E+02  0.45594000000E+02  0.51100000000E-03 0.  1.
    9900012    2    1    2    0    0 -0.32244352590E+01  0.47211047004E+01  0.40255208228E+02  0.50528836189E+02  0.29999928079E+02 0.  0.
        -12    1    1    2    0    0  0.32244352590E+01 -0.47211047004E+01 -0.40255208228E+02  0.40659163811E+02  0.00000000000E+00 0.  1.
         11    1    3    3    0    0  0.45469681410E+01  0.24611197210E+00  0.13097137707E+02  0.13866164096E+02  0.51100000000E-03 0. -1.
        -11    1    3    3    0    0 -0.14344726540E+02 -0.19555126844E+01  0.11437938834E+02  0.18450519083E+02  0.51100000000E-03 0.  1.
        -12    1    3    3    0    0  0.65733231405E+01  0.64305054127E+01  0.15720131688E+02  0.18212153010E+02  0.00000000000E+00 0.  1.
</event>
<event>
 7    1  0.1098446E-012  0.5052890E+02  0.7816164E-02  0.1300439E+00
        -11   -1    0    0    0    0  0.00000000000E+00  0.00000000000E+00  0.45593999997E+02  0.45594000000E+02  0.51100000000E-03 0. -1.
         11   -1    0    0    0    0 -0.00000000000E+00 -0.00000000000E+00 -0.45593999997E+02  0.45594000000E+02  0.51100000000E-03 0.  1.
    9900012    2    1    2    0    0  0.11356190820E+02 -0.12083017697E+02  0.37124121115E+02  0.50528895790E+02  0.30000109242E+02 0.  0.
        -12    1    1    2    0    0 -0.11356190820E+02  0.12083017697E+02 -0.37124121115E+02  0.40659104210E+02  0.00000000000E+00 0.  1.
         11    1    3    3    0    0  0.11400591758E+02  0.11107309667E+01  0.10060685591E+02  0.15245478363E+02  0.51100000000E-03 0. -1.
        -11    1    3    3    0    0 -0.43107999239E+01 -0.16441521739E+01 -0.92588734424E+00  0.47056880464E+01  0.51100000000E-03 0.  1.
         12    1    3    3    0    0  0.42663989860E+01 -0.11549596490E+02  0.27989322869E+02  0.30577729380E+02  0.00000000000E+00 0. -1.
</event>
<event>
 7    1  0.1098446E-012  0.5052887E+02  0.7816164E-02  0.1300439E+00
        -11   -1    0    0    0    0  0.00000000000E+00  0.00000000000E+00  0.45593999997E+02  0.45594000000E+02  0.51100000000E-03 0.  1.
         11   -1    0    0    0    0 -0.00000000000E+00 -0.00000000000E+00 -0.45593999997E+02  0.45594000000E+02  0.51100000000E-03 0. -1.
    9900012    2    1    2    0    0 -0.16128431909E+01 -0.42268812232E+01 -0.40406647132E+02  0.50528869163E+02  0.30000028307E+02 0.  0.
        -12    1    1    2    0    0  0.16128431909E+01  0.42268812232E+01  0.40406647132E+02  0.40659130837E+02  0.00000000000E+00 0.  1.
         11    1    3    3    0    0 -0.13991885019E+02 -0.47389034934E+01 -0.16157459840E+02  0.21892774184E+02  0.51100000000E-03 0. -1.
        -11    1    3    3    0    0  0.95600511368E+01  0.60210371603E+00 -0.90518906332E+01  0.13179295540E+02  0.51100000000E-03 0.  1.
         12    1    3    3    0    0  0.28189906917E+01 -0.90081445878E-01 -0.15197296658E+02  0.15456799439E+02  0.00000000000E+00 0. -1.
</event>
<event>
 7    1  0.1098446E-012  0.5052886E+02  0.7816164E-02  0.1300439E+00
        -11   -1    0    0    0    0  0.00000000000E+00  0.00000000000E+00  0.45593999997E+02  0.45594000000E+02  0.51100000000E-03 0.  1.
         11   -1    0    0    0    0 -0.00000000000E+00 -0.00000000000E+00 -0.45593999997E+02  0.45594000000E+02  0.51100000000E-03 0. -1.
    9900012    2    1    2    0    0 -0.70441819019E+01  0.38801379397E+02 -0.98993948319E+01  0.50528861300E+02  0.30000004408E+02 0.  0.
        -12    1    1    2    0    0  0.70441819019E+01 -0.38801379397E+02  0.98993948319E+01  0.40659138700E+02  0.00000000000E+00 0.  1.
         11    1    3    3    0    0 -0.17555570530E+02  0.20334539131E+02 -0.18614514047E+01  0.26928730751E+02  0.51100000000E-03 0. -1.
        -11    1    3    3    0    0  0.51283661690E+01  0.85792862609E+01 -0.71855084788E+01  0.12309988817E+02  0.51100000000E-03 0.  1.
         12    1    3    3    0    0  0.53830224586E+01  0.98875540053E+01 -0.85243494839E+00  0.11290141732E+02  0.00000000000E+00 0. -1.
</event>
<event>
 7    1  0.1098446E-012  0.5052886E+02  0.7816164E-02  0.1300439E+00
        -11   -1    0    0    0    0  0.00000000000E+00  0.00000000000E+00  0.45593999997E+02  0.45594000000E+02  0.51100000000E-03 0.  1.
         11   -1    0    0    0    0 -0.00000000000E+00 -0.00000000000E+00 -0.45593999997E+02  0.45594000000E+02  0.51100000000E-03 0. -1.
    9900012    2    1    2    0    0  0.23436948228E+01  0.13231834825E+02 -0.38374361052E+02  0.50528856571E+02  0.29999990033E+02 0.  0.
        -12    1    1    2    0    0 -0.23436948228E+01 -0.13231834825E+02  0.38374361052E+02  0.40659143429E+02  0.00000000000E+00 0.  1.
         11    1    3    3    0    0  0.10447013463E+02  0.14613776797E+02 -0.22290213297E+02  0.28627891499E+02  0.51100000000E-03 0. -1.
        -11    1    3    3    0    0 -0.12548239243E+01 -0.20322720311E+01  0.16341911488E+01  0.28940099622E+01  0.51100000000E-03 0.  1.
         12    1    3    3    0    0 -0.68484947160E+01  0.65033005884E+00 -0.17718338904E+02  0.19006955110E+02  0.00000000000E+00 0. -1.
</event>
<event>
 7    1  0.1098446E-012  0.5052886E+02  0.7816164E-02  0.1300439E+00
        -11   -1    0    0    0    0  0.00000000000E+00  0.00000000000E+00  0.45593999997E+02  0.45594000000E+02  0.51100000000E-03 0.  1.
         11   -1    0    0    0    0 -0.00000000000E+00 -0.00000000000E+00 -0.45593999997E+02  0.45594000000E+02  0.51100000000E-03 0. -1.
    9900012    2    1    2    0    0 -0.16344803563E+02  0.39873236149E+01 -0.37015055942E+02  0.50528859336E+02  0.29999998438E+02 0.  0.
        -12    1    1    2    0    0  0.16344803563E+02 -0.39873236149E+01  0.37015055942E+02  0.40659140664E+02  0.00000000000E+00 0.  1.
         11    1    3    3    0    0  0.39063167059E+01  0.43444486663E+01 -0.22809926558E+02  0.23546258605E+02  0.51100000000E-03 0.  1.
        -11    1    3    3    0    0 -0.15766789541E+02  0.34125633823E+01 -0.13587837657E+02  0.21091860367E+02  0.51100000000E-03 0. -1.
        -12    1    3    3    0    0 -0.44843307283E+01 -0.37696884336E+01 -0.61729172644E+00  0.58907403646E+01  0.00000000000E+00 0.  1.
</event>
<event>
 7    1  0.1098446E-012  0.5052884E+02  0.7816164E-02  0.1300439E+00
        -11   -1    0    0    0    0  0.00000000000E+00  0.00000000000E+00  0.45593999997E+02  0.45594000000E+02  0.51100000000E-03 0.  1.
         11   -1    0    0    0    0 -0.00000000000E+00 -0.00000000000E+00 -0.45593999997E+02  0.45594000000E+02  0.51100000000E-03 0. -1.
    9900012    2    1    2    0    0  0.23363278071E+02 -0.21952815216E+01 -0.33203996788E+02  0.50528838353E+02  0.29999934656E+02 0.  0.
        -12    1    1    2    0    0 -0.23363278071E+02  0.21952815216E+01  0.33203996788E+02  0.40659161647E+02  0.00000000000E+00 0.  1.
         11    1    3    3    0    0  0.90026653342E+00  0.70718675282E+01 -0.14953010945E+02  0.16565455827E+02  0.51100000000E-03 0. -1.
        -11    1    3    3    0    0  0.18034041089E+02 -0.17462258392E+01 -0.63374855935E+01  0.19194782275E+02  0.51100000000E-03 0.  1.
         12    1    3    3    0    0  0.44289704487E+01 -0.75209232105E+01 -0.11913500249E+02  0.14768600251E+02  0.00000000000E+00 0. -1.
</event>
<event>
 7    1  0.1098446E-012  0.5052886E+02  0.7816164E-02  0.1300439E+00
        -11   -1    0    0    0    0  0.00000000000E+00  0.00000000000E+00  0.45593999997E+02  0.45594000000E+02  0.51100000000E-03 0. -1.
         11   -1    0    0    0    0 -0.00000000000E+00 -0.00000000000E+00 -0.45593999997E+02  0.45594000000E+02  0.51100000000E-03 0.  1.
    9900012    2    1    2    0    0 -0.29224207841E+02 -0.14729555883E+02  0.24127814545E+02  0.50528861111E+02  0.30000003834E+02 0.  0.
        -12    1    1    2    0    0  0.29224207841E+02  0.14729555883E+02 -0.24127814545E+02  0.40659138889E+02  0.00000000000E+00 0.  1.
         11    1    3    3    0    0 -0.24735028374E+02 -0.12083947934E+02  0.61765380869E+01  0.28213348779E+02  0.51100000000E-03 0. -1.
        -11    1    3    3    0    0 -0.43986093075E+01  0.40077888553E+01  0.11973619690E+02  0.13370777991E+02  0.51100000000E-03 0.  1.
         12    1    3    3    0    0 -0.90570159455E-01 -0.66533968039E+01  0.59776567686E+01  0.89447343408E+01  0.00000000000E+00 0. -1.
</event>
<event>
 7    1  0.1098446E-012  0.5052886E+02  0.7816164E-02  0.1300439E+00
        -11   -1    0    0    0    0  0.00000000000E+00  0.00000000000E+00  0.45593999997E+02  0.45594000000E+02  0.51100000000E-03 0.  1.
         11   -1    0    0    0    0 -0.00000000000E+00 -0.00000000000E+00 -0.45593999997E+02  0.45594000000E+02  0.51100000000E-03 0. -1.
    9900012    2    1    2    0    0 -0.89610477844E+01 -0.51915183532E+01 -0.39318101604E+02  0.50528863832E+02  0.30000012102E+02 0.  0.
        -12    1    1    2    0    0  0.89610477844E+01  0.51915183532E+01  0.39318101604E+02  0.40659136168E+02  0.00000000000E+00 0.  1.
         11    1    3    3    0    0 -0.17099024415E+02  0.50861605692E+00 -0.18720125812E+02  0.25358991244E+02  0.51100000000E-03 0. -1.
        -11    1    3    3    0    0  0.61964207672E+01 -0.33216062031E+01 -0.36034612005E+01  0.79002298053E+01  0.51100000000E-03 0.  1.
         12    1    3    3    0    0  0.19415558638E+01 -0.23785282070E+01 -0.16994514592E+02  0.17269642782E+02  0.00000000000E+00 0. -1.
</event>
<event>
 7    1  0.1098446E-012  0.5052887E+02  0.7816164E-02  0.1300439E+00
        -11   -1    0    0    0    0  0.00000000000E+00  0.00000000000E+00  0.45593999997E+02  0.45594000000E+02  0.51100000000E-03 0.  1.
         11   -1    0    0    0    0 -0.00000000000E+00 -0.00000000000E+00 -0.45593999997E+02  0.45594000000E+02  0.51100000000E-03 0. -1.
    9900012    2    1    2    0    0  0.13998909210E+02  0.80801460372E+01 -0.37308269057E+02  0.50528866228E+02  0.30000019387E+02 0.  0.
        -12    1    1    2    0    0 -0.13998909210E+02 -0.80801460372E+01  0.37308269057E+02  0.40659133772E+02  0.00000000000E+00 0.  1.
         11    1    3    3    0    0  0.17609375788E+02  0.15092246001E+02 -0.31161149312E+02  0.38844346200E+02  0.51100000000E-03 0. -1.
        -11    1    3    3    0    0  0.25865617404E+00 -0.59008997694E+01 -0.34776963870E+01  0.68543339229E+01  0.51100000000E-03 0.  1.
         12    1    3    3    0    0 -0.38691227526E+01 -0.11112001944E+01 -0.26694233582E+01  0.48301861053E+01  0.00000000000E+00 0. -1.
</event>
<event>
 7    1  0.1098446E-012  0.5052883E+02  0.7816164E-02  0.1300439E+00
        -11   -1    0    0    0    0  0.00000000000E+00  0.00000000000E+00  0.45593999997E+02  0.45594000000E+02  0.51100000000E-03 0.  1.
         11   -1    0    0    0    0 -0.00000000000E+00 -0.00000000000E+00 -0.45593999997E+02  0.45594000000E+02  0.51100000000E-03 0. -1.
    9900012    2    1    2    0    0  0.16125366848E+02 -0.10750455810E+02 -0.35743083794E+02  0.50528833811E+02  0.29999920851E+02 0.  0.
        -12    1    1    2    0    0 -0.16125366848E+02  0.10750455810E+02  0.35743083794E+02  0.40659166189E+02  0.00000000000E+00 0.  1.
         11    1    3    3    0    0 -0.21948076802E+01 -0.11538206759E+01 -0.51531285453E+01  0.57186726581E+01  0.51100000000E-03 0. -1.
        -11    1    3    3    0    0  0.20826115700E+02 -0.15324481137E+02 -0.20755125093E+02  0.33156327226E+02  0.51100000000E-03 0.  1.
        -12    1    3    3    0    0 -0.25059411714E+01  0.57278460028E+01 -0.98348301556E+01  0.11653833926E+02  0.00000000000E+00 0.  1.
</event>
<event>
 7    1  0.1098446E-012  0.5052886E+02  0.7816164E-02  0.1300439E+00
        -11   -1    0    0    0    0  0.00000000000E+00  0.00000000000E+00  0.45593999997E+02  0.45594000000E+02  0.51100000000E-03 0.  1.
         11   -1    0    0    0    0 -0.00000000000E+00 -0.00000000000E+00 -0.45593999997E+02  0.45594000000E+02  0.51100000000E-03 0. -1.
    9900012    2    1    2    0    0  0.31348591490E+02 -0.10963989214E+02 -0.23456825772E+02  0.50528856832E+02  0.29999990827E+02 0.  0.
        -12    1    1    2    0    0 -0.31348591490E+02  0.10963989214E+02  0.23456825772E+02  0.40659143168E+02  0.00000000000E+00 0.  1.
         11    1    3    3    0    0  0.15032092482E+02 -0.14096682748E+02 -0.82737892972E+00  0.20624374537E+02  0.51100000000E-03 0. -1.
        -11    1    3    3    0    0  0.59792661634E+01  0.42562881949E+01 -0.34991789543E+01  0.81309204071E+01  0.51100000000E-03 0.  1.
         12    1    3    3    0    0  0.10337232844E+02 -0.11235946612E+01 -0.19130267888E+02  0.21773561888E+02  0.00000000000E+00 0. -1.
</event>
<event>
 7    1  0.1098446E-012  0.5052884E+02  0.7816164E-02  0.1300439E+00
        -11   -1    0    0    0    0  0.00000000000E+00  0.00000000000E+00  0.45593999997E+02  0.45594000000E+02  0.51100000000E-03 0.  1.
         11   -1    0    0    0    0 -0.00000000000E+00 -0.00000000000E+00 -0.45593999997E+02  0.45594000000E+02  0.51100000000E-03 0. -1.
    9900012    2    1    2    0    0 -0.63591711163E+01  0.39850486266E+02 -0.49665616846E+01  0.50528843001E+02  0.29999948785E+02 0.  0.
        -12    1    1    2    0    0  0.63591711163E+01 -0.39850486266E+02  0.49665616846E+01  0.40659156999E+02  0.00000000000E+00 0.  1.
         11    1    3    3    0    0  0.69544814747E+01  0.20740091336E+01 -0.59897359968E+01  0.94097430380E+01  0.51100000000E-03 0. -1.
        -11    1    3    3    0    0 -0.47671352423E+01  0.59621448000E+01  0.27948419569E+01  0.81291998905E+01  0.51100000000E-03 0.  1.
         12    1    3    3    0    0 -0.85465173487E+01  0.31814332332E+02 -0.17716676448E+01  0.32989900072E+02  0.00000000000E+00 0. -1.
</event>
<event>
 7    1  0.1098446E-012  0.5052886E+02  0.7816164E-02  0.1300439E+00
        -11   -1    0    0    0    0  0.00000000000E+00  0.00000000000E+00  0.45593999997E+02  0.45594000000E+02  0.51100000000E-03 0.  1.
         11   -1    0    0    0    0 -0.00000000000E+00 -0.00000000000E+00 -0.45593999997E+02  0.45594000000E+02  0.51100000000E-03 0. -1.
    9900012    2    1    2    0    0 -0.79122296617E+01 -0.45966988808E+01 -0.39616064949E+02  0.50528860549E+02  0.30000002125E+02 0.  0.
        -12    1    1    2    0    0  0.79122296617E+01  0.45966988808E+01  0.39616064949E+02  0.40659139451E+02  0.00000000000E+00 0.  1.
         11    1    3    3    0    0 -0.37485223277E+01  0.31886322833E+01 -0.23857844872E+02  0.24360122283E+02  0.51100000000E-03 0. -1.
        -11    1    3    3    0    0 -0.80157225595E+01 -0.95533353162E+01 -0.17581179080E+02  0.21554950288E+02  0.51100000000E-03 0.  1.
         12    1    3    3    0    0  0.38520152255E+01  0.17680041521E+01  0.18229590022E+01  0.46137879777E+01  0.00000000000E+00 0. -1.
</event>
<event>
 7    1  0.1098446E-012  0.5052885E+02  0.7816164E-02  0.1300439E+00
        -11   -1    0    0    0    0  0.00000000000E+00  0.00000000000E+00  0.45593999997E+02  0.45594000000E+02  0.51100000000E-03 0.  1.
         11   -1    0    0    0    0 -0.00000000000E+00 -0.00000000000E+00 -0.45593999997E+02  0.45594000000E+02  0.51100000000E-03 0. -1.
    9900012    2    1    2    0    0 -0.77531529784E+01 -0.48737437475E+01 -0.39614410054E+02  0.50528852897E+02  0.29999978865E+02 0.  0.
        -12    1    1    2    0    0  0.77531529784E+01  0.48737437475E+01  0.39614410054E+02  0.40659147103E+02  0.00000000000E+00 0.  1.
         11    1    3    3    0    0 -0.67758641284E+01  0.69532283808E+01 -0.11156263319E+02  0.14789250525E+02  0.51100000000E-03 0. -1.
        -11    1    3    3    0    0 -0.11259169301E+01 -0.13445102524E+02 -0.90107309883E+01  0.16224418141E+02  0.51100000000E-03 0.  1.
         12    1    3    3    0    0  0.14862808018E+00  0.16181303959E+01 -0.19447415747E+02  0.19515184230E+02  0.00000000000E+00 0. -1.
</event>
<event>
 7    1  0.1098446E-012  0.5052886E+02  0.7816164E-02  0.1300439E+00
        -11   -1    0    0    0    0  0.00000000000E+00  0.00000000000E+00  0.45593999997E+02  0.45594000000E+02  0.51100000000E-03 0. -1.
         11   -1    0    0    0    0 -0.00000000000E+00 -0.00000000000E+00 -0.45593999997E+02  0.45594000000E+02  0.51100000000E-03 0.  1.
    9900012    2    1    2    0    0 -0.28938387116E+01 -0.33487371188E+02  0.22877662992E+02  0.50528858401E+02  0.29999995596E+02 0.  0.
        -12    1    1    2    0    0  0.28938387116E+01  0.33487371188E+02 -0.22877662992E+02  0.40659141599E+02  0.00000000000E+00 0.  1.
         11    1    3    3    0    0 -0.10561906419E+01 -0.37136171063E+02  0.17643306350E+02  0.41127812963E+02  0.51100000000E-03 0. -1.
        -11    1    3    3    0    0 -0.33420089188E+01 -0.39758125721E+00  0.14671522763E+01  0.36714616344E+01  0.51100000000E-03 0.  1.
         12    1    3    3    0    0  0.15043608491E+01  0.40463811323E+01  0.37672043655E+01  0.57295838037E+01  0.00000000000E+00 0. -1.
</event>
<event>
 7    1  0.1098446E-012  0.5052886E+02  0.7816164E-02  0.1300439E+00
        -11   -1    0    0    0    0  0.00000000000E+00  0.00000000000E+00  0.45593999997E+02  0.45594000000E+02  0.51100000000E-03 0.  1.
         11   -1    0    0    0    0 -0.00000000000E+00 -0.00000000000E+00 -0.45593999997E+02  0.45594000000E+02  0.51100000000E-03 0. -1.
    9900012    2    1    2    0    0  0.24068976084E+02 -0.28480343969E+02 -0.16208635437E+02  0.50528862466E+02  0.30000007951E+02 0.  0.
        -12    1    1    2    0    0 -0.24068976084E+02  0.28480343969E+02  0.16208635437E+02  0.40659137534E+02  0.00000000000E+00 0.  1.
         11    1    3    3    0    0  0.27589597534E+02 -0.19247575647E+02 -0.14320297421E+02  0.36561263365E+02  0.51100000000E-03 0. -1.
        -11    1    3    3    0    0 -0.15406355786E+01 -0.64462142877E+01 -0.57755528728E+01  0.87911459933E+01  0.51100000000E-03 0.  1.
         12    1    3    3    0    0 -0.19799858712E+01 -0.27865540338E+01  0.38872148567E+01  0.51764531077E+01  0.00000000000E+00 0. -1.
</event>
<event>
 7    1  0.1098446E-012  0.5052886E+02  0.7816164E-02  0.1300439E+00
        -11   -1    0    0    0    0  0.00000000000E+00  0.00000000000E+00  0.45593999997E+02  0.45594000000E+02  0.51100000000E-03 0.  1.
         11   -1    0    0    0    0 -0.00000000000E+00 -0.00000000000E+00 -0.45593999997E+02  0.45594000000E+02  0.51100000000E-03 0. -1.
    9900012    2    1    2    0    0  0.80129661190E+01 -0.38626865932E+02 -0.98449457782E+01  0.50528863817E+02  0.30000012057E+02 0.  0.
        -12    1    1    2    0    0 -0.80129661190E+01  0.38626865932E+02  0.98449457782E+01  0.40659136183E+02  0.00000000000E+00 0.  1.
         11    1    3    3    0    0 -0.23690237544E+01 -0.14523644167E+02  0.75901786254E+01  0.16557757254E+02  0.51100000000E-03 0. -1.
        -11    1    3    3    0    0  0.12482948191E+02 -0.13834884474E+02 -0.10292259623E+02  0.21287522927E+02  0.51100000000E-03 0.  1.
        -12    1    3    3    0    0 -0.21009583178E+01 -0.10268337291E+02 -0.71428647811E+01  0.12683583636E+02  0.00000000000E+00 0.  1.
</event>
<event>
 7    1  0.1098446E-012  0.5052886E+02  0.7816164E-02  0.1300439E+00
        -11   -1    0    0    0    0  0.00000000000E+00  0.00000000000E+00  0.45593999997E+02  0.45594000000E+02  0.51100000000E-03 0. -1.
         11   -1    0    0    0    0 -0.00000000000E+00 -0.00000000000E+00 -0.45593999997E+02  0.45594000000E+02  0.51100000000E-03 0.  1.
    9900012    2    1    2    0    0  0.15867371818E+02 -0.23033859457E+02  0.29509891117E+02  0.50528857810E+02  0.29999993799E+02 0.  0.
        -12    1    1    2    0    0 -0.15867371818E+02  0.23033859457E+02 -0.29509891117E+02  0.40659142190E+02  0.00000000000E+00 0.  1.
         11    1    3    3    0    0  0.66733065092E+01  0.39157796626E+01  0.17193379351E+02  0.18854141293E+02  0.51100000000E-03 0. -1.
        -11    1    3    3    0    0  0.36050231630E+01 -0.19545038617E+02  0.77216284335E+01  0.21322013799E+02  0.51100000000E-03 0.  1.
         12    1    3    3    0    0  0.55890421462E+01 -0.74046005026E+01  0.45948833321E+01  0.10352702717E+02  0.00000000000E+00 0. -1.
</event>
<event>
 7    1  0.1098446E-012  0.5052886E+02  0.7816164E-02  0.1300439E+00
        -11   -1    0    0    0    0  0.00000000000E+00  0.00000000000E+00  0.45593999997E+02  0.45594000000E+02  0.51100000000E-03 0.  1.
         11   -1    0    0    0    0 -0.00000000000E+00 -0.00000000000E+00 -0.45593999997E+02  0.45594000000E+02  0.51100000000E-03 0. -1.
    9900012    2    1    2    0    0 -0.33999874574E+02  0.15538132154E+02 -0.15991888310E+02  0.50528861868E+02  0.30000006135E+02 0.  0.
        -12    1    1    2    0    0  0.33999874574E+02 -0.15538132154E+02  0.15991888310E+02  0.40659138132E+02  0.00000000000E+00 0.  1.
         11    1    3    3    0    0  0.68591876883E+00 -0.60212638629E+01 -0.16816087877E+01  0.62891900464E+01  0.51100000000E-03 0.  1.
        -11    1    3    3    0    0 -0.33374949611E+02  0.17819534799E+02 -0.12216309903E+02  0.39757531487E+02  0.51100000000E-03 0. -1.
        -12    1    3    3    0    0 -0.13108437315E+01  0.37398612185E+01 -0.20939696187E+01  0.44821403354E+01  0.00000000000E+00 0.  1.
</event>
<event>
 7    1  0.1098446E-012  0.5052887E+02  0.7816164E-02  0.1300439E+00
        -11   -1    0    0    0    0  0.00000000000E+00  0.00000000000E+00  0.45593999997E+02  0.45594000000E+02  0.51100000000E-03 0. -1.
         11   -1    0    0    0    0 -0.00000000000E+00 -0.00000000000E+00 -0.45593999997E+02  0.45594000000E+02  0.51100000000E-03 0.  1.
    9900012    2    1    2    0    0  0.26612947563E+02 -0.28249543014E+02  0.12119370585E+02  0.50528870621E+02  0.30000032741E+02 0.  0.
        -12    1    1    2    0    0 -0.26612947563E+02  0.28249543014E+02 -0.12119370585E+02  0.40659129379E+02  0.00000000000E+00 0.  1.
         11    1    3    3    0    0  0.35980591944E+01 -0.15100167359E+02  0.76508218680E+01  0.17305957348E+02  0.51100000000E-03 0. -1.
        -11    1    3    3    0    0  0.23625751601E+02 -0.68023184214E+01 -0.13062648682E+01  0.24620195019E+02  0.51100000000E-03 0.  1.
        -12    1    3    3    0    0 -0.61086323247E+00 -0.63470572335E+01  0.57748135853E+01  0.86027182541E+01  0.00000000000E+00 0.  1.
</event>
<event>
 7    1  0.1098446E-012  0.5052886E+02  0.7816164E-02  0.1300439E+00
        -11   -1    0    0    0    0  0.00000000000E+00  0.00000000000E+00  0.45593999997E+02  0.45594000000E+02  0.51100000000E-03 0.  1.
         11   -1    0    0    0    0 -0.00000000000E+00 -0.00000000000E+00 -0.45593999997E+02  0.45594000000E+02  0.51100000000E-03 0. -1.
    9900012    2    1    2    0    0 -0.36174046833E+02 -0.17190217134E+02  0.70071849300E+01  0.50528857486E+02  0.29999992813E+02 0.  0.
        -12    1    1    2    0    0  0.36174046833E+02  0.17190217134E+02 -0.70071849300E+01  0.40659142514E+02  0.00000000000E+00 0.  1.
         11    1    3    3    0    0 -0.55261203322E+01 -0.77814472209E+01 -0.83426357878E+01  0.12676296735E+02  0.51100000000E-03 0. -1.
        -11    1    3    3    0    0 -0.39208526268E+01 -0.73966783105E+00  0.77948891573E+01  0.87567397505E+01  0.51100000000E-03 0.  1.
         12    1    3    3    0    0 -0.26727073874E+02 -0.86691020819E+01  0.75549315605E+01  0.29095821000E+02  0.00000000000E+00 0. -1.
</event>
<event>
 7    1  0.1098446E-012  0.5052886E+02  0.7816164E-02  0.1300439E+00
        -11   -1    0    0    0    0  0.00000000000E+00  0.00000000000E+00  0.45593999997E+02  0.45594000000E+02  0.51100000000E-03 0.  1.
         11   -1    0    0    0    0 -0.00000000000E+00 -0.00000000000E+00 -0.45593999997E+02  0.45594000000E+02  0.51100000000E-03 0. -1.
    9900012    2    1    2    0    0  0.28264611402E+02  0.27678767933E+02 -0.93895416125E+01  0.50528856579E+02  0.29999990057E+02 0.  0.
        -12    1    1    2    0    0 -0.28264611402E+02 -0.27678767933E+02  0.93895416125E+01  0.40659143421E+02  0.00000000000E+00 0.  1.
         11    1    3    3    0    0  0.21563675031E+02  0.36452512625E+01 -0.39540952808E+01  0.22224194189E+02  0.51100000000E-03 0. -1.
        -11    1    3    3    0    0  0.43351770584E+01  0.18235024119E+02  0.16887980301E+01  0.18819189775E+02  0.51100000000E-03 0.  1.
         12    1    3    3    0    0  0.23657593135E+01  0.57984925518E+01 -0.71242443618E+01  0.94854726150E+01  0.00000000000E+00 0. -1.
</event>
<event>
 7    1  0.1098446E-012  0.5052887E+02  0.7816164E-02  0.1300439E+00
        -11   -1    0    0    0    0  0.00000000000E+00  0.00000000000E+00  0.45593999997E+02  0.45594000000E+02  0.51100000000E-03 0.  1.
         11   -1    0    0    0    0 -0.00000000000E+00 -0.00000000000E+00 -0.45593999997E+02  0.45594000000E+02  0.51100000000E-03 0. -1.
    9900012    2    1    2    0    0 -0.20044315642E+02 -0.93056834900E+00 -0.35362756662E+02  0.50528866884E+02  0.30000021380E+02 0.  0.
        -12    1    1    2    0    0  0.20044315642E+02  0.93056834900E+00  0.35362756662E+02  0.40659133116E+02  0.00000000000E+00 0.  1.
         11    1    3    3    0    0 -0.29113114298E+00  0.57260630802E+01 -0.12874727827E+02  0.14093657177E+02  0.51100000000E-03 0. -1.
        -11    1    3    3    0    0 -0.15874467076E+02 -0.12812183104E+02 -0.20437015602E+02  0.28875982196E+02  0.51100000000E-03 0.  1.
        -12    1    3    3    0    0 -0.38787174232E+01  0.61555516746E+01 -0.20510132329E+01  0.75592275101E+01  0.00000000000E+00 0.  1.
</event>
<event>
 7    1  0.1098446E-012  0.5052884E+02  0.7816164E-02  0.1300439E+00
        -11   -1    0    0    0    0  0.00000000000E+00  0.00000000000E+00  0.45593999997E+02  0.45594000000E+02  0.51100000000E-03 0. -1.
         11   -1    0    0    0    0 -0.00000000000E+00 -0.00000000000E+00 -0.45593999997E+02  0.45594000000E+02  0.51100000000E-03 0.  1.
    9900012    2    1    2    0    0 -0.14715365601E+02  0.37351630076E+02  0.64405887203E+01  0.50528838213E+02  0.29999934233E+02 0.  0.
        -12    1    1    2    0    0  0.14715365601E+02 -0.37351630076E+02 -0.64405887203E+01  0.40659161787E+02  0.00000000000E+00 0.  1.
         11    1    3    3    0    0 -0.13467941591E+02  0.20637315043E+02  0.34488292066E+01  0.24883300546E+02  0.51100000000E-03 0. -1.
        -11    1    3    3    0    0 -0.12708401456E+01 -0.20824882383E+01  0.61216951671E+01  0.65899122845E+01  0.51100000000E-03 0.  1.
         12    1    3    3    0    0  0.23416135867E-01  0.18796803271E+02 -0.31299356534E+01  0.19055625383E+02  0.00000000000E+00 0. -1.
</event>
<event>
 7    1  0.1098446E-012  0.5052886E+02  0.7816164E-02  0.1300439E+00
        -11   -1    0    0    0    0  0.00000000000E+00  0.00000000000E+00  0.45593999997E+02  0.45594000000E+02  0.51100000000E-03 0. -1.
         11   -1    0    0    0    0 -0.00000000000E+00 -0.00000000000E+00 -0.45593999997E+02  0.45594000000E+02  0.51100000000E-03 0.  1.
    9900012    2    1    2    0    0 -0.22355542658E+02 -0.33928031986E+02  0.15111809243E+01  0.50528864375E+02  0.30000013755E+02 0.  0.
        -12    1    1    2    0    0  0.22355542658E+02  0.33928031986E+02 -0.15111809243E+01  0.40659135625E+02  0.00000000000E+00 0.  1.
         11    1    3    3    0    0 -0.67971025014E+01 -0.47716618465E+01 -0.11331848227E+02  0.14049204379E+02  0.51100000000E-03 0.  1.
        -11    1    3    3    0    0 -0.14236127181E+02 -0.29515763836E+02  0.12213148250E+02  0.34971540178E+02  0.51100000000E-03 0. -1.
         12    1    3    3    0    0 -0.13223129761E+01  0.35939369737E+00  0.62988090162E+00  0.15081198184E+01  0.00000000000E+00 0. -1.
</event>
<event>
 7    1  0.1098446E-012  0.5052885E+02  0.7816164E-02  0.1300439E+00
        -11   -1    0    0    0    0  0.00000000000E+00  0.00000000000E+00  0.45593999997E+02  0.45594000000E+02  0.51100000000E-03 0.  1.
         11   -1    0    0    0    0 -0.00000000000E+00 -0.00000000000E+00 -0.45593999997E+02  0.45594000000E+02  0.51100000000E-03 0. -1.
    9900012    2    1    2    0    0  0.18590563891E+02 -0.38748656405E+01 -0.35951954565E+02  0.50528847444E+02  0.29999962290E+02 0.  0.
        -12    1    1    2    0    0 -0.18590563891E+02  0.38748656405E+01  0.35951954565E+02  0.40659152556E+02  0.00000000000E+00 0.  1.
         11    1    3    3    0    0  0.20503535777E+01  0.98824576744E+01 -0.19824486983E+02  0.22245835652E+02  0.51100000000E-03 0. -1.
        -11    1    3    3    0    0  0.77925773115E+01 -0.15495715650E+01 -0.76882581320E+01  0.11055982388E+02  0.51100000000E-03 0.  1.
         12    1    3    3    0    0  0.87476330022E+01 -0.12207751750E+02 -0.84392094505E+01  0.17227029404E+02  0.00000000000E+00 0. -1.
</event>
<event>
 7    1  0.1282458E-012  0.5052886E+02  0.7816164E-02  0.1300439E+00
        -11   -1    0    0    0    0  0.00000000000E+00  0.00000000000E+00  0.45593999997E+02  0.45594000000E+02  0.51100000000E-03 0.  1.
         11   -1    0    0    0    0 -0.00000000000E+00 -0.00000000000E+00 -0.45593999997E+02  0.45594000000E+02  0.51100000000E-03 0. -1.
    9900012    2    1    2    0    0 -0.75901863452E+01  0.36964344862E+02 -0.15139088690E+02  0.50528859254E+02  0.29999998188E+02 0.  0.
        -12    1    1    2    0    0  0.75901863452E+01 -0.36964344862E+02  0.15139088690E+02  0.40659140746E+02  0.00000000000E+00 0.  1.
         11    1    3    3    0    0 -0.28335272309E+01  0.10319006093E+02 -0.92980061562E+01  0.14176165986E+02  0.51100000000E-03 0. -1.
        -11    1    3    3    0    0 -0.91240193563E+01  0.23439476757E+02  0.36579757006E+01  0.25417269451E+02  0.51100000000E-03 0.  1.
        -12    1    3    3    0    0  0.43673602420E+01  0.32058620129E+01 -0.94990582345E+01  0.10935423818E+02  0.00000000000E+00 0.  1.
</event>
<event>
 7    1  0.1098446E-012  0.5052886E+02  0.7816164E-02  0.1300439E+00
        -11   -1    0    0    0    0  0.00000000000E+00  0.00000000000E+00  0.45593999997E+02  0.45594000000E+02  0.51100000000E-03 0. -1.
         11   -1    0    0    0    0 -0.00000000000E+00 -0.00000000000E+00 -0.45593999997E+02  0.45594000000E+02  0.51100000000E-03 0.  1.
    9900012    2    1    2    0    0  0.26238297429E+02  0.31001932754E+02  0.18967673142E+01  0.50528858190E+02  0.29999994955E+02 0.  0.
        -12    1    1    2    0    0 -0.26238297429E+02 -0.31001932754E+02 -0.18967673142E+01  0.40659141810E+02  0.00000000000E+00 0.  1.
         11    1    3    3    0    0  0.12523704684E+01 -0.11043399611E+01  0.31092448850E+00  0.16984324651E+01  0.51100000000E-03 0. -1.
        -11    1    3    3    0    0  0.29742191403E+02  0.23723232024E+02 -0.29883284229E+01  0.38161758269E+02  0.51100000000E-03 0.  1.
        -12    1    3    3    0    0 -0.47562644428E+01  0.83830406912E+01  0.45741712486E+01  0.10668667456E+02  0.00000000000E+00 0.  1.
</event>
<event>
 7    1  0.1098446E-012  0.5052886E+02  0.7816164E-02  0.1300439E+00
        -11   -1    0    0    0    0  0.00000000000E+00  0.00000000000E+00  0.45593999997E+02  0.45594000000E+02  0.51100000000E-03 0. -1.
         11   -1    0    0    0    0 -0.00000000000E+00 -0.00000000000E+00 -0.45593999997E+02  0.45594000000E+02  0.51100000000E-03 0.  1.
    9900012    2    1    2    0    0 -0.74626936073E+01  0.38255857178E+02  0.11574233596E+02  0.50528864647E+02  0.30000014582E+02 0.  0.
        -12    1    1    2    0    0  0.74626936073E+01 -0.38255857178E+02 -0.11574233596E+02  0.40659135353E+02  0.00000000000E+00 0.  1.
         11    1    3    3    0    0 -0.15637059377E+02  0.24391840476E+02  0.14212608598E+02  0.32271934420E+02  0.51100000000E-03 0. -1.
        -11    1    3    3    0    0  0.46582893543E+01  0.23345372320E+01 -0.33294382257E+01  0.61834361771E+01  0.51100000000E-03 0.  1.
         12    1    3    3    0    0  0.35160764156E+01  0.11529479470E+02  0.69106322387E+00  0.12073494050E+02  0.00000000000E+00 0. -1.
</event>
<event>
 7    1  0.1098446E-012  0.5052887E+02  0.7816164E-02  0.1300439E+00
        -11   -1    0    0    0    0  0.00000000000E+00  0.00000000000E+00  0.45593999997E+02  0.45594000000E+02  0.51100000000E-03 0.  1.
         11   -1    0    0    0    0 -0.00000000000E+00 -0.00000000000E+00 -0.45593999997E+02  0.45594000000E+02  0.51100000000E-03 0. -1.
    9900012    2    1    2    0    0  0.30447065245E+02  0.22573917991E+02 -0.14715959500E+02  0.50528867945E+02  0.30000024606E+02 0.  0.
        -12    1    1    2    0    0 -0.30447065245E+02 -0.22573917991E+02  0.14715959500E+02  0.40659132055E+02  0.00000000000E+00 0.  1.
         11    1    3    3    0    0 -0.19381570988E-01  0.26806762415E+01 -0.58841844045E+01  0.64660673615E+01  0.51100000000E-03 0. -1.
        -11    1    3    3    0    0  0.20189339138E+02  0.23725329744E+02 -0.21665231433E+01  0.31228104475E+02  0.51100000000E-03 0.  1.
        -12    1    3    3    0    0  0.10277107677E+02 -0.38320879954E+01 -0.66652519518E+01  0.12834696108E+02  0.00000000000E+00 0.  1.
</event>
<event>
 7    1  0.1098446E-012  0.5052886E+02  0.7816164E-02  0.1300439E+00
        -11   -1    0    0    0    0  0.00000000000E+00  0.00000000000E+00  0.45593999997E+02  0.45594000000E+02  0.51100000000E-03 0.  1.
         11   -1    0    0    0    0 -0.00000000000E+00 -0.00000000000E+00 -0.45593999997E+02  0.45594000000E+02  0.51100000000E-03 0. -1.
    9900012    2    1    2    0    0 -0.10959935355E+02 -0.94365455898E+01 -0.37999963356E+02  0.50528858461E+02  0.29999995777E+02 0.  0.
        -12    1    1    2    0    0  0.10959935355E+02  0.94365455898E+01  0.37999963356E+02  0.40659141539E+02  0.00000000000E+00 0.  1.
         11    1    3    3    0    0 -0.14822321854E+02 -0.37127223385E+01 -0.13162476452E+02  0.20167704850E+02  0.51100000000E-03 0. -1.
        -11    1    3    3    0    0  0.63790051050E+01  0.35047461043E+01 -0.68829872256E+01  0.10017507913E+02  0.51100000000E-03 0.  1.
         12    1    3    3    0    0 -0.25166186059E+01 -0.92285693555E+01 -0.17954499679E+02  0.20343645698E+02  0.00000000000E+00 0. -1.
</event>
<event>
 7    1  0.1098446E-012  0.5052886E+02  0.7816164E-02  0.1300439E+00
        -11   -1    0    0    0    0  0.00000000000E+00  0.00000000000E+00  0.45593999997E+02  0.45594000000E+02  0.51100000000E-03 0. -1.
         11   -1    0    0    0    0 -0.00000000000E+00 -0.00000000000E+00 -0.45593999997E+02  0.45594000000E+02  0.51100000000E-03 0.  1.
    9900012    2    1    2    0    0 -0.28970287627E+02 -0.19140816532E+02  0.21154596206E+02  0.50528863717E+02  0.30000011753E+02 0.  0.
        -12    1    1    2    0    0  0.28970287627E+02  0.19140816532E+02 -0.21154596206E+02  0.40659136283E+02  0.00000000000E+00 0.  1.
         11    1    3    3    0    0 -0.19248965680E+02 -0.56717620075E+01  0.24495797547E+02  0.31666001669E+02  0.51100000000E-03 0. -1.
        -11    1    3    3    0    0 -0.11417446138E+01 -0.85231954681E+01 -0.23231498087E+01  0.89076072570E+01  0.51100000000E-03 0.  1.
         12    1    3    3    0    0 -0.85795773329E+01 -0.49458590563E+01 -0.10180515321E+01  0.99552547902E+01  0.00000000000E+00 0. -1.
</event>
<event>
 7    1  0.1098446E-012  0.5052886E+02  0.7816164E-02  0.1300439E+00
        -11   -1    0    0    0    0  0.00000000000E+00  0.00000000000E+00  0.45593999997E+02  0.45594000000E+02  0.51100000000E-03 0.  1.
         11   -1    0    0    0    0 -0.00000000000E+00 -0.00000000000E+00 -0.45593999997E+02  0.45594000000E+02  0.51100000000E-03 0. -1.
    9900012    2    1    2    0    0  0.38587771675E+02 -0.11570963289E+02  0.55010858811E+01  0.50528864985E+02  0.30000015609E+02 0.  0.
        -12    1    1    2    0    0 -0.38587771675E+02  0.11570963289E+02 -0.55010858811E+01  0.40659135015E+02  0.00000000000E+00 0.  1.
         11    1    3    3    0    0 -0.24234967330E+01 -0.72899112215E+01  0.19955705979E+01  0.79371559330E+01  0.51100000000E-03 0. -1.
        -11    1    3    3    0    0  0.15635325702E+02 -0.65029518223E+01  0.23106810406E+01  0.17090671120E+02  0.51100000000E-03 0.  1.
         12    1    3    3    0    0  0.25375942706E+02  0.22218997546E+01  0.11948342426E+01  0.25501037932E+02  0.00000000000E+00 0. -1.
</event>
<event>
 7    1  0.1098446E-012  0.5052887E+02  0.7816164E-02  0.1300439E+00
        -11   -1    0    0    0    0  0.00000000000E+00  0.00000000000E+00  0.45593999997E+02  0.45594000000E+02  0.51100000000E-03 0.  1.
         11   -1    0    0    0    0 -0.00000000000E+00 -0.00000000000E+00 -0.45593999997E+02  0.45594000000E+02  0.51100000000E-03 0. -1.
    9900012    2    1    2    0    0  0.16386136731E+02 -0.19059000565E+02 -0.31959571619E+02  0.50528865754E+02  0.30000017947E+02 0.  0.
        -12    1    1    2    0    0 -0.16386136731E+02  0.19059000565E+02  0.31959571619E+02  0.40659134246E+02  0.00000000000E+00 0.  1.
         11    1    3    3    0    0  0.58110040792E+01 -0.13335320402E+01 -0.18391381908E+02  0.19333623687E+02  0.51100000000E-03 0. -1.
        -11    1    3    3    0    0  0.21454056974E+00 -0.16406575761E+02 -0.12635724481E+02  0.20709497563E+02  0.51100000000E-03 0.  1.
        -12    1    3    3    0    0  0.10360592082E+02 -0.13188927638E+01 -0.93246522952E+00  0.10485744505E+02  0.00000000000E+00 0.  1.
</event>
<event>
 7    1  0.1098446E-012  0.5052887E+02  0.7816164E-02  0.1300439E+00
        -11   -1    0    0    0    0  0.00000000000E+00  0.00000000000E+00  0.45593999997E+02  0.45594000000E+02  0.51100000000E-03 0.  1.
         11   -1    0    0    0    0 -0.00000000000E+00 -0.00000000000E+00 -0.45593999997E+02  0.45594000000E+02  0.51100000000E-03 0. -1.
    9900012    2    1    2    0    0 -0.18576781001E+01  0.36493258713E+02 -0.17831325356E+02  0.50528867405E+02  0.30000022964E+02 0.  0.
        -12    1    1    2    0    0  0.18576781001E+01 -0.36493258713E+02  0.17831325356E+02  0.40659132595E+02  0.00000000000E+00 0.  1.
         11    1    3    3    0    0 -0.31739914683E+01  0.69044160939E+01 -0.17571403441E+02  0.19144174116E+02  0.51100000000E-03 0. -1.
        -11    1    3    3    0    0  0.29078615652E+01  0.45343013078E+01  0.28392550013E+01  0.60890817416E+01  0.51100000000E-03 0.  1.
         12    1    3    3    0    0 -0.15915481969E+01  0.25054541312E+02 -0.30991769167E+01  0.25295611547E+02  0.00000000000E+00 0. -1.
</event>
<event>
 7    1  0.1098446E-012  0.5052888E+02  0.7816164E-02  0.1300439E+00
        -11   -1    0    0    0    0  0.00000000000E+00  0.00000000000E+00  0.45593999997E+02  0.45594000000E+02  0.51100000000E-03 0. -1.
         11   -1    0    0    0    0 -0.00000000000E+00 -0.00000000000E+00 -0.45593999997E+02  0.45594000000E+02  0.51100000000E-03 0.  1.
    9900012    2    1    2    0    0  0.21567772510E+02 -0.21162935148E+01  0.34402280313E+02  0.50528875563E+02  0.30000047761E+02 0.  0.
        -12    1    1    2    0    0 -0.21567772510E+02  0.21162935148E+01 -0.34402280313E+02  0.40659124437E+02  0.00000000000E+00 0.  1.
         11    1    3    3    0    0  0.15195933887E+02  0.73116529669E+01  0.10743526561E+02  0.19995000351E+02  0.51100000000E-03 0. -1.
        -11    1    3    3    0    0  0.37215721471E+01 -0.52382374701E+01  0.66136516402E-01  0.64260100638E+01  0.51100000000E-03 0.  1.
         12    1    3    3    0    0  0.26502664755E+01 -0.41897090115E+01  0.23592617235E+02  0.24107865148E+02  0.00000000000E+00 0. -1.
</event>
<event>
 7    1  0.1098446E-012  0.5052886E+02  0.7816164E-02  0.1300439E+00
        -11   -1    0    0    0    0  0.00000000000E+00  0.00000000000E+00  0.45593999997E+02  0.45594000000E+02  0.51100000000E-03 0.  1.
         11   -1    0    0    0    0 -0.00000000000E+00 -0.00000000000E+00 -0.45593999997E+02  0.45594000000E+02  0.51100000000E-03 0. -1.
    9900012    2    1    2    0    0 -0.79997565259E+01  0.29077241977E+02 -0.27270565902E+02  0.50528857485E+02  0.29999992811E+02 0.  0.
        -12    1    1    2    0    0  0.79997565259E+01 -0.29077241977E+02  0.27270565902E+02  0.40659142515E+02  0.00000000000E+00 0.  1.
         11    1    3    3    0    0 -0.27009066044E+01  0.29431877643E+02 -0.23156288912E+02  0.37546558225E+02  0.51100000000E-03 0. -1.
        -11    1    3    3    0    0  0.33893209905E+01  0.39778396745E+00 -0.18589375214E+00  0.34176432829E+01  0.51100000000E-03 0.  1.
         12    1    3    3    0    0 -0.86881709119E+01 -0.75241963336E+00 -0.39283832380E+01  0.95646559772E+01  0.00000000000E+00 0. -1.
</event>
<event>
 7    1  0.1098446E-012  0.5052892E+02  0.7816164E-02  0.1300439E+00
        -11   -1    0    0    0    0  0.00000000000E+00  0.00000000000E+00  0.45593999997E+02  0.45594000000E+02  0.51100000000E-03 0.  1.
         11   -1    0    0    0    0 -0.00000000000E+00 -0.00000000000E+00 -0.45593999997E+02  0.45594000000E+02  0.51100000000E-03 0. -1.
    9900012    2    1    2    0    0  0.91458078129E+01  0.26558625935E+02 -0.29396497951E+02  0.50528923474E+02  0.30000193392E+02 0.  0.
        -12    1    1    2    0    0 -0.91458078129E+01 -0.26558625935E+02  0.29396497951E+02  0.40659076526E+02  0.00000000000E+00 0.  1.
         11    1    3    3    0    0 -0.28448208143E+01  0.16183873230E+02 -0.28046086885E+02  0.32505288001E+02  0.51100000000E-03 0. -1.
        -11    1    3    3    0    0  0.96400880664E+01  0.96878094129E+01 -0.41701183314E+01  0.14288976041E+02  0.51100000000E-03 0.  1.
         12    1    3    3    0    0  0.23505405608E+01  0.68694329216E+00  0.28197072649E+01  0.37346594322E+01  0.00000000000E+00 0. -1.
</event>
<event>
 7    1  0.1098446E-012  0.5052886E+02  0.7816164E-02  0.1300439E+00
        -11   -1    0    0    0    0  0.00000000000E+00  0.00000000000E+00  0.45593999997E+02  0.45594000000E+02  0.51100000000E-03 0. -1.
         11   -1    0    0    0    0 -0.00000000000E+00 -0.00000000000E+00 -0.45593999997E+02  0.45594000000E+02  0.51100000000E-03 0.  1.
    9900012    2    1    2    0    0  0.37609318514E+02  0.10828286895E+02  0.11020581820E+02  0.50528857611E+02  0.29999993195E+02 0.  0.
        -12    1    1    2    0    0 -0.37609318514E+02 -0.10828286895E+02 -0.11020581820E+02  0.40659142389E+02  0.00000000000E+00 0.  1.
         11    1    3    3    0    0  0.15480522344E+02 -0.23996743085E+01  0.15493130350E+02  0.22032750557E+02  0.51100000000E-03 0. -1.
        -11    1    3    3    0    0  0.13351402485E+01  0.48895671840E-01 -0.36247659884E+01  0.38631488454E+01  0.51100000000E-03 0.  1.
         12    1    3    3    0    0  0.20793655921E+02  0.13179065531E+02 -0.84778254207E+00  0.24632958208E+02  0.00000000000E+00 0. -1.
</event>
<event>
 7    1  0.1098446E-012  0.5052886E+02  0.7816164E-02  0.1300439E+00
        -11   -1    0    0    0    0  0.00000000000E+00  0.00000000000E+00  0.45593999997E+02  0.45594000000E+02  0.51100000000E-03 0. -1.
         11   -1    0    0    0    0 -0.00000000000E+00 -0.00000000000E+00 -0.45593999997E+02  0.45594000000E+02  0.51100000000E-03 0.  1.
    9900012    2    1    2    0    0 -0.17322687057E+02  0.36784059054E+02 -0.15215991860E+00  0.50528860314E+02  0.30000001410E+02 0.  0.
        -12    1    1    2    0    0  0.17322687057E+02 -0.36784059054E+02  0.15215991860E+00  0.40659139686E+02  0.00000000000E+00 0.  1.
         11    1    3    3    0    0 -0.13893484764E+02  0.66693633944E+01 -0.10027563824E+02  0.18386445102E+02  0.51100000000E-03 0. -1.
        -11    1    3    3    0    0 -0.14618773145E+01  0.21024734145E+02  0.85680475336E+01  0.22750559772E+02  0.51100000000E-03 0.  1.
         12    1    3    3    0    0 -0.19673249780E+01  0.90899615152E+01  0.13073563716E+01  0.93918554396E+01  0.00000000000E+00 0. -1.
</event>
<event>
 7    1  0.1098446E-012  0.5052887E+02  0.7816164E-02  0.1300439E+00
        -11   -1    0    0    0    0  0.00000000000E+00  0.00000000000E+00  0.45593999997E+02  0.45594000000E+02  0.51100000000E-03 0. -1.
         11   -1    0    0    0    0 -0.00000000000E+00 -0.00000000000E+00 -0.45593999997E+02  0.45594000000E+02  0.51100000000E-03 0.  1.
    9900012    2    1    2    0    0  0.31616936496E+02  0.24480104522E+02 -0.73660487221E+01  0.50528869850E+02  0.30000030395E+02 0.  0.
        -12    1    1    2    0    0 -0.31616936496E+02 -0.24480104522E+02  0.73660487221E+01  0.40659130150E+02  0.00000000000E+00 0.  1.
         11    1    3    3    0    0  0.28663273328E+02  0.26675263039E+02 -0.91582647766E+01  0.40212270640E+02  0.51100000000E-03 0.  1.
        -11    1    3    3    0    0  0.14565165257E+01 -0.68715667522E+00  0.56702576330E+01  0.58945268319E+01  0.51100000000E-03 0. -1.
         12    1    3    3    0    0  0.14971466427E+01 -0.15080018421E+01 -0.38780415786E+01  0.44220723774E+01  0.00000000000E+00 0. -1.
</event>
<event>
 7    1  0.1098446E-012  0.5052886E+02  0.7816164E-02  0.1300439E+00
        -11   -1    0    0    0    0  0.00000000000E+00  0.00000000000E+00  0.45593999997E+02  0.45594000000E+02  0.51100000000E-03 0.  1.
         11   -1    0    0    0    0 -0.00000000000E+00 -0.00000000000E+00 -0.45593999997E+02  0.45594000000E+02  0.51100000000E-03 0. -1.
    9900012    2    1    2    0    0  0.23257430134E+02  0.10353251331E+02 -0.31702803986E+02  0.50528860190E+02  0.30000001032E+02 0.  0.
        -12    1    1    2    0    0 -0.23257430134E+02 -0.10353251331E+02  0.31702803986E+02  0.40659139810E+02  0.00000000000E+00 0.  1.
         11    1    3    3    0    0  0.77203175244E+01 -0.23455427204E+00 -0.12132724433E+02  0.14382674327E+02  0.51100000000E-03 0. -1.
        -11    1    3    3    0    0  0.15516778627E+01  0.15274956544E+02 -0.12453166350E+02  0.19768999824E+02  0.51100000000E-03 0.  1.
        -12    1    3    3    0    0  0.13985434747E+02 -0.46871509412E+01 -0.71169132028E+01  0.16377186039E+02  0.00000000000E+00 0.  1.
</event>
<event>
 7    1  0.1098446E-012  0.5052886E+02  0.7816164E-02  0.1300439E+00
        -11   -1    0    0    0    0  0.00000000000E+00  0.00000000000E+00  0.45593999997E+02  0.45594000000E+02  0.51100000000E-03 0.  1.
         11   -1    0    0    0    0 -0.00000000000E+00 -0.00000000000E+00 -0.45593999997E+02  0.45594000000E+02  0.51100000000E-03 0. -1.
    9900012    2    1    2    0    0  0.14440528798E+02  0.33906327998E+02 -0.17175501676E+02  0.50528858246E+02  0.29999995126E+02 0.  0.
        -12    1    1    2    0    0 -0.14440528798E+02 -0.33906327998E+02  0.17175501676E+02  0.40659141754E+02  0.00000000000E+00 0.  1.
         11    1    3    3    0    0  0.18735440442E+01  0.22378056879E+01 -0.12602891602E+02  0.12936414440E+02  0.51100000000E-03 0.  1.
        -11    1    3    3    0    0  0.13747427026E+02  0.19736725524E+02  0.16019063462E+01  0.24105936788E+02  0.51100000000E-03 0. -1.
         12    1    3    3    0    0 -0.11804422722E+01  0.11931796786E+02 -0.61745164208E+01  0.13486507018E+02  0.00000000000E+00 0. -1.
</event>
<event>
 7    1  0.1098446E-012  0.5052886E+02  0.7816164E-02  0.1300439E+00
        -11   -1    0    0    0    0  0.00000000000E+00  0.00000000000E+00  0.45593999997E+02  0.45594000000E+02  0.51100000000E-03 0.  1.
         11   -1    0    0    0    0 -0.00000000000E+00 -0.00000000000E+00 -0.45593999997E+02  0.45594000000E+02  0.51100000000E-03 0. -1.
    9900012    2    1    2    0    0  0.23724788914E+02  0.18950846271E+02 -0.27040070338E+02  0.50528860963E+02  0.30000003383E+02 0.  0.
        -12    1    1    2    0    0 -0.23724788914E+02 -0.18950846271E+02  0.27040070338E+02  0.40659139037E+02  0.00000000000E+00 0.  1.
         11    1    3    3    0    0  0.36073714213E+01  0.12145264581E+02 -0.10382123640E+02  0.16380142608E+02  0.51100000000E-03 0. -1.
        -11    1    3    3    0    0  0.16314349932E+02 -0.49893318781E+01 -0.12219808761E+02  0.20985117887E+02  0.51100000000E-03 0.  1.
        -12    1    3    3    0    0  0.38030675600E+01  0.11794913568E+02 -0.44381379367E+01  0.13163600468E+02  0.00000000000E+00 0.  1.
</event>
<event>
 7    1  0.1098446E-012  0.5052886E+02  0.7816164E-02  0.1300439E+00
        -11   -1    0    0    0    0  0.00000000000E+00  0.00000000000E+00  0.45593999997E+02  0.45594000000E+02  0.51100000000E-03 0. -1.
         11   -1    0    0    0    0 -0.00000000000E+00 -0.00000000000E+00 -0.45593999997E+02  0.45594000000E+02  0.51100000000E-03 0.  1.
    9900012    2    1    2    0    0 -0.36026399924E+02 -0.69372947302E+01 -0.17525353937E+02  0.50528861049E+02  0.30000003645E+02 0.  0.
        -12    1    1    2    0    0  0.36026399924E+02  0.69372947302E+01  0.17525353937E+02  0.40659138951E+02  0.00000000000E+00 0.  1.
         11    1    3    3    0    0 -0.21965287516E+02  0.25215470323E+01 -0.10022191263E+02  0.24275015408E+02  0.51100000000E-03 0. -1.
        -11    1    3    3    0    0 -0.74938844782E+01 -0.14817561328E+02 -0.39827314080E+01  0.17075730673E+02  0.51100000000E-03 0.  1.
        -12    1    3    3    0    0 -0.65672279295E+01  0.53587195659E+01 -0.35204312660E+01  0.91781149679E+01  0.00000000000E+00 0.  1.
</event>
<event>
 7    1  0.1098446E-012  0.5052885E+02  0.7816164E-02  0.1300439E+00
        -11   -1    0    0    0    0  0.00000000000E+00  0.00000000000E+00  0.45593999997E+02  0.45594000000E+02  0.51100000000E-03 0.  1.
         11   -1    0    0    0    0 -0.00000000000E+00 -0.00000000000E+00 -0.45593999997E+02  0.45594000000E+02  0.51100000000E-03 0. -1.
    9900012    2    1    2    0    0  0.11877391819E+02 -0.37303857367E+02 -0.10977972247E+02  0.50528854836E+02  0.29999984758E+02 0.  0.
        -12    1    1    2    0    0 -0.11877391819E+02  0.37303857367E+02  0.10977972247E+02  0.40659145164E+02  0.00000000000E+00 0.  1.
         11    1    3    3    0    0  0.10514577792E+02 -0.36323039779E+01 -0.54035116843E+01  0.12367211372E+02  0.51100000000E-03 0. -1.
        -11    1    3    3    0    0  0.54689736220E+01 -0.25628478146E+02  0.21288363018E+01  0.26291833501E+02  0.51100000000E-03 0.  1.
        -12    1    3    3    0    0 -0.41061595952E+01 -0.80430752428E+01 -0.77032968640E+01  0.11869809963E+02  0.00000000000E+00 0.  1.
</event>
<event>
 7    1  0.1098446E-012  0.5052887E+02  0.7816164E-02  0.1300439E+00
        -11   -1    0    0    0    0  0.00000000000E+00  0.00000000000E+00  0.45593999997E+02  0.45594000000E+02  0.51100000000E-03 0. -1.
         11   -1    0    0    0    0 -0.00000000000E+00 -0.00000000000E+00 -0.45593999997E+02  0.45594000000E+02  0.51100000000E-03 0.  1.
    9900012    2    1    2    0    0 -0.18053866423E+02  0.96182458435E+01  0.35138472431E+02  0.50528868299E+02  0.30000025680E+02 0.  0.
        -12    1    1    2    0    0  0.18053866423E+02 -0.96182458435E+01 -0.35138472431E+02  0.40659131701E+02  0.00000000000E+00 0.  1.
         11    1    3    3    0    0 -0.19346389896E+02  0.11182106710E+02  0.17799840676E+02  0.28568455346E+02  0.51100000000E-03 0. -1.
        -11    1    3    3    0    0 -0.16128036939E+01 -0.69568271283E+01  0.73871805688E+01  0.10274678412E+02  0.51100000000E-03 0.  1.
         12    1    3    3    0    0  0.29053271674E+01  0.53929662619E+01  0.99514511863E+01  0.11685734541E+02  0.00000000000E+00 0. -1.
</event>
<event>
 7    1  0.1098446E-012  0.5052886E+02  0.7816164E-02  0.1300439E+00
        -11   -1    0    0    0    0  0.00000000000E+00  0.00000000000E+00  0.45593999997E+02  0.45594000000E+02  0.51100000000E-03 0. -1.
         11   -1    0    0    0    0 -0.00000000000E+00 -0.00000000000E+00 -0.45593999997E+02  0.45594000000E+02  0.51100000000E-03 0.  1.
    9900012    2    1    2    0    0  0.82409794871E+00  0.59664617850E+01  0.40210543871E+02  0.50528860289E+02  0.30000001333E+02 0.  0.
        -12    1    1    2    0    0 -0.82409794871E+00 -0.59664617850E+01 -0.40210543871E+02  0.40659139711E+02  0.00000000000E+00 0.  1.
         11    1    3    3    0    0  0.10016003150E+01  0.10967615284E+02  0.90672835894E+01  0.14265602691E+02  0.51100000000E-03 0. -1.
        -11    1    3    3    0    0  0.68692171783E+01 -0.56935514381E+01  0.26065220143E+02  0.27549925118E+02  0.51100000000E-03 0.  1.
         12    1    3    3    0    0 -0.70467195446E+01  0.69239793962E+00  0.50780401384E+01  0.87133324793E+01  0.00000000000E+00 0. -1.
</event>
<event>
 7    1  0.1098446E-012  0.5052886E+02  0.7816164E-02  0.1300439E+00
        -11   -1    0    0    0    0  0.00000000000E+00  0.00000000000E+00  0.45593999997E+02  0.45594000000E+02  0.51100000000E-03 0. -1.
         11   -1    0    0    0    0 -0.00000000000E+00 -0.00000000000E+00 -0.45593999997E+02  0.45594000000E+02  0.51100000000E-03 0.  1.
    9900012    2    1    2    0    0 -0.69907048250E+01 -0.30461934727E+02  0.26007041294E+02  0.50528860583E+02  0.30000002229E+02 0.  0.
        -12    1    1    2    0    0  0.69907048250E+01  0.30461934727E+02 -0.26007041294E+02  0.40659139417E+02  0.00000000000E+00 0.  1.
         11    1    3    3    0    0 -0.23685623662E+01  0.16023667826E+01  0.15016706170E+02  0.15286567026E+02  0.51100000000E-03 0. -1.
        -11    1    3    3    0    0 -0.47965654902E+01 -0.23556001667E+02  0.43084176273E+01  0.24422422438E+02  0.51100000000E-03 0.  1.
         12    1    3    3    0    0  0.17442303133E+00 -0.85082998427E+01  0.66819174964E+01  0.10819871119E+02  0.00000000000E+00 0. -1.
</event>
<event>
 7    1  0.1098446E-012  0.5052885E+02  0.7816164E-02  0.1300439E+00
        -11   -1    0    0    0    0  0.00000000000E+00  0.00000000000E+00  0.45593999997E+02  0.45594000000E+02  0.51100000000E-03 0.  1.
         11   -1    0    0    0    0 -0.00000000000E+00 -0.00000000000E+00 -0.45593999997E+02  0.45594000000E+02  0.51100000000E-03 0. -1.
    9900012    2    1    2    0    0 -0.34248577931E+02  0.55376263151E+01 -0.21202263055E+02  0.50528851532E+02  0.29999974716E+02 0.  0.
        -12    1    1    2    0    0  0.34248577931E+02 -0.55376263151E+01  0.21202263055E+02  0.40659148468E+02  0.00000000000E+00 0.  1.
         11    1    3    3    0    0 -0.27239636530E+02 -0.12314913984E+01 -0.13539380565E+01  0.27301053421E+02  0.51100000000E-03 0. -1.
        -11    1    3    3    0    0  0.41152394542E+00  0.30657758019E+01 -0.24218512004E+01  0.39285743881E+01  0.51100000000E-03 0.  1.
         12    1    3    3    0    0 -0.74204653465E+01  0.37033419116E+01 -0.17426473798E+02  0.19299223723E+02  0.00000000000E+00 0. -1.
</event>
<event>
 7    1  0.1098446E-012  0.5052886E+02  0.7816164E-02  0.1300439E+00
        -11   -1    0    0    0    0  0.00000000000E+00  0.00000000000E+00  0.45593999997E+02  0.45594000000E+02  0.51100000000E-03 0. -1.
         11   -1    0    0    0    0 -0.00000000000E+00 -0.00000000000E+00 -0.45593999997E+02  0.45594000000E+02  0.51100000000E-03 0.  1.
    9900012    2    1    2    0    0 -0.37828818736E+02 -0.14845318031E+02  0.13275388769E+01  0.50528863833E+02  0.30000012105E+02 0.  0.
        -12    1    1    2    0    0  0.37828818736E+02  0.14845318031E+02 -0.13275388769E+01  0.40659136167E+02  0.00000000000E+00 0.  1.
         11    1    3    3    0    0 -0.21188336970E+02 -0.10460947152E+02  0.41202541712E+01  0.23986528168E+02  0.51100000000E-03 0. -1.
        -11    1    3    3    0    0 -0.12191362452E+02 -0.59977737641E+01 -0.10722119155E+02  0.17307987982E+02  0.51100000000E-03 0.  1.
        -12    1    3    3    0    0 -0.44491193151E+01  0.16134028851E+01  0.79294038603E+01  0.92343476829E+01  0.00000000000E+00 0.  1.
</event>
<event>
 7    1  0.1098446E-012  0.5052886E+02  0.7816164E-02  0.1300439E+00
        -11   -1    0    0    0    0  0.00000000000E+00  0.00000000000E+00  0.45593999997E+02  0.45594000000E+02  0.51100000000E-03 0.  1.
         11   -1    0    0    0    0 -0.00000000000E+00 -0.00000000000E+00 -0.45593999997E+02  0.45594000000E+02  0.51100000000E-03 0. -1.
    9900012    2    1    2    0    0 -0.44518231403E+01  0.27909579202E+02 -0.29230164764E+02  0.50528857453E+02  0.29999992715E+02 0.  0.
        -12    1    1    2    0    0  0.44518231403E+01 -0.27909579202E+02  0.29230164764E+02  0.40659142547E+02  0.00000000000E+00 0.  1.
         11    1    3    3    0    0 -0.73841700223E+01  0.26709507965E+01  0.33026101310E+01  0.85186371571E+01  0.51100000000E-03 0.  1.
        -11    1    3    3    0    0 -0.72125100934E+00  0.19653493682E+02 -0.21694962643E+02  0.29282271450E+02  0.51100000000E-03 0. -1.
        -12    1    3    3    0    0  0.36535978914E+01  0.55851347238E+01 -0.10837812251E+02  0.12727948846E+02  0.00000000000E+00 0.  1.
</event>
<event>
 7    1  0.1098446E-012  0.5052886E+02  0.7816164E-02  0.1300439E+00
        -11   -1    0    0    0    0  0.00000000000E+00  0.00000000000E+00  0.45593999997E+02  0.45594000000E+02  0.51100000000E-03 0.  1.
         11   -1    0    0    0    0 -0.00000000000E+00 -0.00000000000E+00 -0.45593999997E+02  0.45594000000E+02  0.51100000000E-03 0. -1.
    9900012    2    1    2    0    0 -0.32455044613E+02  0.17057758735E+01 -0.24432077322E+02  0.50528855955E+02  0.29999988162E+02 0.  0.
        -12    1    1    2    0    0  0.32455044613E+02 -0.17057758735E+01  0.24432077322E+02  0.40659144045E+02  0.00000000000E+00 0.  1.
         11    1    3    3    0    0 -0.28941599988E+01  0.12401987015E+01 -0.11163251377E+02  0.11598811857E+02  0.51100000000E-03 0. -1.
        -11    1    3    3    0    0 -0.27458618298E+02  0.26315718865E+01 -0.24442695470E+01  0.27692514211E+02  0.51100000000E-03 0.  1.
        -12    1    3    3    0    0 -0.21022663161E+01 -0.21659947145E+01 -0.10824556398E+02  0.11237529888E+02  0.00000000000E+00 0.  1.
</event>
<event>
 7    1  0.1098446E-012  0.5052885E+02  0.7816164E-02  0.1300439E+00
        -11   -1    0    0    0    0  0.00000000000E+00  0.00000000000E+00  0.45593999997E+02  0.45594000000E+02  0.51100000000E-03 0.  1.
         11   -1    0    0    0    0 -0.00000000000E+00 -0.00000000000E+00 -0.45593999997E+02  0.45594000000E+02  0.51100000000E-03 0. -1.
    9900012    2    1    2    0    0 -0.12392396053E+02  0.28733073235E+02 -0.25961610356E+02  0.50528853554E+02  0.29999980862E+02 0.  0.
        -12    1    1    2    0    0  0.12392396053E+02 -0.28733073235E+02  0.25961610356E+02  0.40659146446E+02  0.00000000000E+00 0.  1.
         11    1    3    3    0    0 -0.15828942060E+02  0.18849070091E+02 -0.53603898069E+01  0.25190804457E+02  0.51100000000E-03 0. -1.
        -11    1    3    3    0    0  0.59974112951E+01  0.18009400945E+01 -0.92257607967E+01  0.11150201344E+02  0.51100000000E-03 0.  1.
        -12    1    3    3    0    0 -0.25608652884E+01  0.80830630489E+01 -0.11375459753E+02  0.14187847753E+02  0.00000000000E+00 0.  1.
</event>
<event>
 7    1  0.1098446E-012  0.5052897E+02  0.7816164E-02  0.1300438E+00
        -11   -1    0    0    0    0  0.00000000000E+00  0.00000000000E+00  0.45593999997E+02  0.45594000000E+02  0.51100000000E-03 0.  1.
         11   -1    0    0    0    0 -0.00000000000E+00 -0.00000000000E+00 -0.45593999997E+02  0.45594000000E+02  0.51100000000E-03 0. -1.
    9900012    2    1    2    0    0 -0.51907881531E+01  0.38253612582E+01 -0.40144476486E+02  0.50528970711E+02  0.30000336970E+02 0.  0.
        -12    1    1    2    0    0  0.51907881531E+01 -0.38253612582E+01  0.40144476486E+02  0.40659029289E+02  0.00000000000E+00 0.  1.
         11    1    3    3    0    0  0.93452013729E+01  0.41964273227E+01 -0.79523451138E+01  0.12968522817E+02  0.51100000000E-03 0. -1.
        -11    1    3    3    0    0 -0.11716606978E+02  0.19235786176E+01 -0.11424957751E+02  0.16477520859E+02  0.51100000000E-03 0.  1.
        -12    1    3    3    0    0 -0.28193825483E+01 -0.22946446821E+01 -0.20767173621E+02  0.21082927035E+02  0.00000000000E+00 0.  1.
</event>
<event>
 7    1  0.1098446E-012  0.5052886E+02  0.7816164E-02  0.1300439E+00
        -11   -1    0    0    0    0  0.00000000000E+00  0.00000000000E+00  0.45593999997E+02  0.45594000000E+02  0.51100000000E-03 0. -1.
         11   -1    0    0    0    0 -0.00000000000E+00 -0.00000000000E+00 -0.45593999997E+02  0.45594000000E+02  0.51100000000E-03 0.  1.
    9900012    2    1    2    0    0 -0.13972413642E+01 -0.76334048328E+01  0.39911708539E+02  0.50528860421E+02  0.30000001735E+02 0.  0.
        -12    1    1    2    0    0  0.13972413642E+01  0.76334048328E+01 -0.39911708539E+02  0.40659139579E+02  0.00000000000E+00 0.  1.
         11    1    3    3    0    0 -0.17864115970E+01 -0.10733423570E+02  0.44554031403E+01  0.11757902250E+02  0.51100000000E-03 0. -1.
        -11    1    3    3    0    0  0.15823186921E+01  0.61488459766E+01  0.34871947941E+02  0.35445236532E+02  0.51100000000E-03 0.  1.
        -12    1    3    3    0    0 -0.11931484593E+01 -0.30488272394E+01  0.58435745781E+00  0.33257216390E+01  0.00000000000E+00 0.  1.
</event>
<event>
 7    1  0.1098446E-012  0.5052887E+02  0.7816164E-02  0.1300439E+00
        -11   -1    0    0    0    0  0.00000000000E+00  0.00000000000E+00  0.45593999997E+02  0.45594000000E+02  0.51100000000E-03 0.  1.
         11   -1    0    0    0    0 -0.00000000000E+00 -0.00000000000E+00 -0.45593999997E+02  0.45594000000E+02  0.51100000000E-03 0. -1.
    9900012    2    1    2    0    0  0.12624746874E+00 -0.39639083480E+02 -0.90494130199E+01  0.50528871215E+02  0.30000034546E+02 0.  0.
        -12    1    1    2    0    0 -0.12624746874E+00  0.39639083480E+02  0.90494130199E+01  0.40659128785E+02  0.00000000000E+00 0.  1.
         11    1    3    3    0    0  0.61906982816E+01  0.19768250658E+01 -0.73188142092E+00  0.65397425966E+01  0.51100000000E-03 0. -1.
        -11    1    3    3    0    0 -0.55296367350E+01 -0.19477244988E+02  0.23912712304E+00  0.20248386030E+02  0.51100000000E-03 0.  1.
         12    1    3    3    0    0 -0.53481407783E+00 -0.22138663557E+02 -0.85566587221E+01  0.23740742589E+02  0.00000000000E+00 0. -1.
</event>
<event>
 7    1  0.1098446E-012  0.5052886E+02  0.7816164E-02  0.1300439E+00
        -11   -1    0    0    0    0  0.00000000000E+00  0.00000000000E+00  0.45593999997E+02  0.45594000000E+02  0.51100000000E-03 0. -1.
         11   -1    0    0    0    0 -0.00000000000E+00 -0.00000000000E+00 -0.45593999997E+02  0.45594000000E+02  0.51100000000E-03 0.  1.
    9900012    2    1    2    0    0  0.39117904374E+02 -0.88236624612E+01 -0.67155329744E+01  0.50528857794E+02  0.29999993750E+02 0.  0.
        -12    1    1    2    0    0 -0.39117904374E+02  0.88236624612E+01  0.67155329744E+01  0.40659142206E+02  0.00000000000E+00 0.  1.
         11    1    3    3    0    0  0.43192481952E+01 -0.52491018692E+01  0.85797561720E+01  0.10946286660E+02  0.51100000000E-03 0. -1.
        -11    1    3    3    0    0  0.25899306385E+02  0.17502485326E+00 -0.14980936790E+02  0.29920447395E+02  0.51100000000E-03 0.  1.
        -12    1    3    3    0    0  0.88993497932E+01 -0.37495854452E+01 -0.31435235646E+00  0.96621237395E+01  0.00000000000E+00 0.  1.
</event>
<event>
 7    1  0.1098446E-012  0.5052886E+02  0.7816164E-02  0.1300439E+00
        -11   -1    0    0    0    0  0.00000000000E+00  0.00000000000E+00  0.45593999997E+02  0.45594000000E+02  0.51100000000E-03 0.  1.
         11   -1    0    0    0    0 -0.00000000000E+00 -0.00000000000E+00 -0.45593999997E+02  0.45594000000E+02  0.51100000000E-03 0. -1.
    9900012    2    1    2    0    0  0.79295704746E+00 -0.37452935535E+02 -0.15805511899E+02  0.50528863666E+02  0.30000011600E+02 0.  0.
        -12    1    1    2    0    0 -0.79295704746E+00  0.37452935535E+02  0.15805511899E+02  0.40659136334E+02  0.00000000000E+00 0.  1.
         11    1    3    3    0    0  0.38319708557E+01 -0.19577077151E+02  0.43136591472E+01  0.20409644923E+02  0.51100000000E-03 0. -1.
        -11    1    3    3    0    0  0.38391994357E+01 -0.80598562991E+01 -0.14145533514E+02  0.16727129297E+02  0.51100000000E-03 0.  1.
         12    1    3    3    0    0 -0.68782132440E+01 -0.98160020848E+01 -0.59736375323E+01  0.13392089446E+02  0.00000000000E+00 0. -1.
</event>
<event>
 7    1  0.1098446E-012  0.5052886E+02  0.7816164E-02  0.1300439E+00
        -11   -1    0    0    0    0  0.00000000000E+00  0.00000000000E+00  0.45593999997E+02  0.45594000000E+02  0.51100000000E-03 0.  1.
         11   -1    0    0    0    0 -0.00000000000E+00 -0.00000000000E+00 -0.45593999997E+02  0.45594000000E+02  0.51100000000E-03 0. -1.
    9900012    2    1    2    0    0  0.24904939989E+02 -0.37166018379E+01 -0.31923289634E+02  0.50528860976E+02  0.30000003424E+02 0.  0.
        -12    1    1    2    0    0 -0.24904939989E+02  0.37166018379E+01  0.31923289634E+02  0.40659139024E+02  0.00000000000E+00 0.  1.
         11    1    3    3    0    0  0.14036638004E+02  0.37757547134E+01 -0.30315222028E+02  0.33619878301E+02  0.51100000000E-03 0. -1.
        -11    1    3    3    0    0 -0.64602825755E-02 -0.15961622898E+01  0.32484840557E+01  0.36194508854E+01  0.51100000000E-03 0.  1.
        -12    1    3    3    0    0  0.10874762268E+02 -0.58961942615E+01 -0.48565516614E+01  0.13289531790E+02  0.00000000000E+00 0.  1.
</event>
<event>
 7    1  0.1098446E-012  0.5052886E+02  0.7816164E-02  0.1300439E+00
        -11   -1    0    0    0    0  0.00000000000E+00  0.00000000000E+00  0.45593999997E+02  0.45594000000E+02  0.51100000000E-03 0. -1.
         11   -1    0    0    0    0 -0.00000000000E+00 -0.00000000000E+00 -0.45593999997E+02  0.45594000000E+02  0.51100000000E-03 0.  1.
    9900012    2    1    2    0    0  0.37935890055E+02  0.42220688434E+01 -0.14007416453E+02  0.50528864062E+02  0.30000012802E+02 0.  0.
        -12    1    1    2    0    0 -0.37935890055E+02 -0.42220688434E+01  0.14007416453E+02  0.40659135938E+02  0.00000000000E+00 0.  1.
         11    1    3    3    0    0  0.10932848319E+02  0.41376821586E+01 -0.38915990524E+01  0.12320394858E+02  0.51100000000E-03 0. -1.
        -11    1    3    3    0    0  0.41634849638E+01 -0.72183904176E+01  0.51375009882E+01  0.97894680106E+01  0.51100000000E-03 0.  1.
        -12    1    3    3    0    0  0.22839556772E+02  0.73027771024E+01 -0.15253318388E+02  0.28419001193E+02  0.00000000000E+00 0.  1.
</event>
<event>
 7    1  0.1098446E-012  0.5052886E+02  0.7816164E-02  0.1300439E+00
        -11   -1    0    0    0    0  0.00000000000E+00  0.00000000000E+00  0.45593999997E+02  0.45594000000E+02  0.51100000000E-03 0. -1.
         11   -1    0    0    0    0 -0.00000000000E+00 -0.00000000000E+00 -0.45593999997E+02  0.45594000000E+02  0.51100000000E-03 0.  1.
    9900012    2    1    2    0    0  0.32145405510E+02  0.22315814917E+02 -0.11038255151E+02  0.50528858745E+02  0.29999996643E+02 0.  0.
        -12    1    1    2    0    0 -0.32145405510E+02 -0.22315814917E+02  0.11038255151E+02  0.40659141255E+02  0.00000000000E+00 0.  1.
         11    1    3    3    0    0 -0.32044784436E+01  0.27915901649E+01 -0.53170221310E+01  0.68067894302E+01  0.51100000000E-03 0. -1.
        -11    1    3    3    0    0  0.25745047978E+02  0.10504661506E+02 -0.10477141967E+02  0.29714069274E+02  0.51100000000E-03 0.  1.
         12    1    3    3    0    0  0.96048359755E+01  0.90195632455E+01  0.47559089469E+01  0.14008000042E+02  0.00000000000E+00 0. -1.
</event>
<event>
 7    1  0.1098446E-012  0.5052886E+02  0.7816164E-02  0.1300439E+00
        -11   -1    0    0    0    0  0.00000000000E+00  0.00000000000E+00  0.45593999997E+02  0.45594000000E+02  0.51100000000E-03 0.  1.
         11   -1    0    0    0    0 -0.00000000000E+00 -0.00000000000E+00 -0.45593999997E+02  0.45594000000E+02  0.51100000000E-03 0. -1.
    9900012    2    1    2    0    0  0.18883712906E+02  0.32885813538E+02 -0.14666098483E+02  0.50528858471E+02  0.29999995809E+02 0.  0.
        -12    1    1    2    0    0 -0.18883712906E+02 -0.32885813538E+02  0.14666098483E+02  0.40659141529E+02  0.00000000000E+00 0.  1.
         11    1    3    3    0    0  0.42916587024E+01  0.45202686119E+01 -0.89372941466E+01  0.10896163989E+02  0.51100000000E-03 0. -1.
        -11    1    3    3    0    0  0.48593374776E+01  0.73299288945E+01  0.86673880014E+01  0.12347656998E+02  0.51100000000E-03 0.  1.
        -12    1    3    3    0    0  0.97327167262E+01  0.21035616031E+02 -0.14396192338E+02  0.27285037484E+02  0.00000000000E+00 0.  1.
</event>
<event>
 7    1  0.1098446E-012  0.5052885E+02  0.7816164E-02  0.1300439E+00
        -11   -1    0    0    0    0  0.00000000000E+00  0.00000000000E+00  0.45593999997E+02  0.45594000000E+02  0.51100000000E-03 0.  1.
         11   -1    0    0    0    0 -0.00000000000E+00 -0.00000000000E+00 -0.45593999997E+02  0.45594000000E+02  0.51100000000E-03 0. -1.
    9900012    2    1    2    0    0 -0.19550486818E+02  0.26831695645E+02 -0.23473500066E+02  0.50528848123E+02  0.29999964356E+02 0.  0.
        -12    1    1    2    0    0  0.19550486818E+02 -0.26831695645E+02  0.23473500066E+02  0.40659151877E+02  0.00000000000E+00 0.  1.
         11    1    3    3    0    0 -0.14059537065E+02  0.57441238465E+01 -0.15599538556E+02  0.21771797001E+02  0.51100000000E-03 0. -1.
        -11    1    3    3    0    0 -0.48828975989E+01  0.93336648998E+01  0.46994842425E+01  0.11534519575E+02  0.51100000000E-03 0.  1.
        -12    1    3    3    0    0 -0.60805215421E+00  0.11753906898E+02 -0.12573445752E+02  0.17222531547E+02  0.00000000000E+00 0.  1.
</event>
<event>
 7    1  0.1098446E-012  0.5052885E+02  0.7816164E-02  0.1300439E+00
        -11   -1    0    0    0    0  0.00000000000E+00  0.00000000000E+00  0.45593999997E+02  0.45594000000E+02  0.51100000000E-03 0.  1.
         11   -1    0    0    0    0 -0.00000000000E+00 -0.00000000000E+00 -0.45593999997E+02  0.45594000000E+02  0.51100000000E-03 0. -1.
    9900012    2    1    2    0    0 -0.26459616736E+02 -0.18496307754E+02 -0.24717228861E+02  0.50528854400E+02  0.29999983434E+02 0.  0.
        -12    1    1    2    0    0  0.26459616736E+02  0.18496307754E+02  0.24717228861E+02  0.40659145600E+02  0.00000000000E+00 0.  1.
         11    1    3    3    0    0 -0.15724661398E+02 -0.49056968847E+01 -0.10527514297E+02  0.19548897553E+02  0.51100000000E-03 0. -1.
        -11    1    3    3    0    0  0.43929253692E+01  0.11085970294E+01 -0.76594684261E+01  0.88991144224E+01  0.51100000000E-03 0.  1.
        -12    1    3    3    0    0 -0.15127880708E+02 -0.14699207899E+02 -0.65302461374E+01  0.22080842424E+02  0.00000000000E+00 0.  1.
</event>
<event>
 7    1  0.1098446E-012  0.5052886E+02  0.7816164E-02  0.1300439E+00
        -11   -1    0    0    0    0  0.00000000000E+00  0.00000000000E+00  0.45593999997E+02  0.45594000000E+02  0.51100000000E-03 0.  1.
         11   -1    0    0    0    0 -0.00000000000E+00 -0.00000000000E+00 -0.45593999997E+02  0.45594000000E+02  0.51100000000E-03 0. -1.
    9900012    2    1    2    0    0  0.33738568445E+02 -0.22300629176E+02 -0.41900503211E+01  0.50528861002E+02  0.30000003501E+02 0.  0.
        -12    1    1    2    0    0 -0.33738568445E+02  0.22300629176E+02  0.41900503211E+01  0.40659138998E+02  0.00000000000E+00 0.  1.
         11    1    3    3    0    0  0.23975065912E+02  0.52077973776E+00 -0.71672090853E+01  0.25028861008E+02  0.51100000000E-03 0. -1.
        -11    1    3    3    0    0  0.74813044772E+01 -0.13792942551E+02  0.38198564832E+01  0.16149504163E+02  0.51100000000E-03 0.  1.
         12    1    3    3    0    0  0.22821980558E+01 -0.90284663632E+01 -0.84269771896E+00  0.93504958309E+01  0.00000000000E+00 0. -1.
</event>
<event>
 7    1  0.1098446E-012  0.5052887E+02  0.7816164E-02  0.1300439E+00
        -11   -1    0    0    0    0  0.00000000000E+00  0.00000000000E+00  0.45593999997E+02  0.45594000000E+02  0.51100000000E-03 0.  1.
         11   -1    0    0    0    0 -0.00000000000E+00 -0.00000000000E+00 -0.45593999997E+02  0.45594000000E+02  0.51100000000E-03 0. -1.
    9900012    2    1    2    0    0 -0.36639118613E+02 -0.11345323905E+02 -0.13491599323E+02  0.50528872617E+02  0.30000038807E+02 0.  0.
        -12    1    1    2    0    0  0.36639118613E+02  0.11345323905E+02  0.13491599323E+02  0.40659127383E+02  0.00000000000E+00 0.  1.
         11    1    3    3    0    0 -0.88088759335E+01 -0.16627436177E+02 -0.77648963461E+01  0.20355872483E+02  0.51100000000E-03 0. -1.
        -11    1    3    3    0    0 -0.20642671108E+02  0.50598388744E+01 -0.78784277334E+01  0.22666968561E+02  0.51100000000E-03 0.  1.
        -12    1    3    3    0    0 -0.71875715712E+01  0.22227339722E+00  0.21517247563E+01  0.75060315734E+01  0.00000000000E+00 0.  1.
</event>
<event>
 7    1  0.1098446E-012  0.5052886E+02  0.7816164E-02  0.1300439E+00
        -11   -1    0    0    0    0  0.00000000000E+00  0.00000000000E+00  0.45593999997E+02  0.45594000000E+02  0.51100000000E-03 0. -1.
         11   -1    0    0    0    0 -0.00000000000E+00 -0.00000000000E+00 -0.45593999997E+02  0.45594000000E+02  0.51100000000E-03 0.  1.
    9900012    2    1    2    0    0 -0.11242168187E+02 -0.35084381376E+02  0.17200749531E+02  0.50528856545E+02  0.29999989954E+02 0.  0.
        -12    1    1    2    0    0  0.11242168187E+02  0.35084381376E+02 -0.17200749531E+02  0.40659143455E+02  0.00000000000E+00 0.  1.
         11    1    3    3    0    0  0.35447853402E+01 -0.19522913511E+02  0.16127648356E+02  0.25569722267E+02  0.51100000000E-03 0. -1.
        -11    1    3    3    0    0 -0.11957883912E+02 -0.64471253407E+01  0.52203336545E+01  0.14553635166E+02  0.51100000000E-03 0.  1.
        -12    1    3    3    0    0 -0.28290696145E+01 -0.91143425244E+01 -0.41472324789E+01  0.10405499112E+02  0.00000000000E+00 0.  1.
</event>
<event>
 7    1  0.1098446E-012  0.5052887E+02  0.7816164E-02  0.1300439E+00
        -11   -1    0    0    0    0  0.00000000000E+00  0.00000000000E+00  0.45593999997E+02  0.45594000000E+02  0.51100000000E-03 0. -1.
         11   -1    0    0    0    0 -0.00000000000E+00 -0.00000000000E+00 -0.45593999997E+02  0.45594000000E+02  0.51100000000E-03 0.  1.
    9900012    2    1    2    0    0  0.21797219651E+02 -0.29224903097E+02  0.17998634313E+02  0.50528873316E+02  0.30000040932E+02 0.  0.
        -12    1    1    2    0    0 -0.21797219651E+02  0.29224903097E+02 -0.17998634313E+02  0.40659126684E+02  0.00000000000E+00 0.  1.
         11    1    3    3    0    0  0.18556460838E+02 -0.10915854524E+02  0.21297519782E+02  0.30283369495E+02  0.51100000000E-03 0. -1.
        -11    1    3    3    0    0  0.39573263180E+01 -0.18263889550E+02 -0.41388045882E+01  0.19140527599E+02  0.51100000000E-03 0.  1.
         12    1    3    3    0    0 -0.71656750531E+00 -0.45159023187E-01  0.83991911870E+00  0.11049762228E+01  0.00000000000E+00 0. -1.
</event>
<event>
 7    1  0.1098446E-012  0.5052885E+02  0.7816164E-02  0.1300439E+00
        -11   -1    0    0    0    0  0.00000000000E+00  0.00000000000E+00  0.45593999997E+02  0.45594000000E+02  0.51100000000E-03 0.  1.
         11   -1    0    0    0    0 -0.00000000000E+00 -0.00000000000E+00 -0.45593999997E+02  0.45594000000E+02  0.51100000000E-03 0. -1.
    9900012    2    1    2    0    0 -0.39480415086E+01 -0.25994010380E+02 -0.31014362410E+02  0.50528852405E+02  0.29999977371E+02 0.  0.
        -12    1    1    2    0    0  0.39480415086E+01  0.25994010380E+02  0.31014362410E+02  0.40659147595E+02  0.00000000000E+00 0.  1.
         11    1    3    3    0    0 -0.98469327048E+01 -0.11623590233E+02 -0.23525471071E+02  0.28027089092E+02  0.51100000000E-03 0. -1.
        -11    1    3    3    0    0  0.90849074493E+01 -0.33036612240E+01 -0.27677285971E+01  0.10055348959E+02  0.51100000000E-03 0.  1.
        -12    1    3    3    0    0 -0.31860162530E+01 -0.11066758924E+02 -0.47211627422E+01  0.12446414354E+02  0.00000000000E+00 0.  1.
</event>
<event>
 7    1  0.1098446E-012  0.5052891E+02  0.7816164E-02  0.1300439E+00
        -11   -1    0    0    0    0  0.00000000000E+00  0.00000000000E+00  0.45593999997E+02  0.45594000000E+02  0.51100000000E-03 0.  1.
         11   -1    0    0    0    0 -0.00000000000E+00 -0.00000000000E+00 -0.45593999997E+02  0.45594000000E+02  0.51100000000E-03 0. -1.
    9900012    2    1    2    0    0 -0.11439536878E+02  0.20919399809E+02 -0.32934436424E+02  0.50528912518E+02  0.30000160088E+02 0.  0.
        -12    1    1    2    0    0  0.11439536878E+02 -0.20919399809E+02  0.32934436424E+02  0.40659087482E+02  0.00000000000E+00 0.  1.
         11    1    3    3    0    0  0.53407821368E+01  0.74978208618E+01 -0.18944166122E+02  0.21062352713E+02  0.51100000000E-03 0. -1.
        -11    1    3    3    0    0 -0.10509365660E+02  0.13043368062E+02 -0.33080918700E+01  0.17073947671E+02  0.51100000000E-03 0.  1.
        -12    1    3    3    0    0 -0.62709533547E+01  0.37821088531E+00 -0.10682178432E+02  0.12392612134E+02  0.00000000000E+00 0.  1.
</event>
<event>
 7    1  0.1098446E-012  0.5052886E+02  0.7816164E-02  0.1300439E+00
        -11   -1    0    0    0    0  0.00000000000E+00  0.00000000000E+00  0.45593999997E+02  0.45594000000E+02  0.51100000000E-03 0.  1.
         11   -1    0    0    0    0 -0.00000000000E+00 -0.00000000000E+00 -0.45593999997E+02  0.45594000000E+02  0.51100000000E-03 0. -1.
    9900012    2    1    2    0    0 -0.14374209398E+02  0.14602060764E+02 -0.35118763773E+02  0.50528860273E+02  0.30000001287E+02 0.  0.
        -12    1    1    2    0    0  0.14374209398E+02 -0.14602060764E+02  0.35118763773E+02  0.40659139727E+02  0.00000000000E+00 0.  1.
         11    1    3    3    0    0 -0.56964476355E+01  0.71027048245E+01  0.26076500042E+01  0.94708906811E+01  0.51100000000E-03 0. -1.
        -11    1    3    3    0    0  0.25979338584E+01  0.32128347622E+01 -0.10131823578E+02  0.10941911023E+02  0.51100000000E-03 0.  1.
         12    1    3    3    0    0 -0.11275695621E+02  0.42865211769E+01 -0.27594590199E+02  0.30116058570E+02  0.00000000000E+00 0. -1.
</event>
<event>
 7    1  0.1098446E-012  0.5052888E+02  0.7816164E-02  0.1300439E+00
        -11   -1    0    0    0    0  0.00000000000E+00  0.00000000000E+00  0.45593999997E+02  0.45594000000E+02  0.51100000000E-03 0.  1.
         11   -1    0    0    0    0 -0.00000000000E+00 -0.00000000000E+00 -0.45593999997E+02  0.45594000000E+02  0.51100000000E-03 0. -1.
    9900012    2    1    2    0    0 -0.37254318839E+02 -0.14936731607E+02  0.64941150692E+01  0.50528883510E+02  0.30000071916E+02 0.  0.
        -12    1    1    2    0    0  0.37254318839E+02  0.14936731607E+02 -0.64941150692E+01  0.40659116490E+02  0.00000000000E+00 0.  1.
         11    1    3    3    0    0 -0.19477333701E+02 -0.10108792771E+02  0.22181853874E+01  0.22056168436E+02  0.51100000000E-03 0. -1.
        -11    1    3    3    0    0 -0.13826328741E+02  0.66486033160E+01 -0.69308797139E+00  0.15357462802E+02  0.51100000000E-03 0.  1.
        -12    1    3    3    0    0 -0.39506563963E+01 -0.11476542152E+02  0.49690176532E+01  0.13115252272E+02  0.00000000000E+00 0.  1.
</event>
<event>
 7    1  0.1098446E-012  0.5052884E+02  0.7816164E-02  0.1300439E+00
        -11   -1    0    0    0    0  0.00000000000E+00  0.00000000000E+00  0.45593999997E+02  0.45594000000E+02  0.51100000000E-03 0. -1.
         11   -1    0    0    0    0 -0.00000000000E+00 -0.00000000000E+00 -0.45593999997E+02  0.45594000000E+02  0.51100000000E-03 0.  1.
    9900012    2    1    2    0    0  0.35985412832E+02  0.81206817564E+01  0.17095965039E+02  0.50528838308E+02  0.29999934520E+02 0.  0.
        -12    1    1    2    0    0 -0.35985412832E+02 -0.81206817564E+01 -0.17095965039E+02  0.40659161692E+02  0.00000000000E+00 0.  1.
         11    1    3    3    0    0  0.27899211181E+02  0.13852364630E+02  0.15915109640E+02  0.34979203900E+02  0.51100000000E-03 0. -1.
        -11    1    3    3    0    0  0.58813157514E+01 -0.79227556835E+01 -0.30244249739E+01  0.10320226706E+02  0.51100000000E-03 0.  1.
        -12    1    3    3    0    0  0.22048859001E+01  0.21910728102E+01  0.42052803733E+01  0.52294077016E+01  0.00000000000E+00 0.  1.
</event>
<event>
 7    1  0.1098446E-012  0.5052885E+02  0.7816164E-02  0.1300439E+00
        -11   -1    0    0    0    0  0.00000000000E+00  0.00000000000E+00  0.45593999997E+02  0.45594000000E+02  0.51100000000E-03 0. -1.
         11   -1    0    0    0    0 -0.00000000000E+00 -0.00000000000E+00 -0.45593999997E+02  0.45594000000E+02  0.51100000000E-03 0.  1.
    9900012    2    1    2    0    0  0.25640601233E+02  0.21729653898E+02  0.22881172583E+02  0.50528851596E+02  0.29999974912E+02 0.  0.
        -12    1    1    2    0    0 -0.25640601233E+02 -0.21729653898E+02 -0.22881172583E+02  0.40659148404E+02  0.00000000000E+00 0.  1.
         11    1    3    3    0    0  0.57342600511E+01  0.82385471875E+01  0.98065072376E+01  0.14032924947E+02  0.51100000000E-03 0. -1.
        -11    1    3    3    0    0  0.18371668707E+02  0.66296715604E+00  0.14614442194E+02  0.23484881465E+02  0.51100000000E-03 0.  1.
        -12    1    3    3    0    0  0.15346724751E+01  0.12828139555E+02 -0.15397768487E+01  0.13011045184E+02  0.00000000000E+00 0.  1.
</event>
<event>
 7    1  0.1098446E-012  0.5052886E+02  0.7816164E-02  0.1300439E+00
        -11   -1    0    0    0    0  0.00000000000E+00  0.00000000000E+00  0.45593999997E+02  0.45594000000E+02  0.51100000000E-03 0.  1.
         11   -1    0    0    0    0 -0.00000000000E+00 -0.00000000000E+00 -0.45593999997E+02  0.45594000000E+02  0.51100000000E-03 0. -1.
    9900012    2    1    2    0    0 -0.31512352917E+02  0.25369330309E+02 -0.40662272449E+01  0.50528861904E+02  0.30000006244E+02 0.  0.
        -12    1    1    2    0    0  0.31512352917E+02 -0.25369330309E+02  0.40662272449E+01  0.40659138096E+02  0.00000000000E+00 0.  1.
         11    1    3    3    0    0 -0.27327493268E+02  0.63881684023E+01  0.31176760877E+01  0.28236863995E+02  0.51100000000E-03 0. -1.
        -11    1    3    3    0    0 -0.32557318333E+01  0.14630872187E+02 -0.14844638277E+01  0.15062066387E+02  0.51100000000E-03 0.  1.
         12    1    3    3    0    0 -0.92912781558E+00  0.43502897202E+01 -0.56994395049E+01  0.72299315223E+01  0.00000000000E+00 0. -1.
</event>
<event>
 7    1  0.1098446E-012  0.5052886E+02  0.7816164E-02  0.1300439E+00
        -11   -1    0    0    0    0  0.00000000000E+00  0.00000000000E+00  0.45593999997E+02  0.45594000000E+02  0.51100000000E-03 0. -1.
         11   -1    0    0    0    0 -0.00000000000E+00 -0.00000000000E+00 -0.45593999997E+02  0.45594000000E+02  0.51100000000E-03 0.  1.
    9900012    2    1    2    0    0 -0.17675518410E+01 -0.10441111790E+01  0.40607281795E+02  0.50528859055E+02  0.29999997583E+02 0.  0.
        -12    1    1    2    0    0  0.17675518410E+01  0.10441111790E+01 -0.40607281795E+02  0.40659140945E+02  0.00000000000E+00 0.  1.
         11    1    3    3    0    0 -0.10766944917E+02  0.48434023052E+01  0.21690369630E+02  0.24695298817E+02  0.51100000000E-03 0. -1.
        -11    1    3    3    0    0  0.10850345518E+02 -0.25952761213E+00  0.15716383072E+02  0.19099791872E+02  0.51100000000E-03 0.  1.
         12    1    3    3    0    0 -0.18509524427E+01 -0.56279858720E+01  0.32005290928E+01  0.67337683651E+01  0.00000000000E+00 0. -1.
</event>
<event>
 7    1  0.1098446E-012  0.5052886E+02  0.7816164E-02  0.1300439E+00
        -11   -1    0    0    0    0  0.00000000000E+00  0.00000000000E+00  0.45593999997E+02  0.45594000000E+02  0.51100000000E-03 0. -1.
         11   -1    0    0    0    0 -0.00000000000E+00 -0.00000000000E+00 -0.45593999997E+02  0.45594000000E+02  0.51100000000E-03 0.  1.
    9900012    2    1    2    0    0 -0.24614106694E+02  0.29103647075E+02 -0.14152344834E+02  0.50528863441E+02  0.30000010914E+02 0.  0.
        -12    1    1    2    0    0  0.24614106694E+02 -0.29103647075E+02  0.14152344834E+02  0.40659136559E+02  0.00000000000E+00 0.  1.
         11    1    3    3    0    0 -0.14891110312E+02  0.33010747968E+02 -0.81109278370E+01  0.37111208527E+02  0.51100000000E-03 0. -1.
        -11    1    3    3    0    0 -0.76865076600E+01 -0.33559745192E+01 -0.16531244763E+01  0.85485546016E+01  0.51100000000E-03 0.  1.
         12    1    3    3    0    0 -0.20364887226E+01 -0.55112637358E+00 -0.43882925212E+01  0.48691003120E+01  0.00000000000E+00 0. -1.
</event>
<event>
 7    1  0.1098446E-012  0.5052886E+02  0.7816164E-02  0.1300439E+00
        -11   -1    0    0    0    0  0.00000000000E+00  0.00000000000E+00  0.45593999997E+02  0.45594000000E+02  0.51100000000E-03 0.  1.
         11   -1    0    0    0    0 -0.00000000000E+00 -0.00000000000E+00 -0.45593999997E+02  0.45594000000E+02  0.51100000000E-03 0. -1.
    9900012    2    1    2    0    0 -0.30696255175E+01  0.53308381651E+01 -0.40191109147E+02  0.50528859689E+02  0.29999999509E+02 0.  0.
        -12    1    1    2    0    0  0.30696255175E+01 -0.53308381651E+01  0.40191109147E+02  0.40659140311E+02  0.00000000000E+00 0.  1.
         11    1    3    3    0    0  0.50018866727E+01  0.12112445514E+02 -0.35857240942E+02  0.38176850771E+02  0.51100000000E-03 0. -1.
        -11    1    3    3    0    0 -0.45512699640E+01 -0.15963609409E+01 -0.16711880062E+00  0.48260082359E+01  0.51100000000E-03 0.  1.
         12    1    3    3    0    0 -0.35202422263E+01 -0.51852464083E+01 -0.41667494053E+01  0.75260006812E+01  0.00000000000E+00 0. -1.
</event>
<event>
 7    1  0.1098446E-012  0.5052886E+02  0.7816164E-02  0.1300439E+00
        -11   -1    0    0    0    0  0.00000000000E+00  0.00000000000E+00  0.45593999997E+02  0.45594000000E+02  0.51100000000E-03 0.  1.
         11   -1    0    0    0    0 -0.00000000000E+00 -0.00000000000E+00 -0.45593999997E+02  0.45594000000E+02  0.51100000000E-03 0. -1.
    9900012    2    1    2    0    0  0.12955094541E+02  0.16241954736E+02 -0.34950390045E+02  0.50528864096E+02  0.30000012905E+02 0.  0.
        -12    1    1    2    0    0 -0.12955094541E+02 -0.16241954736E+02  0.34950390045E+02  0.40659135904E+02  0.00000000000E+00 0.  1.
         11    1    3    3    0    0  0.70732038940E+01 -0.25146437499E+01 -0.46659549600E+01  0.88388224591E+01  0.51100000000E-03 0. -1.
        -11    1    3    3    0    0 -0.38522205414E+01  0.13510586257E+02 -0.26515837304E+02  0.30007751870E+02  0.51100000000E-03 0.  1.
        -12    1    3    3    0    0  0.97341111889E+01  0.52460122293E+01 -0.37685977802E+01  0.11682289766E+02  0.00000000000E+00 0.  1.
</event>
<event>
 7    1  0.1098446E-012  0.5052886E+02  0.7816164E-02  0.1300439E+00
        -11   -1    0    0    0    0  0.00000000000E+00  0.00000000000E+00  0.45593999997E+02  0.45594000000E+02  0.51100000000E-03 0.  1.
         11   -1    0    0    0    0 -0.00000000000E+00 -0.00000000000E+00 -0.45593999997E+02  0.45594000000E+02  0.51100000000E-03 0. -1.
    9900012    2    1    2    0    0  0.25872156395E+02 -0.14322716753E+02 -0.27904420858E+02  0.50528863325E+02  0.30000010563E+02 0.  0.
        -12    1    1    2    0    0 -0.25872156395E+02  0.14322716753E+02  0.27904420858E+02  0.40659136675E+02  0.00000000000E+00 0.  1.
         11    1    3    3    0    0  0.42079854566E+01 -0.11382805569E+01 -0.19130934606E+01  0.47605410490E+01  0.51100000000E-03 0. -1.
        -11    1    3    3    0    0  0.23795677764E+02 -0.14198459243E+02 -0.30173074459E+02  0.40966388023E+02  0.51100000000E-03 0.  1.
        -12    1    3    3    0    0 -0.21315068251E+01  0.10140230479E+01  0.41817470611E+01  0.48019342530E+01  0.00000000000E+00 0.  1.
</event>
<event>
 7    1  0.1098446E-012  0.5052886E+02  0.7816164E-02  0.1300439E+00
        -11   -1    0    0    0    0  0.00000000000E+00  0.00000000000E+00  0.45593999997E+02  0.45594000000E+02  0.51100000000E-03 0.  1.
         11   -1    0    0    0    0 -0.00000000000E+00 -0.00000000000E+00 -0.45593999997E+02  0.45594000000E+02  0.51100000000E-03 0. -1.
    9900012    2    1    2    0    0 -0.74319630964E+01  0.10074640902E+02 -0.38683759253E+02  0.50528859642E+02  0.29999999367E+02 0.  0.
        -12    1    1    2    0    0  0.74319630964E+01 -0.10074640902E+02  0.38683759253E+02  0.40659140358E+02  0.00000000000E+00 0.  1.
         11    1    3    3    0    0 -0.15821040814E+02  0.99211015391E+01 -0.21644371621E+02  0.28586927280E+02  0.51100000000E-03 0. -1.
        -11    1    3    3    0    0  0.32625748654E+01 -0.52387330351E+01 -0.58426295134E+01  0.84985315471E+01  0.51100000000E-03 0.  1.
         12    1    3    3    0    0  0.51265028520E+01  0.53922723977E+01 -0.11196758119E+02  0.13443400815E+02  0.00000000000E+00 0. -1.
</event>
<event>
 7    1  0.1098446E-012  0.5052888E+02  0.7816164E-02  0.1300439E+00
        -11   -1    0    0    0    0  0.00000000000E+00  0.00000000000E+00  0.45593999997E+02  0.45594000000E+02  0.51100000000E-03 0.  1.
         11   -1    0    0    0    0 -0.00000000000E+00 -0.00000000000E+00 -0.45593999997E+02  0.45594000000E+02  0.51100000000E-03 0. -1.
    9900012    2    1    2    0    0 -0.23394391022E+02 -0.20076327426E-01 -0.33254566842E+02  0.50528878635E+02  0.30000057098E+02 0.  0.
        -12    1    1    2    0    0  0.23394391022E+02  0.20076327426E-01  0.33254566842E+02  0.40659121365E+02  0.00000000000E+00 0.  1.
         11    1    3    3    0    0 -0.83297568255E+01 -0.49595585038E+01 -0.22117434264E+02  0.24148767422E+02  0.51100000000E-03 0. -1.
        -11    1    3    3    0    0 -0.18929578757E+02  0.59145998527E+01 -0.83605062492E+01  0.21522302580E+02  0.51100000000E-03 0.  1.
         12    1    3    3    0    0  0.38649445607E+01 -0.97511767627E+00 -0.27766263286E+01  0.48578086324E+01  0.00000000000E+00 0. -1.
</event>
<event>
 7    1  0.1098446E-012  0.5052886E+02  0.7816164E-02  0.1300439E+00
        -11   -1    0    0    0    0  0.00000000000E+00  0.00000000000E+00  0.45593999997E+02  0.45594000000E+02  0.51100000000E-03 0.  1.
         11   -1    0    0    0    0 -0.00000000000E+00 -0.00000000000E+00 -0.45593999997E+02  0.45594000000E+02  0.51100000000E-03 0. -1.
    9900012    2    1    2    0    0 -0.15186738259E+02  0.34639472920E+02 -0.14920983843E+02  0.50528857585E+02  0.29999993114E+02 0.  0.
        -12    1    1    2    0    0  0.15186738259E+02 -0.34639472920E+02  0.14920983843E+02  0.40659142415E+02  0.00000000000E+00 0.  1.
         11    1    3    3    0    0 -0.11182962024E+02  0.24079454814E+02  0.35142591098E+01  0.26781127705E+02  0.51100000000E-03 0. -1.
        -11    1    3    3    0    0 -0.26812646069E+01  0.12120572683E+02 -0.13165861788E+02  0.18095230834E+02  0.51100000000E-03 0.  1.
         12    1    3    3    0    0 -0.13225116288E+01 -0.15605545780E+01 -0.52693811652E+01  0.56524990458E+01  0.00000000000E+00 0. -1.
</event>
<event>
 7    1  0.1098446E-012  0.5052885E+02  0.7816164E-02  0.1300439E+00
        -11   -1    0    0    0    0  0.00000000000E+00  0.00000000000E+00  0.45593999997E+02  0.45594000000E+02  0.51100000000E-03 0. -1.
         11   -1    0    0    0    0 -0.00000000000E+00 -0.00000000000E+00 -0.45593999997E+02  0.45594000000E+02  0.51100000000E-03 0.  1.
    9900012    2    1    2    0    0 -0.29530666400E+02  0.97849266313E+01  0.26179409113E+02  0.50528849631E+02  0.29999968939E+02 0.  0.
        -12    1    1    2    0    0  0.29530666400E+02 -0.97849266313E+01 -0.26179409113E+02  0.40659150369E+02  0.00000000000E+00 0.  1.
         11    1    3    3    0    0 -0.23685263047E+02  0.12321186511E+02  0.13363300017E+02  0.29856006268E+02  0.51100000000E-03 0. -1.
        -11    1    3    3    0    0  0.24243228940E+01 -0.24462457156E+01 -0.17948390385E+01  0.38836718490E+01  0.51100000000E-03 0.  1.
         12    1    3    3    0    0 -0.82697262474E+01 -0.90014164405E-01  0.14610948134E+02  0.16789171514E+02  0.00000000000E+00 0. -1.
</event>
<event>
 7    1  0.1098446E-012  0.5052886E+02  0.7816164E-02  0.1300439E+00
        -11   -1    0    0    0    0  0.00000000000E+00  0.00000000000E+00  0.45593999997E+02  0.45594000000E+02  0.51100000000E-03 0. -1.
         11   -1    0    0    0    0 -0.00000000000E+00 -0.00000000000E+00 -0.45593999997E+02  0.45594000000E+02  0.51100000000E-03 0.  1.
    9900012    2    1    2    0    0  0.51245902122E+01 -0.35253309562E+02  0.19598684136E+02  0.50528859825E+02  0.29999999923E+02 0.  0.
        -12    1    1    2    0    0 -0.51245902122E+01  0.35253309562E+02 -0.19598684136E+02  0.40659140175E+02  0.00000000000E+00 0.  1.
         11    1    3    3    0    0  0.71791652105E+01 -0.24445823548E+02  0.43095741812E+01  0.25840107042E+02  0.51100000000E-03 0. -1.
        -11    1    3    3    0    0 -0.77118427652E+00  0.24750576146E+01  0.10006372077E+02  0.10336736322E+02  0.51100000000E-03 0.  1.
        -12    1    3    3    0    0 -0.12833907218E+01 -0.13282543629E+02  0.52827378778E+01  0.14352016461E+02  0.00000000000E+00 0.  1.
</event>
<event>
 7    1  0.1098446E-012  0.5052886E+02  0.7816164E-02  0.1300439E+00
        -11   -1    0    0    0    0  0.00000000000E+00  0.00000000000E+00  0.45593999997E+02  0.45594000000E+02  0.51100000000E-03 0.  1.
         11   -1    0    0    0    0 -0.00000000000E+00 -0.00000000000E+00 -0.45593999997E+02  0.45594000000E+02  0.51100000000E-03 0. -1.
    9900012    2    1    2    0    0  0.39376084137E+02  0.42406894443E+01 -0.92036089696E+01  0.50528857523E+02  0.29999992926E+02 0.  0.
        -12    1    1    2    0    0 -0.39376084137E+02 -0.42406894443E+01  0.92036089696E+01  0.40659142477E+02  0.00000000000E+00 0.  1.
         11    1    3    3    0    0  0.29437379851E+02 -0.98118537160E+01 -0.90894997619E+01  0.32333431801E+02  0.51100000000E-03 0. -1.
        -11    1    3    3    0    0  0.37956377362E+01  0.95227071813E+01  0.15927985923E+01  0.10374286747E+02  0.51100000000E-03 0.  1.
         12    1    3    3    0    0  0.61430665493E+01  0.45298359790E+01 -0.17069077999E+01  0.78211389748E+01  0.00000000000E+00 0. -1.
</event>
<event>
 7    1  0.1098446E-012  0.5052886E+02  0.7816164E-02  0.1300439E+00
        -11   -1    0    0    0    0  0.00000000000E+00  0.00000000000E+00  0.45593999997E+02  0.45594000000E+02  0.51100000000E-03 0.  1.
         11   -1    0    0    0    0 -0.00000000000E+00 -0.00000000000E+00 -0.45593999997E+02  0.45594000000E+02  0.51100000000E-03 0. -1.
    9900012    2    1    2    0    0  0.10329373466E+02 -0.30808685515E+02 -0.24439610900E+02  0.50528860310E+02  0.30000001398E+02 0.  0.
        -12    1    1    2    0    0 -0.10329373466E+02  0.30808685515E+02  0.24439610900E+02  0.40659139690E+02  0.00000000000E+00 0.  1.
         11    1    3    3    0    0  0.42956316975E+01  0.52306068110E-01 -0.77246143474E+01  0.88388265444E+01  0.51100000000E-03 0. -1.
        -11    1    3    3    0    0  0.25671945746E+01 -0.27286558689E+02 -0.21462097115E+02  0.34810463742E+02  0.51100000000E-03 0.  1.
        -12    1    3    3    0    0  0.34665471940E+01 -0.35744328942E+01  0.47471005620E+01  0.68795700235E+01  0.00000000000E+00 0.  1.
</event>
<event>
 7    1  0.1098446E-012  0.5052886E+02  0.7816164E-02  0.1300439E+00
        -11   -1    0    0    0    0  0.00000000000E+00  0.00000000000E+00  0.45593999997E+02  0.45594000000E+02  0.51100000000E-03 0. -1.
         11   -1    0    0    0    0 -0.00000000000E+00 -0.00000000000E+00 -0.45593999997E+02  0.45594000000E+02  0.51100000000E-03 0.  1.
    9900012    2    1    2    0    0  0.31428496334E+02 -0.25649865090E+02  0.27385377900E+01  0.50528861419E+02  0.30000004768E+02 0.  0.
        -12    1    1    2    0    0 -0.31428496334E+02  0.25649865090E+02 -0.27385377900E+01  0.40659138581E+02  0.00000000000E+00 0.  1.
         11    1    3    3    0    0  0.25214723028E+02 -0.24230570896E+02  0.49313747196E+01  0.35316020164E+02  0.51100000000E-03 0. -1.
        -11    1    3    3    0    0  0.43437678045E+01 -0.18255731780E+01 -0.78972176345E+01  0.91960362546E+01  0.51100000000E-03 0.  1.
         12    1    3    3    0    0  0.18700055011E+01  0.40627898348E+00  0.57043807049E+01  0.60168050005E+01  0.00000000000E+00 0. -1.
</event>
<event>
 7    1  0.1098446E-012  0.5052887E+02  0.7816164E-02  0.1300439E+00
        -11   -1    0    0    0    0  0.00000000000E+00  0.00000000000E+00  0.45593999997E+02  0.45594000000E+02  0.51100000000E-03 0.  1.
         11   -1    0    0    0    0 -0.00000000000E+00 -0.00000000000E+00 -0.45593999997E+02  0.45594000000E+02  0.51100000000E-03 0. -1.
    9900012    2    1    2    0    0 -0.36339941828E+02 -0.18236255570E+02  0.11244185063E+00  0.50528867785E+02  0.30000024119E+02 0.  0.
        -12    1    1    2    0    0  0.36339941828E+02  0.18236255570E+02 -0.11244185063E+00  0.40659132215E+02  0.00000000000E+00 0.  1.
         11    1    3    3    0    0 -0.32731711893E+01 -0.50878872896E+01 -0.10338965216E+02  0.11978916842E+02  0.51100000000E-03 0.  1.
        -11    1    3    3    0    0 -0.23622428455E+02 -0.77843959231E+01  0.23158464995E+01  0.24979573481E+02  0.51100000000E-03 0. -1.
        -12    1    3    3    0    0 -0.94443421837E+01 -0.53639723577E+01  0.81355605670E+01  0.13570377463E+02  0.00000000000E+00 0.  1.
</event>
<event>
 7    1  0.1098446E-012  0.5052886E+02  0.7816164E-02  0.1300439E+00
        -11   -1    0    0    0    0  0.00000000000E+00  0.00000000000E+00  0.45593999997E+02  0.45594000000E+02  0.51100000000E-03 0. -1.
         11   -1    0    0    0    0 -0.00000000000E+00 -0.00000000000E+00 -0.45593999997E+02  0.45594000000E+02  0.51100000000E-03 0.  1.
    9900012    2    1    2    0    0 -0.25065092706E+02 -0.31820811001E+02 -0.35132334698E+01  0.50528859644E+02  0.29999999372E+02 0.  0.
        -12    1    1    2    0    0  0.25065092706E+02  0.31820811001E+02  0.35132334698E+01  0.40659140356E+02  0.00000000000E+00 0.  1.
         11    1    3    3    0    0 -0.61226937612E+01 -0.79177119767E+01 -0.47624519527E+01  0.11084154939E+02  0.51100000000E-03 0. -1.
        -11    1    3    3    0    0 -0.45296062234E+01  0.52269213259E+01 -0.80054673642E-01  0.69169681290E+01  0.51100000000E-03 0.  1.
        -12    1    3    3    0    0 -0.14412792722E+02 -0.29130020350E+02  0.13292731565E+01  0.32527736576E+02  0.00000000000E+00 0.  1.
</event>
<event>
 7    1  0.1098446E-012  0.5052886E+02  0.7816164E-02  0.1300439E+00
        -11   -1    0    0    0    0  0.00000000000E+00  0.00000000000E+00  0.45593999997E+02  0.45594000000E+02  0.51100000000E-03 0.  1.
         11   -1    0    0    0    0 -0.00000000000E+00 -0.00000000000E+00 -0.45593999997E+02  0.45594000000E+02  0.51100000000E-03 0. -1.
    9900012    2    1    2    0    0  0.38820235963E+02 -0.25986771691E+01 -0.11806862312E+02  0.50528857843E+02  0.29999993900E+02 0.  0.
        -12    1    1    2    0    0 -0.38820235963E+02  0.25986771691E+01  0.11806862312E+02  0.40659142157E+02  0.00000000000E+00 0.  1.
         11    1    3    3    0    0  0.61876454549E+01  0.26882909306E+00 -0.72354364561E+01  0.95242199853E+01  0.51100000000E-03 0. -1.
        -11    1    3    3    0    0  0.29213528102E+02 -0.72670295211E+00  0.58742089229E+01  0.29807124183E+02  0.51100000000E-03 0.  1.
        -12    1    3    3    0    0  0.34190624064E+01 -0.21408033100E+01 -0.10445634779E+02  0.11197513674E+02  0.00000000000E+00 0.  1.
</event>
<event>
 7    1  0.1098446E-012  0.5052886E+02  0.7816164E-02  0.1300439E+00
        -11   -1    0    0    0    0  0.00000000000E+00  0.00000000000E+00  0.45593999997E+02  0.45594000000E+02  0.51100000000E-03 0.  1.
         11   -1    0    0    0    0 -0.00000000000E+00 -0.00000000000E+00 -0.45593999997E+02  0.45594000000E+02  0.51100000000E-03 0. -1.
    9900012    2    1    2    0    0  0.37796915330E+02  0.14313304708E+02  0.44371205985E+01  0.50528861553E+02  0.30000005175E+02 0.  0.
        -12    1    1    2    0    0 -0.37796915330E+02 -0.14313304708E+02 -0.44371205985E+01  0.40659138447E+02  0.00000000000E+00 0.  1.
         11    1    3    3    0    0  0.21523739149E+02  0.34492631288E+01  0.25736811850E+01  0.21949774445E+02  0.51100000000E-03 0. -1.
        -11    1    3    3    0    0 -0.19037617662E+01 -0.17073351504E+01 -0.48486119221E+01  0.54816366179E+01  0.51100000000E-03 0.  1.
         12    1    3    3    0    0  0.18176937946E+02  0.12571376729E+02  0.67120513357E+01  0.23097450489E+02  0.00000000000E+00 0. -1.
</event>
<event>
 7    1  0.1098446E-012  0.5052887E+02  0.7816164E-02  0.1300439E+00
        -11   -1    0    0    0    0  0.00000000000E+00  0.00000000000E+00  0.45593999997E+02  0.45594000000E+02  0.51100000000E-03 0. -1.
         11   -1    0    0    0    0 -0.00000000000E+00 -0.00000000000E+00 -0.45593999997E+02  0.45594000000E+02  0.51100000000E-03 0.  1.
    9900012    2    1    2    0    0  0.23233747838E+02  0.15027281849E+02  0.29791593017E+02  0.50528865075E+02  0.30000015883E+02 0.  0.
        -12    1    1    2    0    0 -0.23233747838E+02 -0.15027281849E+02 -0.29791593017E+02  0.40659134925E+02  0.00000000000E+00 0.  1.
         11    1    3    3    0    0  0.94263202717E+01 -0.73819370918E+01  0.90694912180E+01  0.15020125842E+02  0.51100000000E-03 0. -1.
        -11    1    3    3    0    0  0.55160773470E+00  0.87649415720E+01  0.24171496992E+01  0.91088465122E+01  0.51100000000E-03 0.  1.
         12    1    3    3    0    0  0.13255819832E+02  0.13644277369E+02  0.18304952100E+02  0.26399892721E+02  0.00000000000E+00 0. -1.
</event>
<event>
 7    1  0.1098446E-012  0.5052886E+02  0.7816164E-02  0.1300439E+00
        -11   -1    0    0    0    0  0.00000000000E+00  0.00000000000E+00  0.45593999997E+02  0.45594000000E+02  0.51100000000E-03 0.  1.
         11   -1    0    0    0    0 -0.00000000000E+00 -0.00000000000E+00 -0.45593999997E+02  0.45594000000E+02  0.51100000000E-03 0. -1.
    9900012    2    1    2    0    0  0.18132920706E+01  0.17533695313E+02 -0.36639420166E+02  0.50528860688E+02  0.30000002549E+02 0.  0.
        -12    1    1    2    0    0 -0.18132920706E+01 -0.17533695313E+02  0.36639420166E+02  0.40659139312E+02  0.00000000000E+00 0.  1.
         11    1    3    3    0    0  0.72859011509E+01  0.21926845373E+02 -0.17088368256E+02  0.28738184242E+02  0.51100000000E-03 0. -1.
        -11    1    3    3    0    0  0.21942248793E+00 -0.30672555816E+01 -0.32529678058E+01  0.44763827850E+01  0.51100000000E-03 0.  1.
         12    1    3    3    0    0 -0.56920315682E+01 -0.13258944790E+01 -0.16298084104E+02  0.17314293661E+02  0.00000000000E+00 0. -1.
</event>
<event>
 7    1  0.1098446E-012  0.5052885E+02  0.7816164E-02  0.1300439E+00
        -11   -1    0    0    0    0  0.00000000000E+00  0.00000000000E+00  0.45593999997E+02  0.45594000000E+02  0.51100000000E-03 0. -1.
         11   -1    0    0    0    0 -0.00000000000E+00 -0.00000000000E+00 -0.45593999997E+02  0.45594000000E+02  0.51100000000E-03 0.  1.
    9900012    2    1    2    0    0 -0.34615668634E+02 -0.19011616470E+02 -0.96685445460E+01  0.50528845688E+02  0.29999956952E+02 0.  0.
        -12    1    1    2    0    0  0.34615668634E+02  0.19011616470E+02  0.96685445460E+01  0.40659154312E+02  0.00000000000E+00 0.  1.
         11    1    3    3    0    0 -0.19940812282E+02  0.43211951739E+01 -0.17603415548E+01  0.20479441517E+02  0.51100000000E-03 0. -1.
        -11    1    3    3    0    0 -0.99816301819E+01 -0.19701240606E+02 -0.92844173933E+01  0.23957717527E+02  0.51100000000E-03 0.  1.
        -12    1    3    3    0    0 -0.46932261696E+01 -0.36315710380E+01  0.13762144020E+01  0.60916866435E+01  0.00000000000E+00 0.  1.
</event>
<event>
 7    1  0.1098446E-012  0.5052884E+02  0.7816164E-02  0.1300439E+00
        -11   -1    0    0    0    0  0.00000000000E+00  0.00000000000E+00  0.45593999997E+02  0.45594000000E+02  0.51100000000E-03 0. -1.
         11   -1    0    0    0    0 -0.00000000000E+00 -0.00000000000E+00 -0.45593999997E+02  0.45594000000E+02  0.51100000000E-03 0.  1.
    9900012    2    1    2    0    0  0.10997792658E+02  0.72719451890E+01  0.38462123833E+02  0.50528836212E+02  0.29999928151E+02 0.  0.
        -12    1    1    2    0    0 -0.10997792658E+02 -0.72719451890E+01 -0.38462123833E+02  0.40659163788E+02  0.00000000000E+00 0.  1.
         11    1    3    3    0    0 -0.47037432491E+01  0.10678086993E+02  0.59030981817E+01  0.13076441059E+02  0.51100000000E-03 0. -1.
        -11    1    3    3    0    0  0.35906658545E+01  0.36989653159E+00  0.16990947529E+02  0.17370146888E+02  0.51100000000E-03 0.  1.
         12    1    3    3    0    0  0.12110870053E+02 -0.37760383354E+01  0.15568078122E+02  0.20082248265E+02  0.00000000000E+00 0. -1.
</event>
<event>
 7    1  0.1098446E-012  0.5052886E+02  0.7816164E-02  0.1300439E+00
        -11   -1    0    0    0    0  0.00000000000E+00  0.00000000000E+00  0.45593999997E+02  0.45594000000E+02  0.51100000000E-03 0. -1.
         11   -1    0    0    0    0 -0.00000000000E+00 -0.00000000000E+00 -0.45593999997E+02  0.45594000000E+02  0.51100000000E-03 0.  1.
    9900012    2    1    2    0    0 -0.27584974159E+02 -0.13635836142E+02  0.26576280169E+02  0.50528862106E+02  0.30000006858E+02 0.  0.
        -12    1    1    2    0    0  0.27584974159E+02  0.13635836142E+02 -0.26576280169E+02  0.40659137894E+02  0.00000000000E+00 0.  1.
         11    1    3    3    0    0 -0.16544263556E+01 -0.71953142939E+01  0.13818150140E+02  0.15666874222E+02  0.51100000000E-03 0. -1.
        -11    1    3    3    0    0 -0.12621452445E+02 -0.10569524072E+02  0.77085303626E+00  0.16480598156E+02  0.51100000000E-03 0.  1.
         12    1    3    3    0    0 -0.13309095358E+02  0.41290022236E+01  0.11987276993E+02  0.18381389728E+02  0.00000000000E+00 0. -1.
</event>
<event>
 7    1  0.1098446E-012  0.5052885E+02  0.7816164E-02  0.1300439E+00
        -11   -1    0    0    0    0  0.00000000000E+00  0.00000000000E+00  0.45593999997E+02  0.45594000000E+02  0.51100000000E-03 0. -1.
         11   -1    0    0    0    0 -0.00000000000E+00 -0.00000000000E+00 -0.45593999997E+02  0.45594000000E+02  0.51100000000E-03 0.  1.
    9900012    2    1    2    0    0 -0.13995051709E+02 -0.33060002862E+02 -0.19087725333E+02  0.50528849493E+02  0.29999968519E+02 0.  0.
        -12    1    1    2    0    0  0.13995051709E+02  0.33060002862E+02  0.19087725333E+02  0.40659150507E+02  0.00000000000E+00 0.  1.
         11    1    3    3    0    0  0.38999187190E+01 -0.17429087433E+02 -0.37286091799E+01  0.18245135829E+02  0.51100000000E-03 0. -1.
        -11    1    3    3    0    0 -0.17267004134E+02 -0.67227148289E+01 -0.14058700224E+02  0.23259221368E+02  0.51100000000E-03 0.  1.
        -12    1    3    3    0    0 -0.62796629434E+00 -0.89082006000E+01 -0.13004159297E+01  0.90244922952E+01  0.00000000000E+00 0.  1.
</event>
<event>
 7    1  0.1098446E-012  0.5052886E+02  0.7816164E-02  0.1300439E+00
        -11   -1    0    0    0    0  0.00000000000E+00  0.00000000000E+00  0.45593999997E+02  0.45594000000E+02  0.51100000000E-03 0.  1.
         11   -1    0    0    0    0 -0.00000000000E+00 -0.00000000000E+00 -0.45593999997E+02  0.45594000000E+02  0.51100000000E-03 0. -1.
    9900012    2    1    2    0    0 -0.33634553586E+02  0.20717737087E+01 -0.22750617738E+02  0.50528855288E+02  0.29999986135E+02 0.  0.
        -12    1    1    2    0    0  0.33634553586E+02 -0.20717737087E+01  0.22750617738E+02  0.40659144712E+02  0.00000000000E+00 0.  1.
         11    1    3    3    0    0 -0.68303569410E+00  0.25389688016E+01 -0.11622094436E+02  0.11915786994E+02  0.51100000000E-03 0. -1.
        -11    1    3    3    0    0 -0.16285541462E+02 -0.42075781550E+01  0.21784689110E+01  0.16960787178E+02  0.51100000000E-03 0.  1.
         12    1    3    3    0    0 -0.16665976430E+02  0.37403830621E+01 -0.13306992213E+02  0.21652281117E+02  0.00000000000E+00 0. -1.
</event>
<event>
 7    1  0.1098446E-012  0.5052886E+02  0.7816164E-02  0.1300439E+00
        -11   -1    0    0    0    0  0.00000000000E+00  0.00000000000E+00  0.45593999997E+02  0.45594000000E+02  0.51100000000E-03 0.  1.
         11   -1    0    0    0    0 -0.00000000000E+00 -0.00000000000E+00 -0.45593999997E+02  0.45594000000E+02  0.51100000000E-03 0. -1.
    9900012    2    1    2    0    0  0.23390080097E+02 -0.15803952938E+02 -0.29262687000E+02  0.50528860487E+02  0.30000001937E+02 0.  0.
        -12    1    1    2    0    0 -0.23390080097E+02  0.15803952938E+02  0.29262687000E+02  0.40659139513E+02  0.00000000000E+00 0.  1.
         11    1    3    3    0    0  0.21392840896E+02 -0.66079790113E+01 -0.22695486500E+02  0.31881093707E+02  0.51100000000E-03 0. -1.
        -11    1    3    3    0    0 -0.63438423291E+01 -0.34301052953E+01 -0.17467455007E+01  0.74203152183E+01  0.51100000000E-03 0.  1.
        -12    1    3    3    0    0  0.83410815304E+01 -0.57658686314E+01 -0.48204550001E+01  0.11227451562E+02  0.00000000000E+00 0.  1.
</event>
<event>
 7    1  0.1098446E-012  0.5052886E+02  0.7816164E-02  0.1300439E+00
        -11   -1    0    0    0    0  0.00000000000E+00  0.00000000000E+00  0.45593999997E+02  0.45594000000E+02  0.51100000000E-03 0.  1.
         11   -1    0    0    0    0 -0.00000000000E+00 -0.00000000000E+00 -0.45593999997E+02  0.45594000000E+02  0.51100000000E-03 0. -1.
    9900012    2    1    2    0    0 -0.14872347926E+02  0.17333715024E+02 -0.33638092428E+02  0.50528859926E+02  0.30000000230E+02 0.  0.
        -12    1    1    2    0    0  0.14872347926E+02 -0.17333715024E+02  0.33638092428E+02  0.40659140074E+02  0.00000000000E+00 0.  1.
         11    1    3    3    0    0 -0.15444822356E+02  0.15424784131E+02 -0.28439027150E+02  0.35850310579E+02  0.51100000000E-03 0. -1.
        -11    1    3    3    0    0  0.20508165325E+01 -0.42179334849E+01 -0.67201047950E+01  0.81949142797E+01  0.51100000000E-03 0.  1.
         12    1    3    3    0    0 -0.14783421024E+01  0.61268643777E+01  0.15210395167E+01  0.64836350673E+01  0.00000000000E+00 0. -1.
</event>
<event>
 7    1  0.1098446E-012  0.5052887E+02  0.7816164E-02  0.1300439E+00
        -11   -1    0    0    0    0  0.00000000000E+00  0.00000000000E+00  0.45593999997E+02  0.45594000000E+02  0.51100000000E-03 0.  1.
         11   -1    0    0    0    0 -0.00000000000E+00 -0.00000000000E+00 -0.45593999997E+02  0.45594000000E+02  0.51100000000E-03 0. -1.
    9900012    2    1    2    0    0 -0.26532915205E+02 -0.22488507857E+02 -0.21057924556E+02  0.50528871117E+02  0.30000034248E+02 0.  0.
        -12    1    1    2    0    0  0.26532915205E+02  0.22488507857E+02  0.21057924556E+02  0.40659128883E+02  0.00000000000E+00 0.  1.
         11    1    3    3    0    0  0.18414275448E+01 -0.69234396782E+01 -0.19529991637E+01  0.74255692291E+01  0.51100000000E-03 0. -1.
        -11    1    3    3    0    0 -0.26552999420E+02 -0.15810378969E+02 -0.81020137304E+01  0.31947965320E+02  0.51100000000E-03 0.  1.
        -12    1    3    3    0    0 -0.18213433294E+01  0.24531079025E+00 -0.11002911662E+02  0.11155336568E+02  0.00000000000E+00 0.  1.
</event>
<event>
 7    1  0.1098446E-012  0.5052891E+02  0.7816164E-02  0.1300439E+00
        -11   -1    0    0    0    0  0.00000000000E+00  0.00000000000E+00  0.45593999997E+02  0.45594000000E+02  0.51100000000E-03 0. -1.
         11   -1    0    0    0    0 -0.00000000000E+00 -0.00000000000E+00 -0.45593999997E+02  0.45594000000E+02  0.51100000000E-03 0.  1.
    9900012    2    1    2    0    0 -0.16916276045E+02  0.36653610313E+02 -0.48491434274E+01  0.50528908321E+02  0.30000147331E+02 0.  0.
        -12    1    1    2    0    0  0.16916276045E+02 -0.36653610313E+02  0.48491434274E+01  0.40659091679E+02  0.00000000000E+00 0.  1.
         11    1    3    3    0    0 -0.67419466049E+01  0.31301983060E+02 -0.49030714954E+01  0.32393025451E+02  0.51100000000E-03 0. -1.
        -11    1    3    3    0    0  0.91340953383E+00 -0.36978975125E+01  0.31013427010E+00  0.38216418613E+01  0.51100000000E-03 0.  1.
        -12    1    3    3    0    0 -0.11087738974E+02  0.90495247659E+01 -0.25620620214E+00  0.14314241009E+02  0.00000000000E+00 0.  1.
</event>
<event>
 7    1  0.1098446E-012  0.5052886E+02  0.7816164E-02  0.1300439E+00
        -11   -1    0    0    0    0  0.00000000000E+00  0.00000000000E+00  0.45593999997E+02  0.45594000000E+02  0.51100000000E-03 0.  1.
         11   -1    0    0    0    0 -0.00000000000E+00 -0.00000000000E+00 -0.45593999997E+02  0.45594000000E+02  0.51100000000E-03 0. -1.
    9900012    2    1    2    0    0 -0.28552777937E+02  0.11279357095E+02 -0.26658591916E+02  0.50528861453E+02  0.30000004873E+02 0.  0.
        -12    1    1    2    0    0  0.28552777937E+02 -0.11279357095E+02  0.26658591916E+02  0.40659138547E+02  0.00000000000E+00 0.  1.
         11    1    3    3    0    0 -0.13042716901E+02  0.10970779554E+02 -0.16683285505E+02  0.23849580368E+02  0.51100000000E-03 0. -1.
        -11    1    3    3    0    0 -0.52007700495E+01 -0.64673980415E+01 -0.11571284211E+02  0.14239728406E+02  0.51100000000E-03 0.  1.
        -12    1    3    3    0    0 -0.10309290986E+02  0.67759755818E+01  0.15959777997E+01  0.12439552679E+02  0.00000000000E+00 0.  1.
</event>
<event>
 7    1  0.1098446E-012  0.5052886E+02  0.7816164E-02  0.1300439E+00
        -11   -1    0    0    0    0  0.00000000000E+00  0.00000000000E+00  0.45593999997E+02  0.45594000000E+02  0.51100000000E-03 0.  1.
         11   -1    0    0    0    0 -0.00000000000E+00 -0.00000000000E+00 -0.45593999997E+02  0.45594000000E+02  0.51100000000E-03 0. -1.
    9900012    2    1    2    0    0 -0.20601043803E+02 -0.67658993367E+01 -0.34394549444E+02  0.50528862883E+02  0.30000009220E+02 0.  0.
        -12    1    1    2    0    0  0.20601043803E+02  0.67658993367E+01  0.34394549444E+02  0.40659137117E+02  0.00000000000E+00 0.  1.
         11    1    3    3    0    0 -0.95412222278E+01 -0.79747766531E+01 -0.95465019460E+01  0.15676979426E+02  0.51100000000E-03 0. -1.
        -11    1    3    3    0    0 -0.44692889294E+00  0.37075472596E+01  0.30993399575E+01  0.48529950084E+01  0.51100000000E-03 0.  1.
        -12    1    3    3    0    0 -0.10612892683E+02 -0.24986699433E+01 -0.27947387455E+02  0.29998888449E+02  0.00000000000E+00 0.  1.
</event>
<event>
 7    1  0.1098446E-012  0.5052885E+02  0.7816164E-02  0.1300439E+00
        -11   -1    0    0    0    0  0.00000000000E+00  0.00000000000E+00  0.45593999997E+02  0.45594000000E+02  0.51100000000E-03 0.  1.
         11   -1    0    0    0    0 -0.00000000000E+00 -0.00000000000E+00 -0.45593999997E+02  0.45594000000E+02  0.51100000000E-03 0. -1.
    9900012    2    1    2    0    0  0.21884697321E+02  0.15179582108E+02 -0.30721433840E+02  0.50528853587E+02  0.29999980964E+02 0.  0.
        -12    1    1    2    0    0 -0.21884697321E+02 -0.15179582108E+02  0.30721433840E+02  0.40659146413E+02  0.00000000000E+00 0.  1.
         11    1    3    3    0    0  0.94472741043E+01  0.19935166347E+02 -0.19524774721E+02  0.29459780608E+02  0.51100000000E-03 0. -1.
        -11    1    3    3    0    0  0.33704404880E+01 -0.75637006237E+01 -0.42564233412E+01  0.93105626108E+01  0.51100000000E-03 0.  1.
         12    1    3    3    0    0  0.90669827292E+01  0.28081163844E+01 -0.69402357775E+01  0.11758510369E+02  0.00000000000E+00 0. -1.
</event>
<event>
 7    1  0.1098446E-012  0.5052890E+02  0.7816164E-02  0.1300439E+00
        -11   -1    0    0    0    0  0.00000000000E+00  0.00000000000E+00  0.45593999997E+02  0.45594000000E+02  0.51100000000E-03 0.  1.
         11   -1    0    0    0    0 -0.00000000000E+00 -0.00000000000E+00 -0.45593999997E+02  0.45594000000E+02  0.51100000000E-03 0. -1.
    9900012    2    1    2    0    0 -0.32867181976E+01  0.16261243703E+02 -0.37120509361E+02  0.50528895503E+02  0.30000108370E+02 0.  0.
        -12    1    1    2    0    0  0.32867181976E+01 -0.16261243703E+02  0.37120509361E+02  0.40659104497E+02  0.00000000000E+00 0.  1.
         11    1    3    3    0    0  0.48432540666E+01 -0.79322719238E+00 -0.37070426508E+01  0.61504865505E+01  0.51100000000E-03 0. -1.
        -11    1    3    3    0    0 -0.15795944691E+02  0.12293910450E+02 -0.25145974182E+02  0.32139883645E+02  0.51100000000E-03 0.  1.
        -12    1    3    3    0    0  0.76659724272E+01  0.47605604456E+01 -0.82674925278E+01  0.12238525308E+02  0.00000000000E+00 0.  1.
</event>
<event>
 7    1  0.1098446E-012  0.5052886E+02  0.7816164E-02  0.1300439E+00
        -11   -1    0    0    0    0  0.00000000000E+00  0.00000000000E+00  0.45593999997E+02  0.45594000000E+02  0.51100000000E-03 0.  1.
         11   -1    0    0    0    0 -0.00000000000E+00 -0.00000000000E+00 -0.45593999997E+02  0.45594000000E+02  0.51100000000E-03 0. -1.
    9900012    2    1    2    0    0  0.21492173548E+02 -0.31517275322E+02 -0.14068186068E+02  0.50528855558E+02  0.29999986953E+02 0.  0.
        -12    1    1    2    0    0 -0.21492173548E+02  0.31517275322E+02  0.14068186068E+02  0.40659144442E+02  0.00000000000E+00 0.  1.
         11    1    3    3    0    0  0.18733839041E+02 -0.81952140273E+01 -0.46516423567E+01  0.20970360871E+02  0.51100000000E-03 0. -1.
        -11    1    3    3    0    0  0.54243964552E+01 -0.24503868886E+02 -0.82625537977E+01  0.26422215328E+02  0.51100000000E-03 0.  1.
         12    1    3    3    0    0 -0.26660619483E+01  0.11818075919E+01 -0.11539899138E+01  0.31362793590E+01  0.00000000000E+00 0. -1.
</event>
<event>
 7    1  0.1098446E-012  0.5052886E+02  0.7816164E-02  0.1300439E+00
        -11   -1    0    0    0    0  0.00000000000E+00  0.00000000000E+00  0.45593999997E+02  0.45594000000E+02  0.51100000000E-03 0.  1.
         11   -1    0    0    0    0 -0.00000000000E+00 -0.00000000000E+00 -0.45593999997E+02  0.45594000000E+02  0.51100000000E-03 0. -1.
    9900012    2    1    2    0    0 -0.29341224490E+02 -0.25897274283E+01 -0.28027694835E+02  0.50528858095E+02  0.29999994665E+02 0.  0.
        -12    1    1    2    0    0  0.29341224490E+02  0.25897274283E+01  0.28027694835E+02  0.40659141905E+02  0.00000000000E+00 0.  1.
         11    1    3    3    0    0 -0.14483266504E+02  0.64169289087E+01  0.68411219299E+00  0.15855913565E+02  0.51100000000E-03 0. -1.
        -11    1    3    3    0    0 -0.82590490874E+01 -0.21632078161E+01 -0.20130008077E+02  0.21865694257E+02  0.51100000000E-03 0.  1.
        -12    1    3    3    0    0 -0.65989088989E+01 -0.68434485208E+01 -0.85817989502E+01  0.12807250272E+02  0.00000000000E+00 0.  1.
</event>
<event>
 7    1  0.1098446E-012  0.5052886E+02  0.7816164E-02  0.1300439E+00
        -11   -1    0    0    0    0  0.00000000000E+00  0.00000000000E+00  0.45593999997E+02  0.45594000000E+02  0.51100000000E-03 0.  1.
         11   -1    0    0    0    0 -0.00000000000E+00 -0.00000000000E+00 -0.45593999997E+02  0.45594000000E+02  0.51100000000E-03 0. -1.
    9900012    2    1    2    0    0 -0.11479878468E+02 -0.38967016507E+02  0.17174918300E+01  0.50528858798E+02  0.29999996803E+02 0.  0.
        -12    1    1    2    0    0  0.11479878468E+02  0.38967016507E+02 -0.17174918300E+01  0.40659141202E+02  0.00000000000E+00 0.  1.
         11    1    3    3    0    0 -0.84933230882E+01 -0.39863482448E+02  0.12854165068E+00  0.40758438307E+02  0.51100000000E-03 0. -1.
        -11    1    3    3    0    0  0.13187921781E+01  0.22878600204E+01  0.38842627278E+01  0.46969153156E+01  0.51100000000E-03 0.  1.
         12    1    3    3    0    0 -0.43053475577E+01 -0.13913940790E+01 -0.22953125485E+01  0.50735051760E+01  0.00000000000E+00 0. -1.
</event>
<event>
 7    1  0.1098446E-012  0.5052887E+02  0.7816164E-02  0.1300439E+00
        -11   -1    0    0    0    0  0.00000000000E+00  0.00000000000E+00  0.45593999997E+02  0.45594000000E+02  0.51100000000E-03 0.  1.
         11   -1    0    0    0    0 -0.00000000000E+00 -0.00000000000E+00 -0.45593999997E+02  0.45594000000E+02  0.51100000000E-03 0. -1.
    9900012    2    1    2    0    0  0.21225424471E+02 -0.38142457297E+01 -0.34468798960E+02  0.50528865526E+02  0.30000017252E+02 0.  0.
        -12    1    1    2    0    0 -0.21225424471E+02  0.38142457297E+01  0.34468798960E+02  0.40659134474E+02  0.00000000000E+00 0.  1.
         11    1    3    3    0    0  0.29696366635E+01  0.59839219411E+01 -0.22301270409E+01  0.70426934187E+01  0.51100000000E-03 0. -1.
        -11    1    3    3    0    0  0.11883598981E+02 -0.11293845248E+02 -0.33048021111E+02  0.36890955054E+02  0.51100000000E-03 0.  1.
        -12    1    3    3    0    0  0.63721888269E+01  0.14956775768E+01  0.80934919207E+00  0.65952170528E+01  0.00000000000E+00 0.  1.
</event>
<event>
 7    1  0.1098446E-012  0.5052886E+02  0.7816164E-02  0.1300439E+00
        -11   -1    0    0    0    0  0.00000000000E+00  0.00000000000E+00  0.45593999997E+02  0.45594000000E+02  0.51100000000E-03 0.  1.
         11   -1    0    0    0    0 -0.00000000000E+00 -0.00000000000E+00 -0.45593999997E+02  0.45594000000E+02  0.51100000000E-03 0. -1.
    9900012    2    1    2    0    0  0.33285759461E+02  0.12126633782E+02 -0.19954172828E+02  0.50528855358E+02  0.29999986346E+02 0.  0.
        -12    1    1    2    0    0 -0.33285759461E+02 -0.12126633782E+02  0.19954172828E+02  0.40659144642E+02  0.00000000000E+00 0.  1.
         11    1    3    3    0    0  0.50672570736E+01  0.43876299562E+01 -0.14077312370E+02  0.15591636050E+02  0.51100000000E-03 0. -1.
        -11    1    3    3    0    0  0.13145348863E+02  0.86692137636E+01  0.47774140471E+01  0.16455368402E+02  0.51100000000E-03 0.  1.
        -12    1    3    3    0    0  0.15073153524E+02 -0.93020993734E+00 -0.10654274505E+02  0.18481850906E+02  0.00000000000E+00 0.  1.
</event>
<event>
 7    1  0.1098446E-012  0.5052886E+02  0.7816164E-02  0.1300439E+00
        -11   -1    0    0    0    0  0.00000000000E+00  0.00000000000E+00  0.45593999997E+02  0.45594000000E+02  0.51100000000E-03 0. -1.
         11   -1    0    0    0    0 -0.00000000000E+00 -0.00000000000E+00 -0.45593999997E+02  0.45594000000E+02  0.51100000000E-03 0.  1.
    9900012    2    1    2    0    0  0.82209850845E+01  0.11249790709E+02  0.38197162395E+02  0.50528860784E+02  0.30000002838E+02 0.  0.
        -12    1    1    2    0    0 -0.82209850845E+01 -0.11249790709E+02 -0.38197162395E+02  0.40659139216E+02  0.00000000000E+00 0.  1.
         11    1    3    3    0    0  0.97482284662E+01  0.93538558311E+00  0.14634615681E+02  0.17608943205E+02  0.51100000000E-03 0. -1.
        -11    1    3    3    0    0 -0.76356433860E+01  0.13265808519E+02  0.20211679623E+02  0.25353436040E+02  0.51100000000E-03 0.  1.
         12    1    3    3    0    0  0.61084000043E+01 -0.29514033932E+01  0.33508670912E+01  0.75664815380E+01  0.00000000000E+00 0. -1.
</event>
<event>
 7    1  0.1098446E-012  0.5052886E+02  0.7816164E-02  0.1300439E+00
        -11   -1    0    0    0    0  0.00000000000E+00  0.00000000000E+00  0.45593999997E+02  0.45594000000E+02  0.51100000000E-03 0.  1.
         11   -1    0    0    0    0 -0.00000000000E+00 -0.00000000000E+00 -0.45593999997E+02  0.45594000000E+02  0.51100000000E-03 0. -1.
    9900012    2    1    2    0    0 -0.37811477734E+02  0.87092862291E+01 -0.12149326470E+02  0.50528860207E+02  0.30000001086E+02 0.  0.
        -12    1    1    2    0    0  0.37811477734E+02 -0.87092862291E+01  0.12149326470E+02  0.40659139793E+02  0.00000000000E+00 0.  1.
         11    1    3    3    0    0  0.11641560359E+01 -0.26137386936E+01 -0.21626609982E+01  0.35866407805E+01  0.51100000000E-03 0.  1.
        -11    1    3    3    0    0 -0.40060942496E+02  0.13469068063E+02 -0.65822423148E+01  0.42774067171E+02  0.51100000000E-03 0. -1.
         12    1    3    3    0    0  0.10853087267E+01 -0.21460431407E+01 -0.34044231572E+01  0.41681522557E+01  0.00000000000E+00 0. -1.
</event>
<event>
 7    1  0.1098446E-012  0.5052887E+02  0.7816164E-02  0.1300439E+00
        -11   -1    0    0    0    0  0.00000000000E+00  0.00000000000E+00  0.45593999997E+02  0.45594000000E+02  0.51100000000E-03 0. -1.
         11   -1    0    0    0    0 -0.00000000000E+00 -0.00000000000E+00 -0.45593999997E+02  0.45594000000E+02  0.51100000000E-03 0.  1.
    9900012    2    1    2    0    0 -0.17484107843E+02 -0.33958651509E+02  0.13938473425E+02  0.50528867190E+02  0.30000022312E+02 0.  0.
        -12    1    1    2    0    0  0.17484107843E+02  0.33958651509E+02 -0.13938473425E+02  0.40659132810E+02  0.00000000000E+00 0.  1.
         11    1    3    3    0    0 -0.42506988820E+01 -0.26390766227E+02  0.68422556903E+00  0.26739654971E+02  0.51100000000E-03 0. -1.
        -11    1    3    3    0    0 -0.64091751131E+01 -0.14274439078E+01 -0.11913531006E+01  0.66734132356E+01  0.51100000000E-03 0.  1.
         12    1    3    3    0    0 -0.68242338483E+01 -0.61404413741E+01  0.14445600956E+02  0.17115798984E+02  0.00000000000E+00 0. -1.
</event>
<event>
 7    1  0.1098446E-012  0.5052886E+02  0.7816164E-02  0.1300439E+00
        -11   -1    0    0    0    0  0.00000000000E+00  0.00000000000E+00  0.45593999997E+02  0.45594000000E+02  0.51100000000E-03 0.  1.
         11   -1    0    0    0    0 -0.00000000000E+00 -0.00000000000E+00 -0.45593999997E+02  0.45594000000E+02  0.51100000000E-03 0. -1.
    9900012    2    1    2    0    0  0.31294445232E+02 -0.25350843252E+02  0.55819144640E+01  0.50528864187E+02  0.30000013182E+02 0.  0.
        -12    1    1    2    0    0 -0.31294445232E+02  0.25350843252E+02 -0.55819144640E+01  0.40659135813E+02  0.00000000000E+00 0.  1.
         11    1    3    3    0    0 -0.17993428280E+01  0.10259720050E+01 -0.61645071041E+01  0.65031839329E+01  0.51100000000E-03 0.  1.
        -11    1    3    3    0    0  0.27212380265E+02 -0.21970835714E+02  0.10869559700E+02  0.36624835699E+02  0.51100000000E-03 0. -1.
        -12    1    3    3    0    0  0.58814077954E+01 -0.44059795435E+01  0.87686186843E+00  0.74008445552E+01  0.00000000000E+00 0.  1.
</event>
<event>
 7    1  0.1098446E-012  0.5052886E+02  0.7816164E-02  0.1300439E+00
        -11   -1    0    0    0    0  0.00000000000E+00  0.00000000000E+00  0.45593999997E+02  0.45594000000E+02  0.51100000000E-03 0. -1.
         11   -1    0    0    0    0 -0.00000000000E+00 -0.00000000000E+00 -0.45593999997E+02  0.45594000000E+02  0.51100000000E-03 0.  1.
    9900012    2    1    2    0    0  0.21986196351E+02  0.57641974540E+01  0.33712710005E+02  0.50528860583E+02  0.30000002228E+02 0.  0.
        -12    1    1    2    0    0 -0.21986196351E+02 -0.57641974540E+01 -0.33712710005E+02  0.40659139417E+02  0.00000000000E+00 0.  1.
         11    1    3    3    0    0  0.74614116368E+01  0.66455598276E+01  0.11334623700E+02  0.15109924676E+02  0.51100000000E-03 0. -1.
        -11    1    3    3    0    0 -0.53866723305E+01  0.22403358882E+01  0.10534326202E+02  0.12041900700E+02  0.51100000000E-03 0.  1.
        -12    1    3    3    0    0  0.19911457044E+02 -0.31216982618E+01  0.11843760103E+02  0.23377035207E+02  0.00000000000E+00 0.  1.
</event>
<event>
 7    1  0.1098446E-012  0.5052885E+02  0.7816164E-02  0.1300439E+00
        -11   -1    0    0    0    0  0.00000000000E+00  0.00000000000E+00  0.45593999997E+02  0.45594000000E+02  0.51100000000E-03 0. -1.
         11   -1    0    0    0    0 -0.00000000000E+00 -0.00000000000E+00 -0.45593999997E+02  0.45594000000E+02  0.51100000000E-03 0.  1.
    9900012    2    1    2    0    0  0.12279864626E+02 -0.37271323121E+02  0.10640481946E+02  0.50528850249E+02  0.29999970818E+02 0.  0.
        -12    1    1    2    0    0 -0.12279864626E+02  0.37271323121E+02 -0.10640481946E+02  0.40659149751E+02  0.00000000000E+00 0.  1.
         11    1    3    3    0    0 -0.53805775001E+01 -0.26709149434E+02  0.11382178826E+02  0.29527669614E+02  0.51100000000E-03 0. -1.
        -11    1    3    3    0    0  0.50734995895E+00  0.38576033558E+00 -0.67520822707E-01  0.64091679645E+00  0.51100000000E-03 0.  1.
         12    1    3    3    0    0  0.17153092167E+02 -0.10947934022E+02 -0.67417605800E+00  0.20360263839E+02  0.00000000000E+00 0. -1.
</event>
<event>
 7    1  0.1098446E-012  0.5052886E+02  0.7816164E-02  0.1300439E+00
        -11   -1    0    0    0    0  0.00000000000E+00  0.00000000000E+00  0.45593999997E+02  0.45594000000E+02  0.51100000000E-03 0. -1.
         11   -1    0    0    0    0 -0.00000000000E+00 -0.00000000000E+00 -0.45593999997E+02  0.45594000000E+02  0.51100000000E-03 0.  1.
    9900012    2    1    2    0    0 -0.18604113759E+02 -0.30969289871E+02  0.18653562343E+02  0.50528863856E+02  0.30000012177E+02 0.  0.
        -12    1    1    2    0    0  0.18604113759E+02  0.30969289871E+02 -0.18653562343E+02  0.40659136144E+02  0.00000000000E+00 0.  1.
         11    1    3    3    0    0 -0.78413140372E+01 -0.23190450382E+02  0.18894687344E+01  0.24553070828E+02  0.51100000000E-03 0. -1.
        -11    1    3    3    0    0 -0.94065841032E+01 -0.88330896249E+00  0.20474207314E+01  0.96672638904E+01  0.51100000000E-03 0.  1.
         12    1    3    3    0    0 -0.13562156187E+01 -0.68955305268E+01  0.14716672877E+02  0.16308529137E+02  0.00000000000E+00 0. -1.
</event>
<event>
 7    1  0.1098446E-012  0.5052886E+02  0.7816164E-02  0.1300439E+00
        -11   -1    0    0    0    0  0.00000000000E+00  0.00000000000E+00  0.45593999997E+02  0.45594000000E+02  0.51100000000E-03 0.  1.
         11   -1    0    0    0    0 -0.00000000000E+00 -0.00000000000E+00 -0.45593999997E+02  0.45594000000E+02  0.51100000000E-03 0. -1.
    9900012    2    1    2    0    0 -0.95954557423E+01 -0.36317962076E+02 -0.15559525146E+02  0.50528856341E+02  0.29999989335E+02 0.  0.
        -12    1    1    2    0    0  0.95954557423E+01  0.36317962076E+02  0.15559525146E+02  0.40659143659E+02  0.00000000000E+00 0.  1.
         11    1    3    3    0    0 -0.41007771367E+01 -0.26476926043E+02 -0.23875608614E+02  0.35887165850E+02  0.51100000000E-03 0. -1.
        -11    1    3    3    0    0 -0.18585488457E+01 -0.72809680089E+01  0.43477513579E+01  0.86815690454E+01  0.51100000000E-03 0.  1.
         12    1    3    3    0    0 -0.36361297598E+01 -0.25600680243E+01  0.39683321096E+01  0.59601214460E+01  0.00000000000E+00 0. -1.
</event>
<event>
 7    1  0.1098446E-012  0.5052888E+02  0.7816164E-02  0.1300439E+00
        -11   -1    0    0    0    0  0.00000000000E+00  0.00000000000E+00  0.45593999997E+02  0.45594000000E+02  0.51100000000E-03 0. -1.
         11   -1    0    0    0    0 -0.00000000000E+00 -0.00000000000E+00 -0.45593999997E+02  0.45594000000E+02  0.51100000000E-03 0.  1.
    9900012    2    1    2    0    0  0.28962509749E+02 -0.14457361502E+02  0.24603284498E+02  0.50528881949E+02  0.30000067173E+02 0.  0.
        -12    1    1    2    0    0 -0.28962509749E+02  0.14457361502E+02 -0.24603284498E+02  0.40659118051E+02  0.00000000000E+00 0.  1.
         11    1    3    3    0    0  0.23844058834E+02  0.19866393459E+01  0.16462946261E+02  0.29043320703E+02  0.51100000000E-03 0.  1.
        -11    1    3    3    0    0  0.55997151575E+01 -0.15129134575E+02  0.10132675415E+02  0.19050423464E+02  0.51100000000E-03 0. -1.
        -12    1    3    3    0    0 -0.48126424264E+00 -0.13148662734E+01 -0.19923371783E+01  0.24351377826E+01  0.00000000000E+00 0.  1.
</event>
<event>
 7    1  0.1098446E-012  0.5052886E+02  0.7816164E-02  0.1300439E+00
        -11   -1    0    0    0    0  0.00000000000E+00  0.00000000000E+00  0.45593999997E+02  0.45594000000E+02  0.51100000000E-03 0.  1.
         11   -1    0    0    0    0 -0.00000000000E+00 -0.00000000000E+00 -0.45593999997E+02  0.45594000000E+02  0.51100000000E-03 0. -1.
    9900012    2    1    2    0    0  0.18974901661E+02 -0.23817518291E+02 -0.26941497706E+02  0.50528863643E+02  0.30000011530E+02 0.  0.
        -12    1    1    2    0    0 -0.18974901661E+02  0.23817518291E+02  0.26941497706E+02  0.40659136357E+02  0.00000000000E+00 0.  1.
         11    1    3    3    0    0  0.17501824137E+02 -0.22427501867E+02 -0.22070393021E+02  0.36005679225E+02  0.51100000000E-03 0. -1.
        -11    1    3    3    0    0  0.57391299404E+01  0.33548211837E+01 -0.26376397654E+00  0.66529699642E+01  0.51100000000E-03 0.  1.
        -12    1    3    3    0    0 -0.42660524160E+01 -0.47448376079E+01 -0.46073407089E+01  0.78702144538E+01  0.00000000000E+00 0.  1.
</event>
<event>
 7    1  0.1098446E-012  0.5052886E+02  0.7816164E-02  0.1300439E+00
        -11   -1    0    0    0    0  0.00000000000E+00  0.00000000000E+00  0.45593999997E+02  0.45594000000E+02  0.51100000000E-03 0.  1.
         11   -1    0    0    0    0 -0.00000000000E+00 -0.00000000000E+00 -0.45593999997E+02  0.45594000000E+02  0.51100000000E-03 0. -1.
    9900012    2    1    2    0    0 -0.80077070799E+01  0.38113658010E+02 -0.11678668880E+02  0.50528860728E+02  0.30000002668E+02 0.  0.
        -12    1    1    2    0    0  0.80077070799E+01 -0.38113658010E+02  0.11678668880E+02  0.40659139272E+02  0.00000000000E+00 0.  1.
         11    1    3    3    0    0 -0.13118774121E+02  0.29117315381E+02 -0.11196468407E+02  0.33842003406E+02  0.51100000000E-03 0. -1.
        -11    1    3    3    0    0  0.91214034171E+01  0.86879303184E+01  0.24630186459E+00  0.12599238008E+02  0.51100000000E-03 0.  1.
         12    1    3    3    0    0 -0.40103363757E+01  0.30841230982E+00 -0.72850233774E+00  0.40876193138E+01  0.00000000000E+00 0. -1.
</event>
<event>
 7    1  0.1098446E-012  0.5052886E+02  0.7816164E-02  0.1300439E+00
        -11   -1    0    0    0    0  0.00000000000E+00  0.00000000000E+00  0.45593999997E+02  0.45594000000E+02  0.51100000000E-03 0.  1.
         11   -1    0    0    0    0 -0.00000000000E+00 -0.00000000000E+00 -0.45593999997E+02  0.45594000000E+02  0.51100000000E-03 0. -1.
    9900012    2    1    2    0    0  0.29382614879E+02  0.20358499894E+02 -0.19374177821E+02  0.50528863987E+02  0.30000012576E+02 0.  0.
        -12    1    1    2    0    0 -0.29382614879E+02 -0.20358499894E+02  0.19374177821E+02  0.40659136013E+02  0.00000000000E+00 0.  1.
         11    1    3    3    0    0  0.14006062752E+02 -0.90680174840E+00 -0.10482579945E+02  0.17517892733E+02  0.51100000000E-03 0. -1.
        -11    1    3    3    0    0 -0.34172364842E+01  0.42210895227E+00  0.35617490570E+00  0.34615808500E+01  0.51100000000E-03 0.  1.
         12    1    3    3    0    0  0.18793788611E+02  0.20843192690E+02 -0.92477727819E+01  0.29549390405E+02  0.00000000000E+00 0. -1.
</event>
<event>
 7    1  0.1098446E-012  0.5052885E+02  0.7816164E-02  0.1300439E+00
        -11   -1    0    0    0    0  0.00000000000E+00  0.00000000000E+00  0.45593999997E+02  0.45594000000E+02  0.51100000000E-03 0. -1.
         11   -1    0    0    0    0 -0.00000000000E+00 -0.00000000000E+00 -0.45593999997E+02  0.45594000000E+02  0.51100000000E-03 0.  1.
    9900012    2    1    2    0    0 -0.27470710507E+02 -0.72371919122E+01  0.29088646543E+02  0.50528852933E+02  0.29999978974E+02 0.  0.
        -12    1    1    2    0    0  0.27470710507E+02  0.72371919122E+01 -0.29088646543E+02  0.40659147067E+02  0.00000000000E+00 0.  1.
         11    1    3    3    0    0 -0.17079581964E+02 -0.92120036229E+01  0.12339754775E+02  0.22996579723E+02  0.51100000000E-03 0. -1.
        -11    1    3    3    0    0  0.12306808966E+01 -0.12045866188E+01  0.15300000080E+02  0.15396610247E+02  0.51100000000E-03 0.  1.
         12    1    3    3    0    0 -0.11621809440E+02  0.31793983296E+01  0.14488916872E+01  0.12135662962E+02  0.00000000000E+00 0. -1.
</event>
<event>
 7    1  0.1098446E-012  0.5052886E+02  0.7816164E-02  0.1300439E+00
        -11   -1    0    0    0    0  0.00000000000E+00  0.00000000000E+00  0.45593999997E+02  0.45594000000E+02  0.51100000000E-03 0.  1.
         11   -1    0    0    0    0 -0.00000000000E+00 -0.00000000000E+00 -0.45593999997E+02  0.45594000000E+02  0.51100000000E-03 0. -1.
    9900012    2    1    2    0    0 -0.13549023128E+02 -0.31584450284E+02 -0.21725834963E+02  0.50528862869E+02  0.30000009175E+02 0.  0.
        -12    1    1    2    0    0  0.13549023128E+02  0.31584450284E+02  0.21725834963E+02  0.40659137131E+02  0.00000000000E+00 0.  1.
         11    1    3    3    0    0 -0.16120802306E+02 -0.24940024791E+02 -0.20203441781E+02  0.35917463212E+02  0.51100000000E-03 0. -1.
        -11    1    3    3    0    0 -0.12488064055E+01  0.34514300106E+01  0.22044102978E+00  0.36770206779E+01  0.51100000000E-03 0.  1.
        -12    1    3    3    0    0  0.38205855836E+01 -0.10095855504E+02 -0.17428342117E+01  0.10934378978E+02  0.00000000000E+00 0.  1.
</event>
<event>
 7    1  0.1098446E-012  0.5052886E+02  0.7816164E-02  0.1300439E+00
        -11   -1    0    0    0    0  0.00000000000E+00  0.00000000000E+00  0.45593999997E+02  0.45594000000E+02  0.51100000000E-03 0. -1.
         11   -1    0    0    0    0 -0.00000000000E+00 -0.00000000000E+00 -0.45593999997E+02  0.45594000000E+02  0.51100000000E-03 0.  1.
    9900012    2    1    2    0    0  0.18999730636E+02  0.13618644401E+02  0.33267227327E+02  0.50528860147E+02  0.30000000904E+02 0.  0.
        -12    1    1    2    0    0 -0.18999730636E+02 -0.13618644401E+02 -0.33267227327E+02  0.40659139853E+02  0.00000000000E+00 0.  1.
         11    1    3    3    0    0  0.27913526895E+01 -0.30255766573E+01  0.22523760500E+02  0.22896845880E+02  0.51100000000E-03 0. -1.
        -11    1    3    3    0    0  0.16524343064E+02  0.12195337508E+02  0.66743143385E+01  0.21594597537E+02  0.51100000000E-03 0.  1.
         12    1    3    3    0    0 -0.31596511792E+00  0.44488835500E+01  0.40691524886E+01  0.60374167300E+01  0.00000000000E+00 0. -1.
</event>
<event>
 7    1  0.1098446E-012  0.5052887E+02  0.7816164E-02  0.1300439E+00
        -11   -1    0    0    0    0  0.00000000000E+00  0.00000000000E+00  0.45593999997E+02  0.45594000000E+02  0.51100000000E-03 0.  1.
         11   -1    0    0    0    0 -0.00000000000E+00 -0.00000000000E+00 -0.45593999997E+02  0.45594000000E+02  0.51100000000E-03 0. -1.
    9900012    2    1    2    0    0 -0.36558315227E+02 -0.13978198444E+02 -0.11012012906E+02  0.50528869756E+02  0.30000030109E+02 0.  0.
        -12    1    1    2    0    0  0.36558315227E+02  0.13978198444E+02  0.11012012906E+02  0.40659130244E+02  0.00000000000E+00 0.  1.
         11    1    3    3    0    0 -0.26542537293E+02 -0.11317244823E+02 -0.86767913829E+01  0.30130931372E+02  0.51100000000E-03 0. -1.
        -11    1    3    3    0    0 -0.79286569199E+01  0.61467491227E+01 -0.46462834421E+01  0.11055952036E+02  0.51100000000E-03 0.  1.
        -12    1    3    3    0    0 -0.20871210142E+01 -0.88077027431E+01  0.23110619196E+01  0.93419863484E+01  0.00000000000E+00 0.  1.
</event>
<event>
 7    1  0.1098446E-012  0.5052885E+02  0.7816164E-02  0.1300439E+00
        -11   -1    0    0    0    0  0.00000000000E+00  0.00000000000E+00  0.45593999997E+02  0.45594000000E+02  0.51100000000E-03 0. -1.
         11   -1    0    0    0    0 -0.00000000000E+00 -0.00000000000E+00 -0.45593999997E+02  0.45594000000E+02  0.51100000000E-03 0.  1.
    9900012    2    1    2    0    0 -0.35903732850E+02  0.39759642742E+01  0.18662271974E+02  0.50528847036E+02  0.29999961050E+02 0.  0.
        -12    1    1    2    0    0  0.35903732850E+02 -0.39759642742E+01 -0.18662271974E+02  0.40659152964E+02  0.00000000000E+00 0.  1.
         11    1    3    3    0    0 -0.19439203696E+02  0.66008811539E+01  0.42144380242E+00  0.20533676911E+02  0.51100000000E-03 0. -1.
        -11    1    3    3    0    0  0.32003577865E+01  0.17577804820E+01  0.24517791641E+01  0.43981022629E+01  0.51100000000E-03 0.  1.
        -12    1    3    3    0    0 -0.19664886941E+02 -0.43826973617E+01  0.15789049008E+02  0.25597067862E+02  0.00000000000E+00 0.  1.
</event>
<event>
 7    1  0.1098446E-012  0.5052887E+02  0.7816164E-02  0.1300439E+00
        -11   -1    0    0    0    0  0.00000000000E+00  0.00000000000E+00  0.45593999997E+02  0.45594000000E+02  0.51100000000E-03 0. -1.
         11   -1    0    0    0    0 -0.00000000000E+00 -0.00000000000E+00 -0.45593999997E+02  0.45594000000E+02  0.51100000000E-03 0.  1.
    9900012    2    1    2    0    0 -0.14991988148E+02 -0.32253667866E+02  0.19700398248E+02  0.50528874449E+02  0.30000044375E+02 0.  0.
        -12    1    1    2    0    0  0.14991988148E+02  0.32253667866E+02 -0.19700398248E+02  0.40659125551E+02  0.00000000000E+00 0.  1.
         11    1    3    3    0    0 -0.54663841303E+01 -0.21366603414E+02 -0.20859678468E+01  0.22153202004E+02  0.51100000000E-03 0. -1.
        -11    1    3    3    0    0 -0.43718980543E+01  0.11169879635E+01  0.27378579012E+01  0.52779750715E+01  0.51100000000E-03 0.  1.
         12    1    3    3    0    0 -0.51537059630E+01 -0.12004052416E+02  0.19048508194E+02  0.23097697373E+02  0.00000000000E+00 0. -1.
</event>
<event>
 7    1  0.1098446E-012  0.5052886E+02  0.7816164E-02  0.1300439E+00
        -11   -1    0    0    0    0  0.00000000000E+00  0.00000000000E+00  0.45593999997E+02  0.45594000000E+02  0.51100000000E-03 0. -1.
         11   -1    0    0    0    0 -0.00000000000E+00 -0.00000000000E+00 -0.45593999997E+02  0.45594000000E+02  0.51100000000E-03 0.  1.
    9900012    2    1    2    0    0  0.34608288321E+02  0.24094466006E+00 -0.21339499357E+02  0.50528857023E+02  0.29999991407E+02 0.  0.
        -12    1    1    2    0    0 -0.34608288321E+02 -0.24094466006E+00  0.21339499357E+02  0.40659142977E+02  0.00000000000E+00 0.  1.
         11    1    3    3    0    0  0.13978708724E+02  0.50418540419E+01 -0.43224285204E+00  0.14866452970E+02  0.51100000000E-03 0. -1.
        -11    1    3    3    0    0  0.65946609488E+01 -0.11556880938E+02 -0.10068170154E+02  0.16685895258E+02  0.51100000000E-03 0.  1.
        -12    1    3    3    0    0  0.14034918648E+02  0.67559715559E+01 -0.10839086351E+02  0.18976508795E+02  0.00000000000E+00 0.  1.
</event>
<event>
 7    1  0.1098446E-012  0.5052884E+02  0.7816164E-02  0.1300439E+00
        -11   -1    0    0    0    0  0.00000000000E+00  0.00000000000E+00  0.45593999997E+02  0.45594000000E+02  0.51100000000E-03 0.  1.
         11   -1    0    0    0    0 -0.00000000000E+00 -0.00000000000E+00 -0.45593999997E+02  0.45594000000E+02  0.51100000000E-03 0. -1.
    9900012    2    1    2    0    0  0.27903636861E+01  0.39390155991E+02 -0.96848527778E+01  0.50528844920E+02  0.29999954617E+02 0.  0.
        -12    1    1    2    0    0 -0.27903636861E+01 -0.39390155991E+02  0.96848527778E+01  0.40659155080E+02  0.00000000000E+00 0.  1.
         11    1    3    3    0    0 -0.22715357703E+01  0.61262252481E+01 -0.90742857329E+01  0.11181823303E+02  0.51100000000E-03 0. -1.
        -11    1    3    3    0    0  0.48972220491E+00  0.21712834135E+02  0.91312192360E+01  0.23559842083E+02  0.51100000000E-03 0.  1.
        -12    1    3    3    0    0  0.45721772516E+01  0.11551096609E+02 -0.97417862809E+01  0.15787179534E+02  0.00000000000E+00 0.  1.
</event>
<event>
 7    1  0.1098446E-012  0.5052886E+02  0.7816164E-02  0.1300439E+00
        -11   -1    0    0    0    0  0.00000000000E+00  0.00000000000E+00  0.45593999997E+02  0.45594000000E+02  0.51100000000E-03 0.  1.
         11   -1    0    0    0    0 -0.00000000000E+00 -0.00000000000E+00 -0.45593999997E+02  0.45594000000E+02  0.51100000000E-03 0. -1.
    9900012    2    1    2    0    0  0.53367741848E+01 -0.25810569331E+02 -0.30959632963E+02  0.50528861776E+02  0.30000005855E+02 0.  0.
        -12    1    1    2    0    0 -0.53367741848E+01  0.25810569331E+02  0.30959632963E+02  0.40659138224E+02  0.00000000000E+00 0.  1.
         11    1    3    3    0    0 -0.46227276353E+01  0.29195642928E+01  0.19950423297E+00  0.54711304727E+01  0.51100000000E-03 0.  1.
        -11    1    3    3    0    0  0.12158674778E+02 -0.23340777931E+02 -0.28031672282E+02  0.38449966684E+02  0.51100000000E-03 0. -1.
         12    1    3    3    0    0 -0.21991729583E+01 -0.53893556924E+01 -0.31274649142E+01  0.66077646197E+01  0.00000000000E+00 0. -1.
</event>
<event>
 7    1  0.1098446E-012  0.5052886E+02  0.7816164E-02  0.1300439E+00
        -11   -1    0    0    0    0  0.00000000000E+00  0.00000000000E+00  0.45593999997E+02  0.45594000000E+02  0.51100000000E-03 0.  1.
         11   -1    0    0    0    0 -0.00000000000E+00 -0.00000000000E+00 -0.45593999997E+02  0.45594000000E+02  0.51100000000E-03 0. -1.
    9900012    2    1    2    0    0 -0.27607518350E+02 -0.11864249149E+02 -0.27390327936E+02  0.50528861522E+02  0.30000005083E+02 0.  0.
        -12    1    1    2    0    0  0.27607518350E+02  0.11864249149E+02  0.27390327936E+02  0.40659138478E+02  0.00000000000E+00 0.  1.
         11    1    3    3    0    0 -0.14005933560E+02 -0.12638544384E+02 -0.14358972790E+02  0.23708206994E+02  0.51100000000E-03 0. -1.
        -11    1    3    3    0    0 -0.25291500422E+01  0.62103342785E+01  0.23489511311E+01  0.71050984134E+01  0.51100000000E-03 0.  1.
        -12    1    3    3    0    0 -0.11072434748E+02 -0.54360390435E+01 -0.15380306277E+02  0.19715556115E+02  0.00000000000E+00 0.  1.
</event>
<event>
 7    1  0.1098446E-012  0.5052886E+02  0.7816164E-02  0.1300439E+00
        -11   -1    0    0    0    0  0.00000000000E+00  0.00000000000E+00  0.45593999997E+02  0.45594000000E+02  0.51100000000E-03 0.  1.
         11   -1    0    0    0    0 -0.00000000000E+00 -0.00000000000E+00 -0.45593999997E+02  0.45594000000E+02  0.51100000000E-03 0. -1.
    9900012    2    1    2    0    0  0.63905847900E+01  0.12512229048E+02 -0.38154557904E+02  0.50528859103E+02  0.29999997728E+02 0.  0.
        -12    1    1    2    0    0 -0.63905847900E+01 -0.12512229048E+02  0.38154557904E+02  0.40659140897E+02  0.00000000000E+00 0.  1.
         11    1    3    3    0    0  0.30849045861E+01  0.17713675629E+02 -0.18826598696E+02  0.26033281762E+02  0.51100000000E-03 0. -1.
        -11    1    3    3    0    0  0.57175791338E+01 -0.74049013751E+01 -0.68447522103E+01  0.11591976044E+02  0.51100000000E-03 0.  1.
        -12    1    3    3    0    0 -0.24118989298E+01  0.22034547941E+01 -0.12483206997E+02  0.12903601296E+02  0.00000000000E+00 0.  1.
</event>
<event>
 7    1  0.1098446E-012  0.5052886E+02  0.7816164E-02  0.1300439E+00
        -11   -1    0    0    0    0  0.00000000000E+00  0.00000000000E+00  0.45593999997E+02  0.45594000000E+02  0.51100000000E-03 0.  1.
         11   -1    0    0    0    0 -0.00000000000E+00 -0.00000000000E+00 -0.45593999997E+02  0.45594000000E+02  0.51100000000E-03 0. -1.
    9900012    2    1    2    0    0 -0.21841807028E+02 -0.21373408674E+01 -0.34227664130E+02  0.50528858936E+02  0.29999997223E+02 0.  0.
        -12    1    1    2    0    0  0.21841807028E+02  0.21373408674E+01  0.34227664130E+02  0.40659141064E+02  0.00000000000E+00 0.  1.
         11    1    3    3    0    0 -0.24761983749E+02 -0.44377182885E+01 -0.33308761124E+02  0.41741139786E+02  0.51100000000E-03 0. -1.
        -11    1    3    3    0    0 -0.58304151130E+00  0.32165292003E+01  0.22560664619E+01  0.39718803661E+01  0.51100000000E-03 0.  1.
         12    1    3    3    0    0  0.35032182326E+01 -0.91615177929E+00 -0.31749694687E+01  0.48158387841E+01  0.00000000000E+00 0. -1.
</event>
<event>
 7    1  0.1098446E-012  0.5052885E+02  0.7816164E-02  0.1300439E+00
        -11   -1    0    0    0    0  0.00000000000E+00  0.00000000000E+00  0.45593999997E+02  0.45594000000E+02  0.51100000000E-03 0.  1.
         11   -1    0    0    0    0 -0.00000000000E+00 -0.00000000000E+00 -0.45593999997E+02  0.45594000000E+02  0.51100000000E-03 0. -1.
    9900012    2    1    2    0    0 -0.91389141074E+01 -0.13730026727E+02 -0.37163601554E+02  0.50528847704E+02  0.29999963080E+02 0.  0.
        -12    1    1    2    0    0  0.91389141074E+01  0.13730026727E+02  0.37163601554E+02  0.40659152296E+02  0.00000000000E+00 0.  1.
         11    1    3    3    0    0 -0.84563304593E+01 -0.30867503457E+01 -0.27562051211E+02  0.28994899892E+02  0.51100000000E-03 0. -1.
        -11    1    3    3    0    0  0.23032706730E+00  0.41871593974E+01 -0.81520227649E+00  0.42719912676E+01  0.51100000000E-03 0.  1.
         12    1    3    3    0    0 -0.91291071546E+00 -0.14830435779E+02 -0.87863480664E+01  0.17261956544E+02  0.00000000000E+00 0. -1.
</event>
<event>
 7    1  0.1098446E-012  0.5052886E+02  0.7816164E-02  0.1300439E+00
        -11   -1    0    0    0    0  0.00000000000E+00  0.00000000000E+00  0.45593999997E+02  0.45594000000E+02  0.51100000000E-03 0.  1.
         11   -1    0    0    0    0 -0.00000000000E+00 -0.00000000000E+00 -0.45593999997E+02  0.45594000000E+02  0.51100000000E-03 0. -1.
    9900012    2    1    2    0    0  0.28342096718E-01 -0.33079444769E+02 -0.23641391259E+02  0.50528857730E+02  0.29999993555E+02 0.  0.
        -12    1    1    2    0    0 -0.28342096718E-01  0.33079444769E+02  0.23641391259E+02  0.40659142270E+02  0.00000000000E+00 0.  1.
         11    1    3    3    0    0  0.24042145342E+01 -0.13865580111E+02 -0.44396990711E+01  0.14756201660E+02  0.51100000000E-03 0. -1.
        -11    1    3    3    0    0 -0.96302695164E+01 -0.43451895594E+00 -0.90655345730E+01  0.13233095444E+02  0.51100000000E-03 0.  1.
        -12    1    3    3    0    0  0.72543970790E+01 -0.18779345702E+02 -0.10136157615E+02  0.22539560625E+02  0.00000000000E+00 0.  1.
</event>
<event>
 7    1  0.1098446E-012  0.5052886E+02  0.7816164E-02  0.1300439E+00
        -11   -1    0    0    0    0  0.00000000000E+00  0.00000000000E+00  0.45593999997E+02  0.45594000000E+02  0.51100000000E-03 0.  1.
         11   -1    0    0    0    0 -0.00000000000E+00 -0.00000000000E+00 -0.45593999997E+02  0.45594000000E+02  0.51100000000E-03 0. -1.
    9900012    2    1    2    0    0  0.59254812107E+00 -0.38165759052E+02 -0.14006772990E+02  0.50528856294E+02  0.29999989192E+02 0.  0.
        -12    1    1    2    0    0 -0.59254812107E+00  0.38165759052E+02  0.14006772990E+02  0.40659143706E+02  0.00000000000E+00 0.  1.
         11    1    3    3    0    0  0.96795657905E+01 -0.44230206763E+01 -0.89429765977E+01  0.13900860998E+02  0.51100000000E-03 0. -1.
        -11    1    3    3    0    0 -0.33719780890E+01 -0.21026998900E+02  0.12320895711E+01  0.21331267284E+02  0.51100000000E-03 0.  1.
         12    1    3    3    0    0 -0.57150395804E+01 -0.12715739476E+02 -0.62958859636E+01  0.15296728012E+02  0.00000000000E+00 0. -1.
</event>
<event>
 7    1  0.1098446E-012  0.5052889E+02  0.7816164E-02  0.1300439E+00
        -11   -1    0    0    0    0  0.00000000000E+00  0.00000000000E+00  0.45593999997E+02  0.45594000000E+02  0.51100000000E-03 0. -1.
         11   -1    0    0    0    0 -0.00000000000E+00 -0.00000000000E+00 -0.45593999997E+02  0.45594000000E+02  0.51100000000E-03 0.  1.
    9900012    2    1    2    0    0  0.13220439205E+02  0.37708017141E+02  0.75158956963E+01  0.50528889611E+02  0.30000090462E+02 0.  0.
        -12    1    1    2    0    0 -0.13220439205E+02 -0.37708017141E+02 -0.75158956963E+01  0.40659110389E+02  0.00000000000E+00 0.  1.
         11    1    3    3    0    0  0.22293633449E+01  0.28604656872E+02 -0.48794792825E+01  0.29103363620E+02  0.51100000000E-03 0. -1.
        -11    1    3    3    0    0  0.83353740459E+01  0.20266846708E+01  0.10637245255E+02  0.13665170988E+02  0.51100000000E-03 0.  1.
         12    1    3    3    0    0  0.26557018138E+01  0.70766755989E+01  0.17581297234E+01  0.77603550035E+01  0.00000000000E+00 0. -1.
</event>
<event>
 7    1  0.1098446E-012  0.5052886E+02  0.7816164E-02  0.1300439E+00
        -11   -1    0    0    0    0  0.00000000000E+00  0.00000000000E+00  0.45593999997E+02  0.45594000000E+02  0.51100000000E-03 0.  1.
         11   -1    0    0    0    0 -0.00000000000E+00 -0.00000000000E+00 -0.45593999997E+02  0.45594000000E+02  0.51100000000E-03 0. -1.
    9900012    2    1    2    0    0  0.74365472692E+01  0.32478482573E+02 -0.23302608733E+02  0.50528860323E+02  0.30000001436E+02 0.  0.
        -12    1    1    2    0    0 -0.74365472692E+01 -0.32478482573E+02  0.23302608733E+02  0.40659139677E+02  0.00000000000E+00 0.  1.
         11    1    3    3    0    0 -0.13193249756E+00  0.25340301941E+02 -0.12644484829E+02  0.28320157229E+02  0.51100000000E-03 0. -1.
        -11    1    3    3    0    0  0.48856181065E+01 -0.27379242336E+01 -0.10584001109E+02  0.11974413269E+02  0.51100000000E-03 0.  1.
        -12    1    3    3    0    0  0.26828616602E+01  0.98761048664E+01 -0.74122794209E-01  0.10234289824E+02  0.00000000000E+00 0.  1.
</event>
<event>
 7    1  0.1098446E-012  0.5052885E+02  0.7816164E-02  0.1300439E+00
        -11   -1    0    0    0    0  0.00000000000E+00  0.00000000000E+00  0.45593999997E+02  0.45594000000E+02  0.51100000000E-03 0. -1.
         11   -1    0    0    0    0 -0.00000000000E+00 -0.00000000000E+00 -0.45593999997E+02  0.45594000000E+02  0.51100000000E-03 0.  1.
    9900012    2    1    2    0    0  0.16665519387E+02  0.37081708591E+02 -0.61131427316E+00  0.50528851539E+02  0.29999974738E+02 0.  0.
        -12    1    1    2    0    0 -0.16665519387E+02 -0.37081708591E+02  0.61131427316E+00  0.40659148461E+02  0.00000000000E+00 0.  1.
         11    1    3    3    0    0  0.94867029458E+01  0.18958135794E+02 -0.11965001605E+02  0.24342754758E+02  0.51100000000E-03 0. -1.
        -11    1    3    3    0    0 -0.24449302369E+01  0.10845744537E+02  0.30157685191E+01  0.11519666594E+02  0.51100000000E-03 0.  1.
         12    1    3    3    0    0  0.96237466777E+01  0.72778282599E+01  0.83379188124E+01  0.14666430187E+02  0.00000000000E+00 0. -1.
</event>
<event>
 7    1  0.1098446E-012  0.5052886E+02  0.7816164E-02  0.1300439E+00
        -11   -1    0    0    0    0  0.00000000000E+00  0.00000000000E+00  0.45593999997E+02  0.45594000000E+02  0.51100000000E-03 0.  1.
         11   -1    0    0    0    0 -0.00000000000E+00 -0.00000000000E+00 -0.45593999997E+02  0.45594000000E+02  0.51100000000E-03 0. -1.
    9900012    2    1    2    0    0 -0.10263186064E+00 -0.23370765394E+02 -0.33271045156E+02  0.50528860140E+02  0.30000000881E+02 0.  0.
        -12    1    1    2    0    0  0.10263186064E+00  0.23370765394E+02  0.33271045156E+02  0.40659139860E+02  0.00000000000E+00 0.  1.
         11    1    3    3    0    0  0.73197677746E+01  0.26324383072E+01 -0.25515636060E+01  0.81865260527E+01  0.51100000000E-03 0. -1.
        -11    1    3    3    0    0 -0.61834526912E+00 -0.15616521966E+02 -0.11274532269E+02  0.19271045310E+02  0.51100000000E-03 0.  1.
         12    1    3    3    0    0 -0.68040543661E+01 -0.10386681735E+02 -0.19444949282E+02  0.23071288777E+02  0.00000000000E+00 0. -1.
</event>
<event>
 7    1  0.1098446E-012  0.5052888E+02  0.7816164E-02  0.1300439E+00
        -11   -1    0    0    0    0  0.00000000000E+00  0.00000000000E+00  0.45593999997E+02  0.45594000000E+02  0.51100000000E-03 0.  1.
         11   -1    0    0    0    0 -0.00000000000E+00 -0.00000000000E+00 -0.45593999997E+02  0.45594000000E+02  0.51100000000E-03 0. -1.
    9900012    2    1    2    0    0  0.37360645476E+02 -0.15943487101E+02 -0.17752779886E+01  0.50528877736E+02  0.30000054367E+02 0.  0.
        -12    1    1    2    0    0 -0.37360645476E+02  0.15943487101E+02  0.17752779886E+01  0.40659122264E+02  0.00000000000E+00 0.  1.
         11    1    3    3    0    0 -0.78966786552E+00 -0.60651674822E+01  0.15296069800E+01  0.63047228091E+01  0.51100000000E-03 0.  1.
        -11    1    3    3    0    0  0.30721079965E+02 -0.12301340427E+02 -0.93007043979E+01  0.34374566661E+02  0.51100000000E-03 0. -1.
        -12    1    3    3    0    0  0.74292333759E+01  0.24230208078E+01  0.59958194294E+01  0.98495882665E+01  0.00000000000E+00 0.  1.
</event>
<event>
 7    1  0.1098446E-012  0.5052886E+02  0.7816164E-02  0.1300439E+00
        -11   -1    0    0    0    0  0.00000000000E+00  0.00000000000E+00  0.45593999997E+02  0.45594000000E+02  0.51100000000E-03 0.  1.
         11   -1    0    0    0    0 -0.00000000000E+00 -0.00000000000E+00 -0.45593999997E+02  0.45594000000E+02  0.51100000000E-03 0. -1.
    9900012    2    1    2    0    0 -0.80473868523E+01  0.20923645912E+01 -0.39799844364E+02  0.50528855442E+02  0.29999986602E+02 0.  0.
        -12    1    1    2    0    0  0.80473868523E+01 -0.20923645912E+01  0.39799844364E+02  0.40659144558E+02  0.00000000000E+00 0.  1.
         11    1    3    3    0    0  0.89432659230E+00  0.11468119391E+02 -0.15839434489E+02  0.19575629430E+02  0.51100000000E-03 0. -1.
        -11    1    3    3    0    0 -0.82124180821E+01 -0.88950621725E+01 -0.26029592422E+02  0.28707239918E+02  0.51100000000E-03 0.  1.
        -12    1    3    3    0    0 -0.72929536248E+00 -0.48069262724E+00  0.20691825457E+01  0.22459860941E+01  0.00000000000E+00 0.  1.
</event>
<event>
 7    1  0.1098446E-012  0.5052886E+02  0.7816164E-02  0.1300439E+00
        -11   -1    0    0    0    0  0.00000000000E+00  0.00000000000E+00  0.45593999997E+02  0.45594000000E+02  0.51100000000E-03 0.  1.
         11   -1    0    0    0    0 -0.00000000000E+00 -0.00000000000E+00 -0.45593999997E+02  0.45594000000E+02  0.51100000000E-03 0. -1.
    9900012    2    1    2    0    0  0.13655772139E+02 -0.15041784742E+02 -0.35219741819E+02  0.50528860625E+02  0.30000002354E+02 0.  0.
        -12    1    1    2    0    0 -0.13655772139E+02  0.15041784742E+02  0.35219741819E+02  0.40659139375E+02  0.00000000000E+00 0.  1.
         11    1    3    3    0    0 -0.12282022418E+00  0.67591836364E+01 -0.12812834630E+02  0.14486903732E+02  0.51100000000E-03 0. -1.
        -11    1    3    3    0    0  0.80304707217E+01 -0.16461004792E+02 -0.87646035902E+01  0.20304467861E+02  0.51100000000E-03 0.  1.
        -12    1    3    3    0    0  0.57481216414E+01 -0.53399635871E+01 -0.13642303599E+02  0.15737489031E+02  0.00000000000E+00 0.  1.
</event>
<event>
 7    1  0.1098446E-012  0.5052885E+02  0.7816164E-02  0.1300439E+00
        -11   -1    0    0    0    0  0.00000000000E+00  0.00000000000E+00  0.45593999997E+02  0.45594000000E+02  0.51100000000E-03 0.  1.
         11   -1    0    0    0    0 -0.00000000000E+00 -0.00000000000E+00 -0.45593999997E+02  0.45594000000E+02  0.51100000000E-03 0. -1.
    9900012    2    1    2    0    0  0.33803993267E+02 -0.98458480825E+01 -0.20335091412E+02  0.50528848165E+02  0.29999964481E+02 0.  0.
        -12    1    1    2    0    0 -0.33803993267E+02  0.98458480825E+01  0.20335091412E+02  0.40659151835E+02  0.00000000000E+00 0.  1.
         11    1    3    3    0    0  0.84473766400E+01 -0.38077894210E+01 -0.60304532856E+01  0.11055487301E+02  0.51100000000E-03 0. -1.
        -11    1    3    3    0    0  0.41616128395E+01  0.10981832075E+01  0.72380843279E+01  0.84210980746E+01  0.51100000000E-03 0.  1.
        -12    1    3    3    0    0  0.21195003787E+02 -0.71362418689E+01 -0.21542722455E+02  0.31052262789E+02  0.00000000000E+00 0.  1.
</event>
<event>
 7    1  0.1098446E-012  0.5052885E+02  0.7816164E-02  0.1300439E+00
        -11   -1    0    0    0    0  0.00000000000E+00  0.00000000000E+00  0.45593999997E+02  0.45594000000E+02  0.51100000000E-03 0.  1.
         11   -1    0    0    0    0 -0.00000000000E+00 -0.00000000000E+00 -0.45593999997E+02  0.45594000000E+02  0.51100000000E-03 0. -1.
    9900012    2    1    2    0    0 -0.37847103868E+02  0.51926777583E+01 -0.13921175510E+02  0.50528852185E+02  0.29999976701E+02 0.  0.
        -12    1    1    2    0    0  0.37847103868E+02 -0.51926777583E+01  0.13921175510E+02  0.40659147815E+02  0.00000000000E+00 0.  1.
         11    1    3    3    0    0 -0.17326240233E+02 -0.63779661572E+01 -0.12305035364E+02  0.22187630529E+02  0.51100000000E-03 0. -1.
        -11    1    3    3    0    0 -0.23103524453E+02  0.10653864724E+02 -0.69890925404E+00  0.25451250463E+02  0.51100000000E-03 0.  1.
         12    1    3    3    0    0  0.25826608184E+01  0.91677919168E+00 -0.91723089131E+00  0.28899711932E+01  0.00000000000E+00 0. -1.
</event>
<event>
 7    1  0.1098446E-012  0.5052886E+02  0.7816164E-02  0.1300439E+00
        -11   -1    0    0    0    0  0.00000000000E+00  0.00000000000E+00  0.45593999997E+02  0.45594000000E+02  0.51100000000E-03 0.  1.
         11   -1    0    0    0    0 -0.00000000000E+00 -0.00000000000E+00 -0.45593999997E+02  0.45594000000E+02  0.51100000000E-03 0. -1.
    9900012    2    1    2    0    0 -0.35679223559E+01  0.30913541382E+02 -0.26168467969E+02  0.50528858020E+02  0.29999994437E+02 0.  0.
        -12    1    1    2    0    0  0.35679223559E+01 -0.30913541382E+02  0.26168467969E+02  0.40659141980E+02  0.00000000000E+00 0.  1.
         11    1    3    3    0    0 -0.86725657466E+01  0.49174178751E+01 -0.16117281528E+02  0.18951547675E+02  0.51100000000E-03 0. -1.
        -11    1    3    3    0    0 -0.97449178958E+00  0.56360393166E+01  0.31820039979E+01  0.65452061182E+01  0.51100000000E-03 0.  1.
         12    1    3    3    0    0  0.60791351803E+01  0.20360084191E+02 -0.13233190439E+02  0.25032104226E+02  0.00000000000E+00 0. -1.
</event>
<event>
 7    1  0.1098446E-012  0.5052878E+02  0.7816164E-02  0.1300439E+00
        -11   -1    0    0    0    0  0.00000000000E+00  0.00000000000E+00  0.45593999997E+02  0.45594000000E+02  0.51100000000E-03 0.  1.
         11   -1    0    0    0    0 -0.00000000000E+00 -0.00000000000E+00 -0.45593999997E+02  0.45594000000E+02  0.51100000000E-03 0. -1.
    9900012    2    1    2    0    0 -0.10945048078E+02  0.23314987750E+02 -0.31460917647E+02  0.50528781237E+02  0.29999761047E+02 0.  0.
        -12    1    1    2    0    0  0.10945048078E+02 -0.23314987750E+02  0.31460917647E+02  0.40659218763E+02  0.00000000000E+00 0.  1.
         11    1    3    3    0    0 -0.30466293439E+01  0.91249159781E+01 -0.11163105615E+02  0.14736382500E+02  0.51100000000E-03 0. -1.
        -11    1    3    3    0    0 -0.11781320822E+01 -0.64676086239E+01 -0.83734484074E+00  0.66271489464E+01  0.51100000000E-03 0.  1.
        -12    1    3    3    0    0 -0.67202866521E+01  0.20657680396E+02 -0.19460467192E+02  0.29165249790E+02  0.00000000000E+00 0.  1.
</event>
<event>
 7    1  0.1098446E-012  0.5052886E+02  0.7816164E-02  0.1300439E+00
        -11   -1    0    0    0    0  0.00000000000E+00  0.00000000000E+00  0.45593999997E+02  0.45594000000E+02  0.51100000000E-03 0.  1.
         11   -1    0    0    0    0 -0.00000000000E+00 -0.00000000000E+00 -0.45593999997E+02  0.45594000000E+02  0.51100000000E-03 0. -1.
    9900012    2    1    2    0    0 -0.27517327469E+02  0.38998132092E+01 -0.29677499474E+02  0.50528857988E+02  0.29999994341E+02 0.  0.
        -12    1    1    2    0    0  0.27517327469E+02 -0.38998132092E+01  0.29677499474E+02  0.40659142012E+02  0.00000000000E+00 0.  1.
         11    1    3    3    0    0 -0.45361627678E+01  0.11246557358E+01 -0.20747386867E+02  0.21267244421E+02  0.51100000000E-03 0. -1.
        -11    1    3    3    0    0 -0.83426623999E+01  0.54847405653E+01  0.27311992256E+01  0.10350934473E+02  0.51100000000E-03 0.  1.
         12    1    3    3    0    0 -0.14638502301E+02 -0.27095830919E+01 -0.11661311833E+02  0.18910679094E+02  0.00000000000E+00 0. -1.
</event>
<event>
 7    1  0.1098446E-012  0.5052886E+02  0.7816164E-02  0.1300439E+00
        -11   -1    0    0    0    0  0.00000000000E+00  0.00000000000E+00  0.45593999997E+02  0.45594000000E+02  0.51100000000E-03 0.  1.
         11   -1    0    0    0    0 -0.00000000000E+00 -0.00000000000E+00 -0.45593999997E+02  0.45594000000E+02  0.51100000000E-03 0. -1.
    9900012    2    1    2    0    0  0.91350227679E+01  0.39171544049E+02  0.59420029547E+01  0.50528857077E+02  0.29999991571E+02 0.  0.
        -12    1    1    2    0    0 -0.91350227679E+01 -0.39171544049E+02 -0.59420029547E+01  0.40659142923E+02  0.00000000000E+00 0.  1.
         11    1    3    3    0    0  0.14636472425E+02  0.26410968829E+02 -0.35132815375E+01  0.30399157011E+02  0.51100000000E-03 0.  1.
        -11    1    3    3    0    0 -0.18203505603E-02  0.42076728480E+01  0.90185731106E+01  0.99518428104E+01  0.51100000000E-03 0. -1.
         12    1    3    3    0    0 -0.54996293065E+01  0.85529023716E+01  0.43671138162E+00  0.10177857256E+02  0.00000000000E+00 0. -1.
</event>
<event>
 7    1  0.1098446E-012  0.5052886E+02  0.7816164E-02  0.1300439E+00
        -11   -1    0    0    0    0  0.00000000000E+00  0.00000000000E+00  0.45593999997E+02  0.45594000000E+02  0.51100000000E-03 0. -1.
         11   -1    0    0    0    0 -0.00000000000E+00 -0.00000000000E+00 -0.45593999997E+02  0.45594000000E+02  0.51100000000E-03 0.  1.
    9900012    2    1    2    0    0  0.33487670233E+02  0.22941268407E+01  0.22945117558E+02  0.50528862094E+02  0.30000006819E+02 0.  0.
        -12    1    1    2    0    0 -0.33487670233E+02 -0.22941268407E+01 -0.22945117558E+02  0.40659137906E+02  0.00000000000E+00 0.  1.
         11    1    3    3    0    0  0.13273077691E+02  0.32492263986E+01  0.21613327243E+02  0.25570842347E+02  0.51100000000E-03 0. -1.
        -11    1    3    3    0    0  0.15701863848E+02  0.43000041494E+01  0.51159757988E+01  0.17064928146E+02  0.51100000000E-03 0.  1.
         12    1    3    3    0    0  0.45127286933E+01 -0.52551037073E+01 -0.37841854840E+01  0.78930916003E+01  0.00000000000E+00 0. -1.
</event>
<event>
 7    1  0.1098446E-012  0.5052886E+02  0.7816164E-02  0.1300439E+00
        -11   -1    0    0    0    0  0.00000000000E+00  0.00000000000E+00  0.45593999997E+02  0.45594000000E+02  0.51100000000E-03 0.  1.
         11   -1    0    0    0    0 -0.00000000000E+00 -0.00000000000E+00 -0.45593999997E+02  0.45594000000E+02  0.51100000000E-03 0. -1.
    9900012    2    1    2    0    0 -0.28162298260E+01 -0.14300320576E+02 -0.37957017446E+02  0.50528862129E+02  0.30000006926E+02 0.  0.
        -12    1    1    2    0    0  0.28162298260E+01  0.14300320576E+02  0.37957017446E+02  0.40659137871E+02  0.00000000000E+00 0.  1.
         11    1    3    3    0    0 -0.91937787791E+01 -0.59191294641E+01 -0.24319643230E+02  0.26664709054E+02  0.51100000000E-03 0. -1.
        -11    1    3    3    0    0  0.12025344335E+02 -0.61923161074E+01 -0.94979571026E+01  0.16527700219E+02  0.51100000000E-03 0.  1.
        -12    1    3    3    0    0 -0.56477953816E+01 -0.21888750046E+01 -0.41394171137E+01  0.73364528554E+01  0.00000000000E+00 0.  1.
</event>
<event>
 7    1  0.1098446E-012  0.5052887E+02  0.7816164E-02  0.1300439E+00
        -11   -1    0    0    0    0  0.00000000000E+00  0.00000000000E+00  0.45593999997E+02  0.45594000000E+02  0.51100000000E-03 0.  1.
         11   -1    0    0    0    0 -0.00000000000E+00 -0.00000000000E+00 -0.45593999997E+02  0.45594000000E+02  0.51100000000E-03 0. -1.
    9900012    2    1    2    0    0  0.28207757605E+02  0.13729699062E+02 -0.25864699606E+02  0.50528869277E+02  0.30000028655E+02 0.  0.
        -12    1    1    2    0    0 -0.28207757605E+02 -0.13729699062E+02  0.25864699606E+02  0.40659130723E+02  0.00000000000E+00 0.  1.
         11    1    3    3    0    0  0.17193983136E+01  0.14398869705E+02 -0.55290061375E+01  0.15519461604E+02  0.51100000000E-03 0. -1.
        -11    1    3    3    0    0  0.19024602873E+02  0.23028420720E-01 -0.81368798329E+01  0.20691661568E+02  0.51100000000E-03 0.  1.
        -12    1    3    3    0    0  0.74637564180E+01 -0.69219906321E+00 -0.12198813636E+02  0.14317746105E+02  0.00000000000E+00 0.  1.
</event>
<event>
 7    1  0.1098446E-012  0.5052887E+02  0.7816164E-02  0.1300439E+00
        -11   -1    0    0    0    0  0.00000000000E+00  0.00000000000E+00  0.45593999997E+02  0.45594000000E+02  0.51100000000E-03 0. -1.
         11   -1    0    0    0    0 -0.00000000000E+00 -0.00000000000E+00 -0.45593999997E+02  0.45594000000E+02  0.51100000000E-03 0.  1.
    9900012    2    1    2    0    0 -0.39779840460E+02 -0.59629694967E+01 -0.59305875245E+01  0.50528873342E+02  0.30000041010E+02 0.  0.
        -12    1    1    2    0    0  0.39779840460E+02  0.59629694967E+01  0.59305875245E+01  0.40659126658E+02  0.00000000000E+00 0.  1.
         11    1    3    3    0    0 -0.85125976127E+01  0.95077696280E+01 -0.44410239289E+01  0.13512390433E+02  0.51100000000E-03 0. -1.
        -11    1    3    3    0    0 -0.31427120724E+02 -0.12964535231E+02 -0.29285500051E+01  0.34122126196E+02  0.51100000000E-03 0.  1.
        -12    1    3    3    0    0  0.15987787692E+00 -0.25062038941E+01  0.14389864095E+01  0.28943567128E+01  0.00000000000E+00 0.  1.
</event>
<event>
 7    1  0.1098446E-012  0.5052887E+02  0.7816164E-02  0.1300439E+00
        -11   -1    0    0    0    0  0.00000000000E+00  0.00000000000E+00  0.45593999997E+02  0.45594000000E+02  0.51100000000E-03 0.  1.
         11   -1    0    0    0    0 -0.00000000000E+00 -0.00000000000E+00 -0.45593999997E+02  0.45594000000E+02  0.51100000000E-03 0. -1.
    9900012    2    1    2    0    0 -0.18730350046E+02 -0.21111657385E+02 -0.29268357950E+02  0.50528869815E+02  0.30000030288E+02 0.  0.
        -12    1    1    2    0    0  0.18730350046E+02  0.21111657385E+02  0.29268357950E+02  0.40659130185E+02  0.00000000000E+00 0.  1.
         11    1    3    3    0    0 -0.15796226677E+01 -0.17570675376E+02 -0.27518240065E+02  0.32687572218E+02  0.51100000000E-03 0. -1.
        -11    1    3    3    0    0 -0.44279630248E+01  0.33456495372E+00 -0.12405340731E+00  0.44423169367E+01  0.51100000000E-03 0.  1.
         12    1    3    3    0    0 -0.12722764353E+02 -0.38755469623E+01 -0.16260644770E+01  0.13398980660E+02  0.00000000000E+00 0. -1.
</event>
<event>
 7    1  0.1098446E-012  0.5052880E+02  0.7816164E-02  0.1300439E+00
        -11   -1    0    0    0    0  0.00000000000E+00  0.00000000000E+00  0.45593999997E+02  0.45594000000E+02  0.51100000000E-03 0.  1.
         11   -1    0    0    0    0 -0.00000000000E+00 -0.00000000000E+00 -0.45593999997E+02  0.45594000000E+02  0.51100000000E-03 0. -1.
    9900012    2    1    2    0    0  0.28220032770E+01  0.26812781175E+02 -0.30434873766E+02  0.50528800820E+02  0.29999820571E+02 0.  0.
        -12    1    1    2    0    0 -0.28220032770E+01 -0.26812781175E+02  0.30434873766E+02  0.40659199180E+02  0.00000000000E+00 0.  1.
         11    1    3    3    0    0  0.38177943081E+01  0.12118591388E+02 -0.26466020439E+02  0.29357895850E+02  0.51100000000E-03 0. -1.
        -11    1    3    3    0    0 -0.17628317723E+01  0.16205821012E+02  0.58487978147E+00  0.16311906545E+02  0.51100000000E-03 0.  1.
        -12    1    3    3    0    0  0.76704074124E+00 -0.15116312253E+01 -0.45537331085E+01  0.48589984239E+01  0.00000000000E+00 0.  1.
</event>
<event>
 7    1  0.1098446E-012  0.5052885E+02  0.7816164E-02  0.1300439E+00
        -11   -1    0    0    0    0  0.00000000000E+00  0.00000000000E+00  0.45593999997E+02  0.45594000000E+02  0.51100000000E-03 0. -1.
         11   -1    0    0    0    0 -0.00000000000E+00 -0.00000000000E+00 -0.45593999997E+02  0.45594000000E+02  0.51100000000E-03 0.  1.
    9900012    2    1    2    0    0 -0.25198672198E+02  0.24426437343E+02  0.20531509546E+02  0.50528845975E+02  0.29999957825E+02 0.  0.
        -12    1    1    2    0    0  0.25198672198E+02 -0.24426437343E+02 -0.20531509546E+02  0.40659154025E+02  0.00000000000E+00 0.  1.
         11    1    3    3    0    0 -0.57331985064E+01 -0.29877136449E+01 -0.19506012354E+01  0.67528396529E+01  0.51100000000E-03 0.  1.
        -11    1    3    3    0    0 -0.20993923562E+02  0.27002103047E+02  0.23838866330E+02  0.41691125478E+02  0.51100000000E-03 0. -1.
         12    1    3    3    0    0  0.15284498709E+01  0.41204794099E+00 -0.13567555486E+01  0.20848808436E+01  0.00000000000E+00 0. -1.
</event>
<event>
 7    1  0.1098446E-012  0.5052886E+02  0.7816164E-02  0.1300439E+00
        -11   -1    0    0    0    0  0.00000000000E+00  0.00000000000E+00  0.45593999997E+02  0.45594000000E+02  0.51100000000E-03 0. -1.
         11   -1    0    0    0    0 -0.00000000000E+00 -0.00000000000E+00 -0.45593999997E+02  0.45594000000E+02  0.51100000000E-03 0.  1.
    9900012    2    1    2    0    0  0.39772253865E+02 -0.14856968882E+01  0.83141951486E+01  0.50528864327E+02  0.30000013607E+02 0.  0.
        -12    1    1    2    0    0 -0.39772253865E+02  0.14856968882E+01 -0.83141951486E+01  0.40659135673E+02  0.00000000000E+00 0.  1.
         11    1    3    3    0    0  0.29714859947E+02  0.30197590142E+01  0.18267817763E+02  0.35011498286E+02  0.51100000000E-03 0. -1.
        -11    1    3    3    0    0  0.53998975400E+00 -0.19628562746E+01 -0.13978323389E+01  0.24694795399E+01  0.51100000000E-03 0.  1.
         12    1    3    3    0    0  0.95174041638E+01 -0.25425996277E+01 -0.85557902755E+01  0.13047886500E+02  0.00000000000E+00 0. -1.
</event>
<event>
 7    1  0.1098446E-012  0.5052886E+02  0.7816164E-02  0.1300439E+00
        -11   -1    0    0    0    0  0.00000000000E+00  0.00000000000E+00  0.45593999997E+02  0.45594000000E+02  0.51100000000E-03 0.  1.
         11   -1    0    0    0    0 -0.00000000000E+00 -0.00000000000E+00 -0.45593999997E+02  0.45594000000E+02  0.51100000000E-03 0. -1.
    9900012    2    1    2    0    0 -0.18100364050E+02 -0.28925114836E+02 -0.22110638123E+02  0.50528858775E+02  0.29999996732E+02 0.  0.
        -12    1    1    2    0    0  0.18100364050E+02  0.28925114836E+02  0.22110638123E+02  0.40659141225E+02  0.00000000000E+00 0.  1.
         11    1    3    3    0    0 -0.60725543691E+01 -0.30568563246E+02 -0.13658472793E+02  0.34027442672E+02  0.51100000000E-03 0. -1.
        -11    1    3    3    0    0 -0.31375274734E+01  0.16892560679E+01  0.81915019816E+00  0.36563194632E+01  0.51100000000E-03 0.  1.
         12    1    3    3    0    0 -0.88902822072E+01 -0.45807657503E-01 -0.92713155282E+01  0.12845096640E+02  0.00000000000E+00 0. -1.
</event>
<event>
 7    1  0.1098446E-012  0.5052885E+02  0.7816164E-02  0.1300439E+00
        -11   -1    0    0    0    0  0.00000000000E+00  0.00000000000E+00  0.45593999997E+02  0.45594000000E+02  0.51100000000E-03 0.  1.
         11   -1    0    0    0    0 -0.00000000000E+00 -0.00000000000E+00 -0.45593999997E+02  0.45594000000E+02  0.51100000000E-03 0. -1.
    9900012    2    1    2    0    0  0.24094927815E+02 -0.21588659086E+02 -0.24627836925E+02  0.50528854668E+02  0.29999984248E+02 0.  0.
        -12    1    1    2    0    0 -0.24094927815E+02  0.21588659086E+02  0.24627836925E+02  0.40659145332E+02  0.00000000000E+00 0.  1.
         11    1    3    3    0    0  0.13122485653E+01 -0.71022311632E+01 -0.14864665601E+02  0.16526402133E+02  0.51100000000E-03 0. -1.
        -11    1    3    3    0    0  0.11440105414E+02 -0.12673512911E+02  0.24365099657E+01  0.17246174140E+02  0.51100000000E-03 0.  1.
        -12    1    3    3    0    0  0.11342573836E+02 -0.18129150121E+01 -0.12199681290E+02  0.16756278395E+02  0.00000000000E+00 0.  1.
</event>
<event>
 7    1  0.1098446E-012  0.5052886E+02  0.7816164E-02  0.1300439E+00
        -11   -1    0    0    0    0  0.00000000000E+00  0.00000000000E+00  0.45593999997E+02  0.45594000000E+02  0.51100000000E-03 0. -1.
         11   -1    0    0    0    0 -0.00000000000E+00 -0.00000000000E+00 -0.45593999997E+02  0.45594000000E+02  0.51100000000E-03 0.  1.
    9900012    2    1    2    0    0 -0.10029362620E+02  0.39352298209E+02  0.19934836074E+01  0.50528862456E+02  0.30000007922E+02 0.  0.
        -12    1    1    2    0    0  0.10029362620E+02 -0.39352298209E+02 -0.19934836074E+01  0.40659137544E+02  0.00000000000E+00 0.  1.
         11    1    3    3    0    0  0.25832893179E+01  0.37148036394E+02  0.87705672215E+00  0.37248076734E+02  0.51100000000E-03 0. -1.
        -11    1    3    3    0    0 -0.10926806730E+02  0.24549265497E+01 -0.78150396181E-01  0.11199458800E+02  0.51100000000E-03 0.  1.
         12    1    3    3    0    0 -0.16858452079E+01 -0.25066473471E+00  0.11945772814E+01  0.20813269218E+01  0.00000000000E+00 0. -1.
</event>
<event>
 7    1  0.1098446E-012  0.5052886E+02  0.7816164E-02  0.1300439E+00
        -11   -1    0    0    0    0  0.00000000000E+00  0.00000000000E+00  0.45593999997E+02  0.45594000000E+02  0.51100000000E-03 0. -1.
         11   -1    0    0    0    0 -0.00000000000E+00 -0.00000000000E+00 -0.45593999997E+02  0.45594000000E+02  0.51100000000E-03 0.  1.
    9900012    2    1    2    0    0  0.25613924676E+02 -0.52667443892E+01  0.31134445185E+02  0.50528863133E+02  0.30000009981E+02 0.  0.
        -12    1    1    2    0    0 -0.25613924676E+02  0.52667443892E+01 -0.31134445185E+02  0.40659136867E+02  0.00000000000E+00 0.  1.
         11    1    3    3    0    0  0.16159393412E+02 -0.10678990703E+02  0.18870157146E+02  0.27041628443E+02  0.51100000000E-03 0. -1.
        -11    1    3    3    0    0 -0.48361373118E+01  0.18340111409E+01  0.20645318044E+01  0.55690315851E+01  0.51100000000E-03 0.  1.
         12    1    3    3    0    0  0.14290668575E+02  0.35782351725E+01  0.10199756234E+02  0.17918203105E+02  0.00000000000E+00 0. -1.
</event>
<event>
 7    1  0.1098446E-012  0.5052885E+02  0.7816164E-02  0.1300439E+00
        -11   -1    0    0    0    0  0.00000000000E+00  0.00000000000E+00  0.45593999997E+02  0.45594000000E+02  0.51100000000E-03 0.  1.
         11   -1    0    0    0    0 -0.00000000000E+00 -0.00000000000E+00 -0.45593999997E+02  0.45594000000E+02  0.51100000000E-03 0. -1.
    9900012    2    1    2    0    0  0.11975165297E+02 -0.34983822993E+02 -0.16908400503E+02  0.50528850198E+02  0.29999970662E+02 0.  0.
        -12    1    1    2    0    0 -0.11975165297E+02  0.34983822993E+02  0.16908400503E+02  0.40659149802E+02  0.00000000000E+00 0.  1.
         11    1    3    3    0    0  0.64277196868E+01 -0.27103004236E+02 -0.18030089629E+02  0.33180906426E+02  0.51100000000E-03 0. -1.
        -11    1    3    3    0    0  0.94150073535E+01 -0.36370128458E+01  0.40828139601E+01  0.10887589081E+02  0.51100000000E-03 0.  1.
        -12    1    3    3    0    0 -0.38675617432E+01 -0.42438059110E+01 -0.29611248333E+01  0.64603546904E+01  0.00000000000E+00 0.  1.
</event>
<event>
 7    1  0.1098446E-012  0.5052886E+02  0.7816164E-02  0.1300439E+00
        -11   -1    0    0    0    0  0.00000000000E+00  0.00000000000E+00  0.45593999997E+02  0.45594000000E+02  0.51100000000E-03 0.  1.
         11   -1    0    0    0    0 -0.00000000000E+00 -0.00000000000E+00 -0.45593999997E+02  0.45594000000E+02  0.51100000000E-03 0. -1.
    9900012    2    1    2    0    0  0.13537437170E+02  0.59296347791E+01 -0.37877997960E+02  0.50528861996E+02  0.30000006524E+02 0.  0.
        -12    1    1    2    0    0 -0.13537437170E+02 -0.59296347791E+01  0.37877997960E+02  0.40659138004E+02  0.00000000000E+00 0.  1.
         11    1    3    3    0    0 -0.57567981388E+01 -0.25833731501E+01 -0.20783147752E+02  0.21719893471E+02  0.51100000000E-03 0. -1.
        -11    1    3    3    0    0  0.37719194746E+01  0.56243517380E+01 -0.22463085110E+01  0.71348869076E+01  0.51100000000E-03 0.  1.
         12    1    3    3    0    0  0.15522315834E+02  0.28886561912E+01 -0.14848541697E+02  0.21674081617E+02  0.00000000000E+00 0. -1.
</event>
<event>
 7    1  0.1098446E-012  0.5052886E+02  0.7816164E-02  0.1300439E+00
        -11   -1    0    0    0    0  0.00000000000E+00  0.00000000000E+00  0.45593999997E+02  0.45594000000E+02  0.51100000000E-03 0. -1.
         11   -1    0    0    0    0 -0.00000000000E+00 -0.00000000000E+00 -0.45593999997E+02  0.45594000000E+02  0.51100000000E-03 0.  1.
    9900012    2    1    2    0    0  0.36500385152E+02 -0.14894139904E+02 -0.99525072030E+01  0.50528856879E+02  0.29999990969E+02 0.  0.
        -12    1    1    2    0    0 -0.36500385152E+02  0.14894139904E+02  0.99525072030E+01  0.40659143121E+02  0.00000000000E+00 0.  1.
         11    1    3    3    0    0 -0.13156374246E+01 -0.65365981179E+01  0.41198418276E+01  0.78378003121E+01  0.51100000000E-03 0. -1.
        -11    1    3    3    0    0  0.55478878760E+01 -0.10998910197E+01 -0.67674735892E+01  0.88197233053E+01  0.51100000000E-03 0.  1.
         12    1    3    3    0    0  0.32268134700E+02 -0.72576507666E+01 -0.73048754413E+01  0.33871333261E+02  0.00000000000E+00 0. -1.
</event>
<event>
 7    1  0.1098446E-012  0.5052883E+02  0.7816164E-02  0.1300439E+00
        -11   -1    0    0    0    0  0.00000000000E+00  0.00000000000E+00  0.45593999997E+02  0.45594000000E+02  0.51100000000E-03 0.  1.
         11   -1    0    0    0    0 -0.00000000000E+00 -0.00000000000E+00 -0.45593999997E+02  0.45594000000E+02  0.51100000000E-03 0. -1.
    9900012    2    1    2    0    0 -0.31768625044E+01 -0.36036165796E+02 -0.18559917141E+02  0.50528828526E+02  0.29999904788E+02 0.  0.
        -12    1    1    2    0    0  0.31768625044E+01  0.36036165796E+02  0.18559917141E+02  0.40659171474E+02  0.00000000000E+00 0.  1.
         11    1    3    3    0    0  0.11059230957E+02 -0.10718629230E+02 -0.83521344699E+01  0.17520095673E+02  0.51100000000E-03 0.  1.
        -11    1    3    3    0    0 -0.45258358518E+01 -0.19613721551E+02 -0.65755259861E+01  0.21175901527E+02  0.51100000000E-03 0. -1.
         12    1    3    3    0    0 -0.97102576092E+01 -0.57038150153E+01 -0.36322566848E+01  0.11832831326E+02  0.00000000000E+00 0. -1.
</event>
<event>
 7    1  0.1098446E-012  0.5052889E+02  0.7816164E-02  0.1300439E+00
        -11   -1    0    0    0    0  0.00000000000E+00  0.00000000000E+00  0.45593999997E+02  0.45594000000E+02  0.51100000000E-03 0.  1.
         11   -1    0    0    0    0 -0.00000000000E+00 -0.00000000000E+00 -0.45593999997E+02  0.45594000000E+02  0.51100000000E-03 0. -1.
    9900012    2    1    2    0    0 -0.17680390715E+02 -0.25373950600E+02 -0.26395638323E+02  0.50528888999E+02  0.30000088601E+02 0.  0.
        -12    1    1    2    0    0  0.17680390715E+02  0.25373950600E+02  0.26395638323E+02  0.40659111001E+02  0.00000000000E+00 0.  1.
         11    1    3    3    0    0 -0.18336449840E+02 -0.14658843480E+01 -0.81755260119E+01  0.20129913947E+02  0.51100000000E-03 0.  1.
        -11    1    3    3    0    0  0.15775776882E+01 -0.17654166351E+02 -0.11270106841E+02  0.21004134102E+02  0.51100000000E-03 0. -1.
         12    1    3    3    0    0 -0.92151856234E+00 -0.62538999013E+01 -0.69500054704E+01  0.93948409499E+01  0.00000000000E+00 0. -1.
</event>
<event>
 7    1  0.1098446E-012  0.5052885E+02  0.7816164E-02  0.1300439E+00
        -11   -1    0    0    0    0  0.00000000000E+00  0.00000000000E+00  0.45593999997E+02  0.45594000000E+02  0.51100000000E-03 0.  1.
         11   -1    0    0    0    0 -0.00000000000E+00 -0.00000000000E+00 -0.45593999997E+02  0.45594000000E+02  0.51100000000E-03 0. -1.
    9900012    2    1    2    0    0  0.11731019858E+02 -0.23412604063E+02 -0.31103043347E+02  0.50528853903E+02  0.29999981923E+02 0.  0.
        -12    1    1    2    0    0 -0.11731019858E+02  0.23412604063E+02  0.31103043347E+02  0.40659146097E+02  0.00000000000E+00 0.  1.
         11    1    3    3    0    0  0.12630197861E+02 -0.26476370081E+02 -0.29073011038E+02  0.41300847954E+02  0.51100000000E-03 0. -1.
        -11    1    3    3    0    0  0.13024088306E-01  0.25157175262E+01  0.30979444372E+01  0.39907723933E+01  0.51100000000E-03 0.  1.
         12    1    3    3    0    0 -0.91220209192E+00  0.54804849123E+00 -0.51279767457E+01  0.52372335550E+01  0.00000000000E+00 0. -1.
</event>
<event>
 7    1  0.1098446E-012  0.5052890E+02  0.7816164E-02  0.1300439E+00
        -11   -1    0    0    0    0  0.00000000000E+00  0.00000000000E+00  0.45593999997E+02  0.45594000000E+02  0.51100000000E-03 0.  1.
         11   -1    0    0    0    0 -0.00000000000E+00 -0.00000000000E+00 -0.45593999997E+02  0.45594000000E+02  0.51100000000E-03 0. -1.
    9900012    2    1    2    0    0 -0.86277112505E+01 -0.13023319385E+02 -0.37538221259E+02  0.50528901332E+02  0.30000126088E+02 0.  0.
        -12    1    1    2    0    0  0.86277112505E+01  0.13023319385E+02  0.37538221259E+02  0.40659098668E+02  0.00000000000E+00 0.  1.
         11    1    3    3    0    0  0.38105879373E+01 -0.16436447976E+02 -0.16974403601E+02  0.23933403026E+02  0.51100000000E-03 0. -1.
        -11    1    3    3    0    0 -0.95419665052E+01  0.72510468196E+01 -0.13519079494E+02  0.18066330989E+02  0.51100000000E-03 0.  1.
        -12    1    3    3    0    0 -0.28963326826E+01 -0.38379182286E+01 -0.70447381629E+01  0.85291673170E+01  0.00000000000E+00 0.  1.
</event>
<event>
 7    1  0.1098446E-012  0.5052887E+02  0.7816164E-02  0.1300439E+00
        -11   -1    0    0    0    0  0.00000000000E+00  0.00000000000E+00  0.45593999997E+02  0.45594000000E+02  0.51100000000E-03 0.  1.
         11   -1    0    0    0    0 -0.00000000000E+00 -0.00000000000E+00 -0.45593999997E+02  0.45594000000E+02  0.51100000000E-03 0. -1.
    9900012    2    1    2    0    0 -0.15084993885E+02 -0.28710924501E+02 -0.24521233305E+02  0.50528866844E+02  0.30000021259E+02 0.  0.
        -12    1    1    2    0    0  0.15084993885E+02  0.28710924501E+02  0.24521233305E+02  0.40659133156E+02  0.00000000000E+00 0.  1.
         11    1    3    3    0    0 -0.22639558206E+02 -0.23956017945E+02 -0.16528022192E+02  0.36872969902E+02  0.51100000000E-03 0. -1.
        -11    1    3    3    0    0  0.72864643566E+01 -0.60990345830E+01 -0.60034412761E+01  0.11239755028E+02  0.51100000000E-03 0.  1.
         12    1    3    3    0    0  0.26809996475E+00  0.13441280275E+01 -0.19897698368E+01  0.24161419141E+01  0.00000000000E+00 0. -1.
</event>
<event>
 7    1  0.1098446E-012  0.5052886E+02  0.7816164E-02  0.1300439E+00
        -11   -1    0    0    0    0  0.00000000000E+00  0.00000000000E+00  0.45593999997E+02  0.45594000000E+02  0.51100000000E-03 0. -1.
         11   -1    0    0    0    0 -0.00000000000E+00 -0.00000000000E+00 -0.45593999997E+02  0.45594000000E+02  0.51100000000E-03 0.  1.
    9900012    2    1    2    0    0  0.20227414971E+02 -0.10760843649E+02  0.33589008331E+02  0.50528861383E+02  0.30000004661E+02 0.  0.
        -12    1    1    2    0    0 -0.20227414971E+02  0.10760843649E+02 -0.33589008331E+02  0.40659138617E+02  0.00000000000E+00 0.  1.
         11    1    3    3    0    0  0.15388241741E+02 -0.13689127640E+02  0.30740930391E+02  0.37002635055E+02  0.51100000000E-03 0. -1.
        -11    1    3    3    0    0 -0.22773436765E+01 -0.12371651673E+01 -0.25776928990E+01  0.36553211644E+01  0.51100000000E-03 0.  1.
         12    1    3    3    0    0  0.71165169063E+01  0.41654491584E+01  0.54257708381E+01  0.98709051640E+01  0.00000000000E+00 0. -1.
</event>
<event>
 7    1  0.1098446E-012  0.5052886E+02  0.7816164E-02  0.1300439E+00
        -11   -1    0    0    0    0  0.00000000000E+00  0.00000000000E+00  0.45593999997E+02  0.45594000000E+02  0.51100000000E-03 0. -1.
         11   -1    0    0    0    0 -0.00000000000E+00 -0.00000000000E+00 -0.45593999997E+02  0.45594000000E+02  0.51100000000E-03 0.  1.
    9900012    2    1    2    0    0 -0.25953845064E+02  0.27312029904E+02  0.15284523659E+02  0.50528859397E+02  0.29999998624E+02 0.  0.
        -12    1    1    2    0    0  0.25953845064E+02 -0.27312029904E+02 -0.15284523659E+02  0.40659140603E+02  0.00000000000E+00 0.  1.
         11    1    3    3    0    0 -0.24309873626E+02  0.27305941669E+02  0.31665622265E+01  0.36696205836E+02  0.51100000000E-03 0. -1.
        -11    1    3    3    0    0  0.13038618999E+01 -0.82385959793E+00  0.99782846939E+01  0.10096779991E+02  0.51100000000E-03 0.  1.
        -12    1    3    3    0    0 -0.29478333374E+01  0.82994783281E+00  0.21396767388E+01  0.37358735708E+01  0.00000000000E+00 0.  1.
</event>
<event>
 7    1  0.1098446E-012  0.5052885E+02  0.7816164E-02  0.1300439E+00
        -11   -1    0    0    0    0  0.00000000000E+00  0.00000000000E+00  0.45593999997E+02  0.45594000000E+02  0.51100000000E-03 0.  1.
         11   -1    0    0    0    0 -0.00000000000E+00 -0.00000000000E+00 -0.45593999997E+02  0.45594000000E+02  0.51100000000E-03 0. -1.
    9900012    2    1    2    0    0 -0.14521955253E+02 -0.27864167437E+02 -0.25804404938E+02  0.50528851884E+02  0.29999975786E+02 0.  0.
        -12    1    1    2    0    0  0.14521955253E+02  0.27864167437E+02  0.25804404938E+02  0.40659148116E+02  0.00000000000E+00 0.  1.
         11    1    3    3    0    0 -0.14110780349E+02 -0.22155353666E+01 -0.16110843955E+02  0.21530954744E+02  0.51100000000E-03 0. -1.
        -11    1    3    3    0    0 -0.24838418553E+01 -0.24889250361E+02 -0.95893017610E+01  0.26788037674E+02  0.51100000000E-03 0.  1.
        -12    1    3    3    0    0  0.20726669512E+01 -0.75938170966E+00 -0.10425922259E+00  0.22098594655E+01  0.00000000000E+00 0.  1.
</event>
<event>
 7    1  0.1098446E-012  0.5052886E+02  0.7816164E-02  0.1300439E+00
        -11   -1    0    0    0    0  0.00000000000E+00  0.00000000000E+00  0.45593999997E+02  0.45594000000E+02  0.51100000000E-03 0.  1.
         11   -1    0    0    0    0 -0.00000000000E+00 -0.00000000000E+00 -0.45593999997E+02  0.45594000000E+02  0.51100000000E-03 0. -1.
    9900012    2    1    2    0    0  0.29441470291E+02  0.17260325143E+02 -0.22100830796E+02  0.50528859345E+02  0.29999998465E+02 0.  0.
        -12    1    1    2    0    0 -0.29441470291E+02 -0.17260325143E+02  0.22100830796E+02  0.40659140655E+02  0.00000000000E+00 0.  1.
         11    1    3    3    0    0  0.19959810163E+02  0.88971245169E+01 -0.15247016982E+02  0.26646282546E+02  0.51100000000E-03 0. -1.
        -11    1    3    3    0    0 -0.14198377601E+01 -0.51204971917E+01 -0.22223403017E+00  0.53183473918E+01  0.51100000000E-03 0.  1.
        -12    1    3    3    0    0  0.10901497888E+02  0.13483697818E+02 -0.66315797838E+01  0.18564229407E+02  0.00000000000E+00 0.  1.
</event>
<event>
 7    1  0.1098446E-012  0.5052886E+02  0.7816164E-02  0.1300439E+00
        -11   -1    0    0    0    0  0.00000000000E+00  0.00000000000E+00  0.45593999997E+02  0.45594000000E+02  0.51100000000E-03 0. -1.
         11   -1    0    0    0    0 -0.00000000000E+00 -0.00000000000E+00 -0.45593999997E+02  0.45594000000E+02  0.51100000000E-03 0.  1.
    9900012    2    1    2    0    0  0.21021682807E+01 -0.35888277056E+02  0.18994157355E+02  0.50528861358E+02  0.30000004582E+02 0.  0.
        -12    1    1    2    0    0 -0.21021682807E+01  0.35888277056E+02 -0.18994157355E+02  0.40659138642E+02  0.00000000000E+00 0.  1.
         11    1    3    3    0    0 -0.53473283940E+01 -0.22979543884E+01 -0.49379687126E+01  0.76326961548E+01  0.51100000000E-03 0.  1.
        -11    1    3    3    0    0  0.35971692688E+01 -0.27963066257E+02  0.15931232318E+02  0.32383280634E+02  0.51100000000E-03 0. -1.
         12    1    3    3    0    0  0.38523274060E+01 -0.56272564109E+01  0.80008937494E+01  0.10512884568E+02  0.00000000000E+00 0. -1.
</event>
<event>
 7    1  0.1098446E-012  0.5052883E+02  0.7816164E-02  0.1300439E+00
        -11   -1    0    0    0    0  0.00000000000E+00  0.00000000000E+00  0.45593999997E+02  0.45594000000E+02  0.51100000000E-03 0.  1.
         11   -1    0    0    0    0 -0.00000000000E+00 -0.00000000000E+00 -0.45593999997E+02  0.45594000000E+02  0.51100000000E-03 0. -1.
    9900012    2    1    2    0    0  0.28698466867E+02  0.27487553427E+02 -0.86023577028E+01  0.50528829423E+02  0.29999907515E+02 0.  0.
        -12    1    1    2    0    0 -0.28698466867E+02 -0.27487553427E+02  0.86023577028E+01  0.40659170577E+02  0.00000000000E+00 0.  1.
         11    1    3    3    0    0  0.25744035081E+02  0.16596511159E+02  0.47532230232E+01  0.30996655533E+02  0.51100000000E-03 0. -1.
        -11    1    3    3    0    0 -0.76220892576E+00  0.10126407652E+02 -0.78021121294E+01  0.12806172275E+02  0.51100000000E-03 0.  1.
         12    1    3    3    0    0  0.37166407122E+01  0.76463461617E+00 -0.55534685966E+01  0.67260016156E+01  0.00000000000E+00 0. -1.
</event>
<event>
 7    1  0.1098446E-012  0.5052885E+02  0.7816164E-02  0.1300439E+00
        -11   -1    0    0    0    0  0.00000000000E+00  0.00000000000E+00  0.45593999997E+02  0.45594000000E+02  0.51100000000E-03 0. -1.
         11   -1    0    0    0    0 -0.00000000000E+00 -0.00000000000E+00 -0.45593999997E+02  0.45594000000E+02  0.51100000000E-03 0.  1.
    9900012    2    1    2    0    0 -0.20141991930E+02 -0.67434984602E+01  0.34669750369E+02  0.50528853415E+02  0.29999980439E+02 0.  0.
        -12    1    1    2    0    0  0.20141991930E+02  0.67434984602E+01 -0.34669750369E+02  0.40659146585E+02  0.00000000000E+00 0.  1.
         11    1    3    3    0    0 -0.10173938916E+02 -0.15473927461E+02  0.19348494614E+02  0.26782750199E+02  0.51100000000E-03 0. -1.
        -11    1    3    3    0    0 -0.11119239622E+02  0.28236946378E+01  0.68722949809E+01  0.13373076675E+02  0.51100000000E-03 0.  1.
         12    1    3    3    0    0  0.11511866084E+01  0.59067343634E+01  0.84489607741E+01  0.10373026540E+02  0.00000000000E+00 0. -1.
</event>
<event>
 7    1  0.1098446E-012  0.5052886E+02  0.7816164E-02  0.1300439E+00
        -11   -1    0    0    0    0  0.00000000000E+00  0.00000000000E+00  0.45593999997E+02  0.45594000000E+02  0.51100000000E-03 0. -1.
         11   -1    0    0    0    0 -0.00000000000E+00 -0.00000000000E+00 -0.45593999997E+02  0.45594000000E+02  0.51100000000E-03 0.  1.
    9900012    2    1    2    0    0  0.16344024426E+02  0.32806954482E+02  0.17599491052E+02  0.50528862256E+02  0.30000007312E+02 0.  0.
        -12    1    1    2    0    0 -0.16344024426E+02 -0.32806954482E+02 -0.17599491052E+02  0.40659137744E+02  0.00000000000E+00 0.  1.
         11    1    3    3    0    0 -0.67180576059E+01  0.15509739487E+02  0.98599804365E+01  0.19567920979E+02  0.51100000000E-03 0. -1.
        -11    1    3    3    0    0  0.21907463715E+02  0.18224544166E+02  0.73311626167E+01  0.29424767154E+02  0.51100000000E-03 0.  1.
        -12    1    3    3    0    0  0.11546183170E+01 -0.92732917078E+00  0.40834799831E+00  0.15361741232E+01  0.00000000000E+00 0.  1.
</event>
<event>
 7    1  0.1098446E-012  0.5052886E+02  0.7816164E-02  0.1300439E+00
        -11   -1    0    0    0    0  0.00000000000E+00  0.00000000000E+00  0.45593999997E+02  0.45594000000E+02  0.51100000000E-03 0. -1.
         11   -1    0    0    0    0 -0.00000000000E+00 -0.00000000000E+00 -0.45593999997E+02  0.45594000000E+02  0.51100000000E-03 0.  1.
    9900012    2    1    2    0    0  0.73947481148E+01 -0.17245439478E+02  0.36070463018E+02  0.50528858533E+02  0.29999995998E+02 0.  0.
        -12    1    1    2    0    0 -0.73947481148E+01  0.17245439478E+02 -0.36070463018E+02  0.40659141467E+02  0.00000000000E+00 0.  1.
         11    1    3    3    0    0  0.78440341776E+01  0.18098507881E+01  0.19258632168E+01  0.82772810419E+01  0.51100000000E-03 0.  1.
        -11    1    3    3    0    0 -0.44738576985E+01 -0.17570207448E+02  0.18006755082E+02  0.25553293747E+02  0.51100000000E-03 0. -1.
        -12    1    3    3    0    0  0.40245716357E+01 -0.14850828177E+01  0.16137844719E+02  0.16698283744E+02  0.00000000000E+00 0.  1.
</event>
<event>
 7    1  0.1098446E-012  0.5052887E+02  0.7816164E-02  0.1300439E+00
        -11   -1    0    0    0    0  0.00000000000E+00  0.00000000000E+00  0.45593999997E+02  0.45594000000E+02  0.51100000000E-03 0. -1.
         11   -1    0    0    0    0 -0.00000000000E+00 -0.00000000000E+00 -0.45593999997E+02  0.45594000000E+02  0.51100000000E-03 0.  1.
    9900012    2    1    2    0    0 -0.20317387835E+02 -0.31591392929E+02 -0.15567665487E+02  0.50528873542E+02  0.30000041618E+02 0.  0.
        -12    1    1    2    0    0  0.20317387835E+02  0.31591392929E+02  0.15567665487E+02  0.40659126458E+02  0.00000000000E+00 0.  1.
         11    1    3    3    0    0 -0.43011275373E+01 -0.33393676791E+01 -0.62530090810E+00  0.54810652318E+01  0.51100000000E-03 0. -1.
        -11    1    3    3    0    0 -0.21823065211E+02 -0.25256389287E+02 -0.59067063141E+01  0.33897205707E+02  0.51100000000E-03 0.  1.
        -12    1    3    3    0    0  0.58068049133E+01 -0.29956359621E+01 -0.90356582652E+01  0.11150602603E+02  0.00000000000E+00 0.  1.
</event>
<event>
 7    1  0.1664854E-012  0.5052886E+02  0.7816164E-02  0.1300439E+00
        -11   -1    0    0    0    0  0.00000000000E+00  0.00000000000E+00  0.45593999997E+02  0.45594000000E+02  0.51100000000E-03 0. -1.
         11   -1    0    0    0    0 -0.00000000000E+00 -0.00000000000E+00 -0.45593999997E+02  0.45594000000E+02  0.51100000000E-03 0.  1.
    9900012    2    1    2    0    0 -0.13144195329E+02  0.17730538913E+02  0.34147095654E+02  0.50528855609E+02  0.29999987110E+02 0.  0.
        -12    1    1    2    0    0  0.13144195329E+02 -0.17730538913E+02 -0.34147095654E+02  0.40659144391E+02  0.00000000000E+00 0.  1.
         11    1    3    3    0    0  0.60970470490E+00  0.96039169188E+01  0.24159948670E+02  0.26005962393E+02  0.51100000000E-03 0. -1.
        -11    1    3    3    0    0 -0.46454849586E+01  0.81647673208E+01 -0.18628516298E+01  0.95767516601E+01  0.51100000000E-03 0.  1.
        -12    1    3    3    0    0 -0.91084150754E+01 -0.38145327004E-01  0.11849998614E+02  0.14946141556E+02  0.00000000000E+00 0.  1.
</event>
<event>
 7    1  0.1098446E-012  0.5052886E+02  0.7816164E-02  0.1300439E+00
        -11   -1    0    0    0    0  0.00000000000E+00  0.00000000000E+00  0.45593999997E+02  0.45594000000E+02  0.51100000000E-03 0.  1.
         11   -1    0    0    0    0 -0.00000000000E+00 -0.00000000000E+00 -0.45593999997E+02  0.45594000000E+02  0.51100000000E-03 0. -1.
    9900012    2    1    2    0    0 -0.24241157261E+02 -0.82227878828E+01 -0.31589836367E+02  0.50528859482E+02  0.29999998882E+02 0.  0.
        -12    1    1    2    0    0  0.24241157261E+02  0.82227878828E+01  0.31589836367E+02  0.40659140518E+02  0.00000000000E+00 0.  1.
         11    1    3    3    0    0 -0.18886184571E+01 -0.10277408420E+02 -0.11890071238E+02  0.15829270287E+02  0.51100000000E-03 0. -1.
        -11    1    3    3    0    0 -0.25346072048E+02  0.12197381233E+01 -0.18329903682E+02  0.31303298526E+02  0.51100000000E-03 0.  1.
        -12    1    3    3    0    0  0.29935332434E+01  0.83488241429E+00 -0.13698614471E+01  0.33962906691E+01  0.00000000000E+00 0.  1.
</event>
<event>
 7    1  0.1098446E-012  0.5052886E+02  0.7816164E-02  0.1300439E+00
        -11   -1    0    0    0    0  0.00000000000E+00  0.00000000000E+00  0.45593999997E+02  0.45594000000E+02  0.51100000000E-03 0.  1.
         11   -1    0    0    0    0 -0.00000000000E+00 -0.00000000000E+00 -0.45593999997E+02  0.45594000000E+02  0.51100000000E-03 0. -1.
    9900012    2    1    2    0    0 -0.22229848018E+02  0.96705627788E+01 -0.32641688119E+02  0.50528859200E+02  0.29999998023E+02 0.  0.
        -12    1    1    2    0    0  0.22229848018E+02 -0.96705627788E+01  0.32641688119E+02  0.40659140800E+02  0.00000000000E+00 0.  1.
         11    1    3    3    0    0 -0.20688868653E+02 -0.26270075138E+00 -0.30755156295E+02  0.37067208376E+02  0.51100000000E-03 0. -1.
        -11    1    3    3    0    0  0.14841155937E+01  0.83232418863E+00  0.24120523889E+01  0.29518400428E+01  0.51100000000E-03 0.  1.
         12    1    3    3    0    0 -0.30250949588E+01  0.91009393415E+01 -0.42985842128E+01  0.10509810781E+02  0.00000000000E+00 0. -1.
</event>
<event>
 7    1  0.1098446E-012  0.5052880E+02  0.7816164E-02  0.1300439E+00
        -11   -1    0    0    0    0  0.00000000000E+00  0.00000000000E+00  0.45593999997E+02  0.45594000000E+02  0.51100000000E-03 0. -1.
         11   -1    0    0    0    0 -0.00000000000E+00 -0.00000000000E+00 -0.45593999997E+02  0.45594000000E+02  0.51100000000E-03 0.  1.
    9900012    2    1    2    0    0 -0.56086077522E+01 -0.35285459794E+01  0.40115626270E+02  0.50528799459E+02  0.29999816434E+02 0.  0.
        -12    1    1    2    0    0  0.56086077522E+01  0.35285459794E+01 -0.40115626270E+02  0.40659200541E+02  0.00000000000E+00 0.  1.
         11    1    3    3    0    0 -0.26923354454E+01  0.17319212960E+01  0.38743711830E+02  0.38875743441E+02  0.51100000000E-03 0. -1.
        -11    1    3    3    0    0 -0.44311564916E+01 -0.43159426686E+01  0.47722274425E+01  0.78125964951E+01  0.51100000000E-03 0.  1.
         12    1    3    3    0    0  0.15148841848E+01 -0.94452460681E+00 -0.34003130025E+01  0.38404595222E+01  0.00000000000E+00 0. -1.
</event>
<event>
 7    1  0.1098446E-012  0.5052886E+02  0.7816164E-02  0.1300439E+00
        -11   -1    0    0    0    0  0.00000000000E+00  0.00000000000E+00  0.45593999997E+02  0.45594000000E+02  0.51100000000E-03 0. -1.
         11   -1    0    0    0    0 -0.00000000000E+00 -0.00000000000E+00 -0.45593999997E+02  0.45594000000E+02  0.51100000000E-03 0.  1.
    9900012    2    1    2    0    0  0.16617685773E+02 -0.21919803727E+01  0.37043400286E+02  0.50528858800E+02  0.29999996809E+02 0.  0.
        -12    1    1    2    0    0 -0.16617685773E+02  0.21919803727E+01 -0.37043400286E+02  0.40659141200E+02  0.00000000000E+00 0.  1.
         11    1    3    3    0    0  0.89198215637E+01 -0.10146646326E+02  0.18475853706E+02  0.22888311839E+02  0.51100000000E-03 0. -1.
        -11    1    3    3    0    0 -0.16232314331E+01  0.76422527315E+01  0.11686315344E+01  0.78996586649E+01  0.51100000000E-03 0.  1.
        -12    1    3    3    0    0  0.93210956421E+01  0.31241322203E+00  0.17398915045E+02  0.19740888296E+02  0.00000000000E+00 0.  1.
</event>
<event>
 7    1  0.1098446E-012  0.5052887E+02  0.7816164E-02  0.1300439E+00
        -11   -1    0    0    0    0  0.00000000000E+00  0.00000000000E+00  0.45593999997E+02  0.45594000000E+02  0.51100000000E-03 0.  1.
         11   -1    0    0    0    0 -0.00000000000E+00 -0.00000000000E+00 -0.45593999997E+02  0.45594000000E+02  0.51100000000E-03 0. -1.
    9900012    2    1    2    0    0 -0.23447335638E+02  0.31573092152E+02 -0.10321207755E+02  0.50528867864E+02  0.30000024358E+02 0.  0.
        -12    1    1    2    0    0  0.23447335638E+02 -0.31573092152E+02  0.10321207755E+02  0.40659132136E+02  0.00000000000E+00 0.  1.
         11    1    3    3    0    0 -0.10890762477E+01 -0.58074617960E+00 -0.52933917403E+00  0.13429644153E+01  0.51100000000E-03 0. -1.
        -11    1    3    3    0    0  0.14276715510E+01 -0.40156570329E+01 -0.33469463095E+01  0.54190218051E+01  0.51100000000E-03 0.  1.
        -12    1    3    3    0    0 -0.23785930942E+02  0.36169495364E+02 -0.64449222716E+01  0.43766881643E+02  0.00000000000E+00 0.  1.
</event>
<event>
 7    1  0.1098446E-012  0.5052886E+02  0.7816164E-02  0.1300439E+00
        -11   -1    0    0    0    0  0.00000000000E+00  0.00000000000E+00  0.45593999997E+02  0.45594000000E+02  0.51100000000E-03 0.  1.
         11   -1    0    0    0    0 -0.00000000000E+00 -0.00000000000E+00 -0.45593999997E+02  0.45594000000E+02  0.51100000000E-03 0. -1.
    9900012    2    1    2    0    0 -0.76321032772E+00  0.87534422903E+01 -0.39698368531E+02  0.50528859503E+02  0.29999998946E+02 0.  0.
        -12    1    1    2    0    0  0.76321032772E+00 -0.87534422903E+01  0.39698368531E+02  0.40659140497E+02  0.00000000000E+00 0.  1.
         11    1    3    3    0    0 -0.98181014680E+01  0.14350725176E+02 -0.32592106004E+02  0.36940273463E+02  0.51100000000E-03 0. -1.
        -11    1    3    3    0    0  0.26962922157E+01 -0.26216589895E+00 -0.74351385984E-01  0.27100278708E+01  0.51100000000E-03 0.  1.
         12    1    3    3    0    0  0.63585989246E+01 -0.53351169868E+01 -0.70319111411E+01  0.10878558169E+02  0.00000000000E+00 0. -1.
</event>
<event>
 7    1  0.1098446E-012  0.5052886E+02  0.7816164E-02  0.1300439E+00
        -11   -1    0    0    0    0  0.00000000000E+00  0.00000000000E+00  0.45593999997E+02  0.45594000000E+02  0.51100000000E-03 0.  1.
         11   -1    0    0    0    0 -0.00000000000E+00 -0.00000000000E+00 -0.45593999997E+02  0.45594000000E+02  0.51100000000E-03 0. -1.
    9900012    2    1    2    0    0  0.31624793126E+02 -0.20859978373E+02 -0.14761420732E+02  0.50528858593E+02  0.29999996179E+02 0.  0.
        -12    1    1    2    0    0 -0.31624793126E+02  0.20859978373E+02  0.14761420732E+02  0.40659141407E+02  0.00000000000E+00 0.  1.
         11    1    3    3    0    0  0.22413776970E+02 -0.38811395970E+01 -0.80846837367E+01  0.24141308043E+02  0.51100000000E-03 0. -1.
        -11    1    3    3    0    0  0.69669111643E-03 -0.10589907875E+02 -0.10133634988E+02  0.14657309017E+02  0.51100000000E-03 0.  1.
        -12    1    3    3    0    0  0.92103194641E+01 -0.63889309008E+01  0.34568979926E+01  0.11730241533E+02  0.00000000000E+00 0.  1.
</event>
<event>
 7    1  0.1098446E-012  0.5052887E+02  0.7816164E-02  0.1300439E+00
        -11   -1    0    0    0    0  0.00000000000E+00  0.00000000000E+00  0.45593999997E+02  0.45594000000E+02  0.51100000000E-03 0. -1.
         11   -1    0    0    0    0 -0.00000000000E+00 -0.00000000000E+00 -0.45593999997E+02  0.45594000000E+02  0.51100000000E-03 0.  1.
    9900012    2    1    2    0    0 -0.32636926621E+01 -0.32478933818E+02  0.24241122618E+02  0.50528869937E+02  0.30000030659E+02 0.  0.
        -12    1    1    2    0    0  0.32636926621E+01  0.32478933818E+02 -0.24241122618E+02  0.40659130063E+02  0.00000000000E+00 0.  1.
         11    1    3    3    0    0  0.45840616955E+01 -0.29544946425E+02  0.11541775576E+02  0.32048869943E+02  0.51100000000E-03 0. -1.
        -11    1    3    3    0    0 -0.78664396835E+01  0.21609448514E+01  0.92168879744E+01  0.12308597814E+02  0.51100000000E-03 0.  1.
         12    1    3    3    0    0  0.18685325946E-01 -0.50949322440E+01  0.34824590678E+01  0.61714021803E+01  0.00000000000E+00 0. -1.
</event>
<event>
 7    1  0.1098446E-012  0.5052886E+02  0.7816164E-02  0.1300439E+00
        -11   -1    0    0    0    0  0.00000000000E+00  0.00000000000E+00  0.45593999997E+02  0.45594000000E+02  0.51100000000E-03 0.  1.
         11   -1    0    0    0    0 -0.00000000000E+00 -0.00000000000E+00 -0.45593999997E+02  0.45594000000E+02  0.51100000000E-03 0. -1.
    9900012    2    1    2    0    0 -0.20510168701E+02 -0.11947691119E+02 -0.33011385706E+02  0.50528856754E+02  0.29999990590E+02 0.  0.
        -12    1    1    2    0    0  0.20510168701E+02  0.11947691119E+02  0.33011385706E+02  0.40659143246E+02  0.00000000000E+00 0.  1.
         11    1    3    3    0    0 -0.46648846173E-01  0.10636943456E+01 -0.23492088636E+02  0.23516203999E+02  0.51100000000E-03 0.  1.
        -11    1    3    3    0    0 -0.10856376722E+02 -0.32717102147E+01 -0.62489890961E+01  0.12946616092E+02  0.51100000000E-03 0. -1.
        -12    1    3    3    0    0 -0.96071431334E+01 -0.97396752495E+01 -0.32703079740E+01  0.14066036663E+02  0.00000000000E+00 0.  1.
</event>
<event>
 7    1  0.1098446E-012  0.5052886E+02  0.7816164E-02  0.1300439E+00
        -11   -1    0    0    0    0  0.00000000000E+00  0.00000000000E+00  0.45593999997E+02  0.45594000000E+02  0.51100000000E-03 0. -1.
         11   -1    0    0    0    0 -0.00000000000E+00 -0.00000000000E+00 -0.45593999997E+02  0.45594000000E+02  0.51100000000E-03 0.  1.
    9900012    2    1    2    0    0 -0.51722541963E+01  0.39538723830E+02  0.79437444236E+01  0.50528856243E+02  0.29999989036E+02 0.  0.
        -12    1    1    2    0    0  0.51722541963E+01 -0.39538723830E+02 -0.79437444236E+01  0.40659143757E+02  0.00000000000E+00 0.  1.
         11    1    3    3    0    0  0.79379427866E+01  0.31340308458E+02 -0.12761489552E+01  0.32355129830E+02  0.51100000000E-03 0. -1.
        -11    1    3    3    0    0 -0.88739581513E+01  0.42997450539E+01  0.64666918832E+01  0.11792075516E+02  0.51100000000E-03 0.  1.
         12    1    3    3    0    0 -0.42362388316E+01  0.38986703188E+01  0.27532014955E+01  0.63816508968E+01  0.00000000000E+00 0. -1.
</event>
<event>
 7    1  0.1098446E-012  0.5052892E+02  0.7816164E-02  0.1300439E+00
        -11   -1    0    0    0    0  0.00000000000E+00  0.00000000000E+00  0.45593999997E+02  0.45594000000E+02  0.51100000000E-03 0.  1.
         11   -1    0    0    0    0 -0.00000000000E+00 -0.00000000000E+00 -0.45593999997E+02  0.45594000000E+02  0.51100000000E-03 0. -1.
    9900012    2    1    2    0    0 -0.34150587855E+01  0.25305219939E+02 -0.31640858920E+02  0.50528920622E+02  0.30000184722E+02 0.  0.
        -12    1    1    2    0    0  0.34150587855E+01 -0.25305219939E+02  0.31640858920E+02  0.40659079378E+02  0.00000000000E+00 0.  1.
         11    1    3    3    0    0 -0.51953441604E+01  0.59181397268E+00 -0.23496552689E+02  0.24071348804E+02  0.51100000000E-03 0. -1.
        -11    1    3    3    0    0  0.28786124434E+01  0.19163227385E+02 -0.51247510216E+01  0.20044419840E+02  0.51100000000E-03 0.  1.
         12    1    3    3    0    0 -0.10983270684E+01  0.55501785810E+01 -0.30195552100E+01  0.64131519782E+01  0.00000000000E+00 0. -1.
</event>
<event>
 7    1  0.1098446E-012  0.5052886E+02  0.7816164E-02  0.1300439E+00
        -11   -1    0    0    0    0  0.00000000000E+00  0.00000000000E+00  0.45593999997E+02  0.45594000000E+02  0.51100000000E-03 0. -1.
         11   -1    0    0    0    0 -0.00000000000E+00 -0.00000000000E+00 -0.45593999997E+02  0.45594000000E+02  0.51100000000E-03 0.  1.
    9900012    2    1    2    0    0 -0.29315572399E+00 -0.38373917276E+02  0.13435868697E+02  0.50528855457E+02  0.29999986646E+02 0.  0.
        -12    1    1    2    0    0  0.29315572399E+00  0.38373917276E+02 -0.13435868697E+02  0.40659144543E+02  0.00000000000E+00 0.  1.
         11    1    3    3    0    0  0.21444960814E+01 -0.35528158316E+02  0.38163710689E+01  0.35796837642E+02  0.51100000000E-03 0. -1.
        -11    1    3    3    0    0 -0.48810160314E+01 -0.48879661843E+01  0.92229406643E+01  0.11522984235E+02  0.51100000000E-03 0.  1.
        -12    1    3    3    0    0  0.24433642260E+01  0.20422072248E+01  0.39655696370E+00  0.32090335797E+01  0.00000000000E+00 0.  1.
</event>
<event>
 7    1  0.1098446E-012  0.5052886E+02  0.7816164E-02  0.1300439E+00
        -11   -1    0    0    0    0  0.00000000000E+00  0.00000000000E+00  0.45593999997E+02  0.45594000000E+02  0.51100000000E-03 0.  1.
         11   -1    0    0    0    0 -0.00000000000E+00 -0.00000000000E+00 -0.45593999997E+02  0.45594000000E+02  0.51100000000E-03 0. -1.
    9900012    2    1    2    0    0 -0.11517058408E+02  0.33904181366E+02 -0.19262126188E+02  0.50528860145E+02  0.30000000895E+02 0.  0.
        -12    1    1    2    0    0  0.11517058408E+02 -0.33904181366E+02  0.19262126188E+02  0.40659139855E+02  0.00000000000E+00 0.  1.
         11    1    3    3    0    0 -0.89772347980E+01  0.12342011339E+02 -0.16369069141E+02  0.22379955615E+02  0.51100000000E-03 0. -1.
        -11    1    3    3    0    0 -0.70830694985E+01  0.20533879884E+02  0.14642098424E+01  0.21770484775E+02  0.51100000000E-03 0.  1.
        -12    1    3    3    0    0  0.45432458882E+01  0.10282901427E+01 -0.43572668896E+01  0.63784197546E+01  0.00000000000E+00 0.  1.
</event>
<event>
 7    1  0.1098446E-012  0.5052886E+02  0.7816164E-02  0.1300439E+00
        -11   -1    0    0    0    0  0.00000000000E+00  0.00000000000E+00  0.45593999997E+02  0.45594000000E+02  0.51100000000E-03 0.  1.
         11   -1    0    0    0    0 -0.00000000000E+00 -0.00000000000E+00 -0.45593999997E+02  0.45594000000E+02  0.51100000000E-03 0. -1.
    9900012    2    1    2    0    0 -0.13966014544E+01  0.21654341273E+02 -0.34384655146E+02  0.50528862022E+02  0.30000006602E+02 0.  0.
        -12    1    1    2    0    0  0.13966014544E+01 -0.21654341273E+02  0.34384655146E+02  0.40659137978E+02  0.00000000000E+00 0.  1.
         11    1    3    3    0    0 -0.24517231680E+00  0.54176686989E+01 -0.30257837501E+02  0.30740006084E+02  0.51100000000E-03 0. -1.
        -11    1    3    3    0    0  0.12198997424E+01  0.56829989268E+01  0.32848271073E+01  0.66764303014E+01  0.51100000000E-03 0.  1.
        -12    1    3    3    0    0 -0.23713288800E+01  0.10553673647E+02 -0.74116447530E+01  0.13112425636E+02  0.00000000000E+00 0.  1.
</event>
<event>
 7    1  0.1098446E-012  0.5052885E+02  0.7816164E-02  0.1300439E+00
        -11   -1    0    0    0    0  0.00000000000E+00  0.00000000000E+00  0.45593999997E+02  0.45594000000E+02  0.51100000000E-03 0.  1.
         11   -1    0    0    0    0 -0.00000000000E+00 -0.00000000000E+00 -0.45593999997E+02  0.45594000000E+02  0.51100000000E-03 0. -1.
    9900012    2    1    2    0    0  0.29223114064E+02 -0.52251525360E+01 -0.27782612462E+02  0.50528853799E+02  0.29999981607E+02 0.  0.
        -12    1    1    2    0    0 -0.29223114064E+02  0.52251525360E+01  0.27782612462E+02  0.40659146201E+02  0.00000000000E+00 0.  1.
         11    1    3    3    0    0  0.11437328594E+02 -0.11212181665E+02 -0.13871057965E+02  0.21188009637E+02  0.51100000000E-03 0. -1.
        -11    1    3    3    0    0  0.65080917381E+01  0.55824111465E+01  0.29359832286E+01  0.90630331600E+01  0.51100000000E-03 0.  1.
         12    1    3    3    0    0  0.11277693732E+02  0.40461798273E+00 -0.16847537725E+02  0.20277811002E+02  0.00000000000E+00 0. -1.
</event>
<event>
 7    1  0.1098446E-012  0.5052886E+02  0.7816164E-02  0.1300439E+00
        -11   -1    0    0    0    0  0.00000000000E+00  0.00000000000E+00  0.45593999997E+02  0.45594000000E+02  0.51100000000E-03 0. -1.
         11   -1    0    0    0    0 -0.00000000000E+00 -0.00000000000E+00 -0.45593999997E+02  0.45594000000E+02  0.51100000000E-03 0.  1.
    9900012    2    1    2    0    0 -0.26913918624E+02  0.28237649969E+02 -0.11464818856E+02  0.50528856344E+02  0.29999989342E+02 0.  0.
        -12    1    1    2    0    0  0.26913918624E+02 -0.28237649969E+02  0.11464818856E+02  0.40659143656E+02  0.00000000000E+00 0.  1.
         11    1    3    3    0    0 -0.43716230475E+01  0.18961592259E+02  0.95348370322E+00  0.19482356133E+02  0.51100000000E-03 0. -1.
        -11    1    3    3    0    0 -0.24046720416E+02  0.67819815539E+01 -0.12860571522E+02  0.28100433034E+02  0.51100000000E-03 0.  1.
        -12    1    3    3    0    0  0.15044248404E+01  0.24940761565E+01  0.44226896199E+00  0.29460671767E+01  0.00000000000E+00 0.  1.
</event>
<event>
 7    1  0.1098446E-012  0.5052888E+02  0.7816164E-02  0.1300439E+00
        -11   -1    0    0    0    0  0.00000000000E+00  0.00000000000E+00  0.45593999997E+02  0.45594000000E+02  0.51100000000E-03 0.  1.
         11   -1    0    0    0    0 -0.00000000000E+00 -0.00000000000E+00 -0.45593999997E+02  0.45594000000E+02  0.51100000000E-03 0. -1.
    9900012    2    1    2    0    0 -0.28611699777E+02 -0.11982000790E+02  0.26286240954E+02  0.50528878385E+02  0.30000056338E+02 0.  0.
        -12    1    1    2    0    0  0.28611699777E+02  0.11982000790E+02 -0.26286240954E+02  0.40659121615E+02  0.00000000000E+00 0.  1.
         11    1    3    3    0    0 -0.14323050031E+02 -0.12274681517E+02  0.11967499283E+02  0.22339172050E+02  0.51100000000E-03 0. -1.
        -11    1    3    3    0    0 -0.10898603080E+02  0.18442577280E+01 -0.21872745086E+01  0.11267874942E+02  0.51100000000E-03 0.  1.
        -12    1    3    3    0    0 -0.33900466654E+01 -0.15515770019E+01  0.16506016179E+02  0.16921831393E+02  0.00000000000E+00 0.  1.
</event>
<event>
 7    1  0.1098446E-012  0.5052882E+02  0.7816164E-02  0.1300439E+00
        -11   -1    0    0    0    0  0.00000000000E+00  0.00000000000E+00  0.45593999997E+02  0.45594000000E+02  0.51100000000E-03 0.  1.
         11   -1    0    0    0    0 -0.00000000000E+00 -0.00000000000E+00 -0.45593999997E+02  0.45594000000E+02  0.51100000000E-03 0. -1.
    9900012    2    1    2    0    0  0.24739861521E+02 -0.48045109607E+01 -0.31906507242E+02  0.50528815576E+02  0.29999865424E+02 0.  0.
        -12    1    1    2    0    0 -0.24739861521E+02  0.48045109607E+01  0.31906507242E+02  0.40659184424E+02  0.00000000000E+00 0.  1.
         11    1    3    3    0    0  0.20239038438E+02 -0.72273584155E+01 -0.30816738806E+02  0.37570264538E+02  0.51100000000E-03 0. -1.
        -11    1    3    3    0    0 -0.13006868297E+01 -0.38331381589E+01 -0.17312156840E+01  0.44024813889E+01  0.51100000000E-03 0.  1.
         12    1    3    3    0    0  0.58015099130E+01  0.62559856137E+01  0.64144724764E+00  0.85560696492E+01  0.00000000000E+00 0. -1.
</event>
<event>
 7    1  0.1098446E-012  0.5052881E+02  0.7816164E-02  0.1300439E+00
        -11   -1    0    0    0    0  0.00000000000E+00  0.00000000000E+00  0.45593999997E+02  0.45594000000E+02  0.51100000000E-03 0.  1.
         11   -1    0    0    0    0 -0.00000000000E+00 -0.00000000000E+00 -0.45593999997E+02  0.45594000000E+02  0.51100000000E-03 0. -1.
    9900012    2    1    2    0    0 -0.15246293290E+01  0.23465619924E+02 -0.33169408735E+02  0.50528812983E+02  0.29999857544E+02 0.  0.
        -12    1    1    2    0    0  0.15246293290E+01 -0.23465619924E+02  0.33169408735E+02  0.40659187017E+02  0.00000000000E+00 0.  1.
         11    1    3    3    0    0  0.74899028942E+01  0.98035677597E+01 -0.16659781400E+02  0.20730578929E+02  0.51100000000E-03 0. -1.
        -11    1    3    3    0    0 -0.60947907294E+01 -0.37161199062E+01 -0.39464081518E+01  0.81566021574E+01  0.51100000000E-03 0.  1.
         12    1    3    3    0    0 -0.29197414939E+01  0.17378172071E+02 -0.12563219183E+02  0.21641631897E+02  0.00000000000E+00 0. -1.
</event>
<event>
 7    1  0.1098446E-012  0.5052887E+02  0.7816164E-02  0.1300439E+00
        -11   -1    0    0    0    0  0.00000000000E+00  0.00000000000E+00  0.45593999997E+02  0.45594000000E+02  0.51100000000E-03 0.  1.
         11   -1    0    0    0    0 -0.00000000000E+00 -0.00000000000E+00 -0.45593999997E+02  0.45594000000E+02  0.51100000000E-03 0. -1.
    9900012    2    1    2    0    0 -0.22368857539E+02 -0.33689370422E+02  0.42220029099E+01  0.50528870944E+02  0.30000033720E+02 0.  0.
        -12    1    1    2    0    0  0.22368857539E+02  0.33689370422E+02 -0.42220029099E+01  0.40659129056E+02  0.00000000000E+00 0.  1.
         11    1    3    3    0    0  0.23871251516E+01 -0.18314158956E+01  0.31188616330E+00  0.30248510561E+01  0.51100000000E-03 0. -1.
        -11    1    3    3    0    0 -0.19263797497E+02 -0.32286312096E+02 -0.40602438917E+01  0.37815148070E+02  0.51100000000E-03 0.  1.
        -12    1    3    3    0    0 -0.54921851930E+01  0.42835756953E+00  0.79703606382E+01  0.96888718180E+01  0.00000000000E+00 0.  1.
</event>
<event>
 7    1  0.1098446E-012  0.5052886E+02  0.7816164E-02  0.1300439E+00
        -11   -1    0    0    0    0  0.00000000000E+00  0.00000000000E+00  0.45593999997E+02  0.45594000000E+02  0.51100000000E-03 0.  1.
         11   -1    0    0    0    0 -0.00000000000E+00 -0.00000000000E+00 -0.45593999997E+02  0.45594000000E+02  0.51100000000E-03 0. -1.
    9900012    2    1    2    0    0  0.26658013276E+02 -0.29532195394E+02  0.83884238851E+01  0.50528857217E+02  0.29999991996E+02 0.  0.
        -12    1    1    2    0    0 -0.26658013276E+02  0.29532195394E+02 -0.83884238851E+01  0.40659142783E+02  0.00000000000E+00 0.  1.
         11    1    3    3    0    0  0.30487878404E+02 -0.16560217950E+02  0.43359549773E+01  0.34965011854E+02  0.51100000000E-03 0. -1.
        -11    1    3    3    0    0 -0.26393480039E+01 -0.13061970432E+02  0.24240436590E+01  0.13544637956E+02  0.51100000000E-03 0.  1.
        -12    1    3    3    0    0 -0.11905171242E+01  0.89992987754E-01  0.16284252488E+01  0.20192074068E+01  0.00000000000E+00 0.  1.
</event>
<event>
 7    1  0.1098446E-012  0.5052885E+02  0.7816164E-02  0.1300439E+00
        -11   -1    0    0    0    0  0.00000000000E+00  0.00000000000E+00  0.45593999997E+02  0.45594000000E+02  0.51100000000E-03 0. -1.
         11   -1    0    0    0    0 -0.00000000000E+00 -0.00000000000E+00 -0.45593999997E+02  0.45594000000E+02  0.51100000000E-03 0.  1.
    9900012    2    1    2    0    0 -0.23025456884E+02  0.10628034494E+02  0.31781118070E+02  0.50528852841E+02  0.29999978695E+02 0.  0.
        -12    1    1    2    0    0  0.23025456884E+02 -0.10628034494E+02 -0.31781118070E+02  0.40659147159E+02  0.00000000000E+00 0.  1.
         11    1    3    3    0    0 -0.11118412734E+02  0.64202938047E+01  0.29391214310E+01  0.13171093703E+02  0.51100000000E-03 0. -1.
        -11    1    3    3    0    0 -0.10916348196E+02  0.25927209833E+01  0.31869153476E+02  0.33786562470E+02  0.51100000000E-03 0.  1.
        -12    1    3    3    0    0 -0.99069595394E+00  0.16150197063E+01 -0.30271568371E+01  0.35711966680E+01  0.00000000000E+00 0.  1.
</event>
<event>
 7    1  0.1098446E-012  0.5052897E+02  0.7816164E-02  0.1300438E+00
        -11   -1    0    0    0    0  0.00000000000E+00  0.00000000000E+00  0.45593999997E+02  0.45594000000E+02  0.51100000000E-03 0. -1.
         11   -1    0    0    0    0 -0.00000000000E+00 -0.00000000000E+00 -0.45593999997E+02  0.45594000000E+02  0.51100000000E-03 0.  1.
    9900012    2    1    2    0    0  0.18156695672E+02 -0.10224522554E+02  0.34913463108E+02  0.50528974368E+02  0.30000348086E+02 0.  0.
        -12    1    1    2    0    0 -0.18156695672E+02  0.10224522554E+02 -0.34913463108E+02  0.40659025632E+02  0.00000000000E+00 0.  1.
         11    1    3    3    0    0  0.96808515582E+00 -0.10627815882E+02  0.50970828082E+01  0.11826576542E+02  0.51100000000E-03 0. -1.
        -11    1    3    3    0    0  0.49760885640E+01  0.77122769245E+01  0.17995836951E+02  0.20201257896E+02  0.51100000000E-03 0.  1.
        -12    1    3    3    0    0  0.12212521952E+02 -0.73089835970E+01  0.11820543348E+02  0.18501139930E+02  0.00000000000E+00 0.  1.
</event>
<event>
 7    1  0.1098446E-012  0.5052886E+02  0.7816164E-02  0.1300439E+00
        -11   -1    0    0    0    0  0.00000000000E+00  0.00000000000E+00  0.45593999997E+02  0.45594000000E+02  0.51100000000E-03 0.  1.
         11   -1    0    0    0    0 -0.00000000000E+00 -0.00000000000E+00 -0.45593999997E+02  0.45594000000E+02  0.51100000000E-03 0. -1.
    9900012    2    1    2    0    0 -0.21441733696E+02  0.25544048151E+01 -0.34451310086E+02  0.50528859644E+02  0.29999999373E+02 0.  0.
        -12    1    1    2    0    0  0.21441733696E+02 -0.25544048151E+01  0.34451310086E+02  0.40659140356E+02  0.00000000000E+00 0.  1.
         11    1    3    3    0    0 -0.15894400606E+02 -0.51542132976E+01 -0.35094003310E+02  0.38868842971E+02  0.51100000000E-03 0. -1.
        -11    1    3    3    0    0  0.12786108285E+01  0.28404837004E+01 -0.63531853178E+00  0.31791230239E+01  0.51100000000E-03 0.  1.
         12    1    3    3    0    0 -0.68259439187E+01  0.48681344122E+01  0.12780117553E+01  0.84808936488E+01  0.00000000000E+00 0. -1.
</event>
<event>
 7    1  0.1098446E-012  0.5052885E+02  0.7816164E-02  0.1300439E+00
        -11   -1    0    0    0    0  0.00000000000E+00  0.00000000000E+00  0.45593999997E+02  0.45594000000E+02  0.51100000000E-03 0. -1.
         11   -1    0    0    0    0 -0.00000000000E+00 -0.00000000000E+00 -0.45593999997E+02  0.45594000000E+02  0.51100000000E-03 0.  1.
    9900012    2    1    2    0    0  0.77307694776E+01  0.31674108045E+02  0.24293053118E+02  0.50528851620E+02  0.29999974984E+02 0.  0.
        -12    1    1    2    0    0 -0.77307694776E+01 -0.31674108045E+02 -0.24293053118E+02  0.40659148380E+02  0.00000000000E+00 0.  1.
         11    1    3    3    0    0  0.37334878148E+00  0.10336705248E+02 -0.51151978378E+01  0.11539155683E+02  0.51100000000E-03 0. -1.
        -11    1    3    3    0    0  0.29194015355E+01  0.21515960790E+01  0.12560952308E+02  0.13074012168E+02  0.51100000000E-03 0.  1.
         12    1    3    3    0    0  0.44380191606E+01  0.19185806718E+02  0.16847298648E+02  0.25915683769E+02  0.00000000000E+00 0. -1.
</event>
<event>
 7    1  0.1098446E-012  0.5052886E+02  0.7816164E-02  0.1300439E+00
        -11   -1    0    0    0    0  0.00000000000E+00  0.00000000000E+00  0.45593999997E+02  0.45594000000E+02  0.51100000000E-03 0. -1.
         11   -1    0    0    0    0 -0.00000000000E+00 -0.00000000000E+00 -0.45593999997E+02  0.45594000000E+02  0.51100000000E-03 0.  1.
    9900012    2    1    2    0    0  0.10182330152E+02  0.21267291915E+02 -0.33123823917E+02  0.50528864943E+02  0.30000015480E+02 0.  0.
        -12    1    1    2    0    0 -0.10182330152E+02 -0.21267291915E+02  0.33123823917E+02  0.40659135057E+02  0.00000000000E+00 0.  1.
         11    1    3    3    0    0  0.93010653800E+01 -0.31767420782E+01 -0.17809996186E+01  0.99886669450E+01  0.51100000000E-03 0. -1.
        -11    1    3    3    0    0 -0.26407384534E+01  0.12367483557E+02 -0.19636161775E+02  0.23356091253E+02  0.51100000000E-03 0.  1.
         12    1    3    3    0    0  0.35220032250E+01  0.12076550437E+02 -0.11706662523E+02  0.17184106744E+02  0.00000000000E+00 0. -1.
</event>
<event>
 7    1  0.1098446E-012  0.5052886E+02  0.7816164E-02  0.1300439E+00
        -11   -1    0    0    0    0  0.00000000000E+00  0.00000000000E+00  0.45593999997E+02  0.45594000000E+02  0.51100000000E-03 0.  1.
         11   -1    0    0    0    0 -0.00000000000E+00 -0.00000000000E+00 -0.45593999997E+02  0.45594000000E+02  0.51100000000E-03 0. -1.
    9900012    2    1    2    0    0 -0.12080279056E+02 -0.21414197769E+01 -0.38763987416E+02  0.50528861530E+02  0.30000005106E+02 0.  0.
        -12    1    1    2    0    0  0.12080279056E+02  0.21414197769E+01  0.38763987416E+02  0.40659138470E+02  0.00000000000E+00 0.  1.
         11    1    3    3    0    0 -0.53080930431E+01 -0.12135540086E+02 -0.30394051098E+02  0.33154871849E+02  0.51100000000E-03 0. -1.
        -11    1    3    3    0    0 -0.44217762584E+01  0.67862728414E+01  0.84360959530E-02  0.80997330688E+01  0.51100000000E-03 0.  1.
         12    1    3    3    0    0 -0.23504097546E+01  0.32078474678E+01 -0.83783724143E+01  0.92742566119E+01  0.00000000000E+00 0. -1.
</event>
<event>
 7    1  0.1098446E-012  0.5052886E+02  0.7816164E-02  0.1300439E+00
        -11   -1    0    0    0    0  0.00000000000E+00  0.00000000000E+00  0.45593999997E+02  0.45594000000E+02  0.51100000000E-03 0. -1.
         11   -1    0    0    0    0 -0.00000000000E+00 -0.00000000000E+00 -0.45593999997E+02  0.45594000000E+02  0.51100000000E-03 0.  1.
    9900012    2    1    2    0    0 -0.32089699552E+02 -0.89036957739E+01  0.23326833161E+02  0.50528858825E+02  0.29999996884E+02 0.  0.
        -12    1    1    2    0    0  0.32089699552E+02  0.89036957739E+01 -0.23326833161E+02  0.40659141175E+02  0.00000000000E+00 0.  1.
         11    1    3    3    0    0 -0.26416532535E+02 -0.91574558564E+00  0.23055096242E+02  0.35074338827E+02  0.51100000000E-03 0. -1.
        -11    1    3    3    0    0 -0.53401262176E+01 -0.11051718324E+02  0.90767613027E+00  0.12307774053E+02  0.51100000000E-03 0.  1.
         12    1    3    3    0    0 -0.33304079868E+00  0.30637681355E+01 -0.63593921064E+00  0.31467459448E+01  0.00000000000E+00 0. -1.
</event>
<event>
 7    1  0.1098446E-012  0.5052886E+02  0.7816164E-02  0.1300439E+00
        -11   -1    0    0    0    0  0.00000000000E+00  0.00000000000E+00  0.45593999997E+02  0.45594000000E+02  0.51100000000E-03 0.  1.
         11   -1    0    0    0    0 -0.00000000000E+00 -0.00000000000E+00 -0.45593999997E+02  0.45594000000E+02  0.51100000000E-03 0. -1.
    9900012    2    1    2    0    0 -0.26995344665E+02 -0.29407508312E+02 -0.77210979414E+01  0.50528861641E+02  0.30000005443E+02 0.  0.
        -12    1    1    2    0    0  0.26995344665E+02  0.29407508312E+02  0.77210979414E+01  0.40659138359E+02  0.00000000000E+00 0.  1.
         11    1    3    3    0    0 -0.22850615714E+02 -0.54703933584E+01 -0.54074796415E+01  0.24110509707E+02  0.51100000000E-03 0. -1.
        -11    1    3    3    0    0 -0.70390456522E+01 -0.18226575872E+02 -0.36542197797E+01  0.19877362858E+02  0.51100000000E-03 0.  1.
         12    1    3    3    0    0  0.28943167010E+01 -0.57105390812E+01  0.13406014798E+01  0.65409890759E+01  0.00000000000E+00 0. -1.
</event>
<event>
 7    1  0.1098446E-012  0.5052886E+02  0.7816164E-02  0.1300439E+00
        -11   -1    0    0    0    0  0.00000000000E+00  0.00000000000E+00  0.45593999997E+02  0.45594000000E+02  0.51100000000E-03 0.  1.
         11   -1    0    0    0    0 -0.00000000000E+00 -0.00000000000E+00 -0.45593999997E+02  0.45594000000E+02  0.51100000000E-03 0. -1.
    9900012    2    1    2    0    0 -0.15258033381E+02 -0.35650266512E+02  0.12223591288E+02  0.50528864876E+02  0.30000015279E+02 0.  0.
        -12    1    1    2    0    0  0.15258033381E+02  0.35650266512E+02 -0.12223591288E+02  0.40659135124E+02  0.00000000000E+00 0.  1.
         11    1    3    3    0    0 -0.31046370009E+01  0.10019700522E+01  0.78663449027E+01  0.85159906812E+01  0.51100000000E-03 0.  1.
        -11    1    3    3    0    0 -0.26808157693E+01 -0.28193650750E+02 -0.73526951401E+00  0.28330360699E+02  0.51100000000E-03 0. -1.
        -12    1    3    3    0    0 -0.94725806105E+01 -0.84585858139E+01  0.50925158991E+01  0.13682513496E+02  0.00000000000E+00 0.  1.
</event>
<event>
 7    1  0.1098446E-012  0.5052886E+02  0.7816164E-02  0.1300439E+00
        -11   -1    0    0    0    0  0.00000000000E+00  0.00000000000E+00  0.45593999997E+02  0.45594000000E+02  0.51100000000E-03 0.  1.
         11   -1    0    0    0    0 -0.00000000000E+00 -0.00000000000E+00 -0.45593999997E+02  0.45594000000E+02  0.51100000000E-03 0. -1.
    9900012    2    1    2    0    0 -0.32181146396E+02 -0.24791331163E+02  0.17115809248E+01  0.50528858427E+02  0.29999995675E+02 0.  0.
        -12    1    1    2    0    0  0.32181146396E+02  0.24791331163E+02 -0.17115809248E+01  0.40659141573E+02  0.00000000000E+00 0.  1.
         11    1    3    3    0    0 -0.71185961466E+01 -0.14723187647E+01 -0.27017313043E+01  0.77550941932E+01  0.51100000000E-03 0. -1.
        -11    1    3    3    0    0 -0.19398233953E+02 -0.28529385724E+02  0.14603005385E+01  0.34530418593E+02  0.51100000000E-03 0.  1.
        -12    1    3    3    0    0 -0.56643162967E+01  0.52103733261E+01  0.29530116905E+01  0.82433456406E+01  0.00000000000E+00 0.  1.
</event>
<event>
 7    1  0.1098446E-012  0.5052886E+02  0.7816164E-02  0.1300439E+00
        -11   -1    0    0    0    0  0.00000000000E+00  0.00000000000E+00  0.45593999997E+02  0.45594000000E+02  0.51100000000E-03 0. -1.
         11   -1    0    0    0    0 -0.00000000000E+00 -0.00000000000E+00 -0.45593999997E+02  0.45594000000E+02  0.51100000000E-03 0.  1.
    9900012    2    1    2    0    0  0.36897525243E+02 -0.12355735948E+02 -0.11792964210E+02  0.50528860994E+02  0.30000003477E+02 0.  0.
        -12    1    1    2    0    0 -0.36897525243E+02  0.12355735948E+02  0.11792964210E+02  0.40659139006E+02  0.00000000000E+00 0.  1.
         11    1    3    3    0    0  0.23138077192E+02 -0.17108605419E+02 -0.54111352006E+01  0.29280631481E+02  0.51100000000E-03 0. -1.
        -11    1    3    3    0    0  0.46968944521E+01  0.52544312459E+01  0.34675265687E+01  0.78545277374E+01  0.51100000000E-03 0.  1.
         12    1    3    3    0    0  0.90625535987E+01 -0.50156177463E+00 -0.98493555778E+01  0.13393701775E+02  0.00000000000E+00 0. -1.
</event>
<event>
 7    1  0.1098446E-012  0.5052887E+02  0.7816164E-02  0.1300439E+00
        -11   -1    0    0    0    0  0.00000000000E+00  0.00000000000E+00  0.45593999997E+02  0.45594000000E+02  0.51100000000E-03 0.  1.
         11   -1    0    0    0    0 -0.00000000000E+00 -0.00000000000E+00 -0.45593999997E+02  0.45594000000E+02  0.51100000000E-03 0. -1.
    9900012    2    1    2    0    0 -0.22056971806E+02 -0.24853396454E+02 -0.23429968863E+02  0.50528871117E+02  0.30000034248E+02 0.  0.
        -12    1    1    2    0    0  0.22056971806E+02  0.24853396454E+02  0.23429968863E+02  0.40659128883E+02  0.00000000000E+00 0.  1.
         11    1    3    3    0    0 -0.69902514313E+01 -0.20695204232E+02 -0.23993944552E+02  0.32447873100E+02  0.51100000000E-03 0. -1.
        -11    1    3    3    0    0 -0.62382612488E+01 -0.52722218716E+01 -0.27005203379E+01  0.86026180451E+01  0.51100000000E-03 0.  1.
         12    1    3    3    0    0 -0.88284591256E+01  0.11140296498E+01  0.32644960264E+01  0.94783799723E+01  0.00000000000E+00 0. -1.
</event>
<event>
 7    1  0.1098446E-012  0.5052889E+02  0.7816164E-02  0.1300439E+00
        -11   -1    0    0    0    0  0.00000000000E+00  0.00000000000E+00  0.45593999997E+02  0.45594000000E+02  0.51100000000E-03 0.  1.
         11   -1    0    0    0    0 -0.00000000000E+00 -0.00000000000E+00 -0.45593999997E+02  0.45594000000E+02  0.51100000000E-03 0. -1.
    9900012    2    1    2    0    0 -0.31875219273E+02  0.18775071320E+02 -0.16870980900E+02  0.50528893968E+02  0.30000103705E+02 0.  0.
        -12    1    1    2    0    0  0.31875219273E+02 -0.18775071320E+02  0.16870980900E+02  0.40659106032E+02  0.00000000000E+00 0.  1.
         11    1    3    3    0    0 -0.14748246271E+02  0.13120317926E+02 -0.81776849324E+01  0.21366516835E+02  0.51100000000E-03 0.  1.
        -11    1    3    3    0    0 -0.83457783894E+01 -0.79031015630E+01 -0.19500641516E+01  0.11658206624E+02  0.51100000000E-03 0. -1.
         12    1    3    3    0    0 -0.87811946121E+01  0.13557854957E+02 -0.67432318164E+01  0.17504170508E+02  0.00000000000E+00 0. -1.
</event>
<event>
 7    1  0.1098446E-012  0.5052885E+02  0.7816164E-02  0.1300439E+00
        -11   -1    0    0    0    0  0.00000000000E+00  0.00000000000E+00  0.45593999997E+02  0.45594000000E+02  0.51100000000E-03 0. -1.
         11   -1    0    0    0    0 -0.00000000000E+00 -0.00000000000E+00 -0.45593999997E+02  0.45594000000E+02  0.51100000000E-03 0.  1.
    9900012    2    1    2    0    0  0.18092119595E+02 -0.33375993385E+02  0.14556260621E+02  0.50528850363E+02  0.29999971164E+02 0.  0.
        -12    1    1    2    0    0 -0.18092119595E+02  0.33375993385E+02 -0.14556260621E+02  0.40659149637E+02  0.00000000000E+00 0.  1.
         11    1    3    3    0    0  0.16866499787E+01 -0.15604160669E+01  0.14328477335E+02  0.14511545385E+02  0.51100000000E-03 0. -1.
        -11    1    3    3    0    0  0.77768199215E+01 -0.12705611534E+02 -0.15353556965E+01  0.14975607163E+02  0.51100000000E-03 0.  1.
         12    1    3    3    0    0  0.86286496950E+01 -0.19109965785E+02  0.17631389821E+01  0.21041697815E+02  0.00000000000E+00 0. -1.
</event>
<event>
 7    1  0.1098446E-012  0.5052886E+02  0.7816164E-02  0.1300439E+00
        -11   -1    0    0    0    0  0.00000000000E+00  0.00000000000E+00  0.45593999997E+02  0.45594000000E+02  0.51100000000E-03 0.  1.
         11   -1    0    0    0    0 -0.00000000000E+00 -0.00000000000E+00 -0.45593999997E+02  0.45594000000E+02  0.51100000000E-03 0. -1.
    9900012    2    1    2    0    0  0.13536162064E+02  0.38142142512E+02  0.38878205823E+01  0.50528857514E+02  0.29999992899E+02 0.  0.
        -12    1    1    2    0    0 -0.13536162064E+02 -0.38142142512E+02 -0.38878205823E+01  0.40659142486E+02  0.00000000000E+00 0.  1.
         11    1    3    3    0    0 -0.48422971328E+01  0.14119610916E+02  0.17073980288E+01  0.15024195893E+02  0.51100000000E-03 0. -1.
        -11    1    3    3    0    0  0.12769726408E+02  0.17949378661E+02 -0.70352343920E+01  0.23124459563E+02  0.51100000000E-03 0.  1.
        -12    1    3    3    0    0  0.56087327883E+01  0.60731529357E+01  0.92156569455E+01  0.12380202058E+02  0.00000000000E+00 0.  1.
</event>
<event>
 7    1  0.1098446E-012  0.5052887E+02  0.7816164E-02  0.1300439E+00
        -11   -1    0    0    0    0  0.00000000000E+00  0.00000000000E+00  0.45593999997E+02  0.45594000000E+02  0.51100000000E-03 0.  1.
         11   -1    0    0    0    0 -0.00000000000E+00 -0.00000000000E+00 -0.45593999997E+02  0.45594000000E+02  0.51100000000E-03 0. -1.
    9900012    2    1    2    0    0 -0.20206832295E+02 -0.44961268576E+01 -0.34994770111E+02  0.50528866177E+02  0.30000019232E+02 0.  0.
        -12    1    1    2    0    0  0.20206832295E+02  0.44961268576E+01  0.34994770111E+02  0.40659133823E+02  0.00000000000E+00 0.  1.
         11    1    3    3    0    0 -0.23761442047E+02  0.53374256461E-01 -0.15374630771E+02  0.28301735787E+02  0.51100000000E-03 0. -1.
        -11    1    3    3    0    0  0.35597565706E+01  0.82492403520E+00 -0.29016931824E+01  0.46660679476E+01  0.51100000000E-03 0.  1.
         12    1    3    3    0    0 -0.51468184279E-02 -0.53744251492E+01 -0.16718446157E+02  0.17561062442E+02  0.00000000000E+00 0. -1.
</event>
<event>
 7    1  0.1098446E-012  0.5052885E+02  0.7816164E-02  0.1300439E+00
        -11   -1    0    0    0    0  0.00000000000E+00  0.00000000000E+00  0.45593999997E+02  0.45594000000E+02  0.51100000000E-03 0.  1.
         11   -1    0    0    0    0 -0.00000000000E+00 -0.00000000000E+00 -0.45593999997E+02  0.45594000000E+02  0.51100000000E-03 0. -1.
    9900012    2    1    2    0    0 -0.20512942514E+02 -0.29967486796E+02 -0.18284831121E+02  0.50528854356E+02  0.29999983300E+02 0.  0.
        -12    1    1    2    0    0  0.20512942514E+02  0.29967486796E+02  0.18284831121E+02  0.40659145644E+02  0.00000000000E+00 0.  1.
         11    1    3    3    0    0 -0.21876938304E+02 -0.17641603558E+02 -0.89323580998E+01  0.29489212047E+02  0.51100000000E-03 0. -1.
        -11    1    3    3    0    0 -0.22916915154E+01 -0.13975159266E+02 -0.94546407557E+01  0.17027834818E+02  0.51100000000E-03 0.  1.
         12    1    3    3    0    0  0.36556873061E+01  0.16492760281E+01  0.10216773470E+00  0.40118074908E+01  0.00000000000E+00 0. -1.
</event>
<event>
 7    1  0.1098446E-012  0.5052887E+02  0.7816164E-02  0.1300439E+00
        -11   -1    0    0    0    0  0.00000000000E+00  0.00000000000E+00  0.45593999997E+02  0.45594000000E+02  0.51100000000E-03 0.  1.
         11   -1    0    0    0    0 -0.00000000000E+00 -0.00000000000E+00 -0.45593999997E+02  0.45594000000E+02  0.51100000000E-03 0. -1.
    9900012    2    1    2    0    0  0.39254098118E+01  0.36938986233E+01 -0.40300266110E+02  0.50528865998E+02  0.30000018688E+02 0.  0.
        -12    1    1    2    0    0 -0.39254098118E+01 -0.36938986233E+01  0.40300266110E+02  0.40659134002E+02  0.00000000000E+00 0.  1.
         11    1    3    3    0    0  0.79808102411E+01 -0.68627706788E+01 -0.22747014369E+02  0.25064269717E+02  0.51100000000E-03 0. -1.
        -11    1    3    3    0    0 -0.16774854303E+00  0.34808101234E+01  0.22027054033E+01  0.41226314465E+01  0.51100000000E-03 0.  1.
        -12    1    3    3    0    0 -0.38876518863E+01  0.70758591788E+01 -0.19755957145E+02  0.21341964835E+02  0.00000000000E+00 0.  1.
</event>
<event>
 7    1  0.1098446E-012  0.5052886E+02  0.7816164E-02  0.1300439E+00
        -11   -1    0    0    0    0  0.00000000000E+00  0.00000000000E+00  0.45593999997E+02  0.45594000000E+02  0.51100000000E-03 0.  1.
         11   -1    0    0    0    0 -0.00000000000E+00 -0.00000000000E+00 -0.45593999997E+02  0.45594000000E+02  0.51100000000E-03 0. -1.
    9900012    2    1    2    0    0  0.20552806016E+02  0.19192784306E+02 -0.29366386048E+02  0.50528862847E+02  0.30000009109E+02 0.  0.
        -12    1    1    2    0    0 -0.20552806016E+02 -0.19192784306E+02  0.29366386048E+02  0.40659137153E+02  0.00000000000E+00 0.  1.
         11    1    3    3    0    0 -0.16892215112E+00  0.11408292432E+01 -0.14960076911E+02  0.15004463586E+02  0.51100000000E-03 0. -1.
        -11    1    3    3    0    0  0.16484807985E+02  0.41275048997E+01 -0.35342668713E+01  0.17357310666E+02  0.51100000000E-03 0.  1.
         12    1    3    3    0    0  0.42369201822E+01  0.13924450163E+02 -0.10872042265E+02  0.18167088594E+02  0.00000000000E+00 0. -1.
</event>
<event>
 7    1  0.1098446E-012  0.5052886E+02  0.7816164E-02  0.1300439E+00
        -11   -1    0    0    0    0  0.00000000000E+00  0.00000000000E+00  0.45593999997E+02  0.45594000000E+02  0.51100000000E-03 0. -1.
         11   -1    0    0    0    0 -0.00000000000E+00 -0.00000000000E+00 -0.45593999997E+02  0.45594000000E+02  0.51100000000E-03 0.  1.
    9900012    2    1    2    0    0  0.27596465343E+02 -0.62949358090E+01  0.29188604251E+02  0.50528859154E+02  0.29999997883E+02 0.  0.
        -12    1    1    2    0    0 -0.27596465343E+02  0.62949358090E+01 -0.29188604251E+02  0.40659140846E+02  0.00000000000E+00 0.  1.
         11    1    3    3    0    0  0.13550537424E+02 -0.12346746377E+02  0.58029043228E+01  0.19228440119E+02  0.51100000000E-03 0. -1.
        -11    1    3    3    0    0  0.14888571074E+02  0.83842113181E+01  0.15627998629E+02  0.23155968765E+02  0.51100000000E-03 0.  1.
         12    1    3    3    0    0 -0.84264315471E+00 -0.23324007503E+01  0.77577012989E+01  0.81444502693E+01  0.00000000000E+00 0. -1.
</event>
<event>
 7    1  0.1251378E-012  0.5052883E+02  0.7816164E-02  0.1300439E+00
        -11   -1    0    0    0    0  0.00000000000E+00  0.00000000000E+00  0.45593999997E+02  0.45594000000E+02  0.51100000000E-03 0. -1.
         11   -1    0    0    0    0 -0.00000000000E+00 -0.00000000000E+00 -0.45593999997E+02  0.45594000000E+02  0.51100000000E-03 0.  1.
    9900012    2    1    2    0    0 -0.63520184219E+01  0.32235863098E+02 -0.23951388321E+02  0.50528831167E+02  0.29999912814E+02 0.  0.
        -12    1    1    2    0    0  0.63520184219E+01 -0.32235863098E+02  0.23951388321E+02  0.40659168833E+02  0.00000000000E+00 0.  1.
         11    1    3    3    0    0 -0.29328618478E+01  0.24053968643E+02 -0.62788315994E+01  0.25032355315E+02  0.51100000000E-03 0. -1.
        -11    1    3    3    0    0  0.22545079202E+01 -0.27308501421E+01  0.47568112056E+00  0.35730408968E+01  0.51100000000E-03 0.  1.
         12    1    3    3    0    0 -0.56736644943E+01  0.10912744597E+02 -0.18148237843E+02  0.21923434955E+02  0.00000000000E+00 0. -1.
</event>
<event>
 7    1  0.1098446E-012  0.5052886E+02  0.7816164E-02  0.1300439E+00
        -11   -1    0    0    0    0  0.00000000000E+00  0.00000000000E+00  0.45593999997E+02  0.45594000000E+02  0.51100000000E-03 0.  1.
         11   -1    0    0    0    0 -0.00000000000E+00 -0.00000000000E+00 -0.45593999997E+02  0.45594000000E+02  0.51100000000E-03 0. -1.
    9900012    2    1    2    0    0  0.16961930555E+02  0.19829159961E+02 -0.31181136424E+02  0.50528856605E+02  0.29999990138E+02 0.  0.
        -12    1    1    2    0    0 -0.16961930555E+02 -0.19829159961E+02  0.31181136424E+02  0.40659143395E+02  0.00000000000E+00 0.  1.
         11    1    3    3    0    0  0.35583000090E+01  0.72694037177E+01 -0.49659671299E+01  0.94956073614E+01  0.51100000000E-03 0. -1.
        -11    1    3    3    0    0  0.15767762521E+02  0.29963871691E+00 -0.52313543820E+01  0.16615630810E+02  0.51100000000E-03 0.  1.
        -12    1    3    3    0    0 -0.23641319748E+01  0.12260117526E+02 -0.20983814912E+02  0.24417618434E+02  0.00000000000E+00 0.  1.
</event>
<event>
 7    1  0.1098446E-012  0.5052889E+02  0.7816164E-02  0.1300439E+00
        -11   -1    0    0    0    0  0.00000000000E+00  0.00000000000E+00  0.45593999997E+02  0.45594000000E+02  0.51100000000E-03 0. -1.
         11   -1    0    0    0    0 -0.00000000000E+00 -0.00000000000E+00 -0.45593999997E+02  0.45594000000E+02  0.51100000000E-03 0.  1.
    9900012    2    1    2    0    0  0.17957611982E+02 -0.54259889464E+01  0.36072790933E+02  0.50528887494E+02  0.30000084026E+02 0.  0.
        -12    1    1    2    0    0 -0.17957611982E+02  0.54259889464E+01 -0.36072790933E+02  0.40659112506E+02  0.00000000000E+00 0.  1.
         11    1    3    3    0    0  0.54003191306E+01  0.36248615942E+00  0.25892586554E+01  0.59999252973E+01  0.51100000000E-03 0. -1.
        -11    1    3    3    0    0  0.46390091503E+01 -0.15465359294E+02  0.13957853196E+02  0.21342900695E+02  0.51100000000E-03 0.  1.
        -12    1    3    3    0    0  0.79182837011E+01  0.96768841878E+01  0.19525679081E+02  0.23186061501E+02  0.00000000000E+00 0.  1.
</event>
<event>
 7    1  0.1098446E-012  0.5052887E+02  0.7816164E-02  0.1300439E+00
        -11   -1    0    0    0    0  0.00000000000E+00  0.00000000000E+00  0.45593999997E+02  0.45594000000E+02  0.51100000000E-03 0. -1.
         11   -1    0    0    0    0 -0.00000000000E+00 -0.00000000000E+00 -0.45593999997E+02  0.45594000000E+02  0.51100000000E-03 0.  1.
    9900012    2    1    2    0    0 -0.24674212778E+02 -0.19181387863E+02  0.26008120195E+02  0.50528871472E+02  0.30000035325E+02 0.  0.
        -12    1    1    2    0    0  0.24674212778E+02  0.19181387863E+02 -0.26008120195E+02  0.40659128528E+02  0.00000000000E+00 0.  1.
         11    1    3    3    0    0 -0.77684193540E+01 -0.18663305102E+02  0.89103836886E+01  0.22092130597E+02  0.51100000000E-03 0. -1.
        -11    1    3    3    0    0 -0.22169639511E+01  0.30152555065E+01 -0.18731413084E+01  0.41851348308E+01  0.51100000000E-03 0.  1.
         12    1    3    3    0    0 -0.14688829473E+02 -0.35333382680E+01  0.18970877815E+02  0.24251606043E+02  0.00000000000E+00 0. -1.
</event>
<event>
 7    1  0.1145082E-012  0.5052886E+02  0.7816164E-02  0.1300439E+00
        -11   -1    0    0    0    0  0.00000000000E+00  0.00000000000E+00  0.45593999997E+02  0.45594000000E+02  0.51100000000E-03 0. -1.
         11   -1    0    0    0    0 -0.00000000000E+00 -0.00000000000E+00 -0.45593999997E+02  0.45594000000E+02  0.51100000000E-03 0.  1.
    9900012    2    1    2    0    0 -0.14302268108E+02 -0.97093974570E+01  0.36801341631E+02  0.50528855667E+02  0.29999987287E+02 0.  0.
        -12    1    1    2    0    0  0.14302268108E+02  0.97093974570E+01 -0.36801341631E+02  0.40659144333E+02  0.00000000000E+00 0.  1.
         11    1    3    3    0    0 -0.17260927237E+02 -0.78872631898E+01  0.25857211920E+02  0.32074038384E+02  0.51100000000E-03 0. -1.
        -11    1    3    3    0    0  0.76445745165E+01 -0.31016073571E+01  0.10806277497E+02  0.13595408097E+02  0.51100000000E-03 0.  1.
        -12    1    3    3    0    0 -0.46859153874E+01  0.12794730900E+01  0.13785221433E+00  0.48594091862E+01  0.00000000000E+00 0.  1.
</event>
<event>
 7    1  0.1098446E-012  0.5052887E+02  0.7816164E-02  0.1300439E+00
        -11   -1    0    0    0    0  0.00000000000E+00  0.00000000000E+00  0.45593999997E+02  0.45594000000E+02  0.51100000000E-03 0. -1.
         11   -1    0    0    0    0 -0.00000000000E+00 -0.00000000000E+00 -0.45593999997E+02  0.45594000000E+02  0.51100000000E-03 0.  1.
    9900012    2    1    2    0    0 -0.11846962283E+02 -0.26656612290E+02  0.28323833224E+02  0.50528867907E+02  0.30000024489E+02 0.  0.
        -12    1    1    2    0    0  0.11846962283E+02  0.26656612290E+02 -0.28323833224E+02  0.40659132093E+02  0.00000000000E+00 0.  1.
         11    1    3    3    0    0 -0.67073417505E+01 -0.10168872224E+01  0.14840538560E+02  0.16317600252E+02  0.51100000000E-03 0. -1.
        -11    1    3    3    0    0  0.14935017179E+01 -0.24360945247E+02  0.86068391491E+01  0.25879796775E+02  0.51100000000E-03 0.  1.
        -12    1    3    3    0    0 -0.66331222508E+01 -0.12787798197E+01  0.48764555146E+01  0.83314708790E+01  0.00000000000E+00 0.  1.
</event>
<event>
 7    1  0.1098446E-012  0.5052886E+02  0.7816164E-02  0.1300439E+00
        -11   -1    0    0    0    0  0.00000000000E+00  0.00000000000E+00  0.45593999997E+02  0.45594000000E+02  0.51100000000E-03 0. -1.
         11   -1    0    0    0    0 -0.00000000000E+00 -0.00000000000E+00 -0.45593999997E+02  0.45594000000E+02  0.51100000000E-03 0.  1.
    9900012    2    1    2    0    0 -0.40192266705E+02  0.10419629408E+01  0.60549124418E+01  0.50528856448E+02  0.29999989660E+02 0.  0.
        -12    1    1    2    0    0  0.40192266705E+02 -0.10419629408E+01 -0.60549124418E+01  0.40659143552E+02  0.00000000000E+00 0.  1.
         11    1    3    3    0    0 -0.28193817599E+01 -0.84551691503E+01 -0.42010804703E+01  0.98533180324E+01  0.51100000000E-03 0.  1.
        -11    1    3    3    0    0 -0.20246866101E+02  0.45659664639E+01  0.14743681336E+01  0.20807628368E+02  0.51100000000E-03 0. -1.
        -12    1    3    3    0    0 -0.17126018845E+02  0.49311656272E+01  0.87816247785E+01  0.19867910048E+02  0.00000000000E+00 0.  1.
</event>
<event>
 7    1  0.1098446E-012  0.5052886E+02  0.7816164E-02  0.1300439E+00
        -11   -1    0    0    0    0  0.00000000000E+00  0.00000000000E+00  0.45593999997E+02  0.45594000000E+02  0.51100000000E-03 0.  1.
         11   -1    0    0    0    0 -0.00000000000E+00 -0.00000000000E+00 -0.45593999997E+02  0.45594000000E+02  0.51100000000E-03 0. -1.
    9900012    2    1    2    0    0  0.34684451471E+02  0.20594555480E+02 -0.51008909700E+01  0.50528856158E+02  0.29999988777E+02 0.  0.
        -12    1    1    2    0    0 -0.34684451471E+02 -0.20594555480E+02  0.51008909700E+01  0.40659143842E+02  0.00000000000E+00 0.  1.
         11    1    3    3    0    0  0.38546380336E+01  0.69286032362E+01  0.13697543603E+01  0.80461173520E+01  0.51100000000E-03 0. -1.
        -11    1    3    3    0    0  0.30332875915E+02  0.38527497727E+01 -0.97992838818E+01  0.32108456938E+02  0.51100000000E-03 0.  1.
        -12    1    3    3    0    0  0.49693752247E+00  0.98132024716E+01  0.33286385516E+01  0.10374281867E+02  0.00000000000E+00 0.  1.
</event>
<event>
 7    1  0.1098446E-012  0.5052885E+02  0.7816164E-02  0.1300439E+00
        -11   -1    0    0    0    0  0.00000000000E+00  0.00000000000E+00  0.45593999997E+02  0.45594000000E+02  0.51100000000E-03 0.  1.
         11   -1    0    0    0    0 -0.00000000000E+00 -0.00000000000E+00 -0.45593999997E+02  0.45594000000E+02  0.51100000000E-03 0. -1.
    9900012    2    1    2    0    0  0.12312673180E+02 -0.21120030150E+00 -0.38749453094E+02  0.50528847999E+02  0.29999963976E+02 0.  0.
        -12    1    1    2    0    0 -0.12312673180E+02  0.21120030150E+00  0.38749453094E+02  0.40659152001E+02  0.00000000000E+00 0.  1.
         11    1    3    3    0    0  0.15389037180E+02 -0.49276538059E+01 -0.13842541097E+02  0.21277222131E+02  0.51100000000E-03 0.  1.
        -11    1    3    3    0    0 -0.20303393218E+01 -0.25213202359E+01 -0.20413291669E+02  0.20668377065E+02  0.51100000000E-03 0. -1.
        -12    1    3    3    0    0 -0.10460246777E+01  0.72377737403E+01 -0.44936203281E+01  0.85832488019E+01  0.00000000000E+00 0.  1.
</event>
<event>
 7    1  0.1098446E-012  0.5052885E+02  0.7816164E-02  0.1300439E+00
        -11   -1    0    0    0    0  0.00000000000E+00  0.00000000000E+00  0.45593999997E+02  0.45594000000E+02  0.51100000000E-03 0.  1.
         11   -1    0    0    0    0 -0.00000000000E+00 -0.00000000000E+00 -0.45593999997E+02  0.45594000000E+02  0.51100000000E-03 0. -1.
    9900012    2    1    2    0    0  0.16542235614E+02 -0.19653153271E+02 -0.31516261948E+02  0.50528846544E+02  0.29999959555E+02 0.  0.
        -12    1    1    2    0    0 -0.16542235614E+02  0.19653153271E+02  0.31516261948E+02  0.40659153456E+02  0.00000000000E+00 0.  1.
         11    1    3    3    0    0 -0.54989052383E+01 -0.13327390654E+01  0.14337286454E+01  0.58369281584E+01  0.51100000000E-03 0. -1.
        -11    1    3    3    0    0  0.14951369213E+02 -0.80344681171E+01 -0.23683646691E+02  0.29137797447E+02  0.51100000000E-03 0.  1.
        -12    1    3    3    0    0  0.70897716394E+01 -0.10285946089E+02 -0.92663439023E+01  0.15554120938E+02  0.00000000000E+00 0.  1.
</event>
<event>
 7    1  0.1098446E-012  0.5052875E+02  0.7816164E-02  0.1300439E+00
        -11   -1    0    0    0    0  0.00000000000E+00  0.00000000000E+00  0.45593999997E+02  0.45594000000E+02  0.51100000000E-03 0.  1.
         11   -1    0    0    0    0 -0.00000000000E+00 -0.00000000000E+00 -0.45593999997E+02  0.45594000000E+02  0.51100000000E-03 0. -1.
    9900012    2    1    2    0    0  0.38074713434E+02  0.31107855413E+01 -0.13921704590E+02  0.50528749534E+02  0.29999664683E+02 0.  0.
        -12    1    1    2    0    0 -0.38074713434E+02 -0.31107855413E+01  0.13921704590E+02  0.40659250466E+02  0.00000000000E+00 0.  1.
         11    1    3    3    0    0  0.33261757327E+02  0.55778613428E+01 -0.17961123903E+02  0.38210718519E+02  0.51100000000E-03 0. -1.
        -11    1    3    3    0    0  0.61676038229E+01 -0.55322744935E+01  0.29241276201E+01  0.87861209067E+01  0.51100000000E-03 0.  1.
         12    1    3    3    0    0 -0.13546477157E+01  0.30651986919E+01  0.11152916934E+01  0.35319101087E+01  0.00000000000E+00 0. -1.
</event>
<event>
 7    1  0.1098446E-012  0.5052886E+02  0.7816164E-02  0.1300439E+00
        -11   -1    0    0    0    0  0.00000000000E+00  0.00000000000E+00  0.45593999997E+02  0.45594000000E+02  0.51100000000E-03 0. -1.
         11   -1    0    0    0    0 -0.00000000000E+00 -0.00000000000E+00 -0.45593999997E+02  0.45594000000E+02  0.51100000000E-03 0.  1.
    9900012    2    1    2    0    0 -0.23936740077E+02  0.15644497646E+02  0.28904110223E+02  0.50528863021E+02  0.30000009637E+02 0.  0.
        -12    1    1    2    0    0  0.23936740077E+02 -0.15644497646E+02 -0.28904110223E+02  0.40659136979E+02  0.00000000000E+00 0.  1.
         11    1    3    3    0    0 -0.43358609838E+01  0.41657447249E+01  0.38249500394E+01  0.71262446386E+01  0.51100000000E-03 0. -1.
        -11    1    3    3    0    0  0.31371760451E+01  0.97041834301E+01  0.10172564978E+01  0.10249285859E+02  0.51100000000E-03 0.  1.
        -12    1    3    3    0    0 -0.22738055138E+02  0.17745694911E+01  0.24061903686E+02  0.33153332523E+02  0.00000000000E+00 0.  1.
</event>
<event>
 7    1  0.1098446E-012  0.5052886E+02  0.7816164E-02  0.1300439E+00
        -11   -1    0    0    0    0  0.00000000000E+00  0.00000000000E+00  0.45593999997E+02  0.45594000000E+02  0.51100000000E-03 0. -1.
         11   -1    0    0    0    0 -0.00000000000E+00 -0.00000000000E+00 -0.45593999997E+02  0.45594000000E+02  0.51100000000E-03 0.  1.
    9900012    2    1    2    0    0 -0.11352471872E+02 -0.84767537155E+01  0.38110781298E+02  0.50528860531E+02  0.30000002070E+02 0.  0.
        -12    1    1    2    0    0  0.11352471872E+02  0.84767537155E+01 -0.38110781298E+02  0.40659139469E+02  0.00000000000E+00 0.  1.
         11    1    3    3    0    0 -0.64171596661E+01  0.53438458085E+01  0.26721246189E+02  0.27995742968E+02  0.51100000000E-03 0. -1.
        -11    1    3    3    0    0 -0.80591142493E+01 -0.12298101636E+02  0.55072548951E+01  0.15701034458E+02  0.51100000000E-03 0.  1.
        -12    1    3    3    0    0  0.31238020429E+01 -0.15224978884E+01  0.58822802144E+01  0.68320831043E+01  0.00000000000E+00 0.  1.
</event>
<event>
 7    1  0.1098446E-012  0.5052886E+02  0.7816164E-02  0.1300439E+00
        -11   -1    0    0    0    0  0.00000000000E+00  0.00000000000E+00  0.45593999997E+02  0.45594000000E+02  0.51100000000E-03 0.  1.
         11   -1    0    0    0    0 -0.00000000000E+00 -0.00000000000E+00 -0.45593999997E+02  0.45594000000E+02  0.51100000000E-03 0. -1.
    9900012    2    1    2    0    0  0.40461427906E+02  0.25375613592E+01 -0.30983348345E+01  0.50528855339E+02  0.29999986289E+02 0.  0.
        -12    1    1    2    0    0 -0.40461427906E+02 -0.25375613592E+01  0.30983348345E+01  0.40659144661E+02  0.00000000000E+00 0.  1.
         11    1    3    3    0    0 -0.31401133163E+01 -0.17833720855E+01 -0.13944706920E+01  0.38710820718E+01  0.51100000000E-03 0. -1.
        -11    1    3    3    0    0  0.28297940534E+02  0.20377880086E+01 -0.87020780560E+01  0.29675784424E+02  0.51100000000E-03 0.  1.
        -12    1    3    3    0    0  0.15303600688E+02  0.22831454362E+01  0.69982139135E+01  0.16981988844E+02  0.00000000000E+00 0.  1.
</event>
<event>
 7    1  0.1098446E-012  0.5052886E+02  0.7816164E-02  0.1300439E+00
        -11   -1    0    0    0    0  0.00000000000E+00  0.00000000000E+00  0.45593999997E+02  0.45594000000E+02  0.51100000000E-03 0.  1.
         11   -1    0    0    0    0 -0.00000000000E+00 -0.00000000000E+00 -0.45593999997E+02  0.45594000000E+02  0.51100000000E-03 0. -1.
    9900012    2    1    2    0    0  0.32690748947E+02  0.19524074656E+01 -0.24097075405E+02  0.50528855829E+02  0.29999987779E+02 0.  0.
        -12    1    1    2    0    0 -0.32690748947E+02 -0.19524074656E+01  0.24097075405E+02  0.40659144171E+02  0.00000000000E+00 0.  1.
         11    1    3    3    0    0  0.13714328298E+02 -0.45062406036E+01 -0.71002433597E+01  0.16087338533E+02  0.51100000000E-03 0. -1.
        -11    1    3    3    0    0  0.82492372560E+01  0.36644641843E+01 -0.20838566370E+02  0.22709558818E+02  0.51100000000E-03 0.  1.
        -12    1    3    3    0    0  0.10727183393E+02  0.27941838849E+01  0.38417343250E+01  0.11731958479E+02  0.00000000000E+00 0.  1.
</event>
<event>
 7    1  0.1098446E-012  0.5052886E+02  0.7816164E-02  0.1300439E+00
        -11   -1    0    0    0    0  0.00000000000E+00  0.00000000000E+00  0.45593999997E+02  0.45594000000E+02  0.51100000000E-03 0.  1.
         11   -1    0    0    0    0 -0.00000000000E+00 -0.00000000000E+00 -0.45593999997E+02  0.45594000000E+02  0.51100000000E-03 0. -1.
    9900012    2    1    2    0    0 -0.13864875714E+02  0.37976686335E+02  0.43245550893E+01  0.50528864983E+02  0.30000015603E+02 0.  0.
        -12    1    1    2    0    0  0.13864875714E+02 -0.37976686335E+02 -0.43245550893E+01  0.40659135017E+02  0.00000000000E+00 0.  1.
         11    1    3    3    0    0 -0.18596194321E+02  0.21484825715E+02 -0.51210120028E+01  0.28872840931E+02  0.51100000000E-03 0. -1.
        -11    1    3    3    0    0  0.44888973917E+01  0.17302469054E+02  0.72258462010E+01  0.19280520966E+02  0.51100000000E-03 0.  1.
        -12    1    3    3    0    0  0.24242121479E+00 -0.81060843331E+00  0.22197208911E+01  0.23755030861E+01  0.00000000000E+00 0.  1.
</event>
<event>
 7    1  0.1098446E-012  0.5052886E+02  0.7816164E-02  0.1300439E+00
        -11   -1    0    0    0    0  0.00000000000E+00  0.00000000000E+00  0.45593999997E+02  0.45594000000E+02  0.51100000000E-03 0.  1.
         11   -1    0    0    0    0 -0.00000000000E+00 -0.00000000000E+00 -0.45593999997E+02  0.45594000000E+02  0.51100000000E-03 0. -1.
    9900012    2    1    2    0    0 -0.97321813209E+01 -0.39476316061E+02  0.26620204947E+00  0.50528859004E+02  0.29999997429E+02 0.  0.
        -12    1    1    2    0    0  0.97321813209E+01  0.39476316061E+02 -0.26620204947E+00  0.40659140996E+02  0.00000000000E+00 0.  1.
         11    1    3    3    0    0 -0.19489690560E+02 -0.28787935395E+02  0.37615109441E+01  0.34967731229E+02  0.51100000000E-03 0. -1.
        -11    1    3    3    0    0  0.24769343353E+01 -0.14947332382E+01 -0.24433266711E+01  0.37867237340E+01  0.51100000000E-03 0.  1.
         12    1    3    3    0    0  0.72805749034E+01 -0.91936474270E+01 -0.10519822235E+01  0.11774404042E+02  0.00000000000E+00 0. -1.
</event>
<event>
 7    1  0.1098446E-012  0.5052886E+02  0.7816164E-02  0.1300439E+00
        -11   -1    0    0    0    0  0.00000000000E+00  0.00000000000E+00  0.45593999997E+02  0.45594000000E+02  0.51100000000E-03 0.  1.
         11   -1    0    0    0    0 -0.00000000000E+00 -0.00000000000E+00 -0.45593999997E+02  0.45594000000E+02  0.51100000000E-03 0. -1.
    9900012    2    1    2    0    0 -0.22960891479E+02 -0.35211170999E+00 -0.33553528150E+02  0.50528858697E+02  0.29999996496E+02 0.  0.
        -12    1    1    2    0    0  0.22960891479E+02  0.35211170999E+00  0.33553528150E+02  0.40659141303E+02  0.00000000000E+00 0.  1.
         11    1    3    3    0    0  0.35421661959E+01  0.42959405426E+01 -0.20727510166E+01  0.59412409093E+01  0.51100000000E-03 0.  1.
        -11    1    3    3    0    0 -0.98238413471E+01 -0.75496293458E+01 -0.54491505345E+01  0.13535065714E+02  0.51100000000E-03 0. -1.
         12    1    3    3    0    0 -0.16679216328E+02  0.29015770932E+01 -0.26031626599E+02  0.31052552074E+02  0.00000000000E+00 0. -1.
</event>
<event>
 7    1  0.1098446E-012  0.5052886E+02  0.7816164E-02  0.1300439E+00
        -11   -1    0    0    0    0  0.00000000000E+00  0.00000000000E+00  0.45593999997E+02  0.45594000000E+02  0.51100000000E-03 0.  1.
         11   -1    0    0    0    0 -0.00000000000E+00 -0.00000000000E+00 -0.45593999997E+02  0.45594000000E+02  0.51100000000E-03 0. -1.
    9900012    2    1    2    0    0 -0.24594370102E+02  0.12588426898E+02 -0.29829755650E+02  0.50528857675E+02  0.29999993388E+02 0.  0.
        -12    1    1    2    0    0  0.24594370102E+02 -0.12588426898E+02  0.29829755650E+02  0.40659142325E+02  0.00000000000E+00 0.  1.
         11    1    3    3    0    0  0.47079233300E+00 -0.38213117420E+01 -0.24031512606E+01  0.45386347168E+01  0.51100000000E-03 0. -1.
        -11    1    3    3    0    0 -0.27460153141E+02  0.10140936671E+02 -0.17814775608E+02  0.34267547874E+02  0.51100000000E-03 0.  1.
        -12    1    3    3    0    0  0.23949907054E+01  0.62688019690E+01 -0.96118287812E+01  0.11722675084E+02  0.00000000000E+00 0.  1.
</event>
<event>
 7    1  0.1098446E-012  0.5052886E+02  0.7816164E-02  0.1300439E+00
        -11   -1    0    0    0    0  0.00000000000E+00  0.00000000000E+00  0.45593999997E+02  0.45594000000E+02  0.51100000000E-03 0. -1.
         11   -1    0    0    0    0 -0.00000000000E+00 -0.00000000000E+00 -0.45593999997E+02  0.45594000000E+02  0.51100000000E-03 0.  1.
    9900012    2    1    2    0    0 -0.36075464593E+02 -0.50938336741E+01  0.18049359669E+02  0.50528859926E+02  0.30000000232E+02 0.  0.
        -12    1    1    2    0    0  0.36075464593E+02  0.50938336741E+01 -0.18049359669E+02  0.40659140074E+02  0.00000000000E+00 0.  1.
         11    1    3    3    0    0 -0.39374768838E+02 -0.67633898133E+01  0.13986674044E+02  0.42328984324E+02  0.51100000000E-03 0. -1.
        -11    1    3    3    0    0 -0.48469164001E+00  0.29532151910E+01  0.96656657721E+00  0.31449415193E+01  0.51100000000E-03 0.  1.
         12    1    3    3    0    0  0.37839958857E+01 -0.12836590519E+01  0.30961190481E+01  0.50549340831E+01  0.00000000000E+00 0. -1.
</event>
<event>
 7    1  0.1098446E-012  0.5052885E+02  0.7816164E-02  0.1300439E+00
        -11   -1    0    0    0    0  0.00000000000E+00  0.00000000000E+00  0.45593999997E+02  0.45594000000E+02  0.51100000000E-03 0.  1.
         11   -1    0    0    0    0 -0.00000000000E+00 -0.00000000000E+00 -0.45593999997E+02  0.45594000000E+02  0.51100000000E-03 0. -1.
    9900012    2    1    2    0    0  0.54754864845E+01 -0.59342451438E+00 -0.40284403371E+02  0.50528852691E+02  0.29999978240E+02 0.  0.
        -12    1    1    2    0    0 -0.54754864845E+01  0.59342451438E+00  0.40284403371E+02  0.40659147309E+02  0.00000000000E+00 0.  1.
         11    1    3    3    0    0  0.38649957423E+01 -0.14909990822E+02 -0.26046656976E+02  0.30260111670E+02  0.51100000000E-03 0. -1.
        -11    1    3    3    0    0  0.56364001150E+00  0.82074821052E+01 -0.80004897373E+01  0.11475551789E+02  0.51100000000E-03 0.  1.
         12    1    3    3    0    0  0.10468507307E+01  0.61090842027E+01 -0.62372566580E+01  0.87931892318E+01  0.00000000000E+00 0. -1.
</event>
<event>
 7    1  0.1098446E-012  0.5052886E+02  0.7816164E-02  0.1300439E+00
        -11   -1    0    0    0    0  0.00000000000E+00  0.00000000000E+00  0.45593999997E+02  0.45594000000E+02  0.51100000000E-03 0.  1.
         11   -1    0    0    0    0 -0.00000000000E+00 -0.00000000000E+00 -0.45593999997E+02  0.45594000000E+02  0.51100000000E-03 0. -1.
    9900012    2    1    2    0    0  0.31495625404E+02  0.20829101232E+02 -0.15077789336E+02  0.50528860695E+02  0.30000002570E+02 0.  0.
        -12    1    1    2    0    0 -0.31495625404E+02 -0.20829101232E+02  0.15077789336E+02  0.40659139305E+02  0.00000000000E+00 0.  1.
         11    1    3    3    0    0  0.28074689910E+02  0.15368377628E+02 -0.79990641053E+01  0.32990305716E+02  0.51100000000E-03 0. -1.
        -11    1    3    3    0    0  0.40540393837E+01 -0.42366480989E+01 -0.47477256364E+01  0.75448871044E+01  0.51100000000E-03 0.  1.
         12    1    3    3    0    0 -0.63310388913E+00  0.96973717030E+01 -0.23309995938E+01  0.99936678745E+01  0.00000000000E+00 0. -1.
</event>
<event>
 7    1  0.1098446E-012  0.5052886E+02  0.7816164E-02  0.1300439E+00
        -11   -1    0    0    0    0  0.00000000000E+00  0.00000000000E+00  0.45593999997E+02  0.45594000000E+02  0.51100000000E-03 0.  1.
         11   -1    0    0    0    0 -0.00000000000E+00 -0.00000000000E+00 -0.45593999997E+02  0.45594000000E+02  0.51100000000E-03 0. -1.
    9900012    2    1    2    0    0  0.40386264744E-01 -0.14218209299E+02 -0.38092085163E+02  0.50528855164E+02  0.29999985757E+02 0.  0.
        -12    1    1    2    0    0 -0.40386264744E-01  0.14218209299E+02  0.38092085163E+02  0.40659144836E+02  0.00000000000E+00 0.  1.
         11    1    3    3    0    0 -0.11785689648E+02 -0.10272018737E+02 -0.13358461077E+02  0.20563689650E+02  0.51100000000E-03 0. -1.
        -11    1    3    3    0    0  0.57873029444E+01  0.31627670857E+01 -0.15479048806E+02  0.16825484338E+02  0.51100000000E-03 0.  1.
         12    1    3    3    0    0  0.60387729686E+01 -0.71089576476E+01 -0.92545752800E+01  0.13139681176E+02  0.00000000000E+00 0. -1.
</event>
<event>
 7    1  0.1098446E-012  0.5052886E+02  0.7816164E-02  0.1300439E+00
        -11   -1    0    0    0    0  0.00000000000E+00  0.00000000000E+00  0.45593999997E+02  0.45594000000E+02  0.51100000000E-03 0.  1.
         11   -1    0    0    0    0 -0.00000000000E+00 -0.00000000000E+00 -0.45593999997E+02  0.45594000000E+02  0.51100000000E-03 0. -1.
    9900012    2    1    2    0    0  0.34464399060E+01  0.40214740325E+02 -0.49053481192E+01  0.50528859237E+02  0.29999998136E+02 0.  0.
        -12    1    1    2    0    0 -0.34464399060E+01 -0.40214740325E+02  0.49053481192E+01  0.40659140763E+02  0.00000000000E+00 0.  1.
         11    1    3    3    0    0  0.30079587371E+01  0.23436583016E+02 -0.15161834851E+02  0.28074943910E+02  0.51100000000E-03 0. -1.
        -11    1    3    3    0    0  0.18995218258E+01  0.15904997090E+02  0.12002219742E+02  0.20015753660E+02  0.51100000000E-03 0.  1.
        -12    1    3    3    0    0 -0.14610406568E+01  0.87316021883E+00 -0.17457330100E+01  0.24381616663E+01  0.00000000000E+00 0.  1.
</event>
<event>
 7    1  0.1098446E-012  0.5052886E+02  0.7816164E-02  0.1300439E+00
        -11   -1    0    0    0    0  0.00000000000E+00  0.00000000000E+00  0.45593999997E+02  0.45594000000E+02  0.51100000000E-03 0.  1.
         11   -1    0    0    0    0 -0.00000000000E+00 -0.00000000000E+00 -0.45593999997E+02  0.45594000000E+02  0.51100000000E-03 0. -1.
    9900012    2    1    2    0    0  0.13817689675E+02  0.24458858537E+02 -0.29393903323E+02  0.50528857591E+02  0.29999993134E+02 0.  0.
        -12    1    1    2    0    0 -0.13817689675E+02 -0.24458858537E+02  0.29393903323E+02  0.40659142409E+02  0.00000000000E+00 0.  1.
         11    1    3    3    0    0  0.16080300938E+02  0.20126560445E+02 -0.33150371928E+02  0.41983349948E+02  0.51100000000E-03 0. -1.
        -11    1    3    3    0    0 -0.17997497359E+00  0.41437390159E+01  0.46852622031E+01  0.62573673534E+01  0.51100000000E-03 0.  1.
         12    1    3    3    0    0 -0.20826362896E+01  0.18855907579E+00 -0.92879359815E+00  0.22881402902E+01  0.00000000000E+00 0. -1.
</event>
<event>
 7    1  0.1098446E-012  0.5052886E+02  0.7816164E-02  0.1300439E+00
        -11   -1    0    0    0    0  0.00000000000E+00  0.00000000000E+00  0.45593999997E+02  0.45594000000E+02  0.51100000000E-03 0. -1.
         11   -1    0    0    0    0 -0.00000000000E+00 -0.00000000000E+00 -0.45593999997E+02  0.45594000000E+02  0.51100000000E-03 0.  1.
    9900012    2    1    2    0    0 -0.18103663269E+02  0.22371321192E+02  0.28721884211E+02  0.50528864885E+02  0.30000015304E+02 0.  0.
        -12    1    1    2    0    0  0.18103663269E+02 -0.22371321192E+02 -0.28721884211E+02  0.40659135115E+02  0.00000000000E+00 0.  1.
         11    1    3    3    0    0 -0.68741427783E+01  0.68771915279E+01  0.12671231558E+02  0.15972154260E+02  0.51100000000E-03 0. -1.
        -11    1    3    3    0    0 -0.11698287990E+02  0.10703117687E+02 -0.19023442833E+01  0.15969520473E+02  0.51100000000E-03 0.  1.
        -12    1    3    3    0    0  0.46876749869E+00  0.47910119773E+01  0.17952996936E+02  0.18587190152E+02  0.00000000000E+00 0.  1.
</event>
<event>
 7    1  0.1098446E-012  0.5052885E+02  0.7816164E-02  0.1300439E+00
        -11   -1    0    0    0    0  0.00000000000E+00  0.00000000000E+00  0.45593999997E+02  0.45594000000E+02  0.51100000000E-03 0. -1.
         11   -1    0    0    0    0 -0.00000000000E+00 -0.00000000000E+00 -0.45593999997E+02  0.45594000000E+02  0.51100000000E-03 0.  1.
    9900012    2    1    2    0    0 -0.23981060276E+02  0.28711486467E+02  0.15928762641E+02  0.50528853595E+02  0.29999980988E+02 0.  0.
        -12    1    1    2    0    0  0.23981060276E+02 -0.28711486467E+02 -0.15928762641E+02  0.40659146405E+02  0.00000000000E+00 0.  1.
         11    1    3    3    0    0 -0.63462346044E+01  0.19768531533E+02  0.18895643503E+02  0.28073383770E+02  0.51100000000E-03 0. -1.
        -11    1    3    3    0    0 -0.10468217304E+02  0.20112393033E+00 -0.37572618341E+01  0.11123895051E+02  0.51100000000E-03 0.  1.
         12    1    3    3    0    0 -0.71666083676E+01  0.87418310034E+01  0.79038097154E+00  0.11331574774E+02  0.00000000000E+00 0. -1.
</event>
<event>
 7    1  0.1098446E-012  0.5052885E+02  0.7816164E-02  0.1300439E+00
        -11   -1    0    0    0    0  0.00000000000E+00  0.00000000000E+00  0.45593999997E+02  0.45594000000E+02  0.51100000000E-03 0.  1.
         11   -1    0    0    0    0 -0.00000000000E+00 -0.00000000000E+00 -0.45593999997E+02  0.45594000000E+02  0.51100000000E-03 0. -1.
    9900012    2    1    2    0    0  0.24253935513E+02  0.25229857496E+02 -0.20697031878E+02  0.50528853111E+02  0.29999979517E+02 0.  0.
        -12    1    1    2    0    0 -0.24253935513E+02 -0.25229857496E+02  0.20697031878E+02  0.40659146889E+02  0.00000000000E+00 0.  1.
         11    1    3    3    0    0  0.18651146464E+02  0.63853116737E+01 -0.98732949165E+01  0.22048116072E+02  0.51100000000E-03 0. -1.
        -11    1    3    3    0    0 -0.53348909769E+01  0.64933350841E+01  0.58192250443E+00  0.84239596575E+01  0.51100000000E-03 0.  1.
        -12    1    3    3    0    0  0.10937680026E+02  0.12351210738E+02 -0.11405659466E+02  0.20056777381E+02  0.00000000000E+00 0.  1.
</event>
<event>
 7    1  0.1098446E-012  0.5052886E+02  0.7816164E-02  0.1300439E+00
        -11   -1    0    0    0    0  0.00000000000E+00  0.00000000000E+00  0.45593999997E+02  0.45594000000E+02  0.51100000000E-03 0.  1.
         11   -1    0    0    0    0 -0.00000000000E+00 -0.00000000000E+00 -0.45593999997E+02  0.45594000000E+02  0.51100000000E-03 0. -1.
    9900012    2    1    2    0    0  0.28190627047E+02 -0.27932014158E+02 -0.88462923987E+01  0.50528858870E+02  0.29999997021E+02 0.  0.
        -12    1    1    2    0    0 -0.28190627047E+02  0.27932014158E+02  0.88462923987E+01  0.40659141130E+02  0.00000000000E+00 0.  1.
         11    1    3    3    0    0  0.11699447896E+02 -0.26449016761E+02 -0.30540317549E+01  0.29081861683E+02  0.51100000000E-03 0. -1.
        -11    1    3    3    0    0 -0.57733502012E+00  0.24506375504E+01  0.93203029048E+00  0.26847012594E+01  0.51100000000E-03 0.  1.
         12    1    3    3    0    0  0.17068514171E+02 -0.39336349473E+01 -0.67242909343E+01  0.18762295928E+02  0.00000000000E+00 0. -1.
</event>
<event>
 7    1  0.1098446E-012  0.5052885E+02  0.7816164E-02  0.1300439E+00
        -11   -1    0    0    0    0  0.00000000000E+00  0.00000000000E+00  0.45593999997E+02  0.45594000000E+02  0.51100000000E-03 0.  1.
         11   -1    0    0    0    0 -0.00000000000E+00 -0.00000000000E+00 -0.45593999997E+02  0.45594000000E+02  0.51100000000E-03 0. -1.
    9900012    2    1    2    0    0 -0.62783962938E+01  0.30835664546E+01 -0.40052958649E+02  0.50528854182E+02  0.29999982772E+02 0.  0.
        -12    1    1    2    0    0  0.62783962938E+01 -0.30835664546E+01  0.40052958649E+02  0.40659145818E+02  0.00000000000E+00 0.  1.
         11    1    3    3    0    0 -0.51741245740E+01  0.79546817506E+01 -0.26769711022E+02  0.28401865350E+02  0.51100000000E-03 0. -1.
        -11    1    3    3    0    0 -0.32454245687E+01 -0.97016728962E+01 -0.13379365952E+02  0.16842288180E+02  0.51100000000E-03 0.  1.
        -12    1    3    3    0    0  0.21411528490E+01  0.48305576002E+01  0.96118325168E-01  0.52847006523E+01  0.00000000000E+00 0.  1.
</event>
<event>
 7    1  0.1098446E-012  0.5052886E+02  0.7816164E-02  0.1300439E+00
        -11   -1    0    0    0    0  0.00000000000E+00  0.00000000000E+00  0.45593999997E+02  0.45594000000E+02  0.51100000000E-03 0.  1.
         11   -1    0    0    0    0 -0.00000000000E+00 -0.00000000000E+00 -0.45593999997E+02  0.45594000000E+02  0.51100000000E-03 0. -1.
    9900012    2    1    2    0    0 -0.33665663021E+02  0.21790732539E+02 -0.67046852926E+01  0.50528859625E+02  0.29999999315E+02 0.  0.
        -12    1    1    2    0    0  0.33665663021E+02 -0.21790732539E+02  0.67046852926E+01  0.40659140375E+02  0.00000000000E+00 0.  1.
         11    1    3    3    0    0 -0.28917094711E+02  0.11617550563E+02 -0.12601006657E+02  0.33614747011E+02  0.51100000000E-03 0. -1.
        -11    1    3    3    0    0  0.12693866596E+00  0.14188476134E+00  0.57567295465E+01  0.57598767386E+01  0.51100000000E-03 0.  1.
        -12    1    3    3    0    0 -0.48755069756E+01  0.10031297214E+02  0.13959181798E+00  0.11154235875E+02  0.00000000000E+00 0.  1.
</event>
<event>
 7    1  0.1098446E-012  0.5052886E+02  0.7816164E-02  0.1300439E+00
        -11   -1    0    0    0    0  0.00000000000E+00  0.00000000000E+00  0.45593999997E+02  0.45594000000E+02  0.51100000000E-03 0.  1.
         11   -1    0    0    0    0 -0.00000000000E+00 -0.00000000000E+00 -0.45593999997E+02  0.45594000000E+02  0.51100000000E-03 0. -1.
    9900012    2    1    2    0    0  0.30388933070E+02  0.22856617063E+02 -0.14396292185E+02  0.50528862954E+02  0.30000009434E+02 0.  0.
        -12    1    1    2    0    0 -0.30388933070E+02 -0.22856617063E+02  0.14396292185E+02  0.40659137046E+02  0.00000000000E+00 0.  1.
         11    1    3    3    0    0  0.30210983577E+02  0.20004445964E+02 -0.15307267533E+02  0.39334384787E+02  0.51100000000E-03 0. -1.
        -11    1    3    3    0    0 -0.21160265945E+01 -0.36104530812E+01 -0.43011533875E+00  0.42068919009E+01  0.51100000000E-03 0.  1.
         12    1    3    3    0    0  0.22939760872E+01  0.64626241804E+01  0.13410906869E+01  0.69875862654E+01  0.00000000000E+00 0. -1.
</event>
<event>
 7    1  0.1098446E-012  0.5052880E+02  0.7816164E-02  0.1300439E+00
        -11   -1    0    0    0    0  0.00000000000E+00  0.00000000000E+00  0.45593999997E+02  0.45594000000E+02  0.51100000000E-03 0.  1.
         11   -1    0    0    0    0 -0.00000000000E+00 -0.00000000000E+00 -0.45593999997E+02  0.45594000000E+02  0.51100000000E-03 0. -1.
    9900012    2    1    2    0    0 -0.21895552790E+02  0.17243108470E+01 -0.34216692755E+02  0.50528800021E+02  0.29999818142E+02 0.  0.
        -12    1    1    2    0    0  0.21895552790E+02 -0.17243108470E+01  0.34216692755E+02  0.40659199979E+02  0.00000000000E+00 0.  1.
         11    1    3    3    0    0 -0.62902595684E+01 -0.93006676183E+01 -0.18907039403E+02  0.21989677643E+02  0.51100000000E-03 0. -1.
        -11    1    3    3    0    0 -0.77604288892E+01  0.13704302665E+02 -0.91796257675E+01  0.18229034466E+02  0.51100000000E-03 0.  1.
        -12    1    3    3    0    0 -0.78448643324E+01 -0.26793241995E+01 -0.61300275848E+01  0.10310087912E+02  0.00000000000E+00 0.  1.
</event>
<event>
 7    1  0.1098446E-012  0.5052886E+02  0.7816164E-02  0.1300439E+00
        -11   -1    0    0    0    0  0.00000000000E+00  0.00000000000E+00  0.45593999997E+02  0.45594000000E+02  0.51100000000E-03 0.  1.
         11   -1    0    0    0    0 -0.00000000000E+00 -0.00000000000E+00 -0.45593999997E+02  0.45594000000E+02  0.51100000000E-03 0. -1.
    9900012    2    1    2    0    0  0.32287952125E+02 -0.13980321668E+02 -0.20376567958E+02  0.50528858739E+02  0.29999996622E+02 0.  0.
        -12    1    1    2    0    0 -0.32287952125E+02  0.13980321668E+02  0.20376567958E+02  0.40659141261E+02  0.00000000000E+00 0.  1.
         11    1    3    3    0    0  0.31749353451E+02 -0.48466599985E+01 -0.90077835912E+01  0.33356434510E+02  0.51100000000E-03 0. -1.
        -11    1    3    3    0    0 -0.30621736490E+01 -0.67489321358E+01 -0.34993438408E+01  0.81957549993E+01  0.51100000000E-03 0.  1.
        -12    1    3    3    0    0  0.36007723225E+01 -0.23847295341E+01 -0.78694405256E+01  0.89766692295E+01  0.00000000000E+00 0.  1.
</event>
<event>
 7    1  0.1098446E-012  0.5052886E+02  0.7816164E-02  0.1300439E+00
        -11   -1    0    0    0    0  0.00000000000E+00  0.00000000000E+00  0.45593999997E+02  0.45594000000E+02  0.51100000000E-03 0. -1.
         11   -1    0    0    0    0 -0.00000000000E+00 -0.00000000000E+00 -0.45593999997E+02  0.45594000000E+02  0.51100000000E-03 0.  1.
    9900012    2    1    2    0    0  0.28589772006E+02 -0.28625693893E+02  0.40447377990E+01  0.50528864272E+02  0.30000013442E+02 0.  0.
        -12    1    1    2    0    0 -0.28589772006E+02  0.28625693893E+02 -0.40447377990E+01  0.40659135728E+02  0.00000000000E+00 0.  1.
         11    1    3    3    0    0  0.30665264348E+02 -0.25509311519E+02  0.45151374660E+01  0.40143117446E+02  0.51100000000E-03 0. -1.
        -11    1    3    3    0    0 -0.17603162512E+01 -0.47501167877E+01 -0.40190063408E+01  0.64664313984E+01  0.51100000000E-03 0.  1.
         12    1    3    3    0    0 -0.31517609005E+00  0.16337344130E+01  0.35486066739E+01  0.39193154282E+01  0.00000000000E+00 0. -1.
</event>
<event>
 7    1  0.1098446E-012  0.5052885E+02  0.7816164E-02  0.1300439E+00
        -11   -1    0    0    0    0  0.00000000000E+00  0.00000000000E+00  0.45593999997E+02  0.45594000000E+02  0.51100000000E-03 0.  1.
         11   -1    0    0    0    0 -0.00000000000E+00 -0.00000000000E+00 -0.45593999997E+02  0.45594000000E+02  0.51100000000E-03 0. -1.
    9900012    2    1    2    0    0 -0.10244228650E+02  0.12098160419E+02 -0.37441373546E+02  0.50528853930E+02  0.29999982006E+02 0.  0.
        -12    1    1    2    0    0  0.10244228650E+02 -0.12098160419E+02  0.37441373546E+02  0.40659146070E+02  0.00000000000E+00 0.  1.
         11    1    3    3    0    0  0.67317652415E+01  0.50469113666E+01 -0.20065834439E+01  0.86495291772E+01  0.51100000000E-03 0.  1.
        -11    1    3    3    0    0 -0.14450947400E+02 -0.16640906747E-01 -0.19554894182E+02  0.24315099104E+02  0.51100000000E-03 0. -1.
        -12    1    3    3    0    0 -0.25250464913E+01  0.70678899592E+01 -0.15879895919E+02  0.17564225649E+02  0.00000000000E+00 0.  1.
</event>
<event>
 7    1  0.1098446E-012  0.5052886E+02  0.7816164E-02  0.1300439E+00
        -11   -1    0    0    0    0  0.00000000000E+00  0.00000000000E+00  0.45593999997E+02  0.45594000000E+02  0.51100000000E-03 0. -1.
         11   -1    0    0    0    0 -0.00000000000E+00 -0.00000000000E+00 -0.45593999997E+02  0.45594000000E+02  0.51100000000E-03 0.  1.
    9900012    2    1    2    0    0  0.27230111733E+02  0.73260725583E+01 -0.29291899071E+02  0.50528859880E+02  0.30000000092E+02 0.  0.
        -12    1    1    2    0    0 -0.27230111733E+02 -0.73260725583E+01  0.29291899071E+02  0.40659140120E+02  0.00000000000E+00 0.  1.
         11    1    3    3    0    0  0.13786573349E+02 -0.81426442590E+01 -0.20837123197E+02  0.26278469583E+02  0.51100000000E-03 0. -1.
        -11    1    3    3    0    0  0.19476618185E+01  0.90306728612E+00 -0.49104517694E+01  0.53592400509E+01  0.51100000000E-03 0.  1.
         12    1    3    3    0    0  0.11495876565E+02  0.14565649531E+02 -0.35443241043E+01  0.18891150246E+02  0.00000000000E+00 0. -1.
</event>
<event>
 7    1  0.1098446E-012  0.5052891E+02  0.7816164E-02  0.1300439E+00
        -11   -1    0    0    0    0  0.00000000000E+00  0.00000000000E+00  0.45593999997E+02  0.45594000000E+02  0.51100000000E-03 0.  1.
         11   -1    0    0    0    0 -0.00000000000E+00 -0.00000000000E+00 -0.45593999997E+02  0.45594000000E+02  0.51100000000E-03 0. -1.
    9900012    2    1    2    0    0 -0.38327647229E+01 -0.35298786508E+02 -0.19810790871E+02  0.50528906930E+02  0.30000143105E+02 0.  0.
        -12    1    1    2    0    0  0.38327647229E+01  0.35298786508E+02  0.19810790871E+02  0.40659093070E+02  0.00000000000E+00 0.  1.
         11    1    3    3    0    0  0.19864215547E+01  0.14304634257E+01 -0.63628987495E+01  0.68175198542E+01  0.51100000000E-03 0. -1.
        -11    1    3    3    0    0 -0.11202786641E+02 -0.33437898829E+02 -0.11847475419E+02  0.37201588416E+02  0.51100000000E-03 0.  1.
        -12    1    3    3    0    0  0.53836003639E+01 -0.32913511046E+01 -0.16004167021E+01  0.65097986599E+01  0.00000000000E+00 0.  1.
</event>
<event>
 7    1  0.1098446E-012  0.5052883E+02  0.7816164E-02  0.1300439E+00
        -11   -1    0    0    0    0  0.00000000000E+00  0.00000000000E+00  0.45593999997E+02  0.45594000000E+02  0.51100000000E-03 0.  1.
         11   -1    0    0    0    0 -0.00000000000E+00 -0.00000000000E+00 -0.45593999997E+02  0.45594000000E+02  0.51100000000E-03 0. -1.
    9900012    2    1    2    0    0 -0.39626826758E+01 -0.15533913723E+02 -0.37365261863E+02  0.50528829772E+02  0.29999908574E+02 0.  0.
        -12    1    1    2    0    0  0.39626826758E+01  0.15533913723E+02  0.37365261863E+02  0.40659170228E+02  0.00000000000E+00 0.  1.
         11    1    3    3    0    0 -0.58682195887E+01 -0.98797140584E+01 -0.29042421729E+02  0.31233107613E+02  0.51100000000E-03 0. -1.
        -11    1    3    3    0    0 -0.54090598204E+01  0.16814813990E+00  0.16189658119E+01  0.56486505024E+01  0.51100000000E-03 0.  1.
        -12    1    3    3    0    0  0.73145967333E+01 -0.58223478042E+01 -0.99418059465E+01  0.13647071657E+02  0.00000000000E+00 0.  1.
</event>
<event>
 7    1  0.1098446E-012  0.5052885E+02  0.7816164E-02  0.1300439E+00
        -11   -1    0    0    0    0  0.00000000000E+00  0.00000000000E+00  0.45593999997E+02  0.45594000000E+02  0.51100000000E-03 0. -1.
         11   -1    0    0    0    0 -0.00000000000E+00 -0.00000000000E+00 -0.45593999997E+02  0.45594000000E+02  0.51100000000E-03 0.  1.
    9900012    2    1    2    0    0  0.25723813717E+01 -0.33889732891E+02 -0.22316712712E+02  0.50528845956E+02  0.29999957767E+02 0.  0.
        -12    1    1    2    0    0 -0.25723813717E+01  0.33889732891E+02  0.22316712712E+02  0.40659154044E+02  0.00000000000E+00 0.  1.
         11    1    3    3    0    0  0.93387221878E+01 -0.26444314308E+02 -0.18472673876E+02  0.33582036444E+02  0.51100000000E-03 0. -1.
        -11    1    3    3    0    0 -0.39965011157E+01 -0.55901340785E+01  0.43278375336E+01  0.81210712447E+01  0.51100000000E-03 0.  1.
        -12    1    3    3    0    0 -0.27698397004E+01 -0.18552845036E+01 -0.81718763695E+01  0.88257382668E+01  0.00000000000E+00 0.  1.
</event>
<event>
 7    1  0.1098446E-012  0.5052886E+02  0.7816164E-02  0.1300439E+00
        -11   -1    0    0    0    0  0.00000000000E+00  0.00000000000E+00  0.45593999997E+02  0.45594000000E+02  0.51100000000E-03 0.  1.
         11   -1    0    0    0    0 -0.00000000000E+00 -0.00000000000E+00 -0.45593999997E+02  0.45594000000E+02  0.51100000000E-03 0. -1.
    9900012    2    1    2    0    0 -0.70357257717E+01 -0.33020223418E+02 -0.22656767572E+02  0.50528859472E+02  0.29999998850E+02 0.  0.
        -12    1    1    2    0    0  0.70357257717E+01  0.33020223418E+02  0.22656767572E+02  0.40659140528E+02  0.00000000000E+00 0.  1.
         11    1    3    3    0    0 -0.23914632973E+01 -0.28912729421E+02 -0.28226626933E+02  0.40477246541E+02  0.51100000000E-03 0. -1.
        -11    1    3    3    0    0 -0.41952961016E+01 -0.32606874448E+01  0.10308451481E+01  0.54125071799E+01  0.51100000000E-03 0.  1.
         12    1    3    3    0    0 -0.44896637277E+00 -0.84680655178E+00  0.45390142127E+01  0.46391057504E+01  0.00000000000E+00 0. -1.
</event>
<event>
 7    1  0.1098446E-012  0.5052885E+02  0.7816164E-02  0.1300439E+00
        -11   -1    0    0    0    0  0.00000000000E+00  0.00000000000E+00  0.45593999997E+02  0.45594000000E+02  0.51100000000E-03 0.  1.
         11   -1    0    0    0    0 -0.00000000000E+00 -0.00000000000E+00 -0.45593999997E+02  0.45594000000E+02  0.51100000000E-03 0. -1.
    9900012    2    1    2    0    0  0.23777085948E+02  0.12940865532E+02 -0.30337276106E+02  0.50528854185E+02  0.29999982781E+02 0.  0.
        -12    1    1    2    0    0 -0.23777085948E+02 -0.12940865532E+02  0.30337276106E+02  0.40659145815E+02  0.00000000000E+00 0.  1.
         11    1    3    3    0    0  0.10037737097E+02  0.15679824930E+02 -0.24244908047E+02  0.30568425578E+02  0.51100000000E-03 0. -1.
        -11    1    3    3    0    0  0.27309285605E+01 -0.58018355485E+01  0.10317917597E+01  0.64949103944E+01  0.51100000000E-03 0.  1.
        -12    1    3    3    0    0  0.11008420291E+02  0.30628761507E+01 -0.71241598180E+01  0.13465518212E+02  0.00000000000E+00 0.  1.
</event>
<event>
 7    1  0.1098446E-012  0.5052886E+02  0.7816164E-02  0.1300439E+00
        -11   -1    0    0    0    0  0.00000000000E+00  0.00000000000E+00  0.45593999997E+02  0.45594000000E+02  0.51100000000E-03 0.  1.
         11   -1    0    0    0    0 -0.00000000000E+00 -0.00000000000E+00 -0.45593999997E+02  0.45594000000E+02  0.51100000000E-03 0. -1.
    9900012    2    1    2    0    0 -0.83037543925E+01  0.67007454624E+01 -0.39234083544E+02  0.50528860335E+02  0.30000001475E+02 0.  0.
        -12    1    1    2    0    0  0.83037543925E+01 -0.67007454624E+01  0.39234083544E+02  0.40659139665E+02  0.00000000000E+00 0.  1.
         11    1    3    3    0    0  0.59129798024E+01  0.64678169676E+01 -0.18365333073E+02  0.20348991267E+02  0.51100000000E-03 0. -1.
        -11    1    3    3    0    0 -0.11430605540E+02 -0.56384712020E+01 -0.62794609875E+01  0.14208544298E+02  0.51100000000E-03 0.  1.
        -12    1    3    3    0    0 -0.27861286550E+01  0.58713996968E+01 -0.14589289483E+02  0.15971324770E+02  0.00000000000E+00 0.  1.
</event>
<event>
 7    1  0.1098446E-012  0.5052877E+02  0.7816164E-02  0.1300439E+00
        -11   -1    0    0    0    0  0.00000000000E+00  0.00000000000E+00  0.45593999997E+02  0.45594000000E+02  0.51100000000E-03 0.  1.
         11   -1    0    0    0    0 -0.00000000000E+00 -0.00000000000E+00 -0.45593999997E+02  0.45594000000E+02  0.51100000000E-03 0. -1.
    9900012    2    1    2    0    0  0.40648745538E+02  0.13216081921E+00  0.91365257038E+00  0.50528772987E+02  0.29999735970E+02 0.  0.
        -12    1    1    2    0    0 -0.40648745538E+02 -0.13216081921E+00 -0.91365257038E+00  0.40659227013E+02  0.00000000000E+00 0.  1.
         11    1    3    3    0    0  0.28609119010E+01  0.64748714985E+01 -0.34783297851E+01  0.78871766928E+01  0.51100000000E-03 0. -1.
        -11    1    3    3    0    0  0.37241695829E+02 -0.68148829902E+01  0.82232931898E+01  0.38742858562E+02  0.51100000000E-03 0.  1.
        -12    1    3    3    0    0  0.54613780788E+00  0.47217231094E+00 -0.38313108343E+01  0.38987377323E+01  0.00000000000E+00 0.  1.
</event>
<event>
 7    1  0.1098446E-012  0.5052886E+02  0.7816164E-02  0.1300439E+00
        -11   -1    0    0    0    0  0.00000000000E+00  0.00000000000E+00  0.45593999997E+02  0.45594000000E+02  0.51100000000E-03 0.  1.
         11   -1    0    0    0    0 -0.00000000000E+00 -0.00000000000E+00 -0.45593999997E+02  0.45594000000E+02  0.51100000000E-03 0. -1.
    9900012    2    1    2    0    0 -0.34813434880E+02 -0.20158632629E+02  0.59008535413E+01  0.50528858468E+02  0.29999995800E+02 0.  0.
        -12    1    1    2    0    0  0.34813434880E+02  0.20158632629E+02 -0.59008535413E+01  0.40659141532E+02  0.00000000000E+00 0.  1.
         11    1    3    3    0    0 -0.21175197374E+02 -0.61814362354E+00  0.45942508168E+01  0.21676674703E+02  0.51100000000E-03 0. -1.
        -11    1    3    3    0    0 -0.16062834198E+02 -0.18695809207E+02 -0.19264449107E+01  0.24723654961E+02  0.51100000000E-03 0.  1.
        -12    1    3    3    0    0  0.24245966913E+01 -0.84467979783E+00  0.32330476352E+01  0.41285288042E+01  0.00000000000E+00 0.  1.
</event>
<event>
 7    1  0.1098446E-012  0.5052886E+02  0.7816164E-02  0.1300439E+00
        -11   -1    0    0    0    0  0.00000000000E+00  0.00000000000E+00  0.45593999997E+02  0.45594000000E+02  0.51100000000E-03 0. -1.
         11   -1    0    0    0    0 -0.00000000000E+00 -0.00000000000E+00 -0.45593999997E+02  0.45594000000E+02  0.51100000000E-03 0.  1.
    9900012    2    1    2    0    0  0.15933447945E+02  0.25757649329E+02  0.27126272251E+02  0.50528857011E+02  0.29999991372E+02 0.  0.
        -12    1    1    2    0    0 -0.15933447945E+02 -0.25757649329E+02 -0.27126272251E+02  0.40659142989E+02  0.00000000000E+00 0.  1.
         11    1    3    3    0    0  0.60266403914E+00  0.11440941421E+02  0.11411056566E+02  0.16170051229E+02  0.51100000000E-03 0. -1.
        -11    1    3    3    0    0  0.16692977986E+02  0.71659379838E+00  0.10475796220E+02  0.19720834856E+02  0.51100000000E-03 0.  1.
        -12    1    3    3    0    0 -0.13621940808E+01  0.13600114110E+02  0.52394194651E+01  0.14637970926E+02  0.00000000000E+00 0.  1.
</event>
<event>
 7    1  0.1098446E-012  0.5052883E+02  0.7816164E-02  0.1300439E+00
        -11   -1    0    0    0    0  0.00000000000E+00  0.00000000000E+00  0.45593999997E+02  0.45594000000E+02  0.51100000000E-03 0.  1.
         11   -1    0    0    0    0 -0.00000000000E+00 -0.00000000000E+00 -0.45593999997E+02  0.45594000000E+02  0.51100000000E-03 0. -1.
    9900012    2    1    2    0    0  0.23860827203E+02  0.90867479449E+00 -0.32909011131E+02  0.50528834018E+02  0.29999921481E+02 0.  0.
        -12    1    1    2    0    0 -0.23860827203E+02 -0.90867479449E+00  0.32909011131E+02  0.40659165982E+02  0.00000000000E+00 0.  1.
         11    1    3    3    0    0 -0.43014641096E+00  0.37326863888E+01 -0.17526957919E+02  0.17925184176E+02  0.51100000000E-03 0. -1.
        -11    1    3    3    0    0  0.18294014562E+02 -0.15201013118E+01 -0.27529274231E+01  0.18562335156E+02  0.51100000000E-03 0.  1.
         12    1    3    3    0    0  0.59969590526E+01 -0.13039102824E+01 -0.12629125789E+02  0.14041314686E+02  0.00000000000E+00 0. -1.
</event>
<event>
 7    1  0.1098446E-012  0.5052886E+02  0.7816164E-02  0.1300439E+00
        -11   -1    0    0    0    0  0.00000000000E+00  0.00000000000E+00  0.45593999997E+02  0.45594000000E+02  0.51100000000E-03 0. -1.
         11   -1    0    0    0    0 -0.00000000000E+00 -0.00000000000E+00 -0.45593999997E+02  0.45594000000E+02  0.51100000000E-03 0.  1.
    9900012    2    1    2    0    0  0.16019975515E+02 -0.26745769975E+02  0.26099617419E+02  0.50528857652E+02  0.29999993320E+02 0.  0.
        -12    1    1    2    0    0 -0.16019975515E+02  0.26745769975E+02 -0.26099617419E+02  0.40659142348E+02  0.00000000000E+00 0.  1.
         11    1    3    3    0    0  0.87049401268E+01 -0.25520756803E+02  0.21623963437E+02  0.34564154921E+02  0.51100000000E-03 0. -1.
        -11    1    3    3    0    0  0.46509119330E+01  0.29957172224E+01  0.80911210781E+01  0.98016092580E+01  0.51100000000E-03 0.  1.
         12    1    3    3    0    0  0.26641234552E+01 -0.42207303939E+01 -0.36154670956E+01  0.61630934734E+01  0.00000000000E+00 0. -1.
</event>
<event>
 7    1  0.1098446E-012  0.5052885E+02  0.7816164E-02  0.1300439E+00
        -11   -1    0    0    0    0  0.00000000000E+00  0.00000000000E+00  0.45593999997E+02  0.45594000000E+02  0.51100000000E-03 0. -1.
         11   -1    0    0    0    0 -0.00000000000E+00 -0.00000000000E+00 -0.45593999997E+02  0.45594000000E+02  0.51100000000E-03 0.  1.
    9900012    2    1    2    0    0  0.47577318946E+01  0.35425586408E+02 -0.19379319140E+02  0.50528853483E+02  0.29999980648E+02 0.  0.
        -12    1    1    2    0    0 -0.47577318946E+01 -0.35425586408E+02  0.19379319140E+02  0.40659146517E+02  0.00000000000E+00 0.  1.
         11    1    3    3    0    0  0.35672436207E+01  0.18818546615E+02 -0.25133008445E+01  0.19317857157E+02  0.51100000000E-03 0. -1.
        -11    1    3    3    0    0  0.54417341574E+01 -0.28087078685E+01 -0.21881682525E+01  0.65030293782E+01  0.51100000000E-03 0.  1.
        -12    1    3    3    0    0 -0.42512458835E+01  0.19415747662E+02 -0.14677850043E+02  0.24707966948E+02  0.00000000000E+00 0.  1.
</event>
<event>
 7    1  0.1098446E-012  0.5052887E+02  0.7816164E-02  0.1300439E+00
        -11   -1    0    0    0    0  0.00000000000E+00  0.00000000000E+00  0.45593999997E+02  0.45594000000E+02  0.51100000000E-03 0.  1.
         11   -1    0    0    0    0 -0.00000000000E+00 -0.00000000000E+00 -0.45593999997E+02  0.45594000000E+02  0.51100000000E-03 0. -1.
    9900012    2    1    2    0    0 -0.32709674975E+02  0.19334847927E+02 -0.14470867268E+02  0.50528865960E+02  0.30000018573E+02 0.  0.
        -12    1    1    2    0    0  0.32709674975E+02 -0.19334847927E+02  0.14470867268E+02  0.40659134040E+02  0.00000000000E+00 0.  1.
         11    1    3    3    0    0 -0.14182779744E+02  0.49391928665E+01 -0.34769864208E+01  0.15415456602E+02  0.51100000000E-03 0. -1.
        -11    1    3    3    0    0  0.17764813712E+01 -0.41734207456E+01 -0.53717307910E+01  0.70305631876E+01  0.51100000000E-03 0.  1.
        -12    1    3    3    0    0 -0.20303376603E+02  0.18569075806E+02 -0.56221500563E+01  0.28082846171E+02  0.00000000000E+00 0.  1.
</event>
<event>
 7    1  0.1098446E-012  0.5052886E+02  0.7816164E-02  0.1300439E+00
        -11   -1    0    0    0    0  0.00000000000E+00  0.00000000000E+00  0.45593999997E+02  0.45594000000E+02  0.51100000000E-03 0.  1.
         11   -1    0    0    0    0 -0.00000000000E+00 -0.00000000000E+00 -0.45593999997E+02  0.45594000000E+02  0.51100000000E-03 0. -1.
    9900012    2    1    2    0    0 -0.18752101513E+02 -0.16578333903E+02 -0.32041894357E+02  0.50528862526E+02  0.30000008134E+02 0.  0.
        -12    1    1    2    0    0  0.18752101513E+02  0.16578333903E+02  0.32041894357E+02  0.40659137474E+02  0.00000000000E+00 0.  1.
         11    1    3    3    0    0 -0.15899280322E+01 -0.16959752280E+02 -0.18902491919E+02  0.25445338857E+02  0.51100000000E-03 0. -1.
        -11    1    3    3    0    0 -0.13842749685E+01  0.18151878472E+01  0.20993241718E+01  0.31013362198E+01  0.51100000000E-03 0.  1.
         12    1    3    3    0    0 -0.15777898512E+02 -0.14337694701E+01 -0.15238726610E+02  0.21982187449E+02  0.00000000000E+00 0. -1.
</event>
<event>
 7    1  0.1098446E-012  0.5052886E+02  0.7816164E-02  0.1300439E+00
        -11   -1    0    0    0    0  0.00000000000E+00  0.00000000000E+00  0.45593999997E+02  0.45594000000E+02  0.51100000000E-03 0. -1.
         11   -1    0    0    0    0 -0.00000000000E+00 -0.00000000000E+00 -0.45593999997E+02  0.45594000000E+02  0.51100000000E-03 0.  1.
    9900012    2    1    2    0    0  0.28573806484E+01 -0.20969532268E+02  0.34717144712E+02  0.50528855338E+02  0.29999986286E+02 0.  0.
        -12    1    1    2    0    0 -0.28573806484E+01  0.20969532268E+02 -0.34717144712E+02  0.40659144662E+02  0.00000000000E+00 0.  1.
         11    1    3    3    0    0 -0.93769165545E+01 -0.15495805781E+02  0.20982588892E+02  0.27718506413E+02  0.51100000000E-03 0.  1.
        -11    1    3    3    0    0  0.29803781215E+01 -0.40893530358E+01 -0.11871760624E+01  0.51975810973E+01  0.51100000000E-03 0. -1.
         12    1    3    3    0    0  0.92539190813E+01 -0.13843734511E+01  0.14921731882E+02  0.17612767828E+02  0.00000000000E+00 0. -1.
</event>
<event>
 7    1  0.1098446E-012  0.5052895E+02  0.7816164E-02  0.1300438E+00
        -11   -1    0    0    0    0  0.00000000000E+00  0.00000000000E+00  0.45593999997E+02  0.45594000000E+02  0.51100000000E-03 0. -1.
         11   -1    0    0    0    0 -0.00000000000E+00 -0.00000000000E+00 -0.45593999997E+02  0.45594000000E+02  0.51100000000E-03 0.  1.
    9900012    2    1    2    0    0  0.18756680320E+02 -0.18893555018E+02  0.30730746528E+02  0.50528951069E+02  0.30000277267E+02 0.  0.
        -12    1    1    2    0    0 -0.18756680320E+02  0.18893555018E+02 -0.30730746528E+02  0.40659048931E+02  0.00000000000E+00 0.  1.
         11    1    3    3    0    0 -0.44879172824E+01 -0.57584822663E+01 -0.26625474292E+01  0.77711439710E+01  0.51100000000E-03 0.  1.
        -11    1    3    3    0    0  0.14939361193E+02 -0.83595856075E+01  0.21022240371E+02  0.27110916157E+02  0.51100000000E-03 0. -1.
        -12    1    3    3    0    0  0.83052364089E+01 -0.47754871445E+01  0.12371053587E+02  0.15646890941E+02  0.00000000000E+00 0.  1.
</event>
<event>
 7    1  0.1098446E-012  0.5052889E+02  0.7816164E-02  0.1300439E+00
        -11   -1    0    0    0    0  0.00000000000E+00  0.00000000000E+00  0.45593999997E+02  0.45594000000E+02  0.51100000000E-03 0.  1.
         11   -1    0    0    0    0 -0.00000000000E+00 -0.00000000000E+00 -0.45593999997E+02  0.45594000000E+02  0.51100000000E-03 0. -1.
    9900012    2    1    2    0    0  0.35113386358E+02  0.16795464962E+02  0.11752684332E+02  0.50528891134E+02  0.30000095090E+02 0.  0.
        -12    1    1    2    0    0 -0.35113386358E+02 -0.16795464962E+02 -0.11752684332E+02  0.40659108866E+02  0.00000000000E+00 0.  1.
         11    1    3    3    0    0  0.21163488386E+02  0.11605396655E+02 -0.53076314554E+01  0.24713345061E+02  0.51100000000E-03 0. -1.
        -11    1    3    3    0    0  0.37821472584E+01  0.79743579329E+01  0.74282782875E+01  0.11535785231E+02  0.51100000000E-03 0.  1.
         12    1    3    3    0    0  0.10167750713E+02 -0.27842896257E+01  0.96320374994E+01  0.14279760841E+02  0.00000000000E+00 0. -1.
</event>
<event>
 7    1  0.1098446E-012  0.5052887E+02  0.7816164E-02  0.1300439E+00
        -11   -1    0    0    0    0  0.00000000000E+00  0.00000000000E+00  0.45593999997E+02  0.45594000000E+02  0.51100000000E-03 0. -1.
         11   -1    0    0    0    0 -0.00000000000E+00 -0.00000000000E+00 -0.45593999997E+02  0.45594000000E+02  0.51100000000E-03 0.  1.
    9900012    2    1    2    0    0 -0.38661053054E+02 -0.10063638834E+01  0.12548922878E+02  0.50528865025E+02  0.30000015729E+02 0.  0.
        -12    1    1    2    0    0  0.38661053054E+02  0.10063638834E+01 -0.12548922878E+02  0.40659134975E+02  0.00000000000E+00 0.  1.
         11    1    3    3    0    0 -0.28912836601E+02 -0.92968581306E+00 -0.28947771161E+01  0.29072257752E+02  0.51100000000E-03 0. -1.
        -11    1    3    3    0    0 -0.48451074203E+01 -0.52293377955E+01  0.45858648958E+01  0.84765085264E+01  0.51100000000E-03 0.  1.
         12    1    3    3    0    0 -0.49031090334E+01  0.51526597252E+01  0.10857835098E+02  0.12980098746E+02  0.00000000000E+00 0. -1.
</event>
<event>
 7    1  0.1098446E-012  0.5052887E+02  0.7816164E-02  0.1300439E+00
        -11   -1    0    0    0    0  0.00000000000E+00  0.00000000000E+00  0.45593999997E+02  0.45594000000E+02  0.51100000000E-03 0.  1.
         11   -1    0    0    0    0 -0.00000000000E+00 -0.00000000000E+00 -0.45593999997E+02  0.45594000000E+02  0.51100000000E-03 0. -1.
    9900012    2    1    2    0    0  0.10224570792E+02  0.27883113983E+02 -0.27769683288E+02  0.50528865686E+02  0.30000017739E+02 0.  0.
        -12    1    1    2    0    0 -0.10224570792E+02 -0.27883113983E+02  0.27769683288E+02  0.40659134314E+02  0.00000000000E+00 0.  1.
         11    1    3    3    0    0 -0.52573783665E+01  0.21599462120E+00 -0.12209854136E+02  0.13295383381E+02  0.51100000000E-03 0. -1.
        -11    1    3    3    0    0  0.11845475382E+02  0.24418468082E+02 -0.81028835899E+01  0.28323728449E+02  0.51100000000E-03 0.  1.
         12    1    3    3    0    0  0.36364737762E+01  0.32486512798E+01 -0.74569455619E+01  0.89097538561E+01  0.00000000000E+00 0. -1.
</event>
<event>
 7    1  0.1098446E-012  0.5052896E+02  0.7816164E-02  0.1300438E+00
        -11   -1    0    0    0    0  0.00000000000E+00  0.00000000000E+00  0.45593999997E+02  0.45594000000E+02  0.51100000000E-03 0.  1.
         11   -1    0    0    0    0 -0.00000000000E+00 -0.00000000000E+00 -0.45593999997E+02  0.45594000000E+02  0.51100000000E-03 0. -1.
    9900012    2    1    2    0    0  0.23966156758E+02 -0.14948570786E+00 -0.32844460455E+02  0.50528959206E+02  0.30000302002E+02 0.  0.
        -12    1    1    2    0    0 -0.23966156758E+02  0.14948570786E+00  0.32844460455E+02  0.40659040794E+02  0.00000000000E+00 0.  1.
         11    1    3    3    0    0  0.21487840943E+02 -0.58484175957E+01 -0.27113229808E+02  0.35086443645E+02  0.51100000000E-03 0. -1.
        -11    1    3    3    0    0 -0.42674610573E+01 -0.52363118825E+00  0.53095246428E+00  0.43321269922E+01  0.51100000000E-03 0.  1.
         12    1    3    3    0    0  0.67457768717E+01  0.62225630761E+01 -0.62621831115E+01  0.11110388569E+02  0.00000000000E+00 0. -1.
</event>
<event>
 7    1  0.1098446E-012  0.5052887E+02  0.7816164E-02  0.1300439E+00
        -11   -1    0    0    0    0  0.00000000000E+00  0.00000000000E+00  0.45593999997E+02  0.45594000000E+02  0.51100000000E-03 0. -1.
         11   -1    0    0    0    0 -0.00000000000E+00 -0.00000000000E+00 -0.45593999997E+02  0.45594000000E+02  0.51100000000E-03 0.  1.
    9900012    2    1    2    0    0  0.12192515935E+01 -0.40364804040E+02  0.47287377666E+01  0.50528868916E+02  0.30000027558E+02 0.  0.
        -12    1    1    2    0    0 -0.12192515935E+01  0.40364804040E+02 -0.47287377666E+01  0.40659131084E+02  0.00000000000E+00 0.  1.
         11    1    3    3    0    0  0.68314279693E+01 -0.73214287447E+01  0.55473635372E+01  0.11447487473E+02  0.51100000000E-03 0. -1.
        -11    1    3    3    0    0 -0.74961574565E+01 -0.11087797537E+02 -0.83717190970E+01  0.15786618122E+02  0.51100000000E-03 0.  1.
        -12    1    3    3    0    0  0.18839810807E+01 -0.21955577758E+02  0.75530933263E+01  0.23294763321E+02  0.00000000000E+00 0.  1.
</event>
<event>
 7    1  0.1098446E-012  0.5052887E+02  0.7816164E-02  0.1300439E+00
        -11   -1    0    0    0    0  0.00000000000E+00  0.00000000000E+00  0.45593999997E+02  0.45594000000E+02  0.51100000000E-03 0.  1.
         11   -1    0    0    0    0 -0.00000000000E+00 -0.00000000000E+00 -0.45593999997E+02  0.45594000000E+02  0.51100000000E-03 0. -1.
    9900012    2    1    2    0    0 -0.85868166978E+00  0.28493384893E+02 -0.28992322565E+02  0.50528867144E+02  0.30000022170E+02 0.  0.
        -12    1    1    2    0    0  0.85868166978E+00 -0.28493384893E+02  0.28992322565E+02  0.40659132856E+02  0.00000000000E+00 0.  1.
         11    1    3    3    0    0  0.89196097995E+01  0.24612385889E+02 -0.29900693303E+02  0.39741419682E+02  0.51100000000E-03 0. -1.
        -11    1    3    3    0    0 -0.39530103529E+01  0.24568140308E+01 -0.32306144778E+00  0.46654683572E+01  0.51100000000E-03 0.  1.
         12    1    3    3    0    0 -0.58252811164E+01  0.14241849736E+01  0.12314321855E+01  0.61219791041E+01  0.00000000000E+00 0. -1.
</event>
<event>
 7    1  0.1098446E-012  0.5052886E+02  0.7816164E-02  0.1300439E+00
        -11   -1    0    0    0    0  0.00000000000E+00  0.00000000000E+00  0.45593999997E+02  0.45594000000E+02  0.51100000000E-03 0. -1.
         11   -1    0    0    0    0 -0.00000000000E+00 -0.00000000000E+00 -0.45593999997E+02  0.45594000000E+02  0.51100000000E-03 0.  1.
    9900012    2    1    2    0    0  0.25373531318E+02 -0.20121156412E+02  0.24586356691E+02  0.50528856352E+02  0.29999989366E+02 0.  0.
        -12    1    1    2    0    0 -0.25373531318E+02  0.20121156412E+02 -0.24586356691E+02  0.40659143648E+02  0.00000000000E+00 0.  1.
         11    1    3    3    0    0  0.16154884650E+02 -0.40716550717E+01 -0.13081648028E+00  0.16660605820E+02  0.51100000000E-03 0.  1.
        -11    1    3    3    0    0 -0.32213907294E+01 -0.68968561279E+01  0.96596983677E+01  0.12298526558E+02  0.51100000000E-03 0. -1.
        -12    1    3    3    0    0  0.12440037397E+02 -0.91526452120E+01  0.15057474804E+02  0.21569723973E+02  0.00000000000E+00 0.  1.
</event>
<event>
 7    1  0.1098446E-012  0.5052885E+02  0.7816164E-02  0.1300439E+00
        -11   -1    0    0    0    0  0.00000000000E+00  0.00000000000E+00  0.45593999997E+02  0.45594000000E+02  0.51100000000E-03 0.  1.
         11   -1    0    0    0    0 -0.00000000000E+00 -0.00000000000E+00 -0.45593999997E+02  0.45594000000E+02  0.51100000000E-03 0. -1.
    9900012    2    1    2    0    0 -0.24891154040E+02  0.79295283275E+01 -0.31156375462E+02  0.50528847268E+02  0.29999961755E+02 0.  0.
        -12    1    1    2    0    0  0.24891154040E+02 -0.79295283275E+01  0.31156375462E+02  0.40659152732E+02  0.00000000000E+00 0.  1.
         11    1    3    3    0    0 -0.23986044965E+02  0.11584620778E+01 -0.30144180244E+02  0.38540160745E+02  0.51100000000E-03 0. -1.
        -11    1    3    3    0    0 -0.29354527802E+01 -0.47126065131E+00  0.23111221982E+01  0.37656680287E+01  0.51100000000E-03 0.  1.
         12    1    3    3    0    0  0.20303437045E+01  0.72423269010E+01 -0.33233174169E+01  0.82230184940E+01  0.00000000000E+00 0. -1.
</event>
<event>
 7    1  0.1098446E-012  0.5052887E+02  0.7816164E-02  0.1300439E+00
        -11   -1    0    0    0    0  0.00000000000E+00  0.00000000000E+00  0.45593999997E+02  0.45594000000E+02  0.51100000000E-03 0.  1.
         11   -1    0    0    0    0 -0.00000000000E+00 -0.00000000000E+00 -0.45593999997E+02  0.45594000000E+02  0.51100000000E-03 0. -1.
    9900012    2    1    2    0    0 -0.28499761824E+02  0.17466395871E+02 -0.23148512901E+02  0.50528867468E+02  0.30000023155E+02 0.  0.
        -12    1    1    2    0    0  0.28499761824E+02 -0.17466395871E+02  0.23148512901E+02  0.40659132532E+02  0.00000000000E+00 0.  1.
         11    1    3    3    0    0 -0.22784214415E+02  0.15762340873E+02 -0.18406598240E+02  0.33262210920E+02  0.51100000000E-03 0. -1.
        -11    1    3    3    0    0 -0.81171727843E+00 -0.67241487252E+01 -0.11212524043E+01  0.68651488136E+01  0.51100000000E-03 0.  1.
        -12    1    3    3    0    0 -0.49038301307E+01  0.84282037235E+01 -0.36206622569E+01  0.10401507734E+02  0.00000000000E+00 0.  1.
</event>
<event>
 7    1  0.1098446E-012  0.5052886E+02  0.7816164E-02  0.1300439E+00
        -11   -1    0    0    0    0  0.00000000000E+00  0.00000000000E+00  0.45593999997E+02  0.45594000000E+02  0.51100000000E-03 0.  1.
         11   -1    0    0    0    0 -0.00000000000E+00 -0.00000000000E+00 -0.45593999997E+02  0.45594000000E+02  0.51100000000E-03 0. -1.
    9900012    2    1    2    0    0  0.17682988949E+01  0.10098959137E+02 -0.39345260162E+02  0.50528863833E+02  0.30000012106E+02 0.  0.
        -12    1    1    2    0    0 -0.17682988949E+01 -0.10098959137E+02  0.39345260162E+02  0.40659136167E+02  0.00000000000E+00 0.  1.
         11    1    3    3    0    0 -0.75751373439E+01  0.35633637670E+01 -0.24307515663E+02  0.25708667509E+02  0.51100000000E-03 0. -1.
        -11    1    3    3    0    0  0.78196938448E+01 -0.40788067304E+01 -0.85696013665E+01  0.12297249449E+02  0.51100000000E-03 0.  1.
        -12    1    3    3    0    0  0.15237423940E+01  0.10614402101E+02 -0.64681431321E+01  0.12522946874E+02  0.00000000000E+00 0.  1.
</event>
<event>
 7    1  0.1098446E-012  0.5052886E+02  0.7816164E-02  0.1300439E+00
        -11   -1    0    0    0    0  0.00000000000E+00  0.00000000000E+00  0.45593999997E+02  0.45594000000E+02  0.51100000000E-03 0. -1.
         11   -1    0    0    0    0 -0.00000000000E+00 -0.00000000000E+00 -0.45593999997E+02  0.45594000000E+02  0.51100000000E-03 0.  1.
    9900012    2    1    2    0    0  0.28623697628E+02  0.22034495032E+02  0.18663616520E+02  0.50528860575E+02  0.30000002203E+02 0.  0.
        -12    1    1    2    0    0 -0.28623697628E+02 -0.22034495032E+02 -0.18663616520E+02  0.40659139425E+02  0.00000000000E+00 0.  1.
         11    1    3    3    0    0  0.22993105803E+02  0.15320567198E+02  0.13363029952E+01  0.27662038965E+02  0.51100000000E-03 0. -1.
        -11    1    3    3    0    0  0.34871949381E+01 -0.21530953061E+01  0.11070898286E+02  0.11805131810E+02  0.51100000000E-03 0.  1.
         12    1    3    3    0    0  0.21433968863E+01  0.88670231400E+01  0.62564152388E+01  0.11061689799E+02  0.00000000000E+00 0. -1.
</event>
<event>
 7    1  0.1098446E-012  0.5052886E+02  0.7816164E-02  0.1300439E+00
        -11   -1    0    0    0    0  0.00000000000E+00  0.00000000000E+00  0.45593999997E+02  0.45594000000E+02  0.51100000000E-03 0.  1.
         11   -1    0    0    0    0 -0.00000000000E+00 -0.00000000000E+00 -0.45593999997E+02  0.45594000000E+02  0.51100000000E-03 0. -1.
    9900012    2    1    2    0    0 -0.44395213121E+01  0.10501542866E+02 -0.39027857166E+02  0.50528863425E+02  0.30000010867E+02 0.  0.
        -12    1    1    2    0    0  0.44395213121E+01 -0.10501542866E+02  0.39027857166E+02  0.40659136575E+02  0.00000000000E+00 0.  1.
         11    1    3    3    0    0  0.46991324385E+01  0.10865421676E+02 -0.12759698248E+02  0.17405434022E+02  0.51100000000E-03 0. -1.
        -11    1    3    3    0    0 -0.13121019621E+02  0.17224004481E+01 -0.25259164241E+02  0.28515841170E+02  0.51100000000E-03 0.  1.
         12    1    3    3    0    0  0.39823658707E+01 -0.20862792580E+01 -0.10089946772E+01  0.46075882334E+01  0.00000000000E+00 0. -1.
</event>
<event>
 7    1  0.1098446E-012  0.5052886E+02  0.7816164E-02  0.1300439E+00
        -11   -1    0    0    0    0  0.00000000000E+00  0.00000000000E+00  0.45593999997E+02  0.45594000000E+02  0.51100000000E-03 0.  1.
         11   -1    0    0    0    0 -0.00000000000E+00 -0.00000000000E+00 -0.45593999997E+02  0.45594000000E+02  0.51100000000E-03 0. -1.
    9900012    2    1    2    0    0 -0.28424885200E+02 -0.15598496282E+02 -0.24533215953E+02  0.50528857487E+02  0.29999992819E+02 0.  0.
        -12    1    1    2    0    0  0.28424885200E+02  0.15598496282E+02  0.24533215953E+02  0.40659142513E+02  0.00000000000E+00 0.  1.
         11    1    3    3    0    0 -0.17135049735E+02 -0.49848709887E+01 -0.22941772270E+02  0.29065164430E+02  0.51100000000E-03 0. -1.
        -11    1    3    3    0    0 -0.13564752721E+02 -0.11442060721E+02 -0.38430641386E+01  0.18157434075E+02  0.51100000000E-03 0.  1.
         12    1    3    3    0    0  0.22749172564E+01  0.82843542813E+00  0.22516204561E+01  0.33062589826E+01  0.00000000000E+00 0. -1.
</event>
<event>
 7    1  0.1098446E-012  0.5052887E+02  0.7816164E-02  0.1300439E+00
        -11   -1    0    0    0    0  0.00000000000E+00  0.00000000000E+00  0.45593999997E+02  0.45594000000E+02  0.51100000000E-03 0.  1.
         11   -1    0    0    0    0 -0.00000000000E+00 -0.00000000000E+00 -0.45593999997E+02  0.45594000000E+02  0.51100000000E-03 0. -1.
    9900012    2    1    2    0    0 -0.16090561287E+02  0.36705123892E+02  0.68551387263E+01  0.50528865609E+02  0.30000017505E+02 0.  0.
        -12    1    1    2    0    0  0.16090561287E+02 -0.36705123892E+02 -0.68551387263E+01  0.40659134391E+02  0.00000000000E+00 0.  1.
         11    1    3    3    0    0 -0.44109707149E+01  0.44513913754E+01 -0.98302019694E+01  0.11657805061E+02  0.51100000000E-03 0. -1.
        -11    1    3    3    0    0 -0.32740064858E+01  0.19795026024E+02  0.89804361030E+01  0.21982047371E+02  0.51100000000E-03 0.  1.
         12    1    3    3    0    0 -0.84055840863E+01  0.12458706493E+02  0.77049045928E+01  0.16889013177E+02  0.00000000000E+00 0. -1.
</event>
<event>
 7    1  0.1098446E-012  0.5052886E+02  0.7816164E-02  0.1300439E+00
        -11   -1    0    0    0    0  0.00000000000E+00  0.00000000000E+00  0.45593999997E+02  0.45594000000E+02  0.51100000000E-03 0. -1.
         11   -1    0    0    0    0 -0.00000000000E+00 -0.00000000000E+00 -0.45593999997E+02  0.45594000000E+02  0.51100000000E-03 0.  1.
    9900012    2    1    2    0    0  0.28240429058E+02  0.20829443864E+02  0.20537232426E+02  0.50528862272E+02  0.30000007362E+02 0.  0.
        -12    1    1    2    0    0 -0.28240429058E+02 -0.20829443864E+02 -0.20537232426E+02  0.40659137728E+02  0.00000000000E+00 0.  1.
         11    1    3    3    0    0  0.15272252064E+02  0.15413716095E+02  0.16880702426E+02  0.27491497625E+02  0.51100000000E-03 0. -1.
        -11    1    3    3    0    0  0.47552351091E+00  0.53469604033E+01 -0.53945478434E+01  0.76103386823E+01  0.51100000000E-03 0.  1.
         12    1    3    3    0    0  0.12492653483E+02  0.68767365286E-01  0.90510778433E+01  0.15427025965E+02  0.00000000000E+00 0. -1.
</event>
<event>
 7    1  0.1098446E-012  0.5052886E+02  0.7816164E-02  0.1300439E+00
        -11   -1    0    0    0    0  0.00000000000E+00  0.00000000000E+00  0.45593999997E+02  0.45594000000E+02  0.51100000000E-03 0.  1.
         11   -1    0    0    0    0 -0.00000000000E+00 -0.00000000000E+00 -0.45593999997E+02  0.45594000000E+02  0.51100000000E-03 0. -1.
    9900012    2    1    2    0    0 -0.30372791071E+02 -0.12207563909E+02 -0.24117106105E+02  0.50528857597E+02  0.29999993153E+02 0.  0.
        -12    1    1    2    0    0  0.30372791071E+02  0.12207563909E+02  0.24117106105E+02  0.40659142403E+02  0.00000000000E+00 0.  1.
         11    1    3    3    0    0 -0.10885146360E+02 -0.93790362653E+01 -0.96672999304E+01  0.17317893080E+02  0.51100000000E-03 0. -1.
        -11    1    3    3    0    0  0.36394268319E+01  0.31632004178E+00  0.24468943723E+01  0.43969055441E+01  0.51100000000E-03 0.  1.
        -12    1    3    3    0    0 -0.23127071543E+02 -0.31448476852E+01 -0.16896700546E+02  0.28814058973E+02  0.00000000000E+00 0.  1.
</event>
<event>
 7    1  0.1098446E-012  0.5052886E+02  0.7816164E-02  0.1300439E+00
        -11   -1    0    0    0    0  0.00000000000E+00  0.00000000000E+00  0.45593999997E+02  0.45594000000E+02  0.51100000000E-03 0.  1.
         11   -1    0    0    0    0 -0.00000000000E+00 -0.00000000000E+00 -0.45593999997E+02  0.45594000000E+02  0.51100000000E-03 0. -1.
    9900012    2    1    2    0    0 -0.17471369742E+02  0.25175233148E+02 -0.26723112241E+02  0.50528857700E+02  0.29999993465E+02 0.  0.
        -12    1    1    2    0    0  0.17471369742E+02 -0.25175233148E+02  0.26723112241E+02  0.40659142300E+02  0.00000000000E+00 0.  1.
         11    1    3    3    0    0 -0.63514499753E+01  0.71449765631E+01 -0.10472547682E+02  0.14179769465E+02  0.51100000000E-03 0. -1.
        -11    1    3    3    0    0 -0.55487686302E+01 -0.37915262908E+00  0.51467903257E+01  0.75777332327E+01  0.51100000000E-03 0.  1.
        -12    1    3    3    0    0 -0.55711511370E+01  0.18409409214E+02 -0.21397354885E+02  0.28771355002E+02  0.00000000000E+00 0.  1.
</event>
<event>
 7    1  0.1098446E-012  0.5052886E+02  0.7816164E-02  0.1300439E+00
        -11   -1    0    0    0    0  0.00000000000E+00  0.00000000000E+00  0.45593999997E+02  0.45594000000E+02  0.51100000000E-03 0.  1.
         11   -1    0    0    0    0 -0.00000000000E+00 -0.00000000000E+00 -0.45593999997E+02  0.45594000000E+02  0.51100000000E-03 0. -1.
    9900012    2    1    2    0    0  0.10807555307E+02 -0.39195717245E+02  0.24035155327E+00  0.50528864852E+02  0.30000015205E+02 0.  0.
        -12    1    1    2    0    0 -0.10807555307E+02  0.39195717245E+02 -0.24035155327E+00  0.40659135148E+02  0.00000000000E+00 0.  1.
         11    1    3    3    0    0 -0.21125981479E+01 -0.22396125449E+02 -0.80543259530E+01  0.23893967291E+02  0.51100000000E-03 0. -1.
        -11    1    3    3    0    0  0.96488238361E+01 -0.24905349910E+01  0.63796409032E+01  0.11832260320E+02  0.51100000000E-03 0.  1.
         12    1    3    3    0    0  0.32713296192E+01 -0.14309056805E+02  0.19150366031E+01  0.14802637242E+02  0.00000000000E+00 0. -1.
</event>
<event>
 7    1  0.1098446E-012  0.5052886E+02  0.7816164E-02  0.1300439E+00
        -11   -1    0    0    0    0  0.00000000000E+00  0.00000000000E+00  0.45593999997E+02  0.45594000000E+02  0.51100000000E-03 0.  1.
         11   -1    0    0    0    0 -0.00000000000E+00 -0.00000000000E+00 -0.45593999997E+02  0.45594000000E+02  0.51100000000E-03 0. -1.
    9900012    2    1    2    0    0 -0.17740639032E+02 -0.36192849330E+02 -0.53397906915E+01  0.50528856127E+02  0.29999988683E+02 0.  0.
        -12    1    1    2    0    0  0.17740639032E+02  0.36192849330E+02  0.53397906915E+01  0.40659143873E+02  0.00000000000E+00 0.  1.
         11    1    3    3    0    0  0.59395756714E+01 -0.16770428975E+02  0.34485144761E+01  0.18122309442E+02  0.51100000000E-03 0. -1.
        -11    1    3    3    0    0 -0.10918157116E+02 -0.68966017421E+01 -0.11616140175E+01  0.12966056370E+02  0.51100000000E-03 0.  1.
         12    1    3    3    0    0 -0.12762057587E+02 -0.12525818613E+02 -0.76266911501E+01  0.19440490315E+02  0.00000000000E+00 0. -1.
</event>
<event>
 7    1  0.1098446E-012  0.5052887E+02  0.7816164E-02  0.1300439E+00
        -11   -1    0    0    0    0  0.00000000000E+00  0.00000000000E+00  0.45593999997E+02  0.45594000000E+02  0.51100000000E-03 0.  1.
         11   -1    0    0    0    0 -0.00000000000E+00 -0.00000000000E+00 -0.45593999997E+02  0.45594000000E+02  0.51100000000E-03 0. -1.
    9900012    2    1    2    0    0  0.25513270216E+02  0.13005674104E+02 -0.28863310918E+02  0.50528865317E+02  0.30000016619E+02 0.  0.
        -12    1    1    2    0    0 -0.25513270216E+02 -0.13005674104E+02  0.28863310918E+02  0.40659134683E+02  0.00000000000E+00 0.  1.
         11    1    3    3    0    0  0.78994980198E+01  0.90571094018E+01 -0.17986248556E+02  0.21631884732E+02  0.51100000000E-03 0. -1.
        -11    1    3    3    0    0  0.49179645671E-01 -0.25740355341E+01  0.41466914959E+01  0.48808942000E+01  0.51100000000E-03 0.  1.
        -12    1    3    3    0    0  0.17564592550E+02  0.65226002362E+01 -0.15023753858E+02  0.24016086386E+02  0.00000000000E+00 0.  1.
</event>
<event>
 7    1  0.1098446E-012  0.5052886E+02  0.7816164E-02  0.1300439E+00
        -11   -1    0    0    0    0  0.00000000000E+00  0.00000000000E+00  0.45593999997E+02  0.45594000000E+02  0.51100000000E-03 0. -1.
         11   -1    0    0    0    0 -0.00000000000E+00 -0.00000000000E+00 -0.45593999997E+02  0.45594000000E+02  0.51100000000E-03 0.  1.
    9900012    2    1    2    0    0 -0.24996913354E+02 -0.28548234273E+02 -0.14605417533E+02  0.50528861068E+02  0.30000003703E+02 0.  0.
        -12    1    1    2    0    0  0.24996913354E+02  0.28548234273E+02  0.14605417533E+02  0.40659138932E+02  0.00000000000E+00 0.  1.
         11    1    3    3    0    0 -0.14781359764E+02 -0.16217567081E+02  0.44634289353E+01  0.22392415605E+02  0.51100000000E-03 0. -1.
        -11    1    3    3    0    0  0.16306007532E+01 -0.71814787754E+01 -0.43480402726E+01  0.85520728885E+01  0.51100000000E-03 0.  1.
         12    1    3    3    0    0 -0.11846154344E+02 -0.51491884166E+01 -0.14720806196E+02  0.19584372575E+02  0.00000000000E+00 0. -1.
</event>
<event>
 7    1  0.1098446E-012  0.5052886E+02  0.7816164E-02  0.1300439E+00
        -11   -1    0    0    0    0  0.00000000000E+00  0.00000000000E+00  0.45593999997E+02  0.45594000000E+02  0.51100000000E-03 0.  1.
         11   -1    0    0    0    0 -0.00000000000E+00 -0.00000000000E+00 -0.45593999997E+02  0.45594000000E+02  0.51100000000E-03 0. -1.
    9900012    2    1    2    0    0 -0.26021252406E+02 -0.99166276883E+01 -0.29626346936E+02  0.50528861861E+02  0.30000006112E+02 0.  0.
        -12    1    1    2    0    0  0.26021252406E+02  0.99166276883E+01  0.29626346936E+02  0.40659138139E+02  0.00000000000E+00 0.  1.
         11    1    3    3    0    0 -0.16767856878E+02 -0.30259120118E+01 -0.21415312421E+02  0.27366636150E+02  0.51100000000E-03 0. -1.
        -11    1    3    3    0    0 -0.10070214364E+02 -0.81990053557E+01  0.17314756338E+01  0.13100798231E+02  0.51100000000E-03 0.  1.
         12    1    3    3    0    0  0.81681883553E+00  0.13082896792E+01 -0.99425101479E+01  0.10061427480E+02  0.00000000000E+00 0. -1.
</event>
<event>
 7    1  0.1098446E-012  0.5052885E+02  0.7816164E-02  0.1300439E+00
        -11   -1    0    0    0    0  0.00000000000E+00  0.00000000000E+00  0.45593999997E+02  0.45594000000E+02  0.51100000000E-03 0.  1.
         11   -1    0    0    0    0 -0.00000000000E+00 -0.00000000000E+00 -0.45593999997E+02  0.45594000000E+02  0.51100000000E-03 0. -1.
    9900012    2    1    2    0    0  0.13326808489E+02  0.69681658579E+00 -0.38406727517E+02  0.50528854701E+02  0.29999984349E+02 0.  0.
        -12    1    1    2    0    0 -0.13326808489E+02 -0.69681658579E+00  0.38406727517E+02  0.40659145299E+02  0.00000000000E+00 0.  1.
         11    1    3    3    0    0  0.38173359151E+00 -0.72077850375E+01 -0.18010925324E+02  0.19403384163E+02  0.51100000000E-03 0.  1.
        -11    1    3    3    0    0  0.87360193731E+01  0.10042380612E+02 -0.22352324893E+02  0.26015262275E+02  0.51100000000E-03 0. -1.
        -12    1    3    3    0    0  0.42090555243E+01 -0.21377789891E+01  0.19565227000E+01  0.51102082627E+01  0.00000000000E+00 0.  1.
</event>
<event>
 7    1  0.1098446E-012  0.5052881E+02  0.7816164E-02  0.1300439E+00
        -11   -1    0    0    0    0  0.00000000000E+00  0.00000000000E+00  0.45593999997E+02  0.45594000000E+02  0.51100000000E-03 0. -1.
         11   -1    0    0    0    0 -0.00000000000E+00 -0.00000000000E+00 -0.45593999997E+02  0.45594000000E+02  0.51100000000E-03 0.  1.
    9900012    2    1    2    0    0 -0.85573656130E+01  0.39647511508E+02 -0.28312444440E+01  0.50528811369E+02  0.29999852637E+02 0.  0.
        -12    1    1    2    0    0  0.85573656130E+01 -0.39647511508E+02  0.28312444440E+01  0.40659188631E+02  0.00000000000E+00 0.  1.
         11    1    3    3    0    0 -0.20694150668E+01  0.37887217141E+00  0.83857905416E+00  0.22647820938E+01  0.51100000000E-03 0. -1.
        -11    1    3    3    0    0  0.53882411910E+01  0.29759386486E+02 -0.99018828045E+01  0.31822971427E+02  0.51100000000E-03 0.  1.
        -12    1    3    3    0    0 -0.11876191737E+02  0.95092528511E+01  0.62320593063E+01  0.16441057848E+02  0.00000000000E+00 0.  1.
</event>
<event>
 7    1  0.1098446E-012  0.5052886E+02  0.7816164E-02  0.1300439E+00
        -11   -1    0    0    0    0  0.00000000000E+00  0.00000000000E+00  0.45593999997E+02  0.45594000000E+02  0.51100000000E-03 0.  1.
         11   -1    0    0    0    0 -0.00000000000E+00 -0.00000000000E+00 -0.45593999997E+02  0.45594000000E+02  0.51100000000E-03 0. -1.
    9900012    2    1    2    0    0 -0.70140208254E+01 -0.13690764861E+02 -0.37636842257E+02  0.50528862950E+02  0.30000009421E+02 0.  0.
        -12    1    1    2    0    0  0.70140208254E+01  0.13690764861E+02  0.37636842257E+02  0.40659137050E+02  0.00000000000E+00 0.  1.
         11    1    3    3    0    0  0.13170297432E+01  0.39972965211E+01 -0.15501747593E+02  0.16062911489E+02  0.51100000000E-03 0.  1.
        -11    1    3    3    0    0 -0.11833284261E+02 -0.75092884792E+01 -0.64142925633E+01  0.15412954915E+02  0.51100000000E-03 0. -1.
        -12    1    3    3    0    0  0.35022336926E+01 -0.10178772903E+02 -0.15720802101E+02  0.19052996545E+02  0.00000000000E+00 0.  1.
</event>
<event>
 7    1  0.1098446E-012  0.5052887E+02  0.7816164E-02  0.1300439E+00
        -11   -1    0    0    0    0  0.00000000000E+00  0.00000000000E+00  0.45593999997E+02  0.45594000000E+02  0.51100000000E-03 0.  1.
         11   -1    0    0    0    0 -0.00000000000E+00 -0.00000000000E+00 -0.45593999997E+02  0.45594000000E+02  0.51100000000E-03 0. -1.
    9900012    2    1    2    0    0  0.37238545217E+02  0.12643379407E+02  0.10324773911E+02  0.50528865122E+02  0.30000016024E+02 0.  0.
        -12    1    1    2    0    0 -0.37238545217E+02 -0.12643379407E+02 -0.10324773911E+02  0.40659134878E+02  0.00000000000E+00 0.  1.
         11    1    3    3    0    0  0.21928642856E+02  0.72619976661E+01  0.59599710855E+00  0.23107513938E+02  0.51100000000E-03 0. -1.
        -11    1    3    3    0    0 -0.47906857960E+01  0.90374167677E+00  0.65994645182E+00  0.49196492756E+01  0.51100000000E-03 0.  1.
        -12    1    3    3    0    0  0.20100588158E+02  0.44776400636E+01  0.90688303507E+01  0.22501701908E+02  0.00000000000E+00 0.  1.
</event>
<event>
 7    1  0.1098446E-012  0.5052887E+02  0.7816164E-02  0.1300439E+00
        -11   -1    0    0    0    0  0.00000000000E+00  0.00000000000E+00  0.45593999997E+02  0.45594000000E+02  0.51100000000E-03 0. -1.
         11   -1    0    0    0    0 -0.00000000000E+00 -0.00000000000E+00 -0.45593999997E+02  0.45594000000E+02  0.51100000000E-03 0.  1.
    9900012    2    1    2    0    0  0.81000606898E+01 -0.39801074283E+02  0.18516408756E+01  0.50528867309E+02  0.30000022673E+02 0.  0.
        -12    1    1    2    0    0 -0.81000606898E+01  0.39801074283E+02 -0.18516408756E+01  0.40659132691E+02  0.00000000000E+00 0.  1.
         11    1    3    3    0    0  0.56469783196E+01 -0.18870568704E+02  0.60697899696E+01  0.20611382241E+02  0.51100000000E-03 0. -1.
        -11    1    3    3    0    0  0.28004329057E+01 -0.19748159360E+02 -0.11167818292E+02  0.22859404809E+02  0.51100000000E-03 0.  1.
        -12    1    3    3    0    0 -0.34735053551E+00 -0.11823462189E+01  0.69496691984E+01  0.70580802591E+01  0.00000000000E+00 0.  1.
</event>
<event>
 7    1  0.1098446E-012  0.5052886E+02  0.7816164E-02  0.1300439E+00
        -11   -1    0    0    0    0  0.00000000000E+00  0.00000000000E+00  0.45593999997E+02  0.45594000000E+02  0.51100000000E-03 0.  1.
         11   -1    0    0    0    0 -0.00000000000E+00 -0.00000000000E+00 -0.45593999997E+02  0.45594000000E+02  0.51100000000E-03 0. -1.
    9900012    2    1    2    0    0 -0.52703500610E+01  0.27481904634E+02 -0.29498029477E+02  0.50528863079E+02  0.30000009816E+02 0.  0.
        -12    1    1    2    0    0  0.52703500610E+01 -0.27481904634E+02  0.29498029477E+02  0.40659136921E+02  0.00000000000E+00 0.  1.
         11    1    3    3    0    0  0.17575345284E+01  0.21698028901E+02 -0.33021536746E+02  0.39551425703E+02  0.51100000000E-03 0. -1.
        -11    1    3    3    0    0 -0.31141730141E+01  0.14748830569E+01  0.38254896326E+01  0.51485653131E+01  0.51100000000E-03 0.  1.
         12    1    3    3    0    0 -0.39137115753E+01  0.43089926762E+01 -0.30198236364E+00  0.58288720630E+01  0.00000000000E+00 0. -1.
</event>
<event>
 7    1  0.1098446E-012  0.5052884E+02  0.7816164E-02  0.1300439E+00
        -11   -1    0    0    0    0  0.00000000000E+00  0.00000000000E+00  0.45593999997E+02  0.45594000000E+02  0.51100000000E-03 0.  1.
         11   -1    0    0    0    0 -0.00000000000E+00 -0.00000000000E+00 -0.45593999997E+02  0.45594000000E+02  0.51100000000E-03 0. -1.
    9900012    2    1    2    0    0  0.11721741213E+02 -0.62262342699E+01 -0.38431779742E+02  0.50528844766E+02  0.29999954150E+02 0.  0.
        -12    1    1    2    0    0 -0.11721741213E+02  0.62262342699E+01  0.38431779742E+02  0.40659155234E+02  0.00000000000E+00 0.  1.
         11    1    3    3    0    0 -0.51816455287E+01 -0.64814670725E+01 -0.14162153902E+02  0.16414185000E+02  0.51100000000E-03 0. -1.
        -11    1    3    3    0    0  0.14378206437E+02  0.75594320427E+01 -0.16229165151E+02  0.22962221907E+02  0.51100000000E-03 0.  1.
         12    1    3    3    0    0  0.25251803048E+01 -0.73041992401E+01 -0.80404606889E+01  0.11152437859E+02  0.00000000000E+00 0. -1.
</event>
<event>
 7    1  0.1098446E-012  0.5052886E+02  0.7816164E-02  0.1300439E+00
        -11   -1    0    0    0    0  0.00000000000E+00  0.00000000000E+00  0.45593999997E+02  0.45594000000E+02  0.51100000000E-03 0.  1.
         11   -1    0    0    0    0 -0.00000000000E+00 -0.00000000000E+00 -0.45593999997E+02  0.45594000000E+02  0.51100000000E-03 0. -1.
    9900012    2    1    2    0    0  0.31349353414E+02  0.13294356496E+02 -0.22218092293E+02  0.50528862045E+02  0.30000006671E+02 0.  0.
        -12    1    1    2    0    0 -0.31349353414E+02 -0.13294356496E+02  0.22218092293E+02  0.40659137955E+02  0.00000000000E+00 0.  1.
         11    1    3    3    0    0  0.16605067922E+02  0.50004369079E+01 -0.15077683365E+01  0.17407067978E+02  0.51100000000E-03 0. -1.
        -11    1    3    3    0    0  0.12708653017E+02  0.77129915860E+01 -0.24571372133E+02  0.28718503260E+02  0.51100000000E-03 0.  1.
        -12    1    3    3    0    0  0.20356324747E+01  0.58092800242E+00  0.38610481763E+01  0.44032908075E+01  0.00000000000E+00 0.  1.
</event>
<event>
 7    1  0.1098446E-012  0.5052886E+02  0.7816164E-02  0.1300439E+00
        -11   -1    0    0    0    0  0.00000000000E+00  0.00000000000E+00  0.45593999997E+02  0.45594000000E+02  0.51100000000E-03 0.  1.
         11   -1    0    0    0    0 -0.00000000000E+00 -0.00000000000E+00 -0.45593999997E+02  0.45594000000E+02  0.51100000000E-03 0. -1.
    9900012    2    1    2    0    0  0.36238023648E+02  0.89006211664E+01 -0.16147760980E+02  0.50528860809E+02  0.30000002916E+02 0.  0.
        -12    1    1    2    0    0 -0.36238023648E+02 -0.89006211664E+01  0.16147760980E+02  0.40659139191E+02  0.00000000000E+00 0.  1.
         11    1    3    3    0    0 -0.31338532490E+01 -0.36100824666E+01  0.28028270110E+00  0.47887670914E+01  0.51100000000E-03 0. -1.
        -11    1    3    3    0    0  0.70940605925E+01  0.69478478498E+01 -0.41120773823E+01  0.10747439979E+02  0.51100000000E-03 0.  1.
         12    1    3    3    0    0  0.32277816304E+02  0.55628557832E+01 -0.12315966299E+02  0.34992653739E+02  0.00000000000E+00 0. -1.
</event>
<event>
 7    1  0.1098446E-012  0.5052886E+02  0.7816164E-02  0.1300439E+00
        -11   -1    0    0    0    0  0.00000000000E+00  0.00000000000E+00  0.45593999997E+02  0.45594000000E+02  0.51100000000E-03 0.  1.
         11   -1    0    0    0    0 -0.00000000000E+00 -0.00000000000E+00 -0.45593999997E+02  0.45594000000E+02  0.51100000000E-03 0. -1.
    9900012    2    1    2    0    0 -0.16189239428E+02 -0.25814671839E+02 -0.26919823895E+02  0.50528859896E+02  0.30000000141E+02 0.  0.
        -12    1    1    2    0    0  0.16189239428E+02  0.25814671839E+02  0.26919823895E+02  0.40659140104E+02  0.00000000000E+00 0.  1.
         11    1    3    3    0    0 -0.11352152769E+02  0.31632726409E+00 -0.10213738399E+02  0.15273895632E+02  0.51100000000E-03 0. -1.
        -11    1    3    3    0    0 -0.70330729795E+01 -0.26651641014E+02 -0.17732950967E+02  0.32775473063E+02  0.51100000000E-03 0.  1.
        -12    1    3    3    0    0  0.21959863204E+01  0.52064191023E+00  0.10268654718E+01  0.24794912008E+01  0.00000000000E+00 0.  1.
</event>
<event>
 7    1  0.1098446E-012  0.5052886E+02  0.7816164E-02  0.1300439E+00
        -11   -1    0    0    0    0  0.00000000000E+00  0.00000000000E+00  0.45593999997E+02  0.45594000000E+02  0.51100000000E-03 0.  1.
         11   -1    0    0    0    0 -0.00000000000E+00 -0.00000000000E+00 -0.45593999997E+02  0.45594000000E+02  0.51100000000E-03 0. -1.
    9900012    2    1    2    0    0  0.34425424985E+02 -0.92223239029E+01 -0.19570496334E+02  0.50528862401E+02  0.30000007754E+02 0.  0.
        -12    1    1    2    0    0 -0.34425424985E+02  0.92223239029E+01  0.19570496334E+02  0.40659137599E+02  0.00000000000E+00 0.  1.
         11    1    3    3    0    0  0.36416212106E+02 -0.54810511471E+01 -0.94649959078E+01  0.38023263585E+02  0.51100000000E-03 0. -1.
        -11    1    3    3    0    0  0.84227347499E+00  0.31106821343E+00  0.33110729678E+00  0.95698502767E+00  0.51100000000E-03 0.  1.
         12    1    3    3    0    0 -0.28330605967E+01 -0.40523409692E+01 -0.10436607723E+02  0.11548613788E+02  0.00000000000E+00 0. -1.
</event>
<event>
 7    1  0.1098446E-012  0.5052886E+02  0.7816164E-02  0.1300439E+00
        -11   -1    0    0    0    0  0.00000000000E+00  0.00000000000E+00  0.45593999997E+02  0.45594000000E+02  0.51100000000E-03 0. -1.
         11   -1    0    0    0    0 -0.00000000000E+00 -0.00000000000E+00 -0.45593999997E+02  0.45594000000E+02  0.51100000000E-03 0.  1.
    9900012    2    1    2    0    0 -0.78710768342E+01 -0.22494287932E+02  0.32942660626E+02  0.50528859217E+02  0.29999998077E+02 0.  0.
        -12    1    1    2    0    0  0.78710768342E+01  0.22494287932E+02 -0.32942660626E+02  0.40659140783E+02  0.00000000000E+00 0.  1.
         11    1    3    3    0    0 -0.81472205282E+01 -0.39608120846E+01  0.74558496722E+00  0.90896167086E+01  0.51100000000E-03 0. -1.
        -11    1    3    3    0    0 -0.88331485033E+00 -0.81329304773E+01  0.29526555535E+02  0.30638901503E+02  0.51100000000E-03 0.  1.
        -12    1    3    3    0    0  0.11594585444E+01 -0.10400545370E+02  0.26705201232E+01  0.10800341005E+02  0.00000000000E+00 0.  1.
</event>
<event>
 7    1  0.1098446E-012  0.5052886E+02  0.7816164E-02  0.1300439E+00
        -11   -1    0    0    0    0  0.00000000000E+00  0.00000000000E+00  0.45593999997E+02  0.45594000000E+02  0.51100000000E-03 0. -1.
         11   -1    0    0    0    0 -0.00000000000E+00 -0.00000000000E+00 -0.45593999997E+02  0.45594000000E+02  0.51100000000E-03 0.  1.
    9900012    2    1    2    0    0  0.27016731062E+02 -0.13690313704E+02  0.27126324030E+02  0.50528857092E+02  0.29999991618E+02 0.  0.
        -12    1    1    2    0    0 -0.27016731062E+02  0.13690313704E+02 -0.27126324030E+02  0.40659142908E+02  0.00000000000E+00 0.  1.
         11    1    3    3    0    0  0.18277174594E+02 -0.14851621098E+02  0.14658983873E+02  0.27740071536E+02  0.51100000000E-03 0. -1.
        -11    1    3    3    0    0  0.81225246228E+00  0.25420881627E+01 -0.37980205499E+01  0.46418667202E+01  0.51100000000E-03 0.  1.
        -12    1    3    3    0    0  0.79273040061E+01 -0.13807807691E+01  0.16265360707E+02  0.18146918837E+02  0.00000000000E+00 0.  1.
</event>
<event>
 7    1  0.1098446E-012  0.5052880E+02  0.7816164E-02  0.1300439E+00
        -11   -1    0    0    0    0  0.00000000000E+00  0.00000000000E+00  0.45593999997E+02  0.45594000000E+02  0.51100000000E-03 0.  1.
         11   -1    0    0    0    0 -0.00000000000E+00 -0.00000000000E+00 -0.45593999997E+02  0.45594000000E+02  0.51100000000E-03 0. -1.
    9900012    2    1    2    0    0  0.13139916946E+02 -0.18793773332E+02 -0.33575401751E+02  0.50528795186E+02  0.29999803446E+02 0.  0.
        -12    1    1    2    0    0 -0.13139916946E+02  0.18793773332E+02  0.33575401751E+02  0.40659204814E+02  0.00000000000E+00 0.  1.
         11    1    3    3    0    0 -0.68222641680E+01 -0.88791502021E+00 -0.13482845052E+02  0.15136670453E+02  0.51100000000E-03 0. -1.
        -11    1    3    3    0    0  0.26062436503E+01 -0.45893178548E+01  0.56014411196E+00  0.53073633778E+01  0.51100000000E-03 0.  1.
         12    1    3    3    0    0  0.17355937464E+02 -0.13316540457E+02 -0.20652700811E+02  0.30084761355E+02  0.00000000000E+00 0. -1.
</event>
<event>
 7    1  0.1098446E-012  0.5052886E+02  0.7816164E-02  0.1300439E+00
        -11   -1    0    0    0    0  0.00000000000E+00  0.00000000000E+00  0.45593999997E+02  0.45594000000E+02  0.51100000000E-03 0.  1.
         11   -1    0    0    0    0 -0.00000000000E+00 -0.00000000000E+00 -0.45593999997E+02  0.45594000000E+02  0.51100000000E-03 0. -1.
    9900012    2    1    2    0    0  0.17496510174E+02  0.35184367124E+02  0.10445004717E+02  0.50528859801E+02  0.29999999852E+02 0.  0.
        -12    1    1    2    0    0 -0.17496510174E+02 -0.35184367124E+02 -0.10445004717E+02  0.40659140199E+02  0.00000000000E+00 0.  1.
         11    1    3    3    0    0  0.12999516641E+02  0.33499160718E+02  0.18151766849E+02  0.40257519071E+02  0.51100000000E-03 0. -1.
        -11    1    3    3    0    0  0.28609109606E+01  0.22252833758E+01 -0.16647801834E+01  0.39885073582E+01  0.51100000000E-03 0.  1.
         12    1    3    3    0    0  0.16360825716E+01 -0.54007697014E+00 -0.60419819486E+01  0.62828333722E+01  0.00000000000E+00 0. -1.
</event>
<event>
 7    1  0.1098446E-012  0.5052887E+02  0.7816164E-02  0.1300439E+00
        -11   -1    0    0    0    0  0.00000000000E+00  0.00000000000E+00  0.45593999997E+02  0.45594000000E+02  0.51100000000E-03 0.  1.
         11   -1    0    0    0    0 -0.00000000000E+00 -0.00000000000E+00 -0.45593999997E+02  0.45594000000E+02  0.51100000000E-03 0. -1.
    9900012    2    1    2    0    0 -0.31399133856E+02 -0.11755854171E+02 -0.23001292368E+02  0.50528866158E+02  0.30000019173E+02 0.  0.
        -12    1    1    2    0    0  0.31399133856E+02  0.11755854171E+02  0.23001292368E+02  0.40659133842E+02  0.00000000000E+00 0.  1.
         11    1    3    3    0    0  0.51186416945E+01 -0.11111308167E+01 -0.43888229950E+01  0.68335109593E+01  0.51100000000E-03 0.  1.
        -11    1    3    3    0    0 -0.32569220707E+02 -0.12668686102E+02 -0.15253603283E+02  0.38130331212E+02  0.51100000000E-03 0. -1.
         12    1    3    3    0    0 -0.39485548433E+01  0.20239627473E+01 -0.33588660904E+01  0.55650239861E+01  0.00000000000E+00 0. -1.
</event>
<event>
 7    1  0.1098446E-012  0.5052886E+02  0.7816164E-02  0.1300439E+00
        -11   -1    0    0    0    0  0.00000000000E+00  0.00000000000E+00  0.45593999997E+02  0.45594000000E+02  0.51100000000E-03 0.  1.
         11   -1    0    0    0    0 -0.00000000000E+00 -0.00000000000E+00 -0.45593999997E+02  0.45594000000E+02  0.51100000000E-03 0. -1.
    9900012    2    1    2    0    0  0.18025286410E+02 -0.21250423598E+02 -0.29608690072E+02  0.50528856120E+02  0.29999988662E+02 0.  0.
        -12    1    1    2    0    0 -0.18025286410E+02  0.21250423598E+02  0.29608690072E+02  0.40659143880E+02  0.00000000000E+00 0.  1.
         11    1    3    3    0    0  0.20424453332E+02 -0.76569005023E+01 -0.19188453921E+02  0.29051388665E+02  0.51100000000E-03 0. -1.
        -11    1    3    3    0    0 -0.17167686292E+01 -0.15852604476E+02 -0.10540929657E+02  0.19114485645E+02  0.51100000000E-03 0.  1.
         12    1    3    3    0    0 -0.68239829216E+00  0.22590813800E+01  0.12069350584E+00  0.23629818097E+01  0.00000000000E+00 0. -1.
</event>
<event>
 7    1  0.1098446E-012  0.5052884E+02  0.7816164E-02  0.1300439E+00
        -11   -1    0    0    0    0  0.00000000000E+00  0.00000000000E+00  0.45593999997E+02  0.45594000000E+02  0.51100000000E-03 0. -1.
         11   -1    0    0    0    0 -0.00000000000E+00 -0.00000000000E+00 -0.45593999997E+02  0.45594000000E+02  0.51100000000E-03 0.  1.
    9900012    2    1    2    0    0  0.66284805019E+01 -0.30189842601E+02  0.26415985143E+02  0.50528835951E+02  0.29999927357E+02 0.  0.
        -12    1    1    2    0    0 -0.66284805019E+01  0.30189842601E+02 -0.26415985143E+02  0.40659164049E+02  0.00000000000E+00 0.  1.
         11    1    3    3    0    0 -0.63531235785E+01 -0.15224431039E+02  0.52551571922E+00  0.16505200596E+02  0.51100000000E-03 0.  1.
        -11    1    3    3    0    0  0.27912592257E+01 -0.36801638913E+01  0.13936656151E+02  0.14682136059E+02  0.51100000000E-03 0. -1.
         12    1    3    3    0    0  0.10190344855E+02 -0.11285247671E+02  0.11953813273E+02  0.19341499296E+02  0.00000000000E+00 0. -1.
</event>
<event>
 7    1  0.1163505E-012  0.5052886E+02  0.7816164E-02  0.1300439E+00
        -11   -1    0    0    0    0  0.00000000000E+00  0.00000000000E+00  0.45593999997E+02  0.45594000000E+02  0.51100000000E-03 0. -1.
         11   -1    0    0    0    0 -0.00000000000E+00 -0.00000000000E+00 -0.45593999997E+02  0.45594000000E+02  0.51100000000E-03 0.  1.
    9900012    2    1    2    0    0  0.67289041978E+00  0.24975628214E+01  0.40576776177E+02  0.50528863678E+02  0.30000011635E+02 0.  0.
        -12    1    1    2    0    0 -0.67289041978E+00 -0.24975628214E+01 -0.40576776177E+02  0.40659136322E+02  0.00000000000E+00 0.  1.
         11    1    3    3    0    0 -0.61991486744E+01  0.85375429336E+01  0.22044030666E+02  0.24438870103E+02  0.51100000000E-03 0. -1.
        -11    1    3    3    0    0 -0.11542643850E+01 -0.94116801690E+01  0.78555510504E+01  0.12313477675E+02  0.51100000000E-03 0.  1.
        -12    1    3    3    0    0  0.80263034792E+01  0.33717000569E+01  0.10677194460E+02  0.13776515900E+02  0.00000000000E+00 0.  1.
</event>
<event>
 7    1  0.1098446E-012  0.5052880E+02  0.7816164E-02  0.1300439E+00
        -11   -1    0    0    0    0  0.00000000000E+00  0.00000000000E+00  0.45593999997E+02  0.45594000000E+02  0.51100000000E-03 0.  1.
         11   -1    0    0    0    0 -0.00000000000E+00 -0.00000000000E+00 -0.45593999997E+02  0.45594000000E+02  0.51100000000E-03 0. -1.
    9900012    2    1    2    0    0  0.55848346259E+01  0.23898191553E+02 -0.32416922233E+02  0.50528797052E+02  0.29999809119E+02 0.  0.
        -12    1    1    2    0    0 -0.55848346259E+01 -0.23898191553E+02  0.32416922233E+02  0.40659202948E+02  0.00000000000E+00 0.  1.
         11    1    3    3    0    0 -0.11123906700E+02  0.22525775973E+01 -0.87568978279E+01  0.14335224656E+02  0.51100000000E-03 0. -1.
        -11    1    3    3    0    0  0.75605410613E+01  0.85379372835E+01 -0.99776456594E+01  0.15152939232E+02  0.51100000000E-03 0.  1.
         12    1    3    3    0    0  0.91482002647E+01  0.13107676672E+02 -0.13682378746E+02  0.21040633165E+02  0.00000000000E+00 0. -1.
</event>
<event>
 7    1  0.1098446E-012  0.5052886E+02  0.7816164E-02  0.1300439E+00
        -11   -1    0    0    0    0  0.00000000000E+00  0.00000000000E+00  0.45593999997E+02  0.45594000000E+02  0.51100000000E-03 0.  1.
         11   -1    0    0    0    0 -0.00000000000E+00 -0.00000000000E+00 -0.45593999997E+02  0.45594000000E+02  0.51100000000E-03 0. -1.
    9900012    2    1    2    0    0 -0.30823934728E+02 -0.26492122855E+02  0.11038164493E+01  0.50528856671E+02  0.29999990337E+02 0.  0.
        -12    1    1    2    0    0  0.30823934728E+02  0.26492122855E+02 -0.11038164493E+01  0.40659143329E+02  0.00000000000E+00 0.  1.
         11    1    3    3    0    0 -0.33136408754E+02 -0.12771396324E+02  0.32585309625E+01  0.35661578393E+02  0.51100000000E-03 0. -1.
        -11    1    3    3    0    0 -0.77975350007E+00 -0.78277809642E+01 -0.23481127636E+01  0.82094947565E+01  0.51100000000E-03 0.  1.
         12    1    3    3    0    0  0.30922275264E+01 -0.58929455668E+01  0.19339825045E+00  0.66577835209E+01  0.00000000000E+00 0. -1.
</event>
<event>
 7    1  0.1098446E-012  0.5052886E+02  0.7816164E-02  0.1300439E+00
        -11   -1    0    0    0    0  0.00000000000E+00  0.00000000000E+00  0.45593999997E+02  0.45594000000E+02  0.51100000000E-03 0.  1.
         11   -1    0    0    0    0 -0.00000000000E+00 -0.00000000000E+00 -0.45593999997E+02  0.45594000000E+02  0.51100000000E-03 0. -1.
    9900012    2    1    2    0    0 -0.43070985991E+01  0.34724015836E+02 -0.20708878285E+02  0.50528855716E+02  0.29999987434E+02 0.  0.
        -12    1    1    2    0    0  0.43070985991E+01 -0.34724015836E+02  0.20708878285E+02  0.40659144284E+02  0.00000000000E+00 0.  1.
         11    1    3    3    0    0 -0.51463722138E+01  0.11499433638E+02 -0.23453602151E+02  0.26623177404E+02  0.51100000000E-03 0. -1.
        -11    1    3    3    0    0  0.22505168401E+01  0.68756921961E+01 -0.18256613538E+00  0.72369399527E+01  0.51100000000E-03 0.  1.
         12    1    3    3    0    0 -0.14112432254E+01  0.16348890002E+02  0.29272900019E+01  0.16668738359E+02  0.00000000000E+00 0. -1.
</event>
<event>
 7    1  0.1098446E-012  0.5052886E+02  0.7816164E-02  0.1300439E+00
        -11   -1    0    0    0    0  0.00000000000E+00  0.00000000000E+00  0.45593999997E+02  0.45594000000E+02  0.51100000000E-03 0.  1.
         11   -1    0    0    0    0 -0.00000000000E+00 -0.00000000000E+00 -0.45593999997E+02  0.45594000000E+02  0.51100000000E-03 0. -1.
    9900012    2    1    2    0    0 -0.17628372941E+02 -0.35621620034E+02 -0.85735859226E+01  0.50528859306E+02  0.29999998346E+02 0.  0.
        -12    1    1    2    0    0  0.17628372941E+02  0.35621620034E+02  0.85735859226E+01  0.40659140694E+02  0.00000000000E+00 0.  1.
         11    1    3    3    0    0  0.18102495366E+01 -0.32187741097E+01 -0.11066634435E+02  0.11666529395E+02  0.51100000000E-03 0. -1.
        -11    1    3    3    0    0 -0.82762647951E+01 -0.15266711840E+02  0.54449215672E+01  0.18199346705E+02  0.51100000000E-03 0.  1.
         12    1    3    3    0    0 -0.11162357683E+02 -0.17136134085E+02 -0.29518730548E+01  0.20662983205E+02  0.00000000000E+00 0. -1.
</event>
<event>
 7    1  0.1111001E-012  0.5052884E+02  0.7816164E-02  0.1300439E+00
        -11   -1    0    0    0    0  0.00000000000E+00  0.00000000000E+00  0.45593999997E+02  0.45594000000E+02  0.51100000000E-03 0. -1.
         11   -1    0    0    0    0 -0.00000000000E+00 -0.00000000000E+00 -0.45593999997E+02  0.45594000000E+02  0.51100000000E-03 0.  1.
    9900012    2    1    2    0    0 -0.36766843624E+02  0.17219483647E+02 -0.22036690687E+01  0.50528836648E+02  0.29999929475E+02 0.  0.
        -12    1    1    2    0    0  0.36766843624E+02 -0.17219483647E+02  0.22036690687E+01  0.40659163352E+02  0.00000000000E+00 0.  1.
         11    1    3    3    0    0 -0.18206951482E+02  0.36650811078E+01  0.42231940259E+00  0.18576981879E+02  0.51100000000E-03 0. -1.
        -11    1    3    3    0    0  0.26122473404E+01  0.47680191553E+01  0.54016656130E+01  0.76639307465E+01  0.51100000000E-03 0.  1.
        -12    1    3    3    0    0 -0.21172139482E+02  0.87863833837E+01 -0.80276540842E+01  0.24287924022E+02  0.00000000000E+00 0.  1.
</event>
<event>
 7    1  0.1098446E-012  0.5052887E+02  0.7816164E-02  0.1300439E+00
        -11   -1    0    0    0    0  0.00000000000E+00  0.00000000000E+00  0.45593999997E+02  0.45594000000E+02  0.51100000000E-03 0.  1.
         11   -1    0    0    0    0 -0.00000000000E+00 -0.00000000000E+00 -0.45593999997E+02  0.45594000000E+02  0.51100000000E-03 0. -1.
    9900012    2    1    2    0    0  0.52173191315E+01  0.29791866056E+02 -0.27173316319E+02  0.50528870376E+02  0.30000031995E+02 0.  0.
        -12    1    1    2    0    0 -0.52173191315E+01 -0.29791866056E+02  0.27173316319E+02  0.40659129624E+02  0.00000000000E+00 0.  1.
         11    1    3    3    0    0  0.14413098682E+02  0.21208493429E+02 -0.17595505483E+02  0.31098865263E+02  0.51100000000E-03 0. -1.
        -11    1    3    3    0    0 -0.39044576577E+01  0.16403355299E+01 -0.98230353381E+01  0.10697079684E+02  0.51100000000E-03 0.  1.
         12    1    3    3    0    0 -0.52913218930E+01  0.69430370968E+01  0.24522450205E+00  0.87329254296E+01  0.00000000000E+00 0. -1.
</event>
<event>
 7    1  0.1098446E-012  0.5052886E+02  0.7816164E-02  0.1300439E+00
        -11   -1    0    0    0    0  0.00000000000E+00  0.00000000000E+00  0.45593999997E+02  0.45594000000E+02  0.51100000000E-03 0.  1.
         11   -1    0    0    0    0 -0.00000000000E+00 -0.00000000000E+00 -0.45593999997E+02  0.45594000000E+02  0.51100000000E-03 0. -1.
    9900012    2    1    2    0    0  0.18794584227E+02  0.19977661019E+02 -0.30013701636E+02  0.50528860536E+02  0.30000002086E+02 0.  0.
        -12    1    1    2    0    0 -0.18794584227E+02 -0.19977661019E+02  0.30013701636E+02  0.40659139464E+02  0.00000000000E+00 0.  1.
         11    1    3    3    0    0 -0.11385094978E+01  0.44660970512E+01 -0.18450513217E+02  0.19017456849E+02  0.51100000000E-03 0. -1.
        -11    1    3    3    0    0  0.64007421630E+01  0.14217510642E+02 -0.76366107283E+01  0.17361593613E+02  0.51100000000E-03 0.  1.
         12    1    3    3    0    0  0.13532351562E+02  0.12940533255E+01 -0.39265776901E+01  0.14149810075E+02  0.00000000000E+00 0. -1.
</event>
<event>
 7    1  0.1098446E-012  0.5052883E+02  0.7816164E-02  0.1300439E+00
        -11   -1    0    0    0    0  0.00000000000E+00  0.00000000000E+00  0.45593999997E+02  0.45594000000E+02  0.51100000000E-03 0. -1.
         11   -1    0    0    0    0 -0.00000000000E+00 -0.00000000000E+00 -0.45593999997E+02  0.45594000000E+02  0.51100000000E-03 0.  1.
    9900012    2    1    2    0    0 -0.27037348587E+02  0.19794092624E+02  0.23029196060E+02  0.50528828924E+02  0.29999905998E+02 0.  0.
        -12    1    1    2    0    0  0.27037348587E+02 -0.19794092624E+02 -0.23029196060E+02  0.40659171076E+02  0.00000000000E+00 0.  1.
         11    1    3    3    0    0 -0.69910118353E+01 -0.59558043312E+01  0.14105750728E+01  0.92916938181E+01  0.51100000000E-03 0.  1.
        -11    1    3    3    0    0 -0.16787575512E+02  0.23970004267E+02  0.13334415951E+02  0.32158831527E+02  0.51100000000E-03 0. -1.
         12    1    3    3    0    0 -0.32587612397E+01  0.17798926876E+01  0.82842050360E+01  0.90783035792E+01  0.00000000000E+00 0. -1.
</event>
<event>
 7    1  0.1098446E-012  0.5052884E+02  0.7816164E-02  0.1300439E+00
        -11   -1    0    0    0    0  0.00000000000E+00  0.00000000000E+00  0.45593999997E+02  0.45594000000E+02  0.51100000000E-03 0.  1.
         11   -1    0    0    0    0 -0.00000000000E+00 -0.00000000000E+00 -0.45593999997E+02  0.45594000000E+02  0.51100000000E-03 0. -1.
    9900012    2    1    2    0    0 -0.25325203482E+02 -0.23392070179E+02 -0.21554871296E+02  0.50528839220E+02  0.29999937295E+02 0.  0.
        -12    1    1    2    0    0  0.25325203482E+02  0.23392070179E+02  0.21554871296E+02  0.40659160780E+02  0.00000000000E+00 0.  1.
         11    1    3    3    0    0 -0.22475688652E+02 -0.20924423075E+02 -0.12607286951E+02  0.33195357295E+02  0.51100000000E-03 0. -1.
        -11    1    3    3    0    0  0.26860610043E+01  0.43630599590E+01 -0.51209588224E+00  0.51491220978E+01  0.51100000000E-03 0.  1.
        -12    1    3    3    0    0 -0.55355758344E+01 -0.68307070626E+01 -0.84354884627E+01  0.12184359827E+02  0.00000000000E+00 0.  1.
</event>
<event>
 7    1  0.1098446E-012  0.5052886E+02  0.7816164E-02  0.1300439E+00
        -11   -1    0    0    0    0  0.00000000000E+00  0.00000000000E+00  0.45593999997E+02  0.45594000000E+02  0.51100000000E-03 0.  1.
         11   -1    0    0    0    0 -0.00000000000E+00 -0.00000000000E+00 -0.45593999997E+02  0.45594000000E+02  0.51100000000E-03 0. -1.
    9900012    2    1    2    0    0  0.20211964153E+01 -0.22251079042E+02 -0.33970135478E+02  0.50528857635E+02  0.29999993267E+02 0.  0.
        -12    1    1    2    0    0 -0.20211964153E+01  0.22251079042E+02  0.33970135478E+02  0.40659142365E+02  0.00000000000E+00 0.  1.
         11    1    3    3    0    0  0.10785878549E+02 -0.19903767867E+02 -0.30823655853E+02  0.38243861099E+02  0.51100000000E-03 0. -1.
        -11    1    3    3    0    0 -0.25854966013E+01 -0.41877884562E+01 -0.31391821807E+01  0.58375362829E+01  0.51100000000E-03 0.  1.
         12    1    3    3    0    0 -0.61791855320E+01  0.18404772813E+01 -0.72974445657E-02  0.64474602531E+01  0.00000000000E+00 0. -1.
</event>
<event>
 7    1  0.1098446E-012  0.5052887E+02  0.7816164E-02  0.1300439E+00
        -11   -1    0    0    0    0  0.00000000000E+00  0.00000000000E+00  0.45593999997E+02  0.45594000000E+02  0.51100000000E-03 0.  1.
         11   -1    0    0    0    0 -0.00000000000E+00 -0.00000000000E+00 -0.45593999997E+02  0.45594000000E+02  0.51100000000E-03 0. -1.
    9900012    2    1    2    0    0 -0.10814961286E+02 -0.20421883299E+02 -0.33453674488E+02  0.50528867670E+02  0.30000023770E+02 0.  0.
        -12    1    1    2    0    0  0.10814961286E+02  0.20421883299E+02  0.33453674488E+02  0.40659132330E+02  0.00000000000E+00 0.  1.
         11    1    3    3    0    0 -0.14607367814E+02 -0.10792547137E+02 -0.41691926313E+01  0.18634281194E+02  0.51100000000E-03 0. -1.
        -11    1    3    3    0    0  0.55073110258E+01 -0.71404966307E+01 -0.16998615530E+02  0.19242403620E+02  0.51100000000E-03 0.  1.
         12    1    3    3    0    0 -0.17149044981E+01 -0.24888395312E+01 -0.12285866326E+02  0.12652182857E+02  0.00000000000E+00 0. -1.
</event>
<event>
 7    1  0.1098446E-012  0.5052886E+02  0.7816164E-02  0.1300439E+00
        -11   -1    0    0    0    0  0.00000000000E+00  0.00000000000E+00  0.45593999997E+02  0.45594000000E+02  0.51100000000E-03 0.  1.
         11   -1    0    0    0    0 -0.00000000000E+00 -0.00000000000E+00 -0.45593999997E+02  0.45594000000E+02  0.51100000000E-03 0. -1.
    9900012    2    1    2    0    0  0.15847064111E+02  0.37353168152E+02  0.26033077055E+01  0.50528858065E+02  0.29999994574E+02 0.  0.
        -12    1    1    2    0    0 -0.15847064111E+02 -0.37353168152E+02 -0.26033077055E+01  0.40659141935E+02  0.00000000000E+00 0.  1.
         11    1    3    3    0    0 -0.74401303709E+00  0.21163516463E+02 -0.21690208313E+01  0.21287382086E+02  0.51100000000E-03 0. -1.
        -11    1    3    3    0    0  0.79028057149E+01 -0.13920495564E+01  0.53109478895E+01  0.96228014570E+01  0.51100000000E-03 0.  1.
         12    1    3    3    0    0  0.86882714331E+01  0.17581701245E+02 -0.53861935260E+00  0.19618674522E+02  0.00000000000E+00 0. -1.
</event>
<event>
 7    1  0.1098446E-012  0.5052883E+02  0.7816164E-02  0.1300439E+00
        -11   -1    0    0    0    0  0.00000000000E+00  0.00000000000E+00  0.45593999997E+02  0.45594000000E+02  0.51100000000E-03 0.  1.
         11   -1    0    0    0    0 -0.00000000000E+00 -0.00000000000E+00 -0.45593999997E+02  0.45594000000E+02  0.51100000000E-03 0. -1.
    9900012    2    1    2    0    0  0.15720098884E+02 -0.92051186834E+01 -0.36349859940E+02  0.50528830843E+02  0.29999911831E+02 0.  0.
        -12    1    1    2    0    0 -0.15720098884E+02  0.92051186834E+01  0.36349859940E+02  0.40659169157E+02  0.00000000000E+00 0.  1.
         11    1    3    3    0    0  0.11130723536E+02 -0.16100022423E+02 -0.26973371648E+02  0.33326663601E+02  0.51100000000E-03 0. -1.
        -11    1    3    3    0    0 -0.32867770671E+01  0.28143870213E+01 -0.44966821738E-01  0.43273201950E+01  0.51100000000E-03 0.  1.
         12    1    3    3    0    0  0.78761524149E+01  0.40805167178E+01 -0.93315214698E+01  0.12874847047E+02  0.00000000000E+00 0. -1.
</event>
<event>
 7    1  0.1098446E-012  0.5052886E+02  0.7816164E-02  0.1300439E+00
        -11   -1    0    0    0    0  0.00000000000E+00  0.00000000000E+00  0.45593999997E+02  0.45594000000E+02  0.51100000000E-03 0. -1.
         11   -1    0    0    0    0 -0.00000000000E+00 -0.00000000000E+00 -0.45593999997E+02  0.45594000000E+02  0.51100000000E-03 0.  1.
    9900012    2    1    2    0    0 -0.18181026201E+02  0.27561744523E+02  0.23726900534E+02  0.50528864694E+02  0.30000014725E+02 0.  0.
        -12    1    1    2    0    0  0.18181026201E+02 -0.27561744523E+02 -0.23726900534E+02  0.40659135306E+02  0.00000000000E+00 0.  1.
         11    1    3    3    0    0 -0.12822380773E+02  0.27696149723E+02  0.14208194676E+02  0.33665456396E+02  0.51100000000E-03 0. -1.
        -11    1    3    3    0    0 -0.83781944340E+01 -0.37596631092E+01  0.58676169878E+01  0.10897620752E+02  0.51100000000E-03 0.  1.
        -12    1    3    3    0    0  0.30195490065E+01  0.36252579096E+01  0.36510888702E+01  0.59657875467E+01  0.00000000000E+00 0.  1.
</event>
<event>
 7    1  0.1098446E-012  0.5052885E+02  0.7816164E-02  0.1300439E+00
        -11   -1    0    0    0    0  0.00000000000E+00  0.00000000000E+00  0.45593999997E+02  0.45594000000E+02  0.51100000000E-03 0.  1.
         11   -1    0    0    0    0 -0.00000000000E+00 -0.00000000000E+00 -0.45593999997E+02  0.45594000000E+02  0.51100000000E-03 0. -1.
    9900012    2    1    2    0    0 -0.87337128654E+01 -0.13557121570E+02 -0.37324164477E+02  0.50528849251E+02  0.29999967784E+02 0.  0.
        -12    1    1    2    0    0  0.87337128654E+01  0.13557121570E+02  0.37324164477E+02  0.40659150749E+02  0.00000000000E+00 0.  1.
         11    1    3    3    0    0 -0.50227540613E+01 -0.12630923984E+02 -0.42126362627E+02  0.44265096041E+02  0.51100000000E-03 0. -1.
        -11    1    3    3    0    0 -0.14209618025E+01  0.23784274829E-01  0.25247637437E+01  0.28972625629E+01  0.51100000000E-03 0.  1.
         12    1    3    3    0    0 -0.22899970016E+01 -0.94998186073E+00  0.22774344063E+01  0.33664906473E+01  0.00000000000E+00 0. -1.
</event>
<event>
 7    1  0.1098446E-012  0.5052888E+02  0.7816164E-02  0.1300439E+00
        -11   -1    0    0    0    0  0.00000000000E+00  0.00000000000E+00  0.45593999997E+02  0.45594000000E+02  0.51100000000E-03 0.  1.
         11   -1    0    0    0    0 -0.00000000000E+00 -0.00000000000E+00 -0.45593999997E+02  0.45594000000E+02  0.51100000000E-03 0. -1.
    9900012    2    1    2    0    0 -0.21085496638E+02 -0.19129190808E+02 -0.29028266362E+02  0.50528876086E+02  0.30000049351E+02 0.  0.
        -12    1    1    2    0    0  0.21085496638E+02  0.19129190808E+02  0.29028266362E+02  0.40659123914E+02  0.00000000000E+00 0.  1.
         11    1    3    3    0    0 -0.63600726080E+01 -0.21514774877E+02 -0.12471945557E+02  0.25668764829E+02  0.51100000000E-03 0. -1.
        -11    1    3    3    0    0 -0.68690281548E+00  0.16564671892E+01  0.12409309641E+01  0.21807404581E+01  0.51100000000E-03 0.  1.
         12    1    3    3    0    0 -0.14038521215E+02  0.72911688003E+00 -0.17797251769E+02  0.22679370799E+02  0.00000000000E+00 0. -1.
</event>
<event>
 7    1  0.1098446E-012  0.5052886E+02  0.7816164E-02  0.1300439E+00
        -11   -1    0    0    0    0  0.00000000000E+00  0.00000000000E+00  0.45593999997E+02  0.45594000000E+02  0.51100000000E-03 0.  1.
         11   -1    0    0    0    0 -0.00000000000E+00 -0.00000000000E+00 -0.45593999997E+02  0.45594000000E+02  0.51100000000E-03 0. -1.
    9900012    2    1    2    0    0 -0.66873145525E+01  0.19229959607E+02 -0.35194516613E+02  0.50528861765E+02  0.30000005821E+02 0.  0.
        -12    1    1    2    0    0  0.66873145525E+01 -0.19229959607E+02  0.35194516613E+02  0.40659138235E+02  0.00000000000E+00 0.  1.
         11    1    3    3    0    0 -0.11422342866E+02  0.15323373399E+02 -0.24125088366E+02  0.30778167226E+02  0.51100000000E-03 0. -1.
        -11    1    3    3    0    0  0.11450833497E+01  0.18300808965E+00  0.38180732799E+01  0.39902871664E+01  0.51100000000E-03 0.  1.
         12    1    3    3    0    0  0.35899449634E+01  0.37235781182E+01 -0.14887501527E+02  0.15760407373E+02  0.00000000000E+00 0. -1.
</event>
<event>
 7    1  0.1098446E-012  0.5052887E+02  0.7816164E-02  0.1300439E+00
        -11   -1    0    0    0    0  0.00000000000E+00  0.00000000000E+00  0.45593999997E+02  0.45594000000E+02  0.51100000000E-03 0.  1.
         11   -1    0    0    0    0 -0.00000000000E+00 -0.00000000000E+00 -0.45593999997E+02  0.45594000000E+02  0.51100000000E-03 0. -1.
    9900012    2    1    2    0    0 -0.58583626401E+01  0.21048006980E+02 -0.34290321477E+02  0.50528866246E+02  0.30000019440E+02 0.  0.
        -12    1    1    2    0    0  0.58583626401E+01 -0.21048006980E+02  0.34290321477E+02  0.40659133754E+02  0.00000000000E+00 0.  1.
         11    1    3    3    0    0 -0.18863610420E+01  0.39211389586E+01 -0.49474609845E+01  0.65887069420E+01  0.51100000000E-03 0. -1.
        -11    1    3    3    0    0  0.17460010592E+00  0.14988206042E+02 -0.79150693363E+00  0.15010106231E+02  0.51100000000E-03 0.  1.
        -12    1    3    3    0    0 -0.41466017041E+01  0.21386619787E+01 -0.28551353559E+02  0.28930053073E+02  0.00000000000E+00 0.  1.
</event>
<event>
 7    1  0.1098446E-012  0.5052886E+02  0.7816164E-02  0.1300439E+00
        -11   -1    0    0    0    0  0.00000000000E+00  0.00000000000E+00  0.45593999997E+02  0.45594000000E+02  0.51100000000E-03 0.  1.
         11   -1    0    0    0    0 -0.00000000000E+00 -0.00000000000E+00 -0.45593999997E+02  0.45594000000E+02  0.51100000000E-03 0. -1.
    9900012    2    1    2    0    0 -0.17308049514E+02 -0.15444626577E+02 -0.33392524566E+02  0.50528858777E+02  0.29999996740E+02 0.  0.
        -12    1    1    2    0    0  0.17308049514E+02  0.15444626577E+02  0.33392524566E+02  0.40659141223E+02  0.00000000000E+00 0.  1.
         11    1    3    3    0    0  0.13137990356E+01  0.22970465732E+01 -0.13143497893E+02  0.13407237896E+02  0.51100000000E-03 0. -1.
        -11    1    3    3    0    0 -0.17993274846E+02 -0.13675571323E+02 -0.76376931733E+01  0.23856100854E+02  0.51100000000E-03 0.  1.
        -12    1    3    3    0    0 -0.62857370383E+00 -0.40661018275E+01 -0.12611333499E+02  0.13265520028E+02  0.00000000000E+00 0.  1.
</event>
<event>
 7    1  0.1098446E-012  0.5052885E+02  0.7816164E-02  0.1300439E+00
        -11   -1    0    0    0    0  0.00000000000E+00  0.00000000000E+00  0.45593999997E+02  0.45594000000E+02  0.51100000000E-03 0.  1.
         11   -1    0    0    0    0 -0.00000000000E+00 -0.00000000000E+00 -0.45593999997E+02  0.45594000000E+02  0.51100000000E-03 0. -1.
    9900012    2    1    2    0    0  0.22998910016E+02  0.29476444494E+02 -0.15979853481E+02  0.50528851470E+02  0.29999974528E+02 0.  0.
        -12    1    1    2    0    0 -0.22998910016E+02 -0.29476444494E+02  0.15979853481E+02  0.40659148530E+02  0.00000000000E+00 0.  1.
         11    1    3    3    0    0  0.81474414036E+01  0.10251743468E+02 -0.74284491669E+01  0.15055261633E+02  0.51100000000E-03 0. -1.
        -11    1    3    3    0    0  0.12202415190E+02  0.11581075614E+02  0.67806118015E+01  0.18138272947E+02  0.51100000000E-03 0.  1.
        -12    1    3    3    0    0  0.26490534229E+01  0.76436254108E+01 -0.15332016116E+02  0.17335316889E+02  0.00000000000E+00 0.  1.
</event>
<event>
 7    1  0.1098446E-012  0.5052887E+02  0.7816164E-02  0.1300439E+00
        -11   -1    0    0    0    0  0.00000000000E+00  0.00000000000E+00  0.45593999997E+02  0.45594000000E+02  0.51100000000E-03 0.  1.
         11   -1    0    0    0    0 -0.00000000000E+00 -0.00000000000E+00 -0.45593999997E+02  0.45594000000E+02  0.51100000000E-03 0. -1.
    9900012    2    1    2    0    0  0.20463607396E+02  0.35005289074E+02 -0.30059544503E+01  0.50528865074E+02  0.30000015878E+02 0.  0.
        -12    1    1    2    0    0 -0.20463607396E+02 -0.35005289074E+02  0.30059544503E+01  0.40659134926E+02  0.00000000000E+00 0.  1.
         11    1    3    3    0    0  0.75039037769E+01  0.15220225382E+01  0.79165292315E+01  0.11013471743E+02  0.51100000000E-03 0.  1.
        -11    1    3    3    0    0  0.19345488424E+01  0.19444085831E+02 -0.91513819310E+01  0.21576903034E+02  0.51100000000E-03 0. -1.
        -12    1    3    3    0    0  0.11025154777E+02  0.14039180704E+02 -0.17711017508E+01  0.17938490296E+02  0.00000000000E+00 0.  1.
</event>
<event>
 7    1  0.1098446E-012  0.5052886E+02  0.7816164E-02  0.1300439E+00
        -11   -1    0    0    0    0  0.00000000000E+00  0.00000000000E+00  0.45593999997E+02  0.45594000000E+02  0.51100000000E-03 0.  1.
         11   -1    0    0    0    0 -0.00000000000E+00 -0.00000000000E+00 -0.45593999997E+02  0.45594000000E+02  0.51100000000E-03 0. -1.
    9900012    2    1    2    0    0 -0.14721419079E+02  0.34601783066E+02 -0.15464862997E+02  0.50528861316E+02  0.30000004455E+02 0.  0.
        -12    1    1    2    0    0  0.14721419079E+02 -0.34601783066E+02  0.15464862997E+02  0.40659138684E+02  0.00000000000E+00 0.  1.
         11    1    3    3    0    0 -0.17758504136E+02  0.14432561965E+02 -0.93117340802E+01  0.24705701890E+02  0.51100000000E-03 0. -1.
        -11    1    3    3    0    0  0.68984666221E+01  0.18704595925E+02 -0.77580152494E+01  0.21392464826E+02  0.51100000000E-03 0.  1.
        -12    1    3    3    0    0 -0.38613815656E+01  0.14646251755E+01  0.16048863326E+01  0.44306946002E+01  0.00000000000E+00 0.  1.
</event>
<event>
 7    1  0.1098446E-012  0.5052888E+02  0.7816164E-02  0.1300439E+00
        -11   -1    0    0    0    0  0.00000000000E+00  0.00000000000E+00  0.45593999997E+02  0.45594000000E+02  0.51100000000E-03 0.  1.
         11   -1    0    0    0    0 -0.00000000000E+00 -0.00000000000E+00 -0.45593999997E+02  0.45594000000E+02  0.51100000000E-03 0. -1.
    9900012    2    1    2    0    0  0.30951607250E+02 -0.25316068812E+02 -0.73660678114E+01  0.50528876959E+02  0.30000052005E+02 0.  0.
        -12    1    1    2    0    0 -0.30951607250E+02  0.25316068812E+02  0.73660678114E+01  0.40659123041E+02  0.00000000000E+00 0.  1.
         11    1    3    3    0    0  0.24669360949E+02 -0.12162339033E+02  0.45829757771E-01  0.27504580728E+02  0.51100000000E-03 0.  1.
        -11    1    3    3    0    0 -0.47467156088E+01 -0.85759578448E+01 -0.25266121196E+01  0.10122357981E+02  0.51100000000E-03 0. -1.
         12    1    3    3    0    0  0.11028961910E+02 -0.45777719335E+01 -0.48852854496E+01  0.12901938250E+02  0.00000000000E+00 0. -1.
</event>
<event>
 7    1  0.1098446E-012  0.5052875E+02  0.7816164E-02  0.1300439E+00
        -11   -1    0    0    0    0  0.00000000000E+00  0.00000000000E+00  0.45593999997E+02  0.45594000000E+02  0.51100000000E-03 0. -1.
         11   -1    0    0    0    0 -0.00000000000E+00 -0.00000000000E+00 -0.45593999997E+02  0.45594000000E+02  0.51100000000E-03 0.  1.
    9900012    2    1    2    0    0 -0.42929980343E+01  0.40416008491E+02 -0.11363786280E+01  0.50528746061E+02  0.29999654125E+02 0.  0.
        -12    1    1    2    0    0  0.42929980343E+01 -0.40416008491E+02  0.11363786280E+01  0.40659253939E+02  0.00000000000E+00 0.  1.
         11    1    3    3    0    0 -0.52496633616E+01  0.36313136783E+02  0.47669604354E+01  0.36999010534E+02  0.51100000000E-03 0. -1.
        -11    1    3    3    0    0  0.23754577327E+01  0.24908073522E+01 -0.90713930413E+01  0.97024271539E+01  0.51100000000E-03 0.  1.
         12    1    3    3    0    0 -0.14187924054E+01  0.16120643564E+01  0.31680539778E+01  0.38273083734E+01  0.00000000000E+00 0. -1.
</event>
<event>
 7    1  0.1098446E-012  0.5052886E+02  0.7816164E-02  0.1300439E+00
        -11   -1    0    0    0    0  0.00000000000E+00  0.00000000000E+00  0.45593999997E+02  0.45594000000E+02  0.51100000000E-03 0. -1.
         11   -1    0    0    0    0 -0.00000000000E+00 -0.00000000000E+00 -0.45593999997E+02  0.45594000000E+02  0.51100000000E-03 0.  1.
    9900012    2    1    2    0    0  0.37127766470E+02  0.16263469547E+02 -0.31928319061E+01  0.50528860064E+02  0.30000000651E+02 0.  0.
        -12    1    1    2    0    0 -0.37127766470E+02 -0.16263469547E+02  0.31928319061E+01  0.40659139936E+02  0.00000000000E+00 0.  1.
         11    1    3    3    0    0  0.20883513976E+02 -0.15083331755E+00 -0.90916317670E+01  0.22777218336E+02  0.51100000000E-03 0. -1.
        -11    1    3    3    0    0  0.94491867609E+01  0.19441121259E+01  0.66997686704E+01  0.11745365167E+02  0.51100000000E-03 0.  1.
         12    1    3    3    0    0  0.67950657330E+01  0.14470190739E+02 -0.80096880949E+00  0.16006276562E+02  0.00000000000E+00 0. -1.
</event>
<event>
 7    1  0.1098446E-012  0.5052886E+02  0.7816164E-02  0.1300439E+00
        -11   -1    0    0    0    0  0.00000000000E+00  0.00000000000E+00  0.45593999997E+02  0.45594000000E+02  0.51100000000E-03 0.  1.
         11   -1    0    0    0    0 -0.00000000000E+00 -0.00000000000E+00 -0.45593999997E+02  0.45594000000E+02  0.51100000000E-03 0. -1.
    9900012    2    1    2    0    0 -0.19232573502E+02  0.30911056942E+02 -0.18104707632E+02  0.50528858799E+02  0.29999996806E+02 0.  0.
        -12    1    1    2    0    0  0.19232573502E+02 -0.30911056942E+02  0.18104707632E+02  0.40659141201E+02  0.00000000000E+00 0.  1.
         11    1    3    3    0    0  0.18079119538E+01  0.14422951841E+02 -0.15279218985E+01  0.14615903360E+02  0.51100000000E-03 0. -1.
        -11    1    3    3    0    0 -0.16900870631E+02  0.19956363381E+02 -0.15520236224E+02  0.30410090433E+02  0.51100000000E-03 0.  1.
        -12    1    3    3    0    0 -0.41396148252E+01 -0.34682582806E+01 -0.10565495094E+01  0.55028650054E+01  0.00000000000E+00 0.  1.
</event>
<event>
 7    1  0.1098446E-012  0.5052885E+02  0.7816164E-02  0.1300439E+00
        -11   -1    0    0    0    0  0.00000000000E+00  0.00000000000E+00  0.45593999997E+02  0.45594000000E+02  0.51100000000E-03 0.  1.
         11   -1    0    0    0    0 -0.00000000000E+00 -0.00000000000E+00 -0.45593999997E+02  0.45594000000E+02  0.51100000000E-03 0. -1.
    9900012    2    1    2    0    0  0.29208079475E+02 -0.28266203087E+02  0.10375552159E+01  0.50528847717E+02  0.29999963121E+02 0.  0.
        -12    1    1    2    0    0 -0.29208079475E+02  0.28266203087E+02 -0.10375552159E+01  0.40659152283E+02  0.00000000000E+00 0.  1.
         11    1    3    3    0    0  0.24430372764E+02 -0.20928155112E+02 -0.50748540230E+01  0.32566622997E+02  0.51100000000E-03 0. -1.
        -11    1    3    3    0    0  0.43962321330E+01 -0.11355367272E+02  0.66775770220E+01  0.13887449658E+02  0.51100000000E-03 0.  1.
         12    1    3    3    0    0  0.38147457773E+00  0.40173192974E+01 -0.56516778313E+00  0.40747750629E+01  0.00000000000E+00 0. -1.
</event>
<event>
 7    1  0.1098446E-012  0.5052886E+02  0.7816164E-02  0.1300439E+00
        -11   -1    0    0    0    0  0.00000000000E+00  0.00000000000E+00  0.45593999997E+02  0.45594000000E+02  0.51100000000E-03 0. -1.
         11   -1    0    0    0    0 -0.00000000000E+00 -0.00000000000E+00 -0.45593999997E+02  0.45594000000E+02  0.51100000000E-03 0.  1.
    9900012    2    1    2    0    0  0.11101422121E+02 -0.39106772260E+02 -0.76431834438E+00  0.50528863361E+02  0.30000010671E+02 0.  0.
        -12    1    1    2    0    0 -0.11101422121E+02  0.39106772260E+02  0.76431834438E+00  0.40659136639E+02  0.00000000000E+00 0.  1.
         11    1    3    3    0    0  0.12443434515E+02 -0.90966184300E+01  0.35615177150E+00  0.15417988641E+02  0.51100000000E-03 0. -1.
        -11    1    3    3    0    0 -0.66601698555E+01 -0.48520387461E+01 -0.41372085124E+01  0.92204466830E+01  0.51100000000E-03 0.  1.
        -12    1    3    3    0    0  0.53181574621E+01 -0.25158115084E+02  0.30167383965E+01  0.25890428037E+02  0.00000000000E+00 0.  1.
</event>
<event>
 7    1  0.1098446E-012  0.5052887E+02  0.7816164E-02  0.1300439E+00
        -11   -1    0    0    0    0  0.00000000000E+00  0.00000000000E+00  0.45593999997E+02  0.45594000000E+02  0.51100000000E-03 0.  1.
         11   -1    0    0    0    0 -0.00000000000E+00 -0.00000000000E+00 -0.45593999997E+02  0.45594000000E+02  0.51100000000E-03 0. -1.
    9900012    2    1    2    0    0  0.18280607778E+02 -0.34366553601E+02 -0.11744110731E+02  0.50528871086E+02  0.30000034153E+02 0.  0.
        -12    1    1    2    0    0 -0.18280607778E+02  0.34366553601E+02  0.11744110731E+02  0.40659128914E+02  0.00000000000E+00 0.  1.
         11    1    3    3    0    0 -0.11597044060E+01 -0.15039193485E+01 -0.71256745017E+01  0.73744101514E+01  0.51100000000E-03 0. -1.
        -11    1    3    3    0    0  0.20428749138E+02 -0.15987800281E+02 -0.16641123850E+01  0.25994476710E+02  0.51100000000E-03 0.  1.
        -12    1    3    3    0    0 -0.98843695358E+00 -0.16874833972E+02 -0.29543238445E+01  0.17159984224E+02  0.00000000000E+00 0.  1.
</event>
<event>
 7    1  0.1098446E-012  0.5052886E+02  0.7816164E-02  0.1300439E+00
        -11   -1    0    0    0    0  0.00000000000E+00  0.00000000000E+00  0.45593999997E+02  0.45594000000E+02  0.51100000000E-03 0.  1.
         11   -1    0    0    0    0 -0.00000000000E+00 -0.00000000000E+00 -0.45593999997E+02  0.45594000000E+02  0.51100000000E-03 0. -1.
    9900012    2    1    2    0    0 -0.34978029731E+02  0.86591813718E+01 -0.18834059371E+02  0.50528858613E+02  0.29999996241E+02 0.  0.
        -12    1    1    2    0    0  0.34978029731E+02 -0.86591813718E+01  0.18834059371E+02  0.40659141387E+02  0.00000000000E+00 0.  1.
         11    1    3    3    0    0 -0.35187745285E+02  0.45991287989E+00 -0.18669879113E+02  0.39836582740E+02  0.51100000000E-03 0. -1.
        -11    1    3    3    0    0 -0.19947650175E+01  0.82463341807E+01 -0.21108778329E+00  0.84867940477E+01  0.51100000000E-03 0.  1.
         12    1    3    3    0    0  0.22044805707E+01 -0.47065688864E-01  0.46907525721E-01  0.22054818252E+01  0.00000000000E+00 0. -1.
</event>
<event>
 7    1  0.1098446E-012  0.5052885E+02  0.7816164E-02  0.1300439E+00
        -11   -1    0    0    0    0  0.00000000000E+00  0.00000000000E+00  0.45593999997E+02  0.45594000000E+02  0.51100000000E-03 0. -1.
         11   -1    0    0    0    0 -0.00000000000E+00 -0.00000000000E+00 -0.45593999997E+02  0.45594000000E+02  0.51100000000E-03 0.  1.
    9900012    2    1    2    0    0 -0.35230677373E+02 -0.20064976210E+02 -0.30598202471E+01  0.50528850987E+02  0.29999973061E+02 0.  0.
        -12    1    1    2    0    0  0.35230677373E+02  0.20064976210E+02  0.30598202471E+01  0.40659149013E+02  0.00000000000E+00 0.  1.
         11    1    3    3    0    0  0.43778362609E+01 -0.58687623549E+01 -0.92461578693E+00  0.73798872972E+01  0.51100000000E-03 0. -1.
        -11    1    3    3    0    0 -0.76754303299E+01 -0.48717742071E+00 -0.33211751014E+01  0.83773371010E+01  0.51100000000E-03 0.  1.
         12    1    3    3    0    0 -0.31933083305E+02 -0.13709036434E+02  0.11859706412E+01  0.34771626589E+02  0.00000000000E+00 0. -1.
</event>
<event>
 7    1  0.1098446E-012  0.5052885E+02  0.7816164E-02  0.1300439E+00
        -11   -1    0    0    0    0  0.00000000000E+00  0.00000000000E+00  0.45593999997E+02  0.45594000000E+02  0.51100000000E-03 0.  1.
         11   -1    0    0    0    0 -0.00000000000E+00 -0.00000000000E+00 -0.45593999997E+02  0.45594000000E+02  0.51100000000E-03 0. -1.
    9900012    2    1    2    0    0  0.35009989131E+02 -0.19541078216E+02 -0.67537636936E+01  0.50528850958E+02  0.29999972972E+02 0.  0.
        -12    1    1    2    0    0 -0.35009989131E+02  0.19541078216E+02  0.67537636936E+01  0.40659149042E+02  0.00000000000E+00 0.  1.
         11    1    3    3    0    0  0.36513258083E+02 -0.11418804648E+02 -0.10776300408E+02  0.39745889928E+02  0.51100000000E-03 0. -1.
        -11    1    3    3    0    0 -0.40485051786E+00  0.86255668511E+00  0.37974825822E+00  0.10257275357E+01  0.51100000000E-03 0.  1.
         12    1    3    3    0    0 -0.10984184339E+01 -0.89848302528E+01  0.36427884565E+01  0.97572334945E+01  0.00000000000E+00 0. -1.
</event>
<event>
 7    1  0.1098446E-012  0.5052886E+02  0.7816164E-02  0.1300439E+00
        -11   -1    0    0    0    0  0.00000000000E+00  0.00000000000E+00  0.45593999997E+02  0.45594000000E+02  0.51100000000E-03 0.  1.
         11   -1    0    0    0    0 -0.00000000000E+00 -0.00000000000E+00 -0.45593999997E+02  0.45594000000E+02  0.51100000000E-03 0. -1.
    9900012    2    1    2    0    0 -0.17934885182E+02  0.78499276165E+01 -0.35635436199E+02  0.50528858554E+02  0.29999996061E+02 0.  0.
        -12    1    1    2    0    0  0.17934885182E+02 -0.78499276165E+01  0.35635436199E+02  0.40659141446E+02  0.00000000000E+00 0.  1.
         11    1    3    3    0    0 -0.17790472724E+00  0.11599887814E+02 -0.20586747570E+02  0.23630556980E+02  0.51100000000E-03 0. -1.
        -11    1    3    3    0    0 -0.10890747685E+02 -0.78476736681E+01 -0.56654828706E+01  0.14570245831E+02  0.51100000000E-03 0.  1.
         12    1    3    3    0    0 -0.68662327690E+01  0.40977134707E+01 -0.93832057576E+01  0.12328055744E+02  0.00000000000E+00 0. -1.
</event>
<event>
 7    1  0.1098446E-012  0.5052887E+02  0.7816164E-02  0.1300439E+00
        -11   -1    0    0    0    0  0.00000000000E+00  0.00000000000E+00  0.45593999997E+02  0.45594000000E+02  0.51100000000E-03 0. -1.
         11   -1    0    0    0    0 -0.00000000000E+00 -0.00000000000E+00 -0.45593999997E+02  0.45594000000E+02  0.51100000000E-03 0.  1.
    9900012    2    1    2    0    0  0.61680768704E+01  0.35039290977E+02 -0.19681664418E+02  0.50528868201E+02  0.30000025382E+02 0.  0.
        -12    1    1    2    0    0 -0.61680768704E+01 -0.35039290977E+02  0.19681664418E+02  0.40659131799E+02  0.00000000000E+00 0.  1.
         11    1    3    3    0    0 -0.63173172336E+01  0.10380684170E+02 -0.29937338701E+01  0.12515172536E+02  0.51100000000E-03 0. -1.
        -11    1    3    3    0    0  0.17107594616E+02  0.15673885277E+02 -0.15353211376E+02  0.27821962063E+02  0.51100000000E-03 0.  1.
        -12    1    3    3    0    0 -0.46222005117E+01  0.89847215297E+01 -0.13347191721E+01  0.10191733602E+02  0.00000000000E+00 0.  1.
</event>
<event>
 7    1  0.1098446E-012  0.5052886E+02  0.7816164E-02  0.1300439E+00
        -11   -1    0    0    0    0  0.00000000000E+00  0.00000000000E+00  0.45593999997E+02  0.45594000000E+02  0.51100000000E-03 0.  1.
         11   -1    0    0    0    0 -0.00000000000E+00 -0.00000000000E+00 -0.45593999997E+02  0.45594000000E+02  0.51100000000E-03 0. -1.
    9900012    2    1    2    0    0 -0.10913784856E+02  0.38343590356E+02 -0.79889756937E+01  0.50528863832E+02  0.30000012105E+02 0.  0.
        -12    1    1    2    0    0  0.10913784856E+02 -0.38343590356E+02  0.79889756937E+01  0.40659136168E+02  0.00000000000E+00 0.  1.
         11    1    3    3    0    0 -0.22288391437E-01  0.40522987985E+01 -0.20724790527E+00  0.40576562546E+01  0.51100000000E-03 0. -1.
        -11    1    3    3    0    0 -0.11500256393E+02  0.32547129897E+02 -0.16000645030E+02  0.38047236474E+02  0.51100000000E-03 0.  1.
        -12    1    3    3    0    0  0.60875992857E+00  0.17441616600E+01  0.82189172412E+01  0.84239711042E+01  0.00000000000E+00 0.  1.
</event>
<event>
 7    1  0.1098446E-012  0.5052885E+02  0.7816164E-02  0.1300439E+00
        -11   -1    0    0    0    0  0.00000000000E+00  0.00000000000E+00  0.45593999997E+02  0.45594000000E+02  0.51100000000E-03 0. -1.
         11   -1    0    0    0    0 -0.00000000000E+00 -0.00000000000E+00 -0.45593999997E+02  0.45594000000E+02  0.51100000000E-03 0.  1.
    9900012    2    1    2    0    0 -0.33383765526E+02 -0.10489307686E+02  0.20704225928E+02  0.50528851611E+02  0.29999974958E+02 0.  0.
        -12    1    1    2    0    0  0.33383765526E+02  0.10489307686E+02 -0.20704225928E+02  0.40659148389E+02  0.00000000000E+00 0.  1.
         11    1    3    3    0    0 -0.28603310750E+02 -0.84157386138E+01  0.26289088528E+02  0.39750348655E+02  0.51100000000E-03 0. -1.
        -11    1    3    3    0    0 -0.23903793481E+01  0.28550436335E+01 -0.19354367309E+01  0.41965584921E+01  0.51100000000E-03 0.  1.
         12    1    3    3    0    0 -0.23900754282E+01 -0.49286127055E+01 -0.36494258699E+01  0.65819444645E+01  0.00000000000E+00 0. -1.
</event>
<event>
 7    1  0.1098446E-012  0.5052886E+02  0.7816164E-02  0.1300439E+00
        -11   -1    0    0    0    0  0.00000000000E+00  0.00000000000E+00  0.45593999997E+02  0.45594000000E+02  0.51100000000E-03 0.  1.
         11   -1    0    0    0    0 -0.00000000000E+00 -0.00000000000E+00 -0.45593999997E+02  0.45594000000E+02  0.51100000000E-03 0. -1.
    9900012    2    1    2    0    0  0.21803584388E+02 -0.27609175857E+02 -0.20383890494E+02  0.50528857420E+02  0.29999992614E+02 0.  0.
        -12    1    1    2    0    0 -0.21803584388E+02  0.27609175857E+02  0.20383890494E+02  0.40659142580E+02  0.00000000000E+00 0.  1.
         11    1    3    3    0    0  0.23689972581E+02 -0.23500508553E+02 -0.10355100858E+02  0.34938758094E+02  0.51100000000E-03 0. -1.
        -11    1    3    3    0    0 -0.41077176820E+01 -0.45338038381E+01 -0.89809165801E+00  0.61834691464E+01  0.51100000000E-03 0.  1.
         12    1    3    3    0    0  0.22213294897E+01  0.42513653370E+00 -0.91306979779E+01  0.94066301797E+01  0.00000000000E+00 0. -1.
</event>
<event>
 7    1  0.1098446E-012  0.5052887E+02  0.7816164E-02  0.1300439E+00
        -11   -1    0    0    0    0  0.00000000000E+00  0.00000000000E+00  0.45593999997E+02  0.45594000000E+02  0.51100000000E-03 0.  1.
         11   -1    0    0    0    0 -0.00000000000E+00 -0.00000000000E+00 -0.45593999997E+02  0.45594000000E+02  0.51100000000E-03 0. -1.
    9900012    2    1    2    0    0  0.10784630809E+02  0.39129869668E+02  0.23896009914E+01  0.50528866280E+02  0.30000019545E+02 0.  0.
        -12    1    1    2    0    0 -0.10784630809E+02 -0.39129869668E+02 -0.23896009914E+01  0.40659133720E+02  0.00000000000E+00 0.  1.
         11    1    3    3    0    0 -0.94401881143E+01  0.92980301453E+01 -0.26963575722E+01  0.13521866019E+02  0.51100000000E-03 0. -1.
        -11    1    3    3    0    0  0.18586842480E+02  0.27966842120E+02  0.64213202480E+01  0.34188423852E+02  0.51100000000E-03 0.  1.
         12    1    3    3    0    0  0.16379764435E+01  0.18649974031E+01 -0.13353616845E+01  0.28185764086E+01  0.00000000000E+00 0. -1.
</event>
<event>
 7    1  0.1098446E-012  0.5052886E+02  0.7816164E-02  0.1300439E+00
        -11   -1    0    0    0    0  0.00000000000E+00  0.00000000000E+00  0.45593999997E+02  0.45594000000E+02  0.51100000000E-03 0.  1.
         11   -1    0    0    0    0 -0.00000000000E+00 -0.00000000000E+00 -0.45593999997E+02  0.45594000000E+02  0.51100000000E-03 0. -1.
    9900012    2    1    2    0    0  0.16570878256E+02 -0.36309956689E+02 -0.77561903347E+01  0.50528862657E+02  0.30000008533E+02 0.  0.
        -12    1    1    2    0    0 -0.16570878256E+02  0.36309956689E+02  0.77561903347E+01  0.40659137343E+02  0.00000000000E+00 0.  1.
         11    1    3    3    0    0  0.19877750772E+02 -0.32069689322E+02 -0.84432620218E+01  0.38663660235E+02  0.51100000000E-03 0. -1.
        -11    1    3    3    0    0 -0.61972990282E+01 -0.46607402997E+01  0.28171267101E+01  0.82501647588E+01  0.51100000000E-03 0.  1.
         12    1    3    3    0    0  0.28904265118E+01  0.42047293200E+00 -0.21300550229E+01  0.36150376633E+01  0.00000000000E+00 0. -1.
</event>
<event>
 7    1  0.1098446E-012  0.5052886E+02  0.7816164E-02  0.1300439E+00
        -11   -1    0    0    0    0  0.00000000000E+00  0.00000000000E+00  0.45593999997E+02  0.45594000000E+02  0.51100000000E-03 0.  1.
         11   -1    0    0    0    0 -0.00000000000E+00 -0.00000000000E+00 -0.45593999997E+02  0.45594000000E+02  0.51100000000E-03 0. -1.
    9900012    2    1    2    0    0  0.27030108679E+02 -0.17782528895E+02 -0.24623577040E+02  0.50528860125E+02  0.30000000836E+02 0.  0.
        -12    1    1    2    0    0 -0.27030108679E+02  0.17782528895E+02  0.24623577040E+02  0.40659139875E+02  0.00000000000E+00 0.  1.
         11    1    3    3    0    0  0.18107159546E+02 -0.15542042866E+02 -0.10802511244E+02  0.26193865173E+02  0.51100000000E-03 0. -1.
        -11    1    3    3    0    0 -0.26893929886E+01  0.50159795518E+01 -0.14315921293E+01  0.58687598177E+01  0.51100000000E-03 0.  1.
         12    1    3    3    0    0  0.11612342122E+02 -0.72564655806E+01 -0.12389473667E+02  0.18466235134E+02  0.00000000000E+00 0. -1.
</event>
<event>
 7    1  0.1098446E-012  0.5052886E+02  0.7816164E-02  0.1300439E+00
        -11   -1    0    0    0    0  0.00000000000E+00  0.00000000000E+00  0.45593999997E+02  0.45594000000E+02  0.51100000000E-03 0.  1.
         11   -1    0    0    0    0 -0.00000000000E+00 -0.00000000000E+00 -0.45593999997E+02  0.45594000000E+02  0.51100000000E-03 0. -1.
    9900012    2    1    2    0    0  0.19106141877E+02  0.13133219911E+02 -0.33401196226E+02  0.50528855494E+02  0.29999986760E+02 0.  0.
        -12    1    1    2    0    0 -0.19106141877E+02 -0.13133219911E+02  0.33401196226E+02  0.40659144506E+02  0.00000000000E+00 0.  1.
         11    1    3    3    0    0 -0.48646013681E+01 -0.22293887693E+01 -0.10636803226E+02  0.11906977109E+02  0.51100000000E-03 0. -1.
        -11    1    3    3    0    0  0.21745247593E+02  0.17390308893E+02 -0.22075960262E+02  0.35533458290E+02  0.51100000000E-03 0.  1.
         12    1    3    3    0    0  0.22254956514E+01 -0.20277002131E+01 -0.68843273879E+00  0.30884200952E+01  0.00000000000E+00 0. -1.
</event>
<event>
 7    1  0.1098446E-012  0.5052886E+02  0.7816164E-02  0.1300439E+00
        -11   -1    0    0    0    0  0.00000000000E+00  0.00000000000E+00  0.45593999997E+02  0.45594000000E+02  0.51100000000E-03 0.  1.
         11   -1    0    0    0    0 -0.00000000000E+00 -0.00000000000E+00 -0.45593999997E+02  0.45594000000E+02  0.51100000000E-03 0. -1.
    9900012    2    1    2    0    0 -0.31990849108E+02  0.27849590442E+00 -0.25093306611E+02  0.50528855601E+02  0.29999987085E+02 0.  0.
        -12    1    1    2    0    0  0.31990849108E+02 -0.27849590442E+00  0.25093306611E+02  0.40659144399E+02  0.00000000000E+00 0.  1.
         11    1    3    3    0    0 -0.55992796578E+01 -0.31607036120E+01 -0.53089038963E+01  0.83382516663E+01  0.51100000000E-03 0. -1.
        -11    1    3    3    0    0 -0.24087814498E+02  0.11312130851E+02 -0.20997771911E+02  0.33898282216E+02  0.51100000000E-03 0.  1.
        -12    1    3    3    0    0 -0.23037549517E+01 -0.78729313349E+01  0.12133691968E+01  0.82923217189E+01  0.00000000000E+00 0.  1.
</event>
<event>
 7    1  0.1098446E-012  0.5052882E+02  0.7816164E-02  0.1300439E+00
        -11   -1    0    0    0    0  0.00000000000E+00  0.00000000000E+00  0.45593999997E+02  0.45594000000E+02  0.51100000000E-03 0. -1.
         11   -1    0    0    0    0 -0.00000000000E+00 -0.00000000000E+00 -0.45593999997E+02  0.45594000000E+02  0.51100000000E-03 0.  1.
    9900012    2    1    2    0    0 -0.39063539840E+02  0.48408428078E+01  0.10187001191E+02  0.50528820259E+02  0.29999879660E+02 0.  0.
        -12    1    1    2    0    0  0.39063539840E+02 -0.48408428078E+01 -0.10187001191E+02  0.40659179741E+02  0.00000000000E+00 0.  1.
         11    1    3    3    0    0 -0.83661855772E+01 -0.21818618854E+01  0.11505851712E+02  0.14392296769E+02  0.51100000000E-03 0. -1.
        -11    1    3    3    0    0 -0.65250800534E+01 -0.26091222723E+01 -0.65371538268E+01  0.95978419007E+01  0.51100000000E-03 0.  1.
         12    1    3    3    0    0 -0.24172274209E+02  0.96318269655E+01  0.52183033062E+01  0.26538681590E+02  0.00000000000E+00 0. -1.
</event>
<event>
 7    1  0.1098446E-012  0.5052896E+02  0.7816164E-02  0.1300438E+00
        -11   -1    0    0    0    0  0.00000000000E+00  0.00000000000E+00  0.45593999997E+02  0.45594000000E+02  0.51100000000E-03 0.  1.
         11   -1    0    0    0    0 -0.00000000000E+00 -0.00000000000E+00 -0.45593999997E+02  0.45594000000E+02  0.51100000000E-03 0. -1.
    9900012    2    1    2    0    0 -0.49767356654E+01 -0.24521453831E+02 -0.32048211102E+02  0.50528961266E+02  0.30000308264E+02 0.  0.
        -12    1    1    2    0    0  0.49767356654E+01  0.24521453831E+02  0.32048211102E+02  0.40659038734E+02  0.00000000000E+00 0.  1.
         11    1    3    3    0    0 -0.40772056520E+01 -0.20034555385E+02 -0.71214615554E+01  0.21649993772E+02  0.51100000000E-03 0. -1.
        -11    1    3    3    0    0  0.42171956912E+01  0.32343278063E+01 -0.94613102239E+01  0.10851820459E+02  0.51100000000E-03 0.  1.
         12    1    3    3    0    0 -0.51167257046E+01 -0.77212262528E+01 -0.15465439323E+02  0.18027147035E+02  0.00000000000E+00 0. -1.
</event>
<event>
 7    1  0.1098446E-012  0.5052886E+02  0.7816164E-02  0.1300439E+00
        -11   -1    0    0    0    0  0.00000000000E+00  0.00000000000E+00  0.45593999997E+02  0.45594000000E+02  0.51100000000E-03 0.  1.
         11   -1    0    0    0    0 -0.00000000000E+00 -0.00000000000E+00 -0.45593999997E+02  0.45594000000E+02  0.51100000000E-03 0. -1.
    9900012    2    1    2    0    0  0.14609658861E+02  0.21876286803E+02 -0.31002440389E+02  0.50528863679E+02  0.30000011639E+02 0.  0.
        -12    1    1    2    0    0 -0.14609658861E+02 -0.21876286803E+02  0.31002440389E+02  0.40659136321E+02  0.00000000000E+00 0.  1.
         11    1    3    3    0    0  0.52618800516E+01  0.39284881142E+00 -0.15517262275E+02  0.16389848707E+02  0.51100000000E-03 0. -1.
        -11    1    3    3    0    0  0.26863155608E+01  0.14127785265E+02  0.15086362615E+01  0.14459826812E+02  0.51100000000E-03 0.  1.
        -12    1    3    3    0    0  0.66614632486E+01  0.73556527259E+01 -0.16993814375E+02  0.19679188161E+02  0.00000000000E+00 0.  1.
</event>
<event>
 7    1  0.1098446E-012  0.5052885E+02  0.7816164E-02  0.1300439E+00
        -11   -1    0    0    0    0  0.00000000000E+00  0.00000000000E+00  0.45593999997E+02  0.45594000000E+02  0.51100000000E-03 0.  1.
         11   -1    0    0    0    0 -0.00000000000E+00 -0.00000000000E+00 -0.45593999997E+02  0.45594000000E+02  0.51100000000E-03 0. -1.
    9900012    2    1    2    0    0  0.70222174147E+01  0.52269282381E+00 -0.40044747760E+02  0.50528848897E+02  0.29999966708E+02 0.  0.
        -12    1    1    2    0    0 -0.70222174147E+01 -0.52269282381E+00  0.40044747760E+02  0.40659151103E+02  0.00000000000E+00 0.  1.
         11    1    3    3    0    0 -0.39297832490E+01  0.20351625483E+01 -0.34727860009E+02  0.35008703833E+02  0.51100000000E-03 0. -1.
        -11    1    3    3    0    0  0.34075984979E+01 -0.13909368793E+01  0.26591269695E+01  0.45406375572E+01  0.51100000000E-03 0.  1.
         12    1    3    3    0    0  0.75444021658E+01 -0.12153284516E+00 -0.79760147211E+01  0.10979507507E+02  0.00000000000E+00 0. -1.
</event>
<event>
 7    1  0.1098446E-012  0.5052884E+02  0.7816164E-02  0.1300439E+00
        -11   -1    0    0    0    0  0.00000000000E+00  0.00000000000E+00  0.45593999997E+02  0.45594000000E+02  0.51100000000E-03 0. -1.
         11   -1    0    0    0    0 -0.00000000000E+00 -0.00000000000E+00 -0.45593999997E+02  0.45594000000E+02  0.51100000000E-03 0.  1.
    9900012    2    1    2    0    0 -0.59597858829E+01 -0.34015415913E+02  0.21461579345E+02  0.50528844137E+02  0.29999952239E+02 0.  0.
        -12    1    1    2    0    0  0.59597858829E+01  0.34015415913E+02 -0.21461579345E+02  0.40659155863E+02  0.00000000000E+00 0.  1.
         11    1    3    3    0    0  0.20530407344E+01 -0.70163503199E+01  0.28583418014E+01  0.78494755356E+01  0.51100000000E-03 0. -1.
        -11    1    3    3    0    0 -0.30016112622E+01 -0.60658030526E+01  0.19995365594E+02  0.21109672720E+02  0.51100000000E-03 0.  1.
        -12    1    3    3    0    0 -0.50112153550E+01 -0.20933262540E+02 -0.13921280505E+01  0.21569695881E+02  0.00000000000E+00 0.  1.
</event>
<event>
 7    1  0.1098446E-012  0.5052886E+02  0.7816164E-02  0.1300439E+00
        -11   -1    0    0    0    0  0.00000000000E+00  0.00000000000E+00  0.45593999997E+02  0.45594000000E+02  0.51100000000E-03 0.  1.
         11   -1    0    0    0    0 -0.00000000000E+00 -0.00000000000E+00 -0.45593999997E+02  0.45594000000E+02  0.51100000000E-03 0. -1.
    9900012    2    1    2    0    0 -0.12783531485E+02 -0.11304711013E+02 -0.36904618680E+02  0.50528855294E+02  0.29999986151E+02 0.  0.
        -12    1    1    2    0    0  0.12783531485E+02  0.11304711013E+02  0.36904618680E+02  0.40659144706E+02  0.00000000000E+00 0.  1.
         11    1    3    3    0    0 -0.15820088737E+02 -0.99530368876E+01 -0.24451811809E+02  0.30777089725E+02  0.51100000000E-03 0. -1.
        -11    1    3    3    0    0 -0.30368134261E+01  0.13911735938E+01  0.19600213346E+01  0.38728908642E+01  0.51100000000E-03 0.  1.
         12    1    3    3    0    0  0.60733706778E+01 -0.27428477191E+01 -0.14412828205E+02  0.15878874704E+02  0.00000000000E+00 0. -1.
</event>
<event>
 7    1  0.1098446E-012  0.5052885E+02  0.7816164E-02  0.1300439E+00
        -11   -1    0    0    0    0  0.00000000000E+00  0.00000000000E+00  0.45593999997E+02  0.45594000000E+02  0.51100000000E-03 0.  1.
         11   -1    0    0    0    0 -0.00000000000E+00 -0.00000000000E+00 -0.45593999997E+02  0.45594000000E+02  0.51100000000E-03 0. -1.
    9900012    2    1    2    0    0 -0.76776267309E+01  0.36410490362E+02 -0.16385877647E+02  0.50528846703E+02  0.29999960037E+02 0.  0.
        -12    1    1    2    0    0  0.76776267309E+01 -0.36410490362E+02  0.16385877647E+02  0.40659153297E+02  0.00000000000E+00 0.  1.
         11    1    3    3    0    0  0.49927308200E+01  0.19368396615E+02 -0.12627218014E+02  0.23653938013E+02  0.51100000000E-03 0. -1.
        -11    1    3    3    0    0 -0.16755901304E+01 -0.23805822091E+01  0.23432895277E+01  0.37370817507E+01  0.51100000000E-03 0.  1.
         12    1    3    3    0    0 -0.10994767421E+02  0.19422675955E+02 -0.61019491613E+01  0.23137826939E+02  0.00000000000E+00 0. -1.
</event>
<event>
 7    1  0.1133832E-012  0.5052886E+02  0.7816164E-02  0.1300439E+00
        -11   -1    0    0    0    0  0.00000000000E+00  0.00000000000E+00  0.45593999997E+02  0.45594000000E+02  0.51100000000E-03 0. -1.
         11   -1    0    0    0    0 -0.00000000000E+00 -0.00000000000E+00 -0.45593999997E+02  0.45594000000E+02  0.51100000000E-03 0.  1.
    9900012    2    1    2    0    0 -0.10451768329E+02  0.30240587396E+02  0.25088500805E+02  0.50528862529E+02  0.30000008142E+02 0.  0.
        -12    1    1    2    0    0  0.10451768329E+02 -0.30240587396E+02 -0.25088500805E+02  0.40659137471E+02  0.00000000000E+00 0.  1.
         11    1    3    3    0    0 -0.95945171501E+01  0.18149250771E+02  0.14324231159E+02  0.25032651906E+02  0.51100000000E-03 0. -1.
        -11    1    3    3    0    0 -0.63040569396E+01 -0.29235682991E+01  0.17918294510E+01  0.71762830587E+01  0.51100000000E-03 0.  1.
        -12    1    3    3    0    0  0.54468057611E+01  0.15014904924E+02  0.89724401951E+01  0.18319927563E+02  0.00000000000E+00 0.  1.
</event>
<event>
 7    1  0.1098446E-012  0.5052885E+02  0.7816164E-02  0.1300439E+00
        -11   -1    0    0    0    0  0.00000000000E+00  0.00000000000E+00  0.45593999997E+02  0.45594000000E+02  0.51100000000E-03 0.  1.
         11   -1    0    0    0    0 -0.00000000000E+00 -0.00000000000E+00 -0.45593999997E+02  0.45594000000E+02  0.51100000000E-03 0. -1.
    9900012    2    1    2    0    0  0.12312381392E+02 -0.37827547155E+02 -0.84052392963E+01  0.50528854572E+02  0.29999983957E+02 0.  0.
        -12    1    1    2    0    0 -0.12312381392E+02  0.37827547155E+02  0.84052392963E+01  0.40659145428E+02  0.00000000000E+00 0.  1.
         11    1    3    3    0    0  0.14546913221E+02 -0.18696962712E+02  0.52456821658E+01  0.24263270195E+02  0.51100000000E-03 0. -1.
        -11    1    3    3    0    0  0.12440611681E+01 -0.44922314872E+01 -0.96187056508E+01  0.10688654292E+02  0.51100000000E-03 0.  1.
         12    1    3    3    0    0 -0.34785929977E+01 -0.14638352956E+02 -0.40322158113E+01  0.15576930085E+02  0.00000000000E+00 0. -1.
</event>
<event>
 7    1  0.1098446E-012  0.5052886E+02  0.7816164E-02  0.1300439E+00
        -11   -1    0    0    0    0  0.00000000000E+00  0.00000000000E+00  0.45593999997E+02  0.45594000000E+02  0.51100000000E-03 0. -1.
         11   -1    0    0    0    0 -0.00000000000E+00 -0.00000000000E+00 -0.45593999997E+02  0.45594000000E+02  0.51100000000E-03 0.  1.
    9900012    2    1    2    0    0  0.17508568252E+02  0.24828801792E+02  0.27021223614E+02  0.50528857285E+02  0.29999992205E+02 0.  0.
        -12    1    1    2    0    0 -0.17508568252E+02 -0.24828801792E+02 -0.27021223614E+02  0.40659142715E+02  0.00000000000E+00 0.  1.
         11    1    3    3    0    0 -0.62798550221E+01  0.82025404873E+01  0.62659972004E+01  0.12082258511E+02  0.51100000000E-03 0. -1.
        -11    1    3    3    0    0  0.91878859424E+01  0.50762860284E+00  0.11708612043E+02  0.14891827663E+02  0.51100000000E-03 0.  1.
         12    1    3    3    0    0  0.14600537332E+02  0.16118632702E+02  0.90466143703E+01  0.23554771112E+02  0.00000000000E+00 0. -1.
</event>
<event>
 7    1  0.1098446E-012  0.5052886E+02  0.7816164E-02  0.1300439E+00
        -11   -1    0    0    0    0  0.00000000000E+00  0.00000000000E+00  0.45593999997E+02  0.45594000000E+02  0.51100000000E-03 0. -1.
         11   -1    0    0    0    0 -0.00000000000E+00 -0.00000000000E+00 -0.45593999997E+02  0.45594000000E+02  0.51100000000E-03 0.  1.
    9900012    2    1    2    0    0  0.22700102443E+02 -0.63114289054E+01  0.33136636169E+02  0.50528862745E+02  0.30000008799E+02 0.  0.
        -12    1    1    2    0    0 -0.22700102443E+02  0.63114289054E+01 -0.33136636169E+02  0.40659137255E+02  0.00000000000E+00 0.  1.
         11    1    3    3    0    0  0.12495290798E+02 -0.85539036123E+01  0.17643242943E+00  0.15143734276E+02  0.51100000000E-03 0.  1.
        -11    1    3    3    0    0  0.23413006680E+01 -0.17102400061E+01  0.16171941526E+02  0.16429799228E+02  0.51100000000E-03 0. -1.
         12    1    3    3    0    0  0.78635109762E+01  0.39527147130E+01  0.16788262213E+02  0.18955329241E+02  0.00000000000E+00 0. -1.
</event>
<event>
 7    1  0.1098446E-012  0.5052886E+02  0.7816164E-02  0.1300439E+00
        -11   -1    0    0    0    0  0.00000000000E+00  0.00000000000E+00  0.45593999997E+02  0.45594000000E+02  0.51100000000E-03 0.  1.
         11   -1    0    0    0    0 -0.00000000000E+00 -0.00000000000E+00 -0.45593999997E+02  0.45594000000E+02  0.51100000000E-03 0. -1.
    9900012    2    1    2    0    0  0.30584047892E+02 -0.24923800355E+02  0.98278003445E+01  0.50528862414E+02  0.30000007795E+02 0.  0.
        -12    1    1    2    0    0 -0.30584047892E+02  0.24923800355E+02 -0.98278003445E+01  0.40659137586E+02  0.00000000000E+00 0.  1.
         11    1    3    3    0    0  0.13889099529E+01 -0.31991377757E+01 -0.16010482764E+01  0.38375655316E+01  0.51100000000E-03 0. -1.
        -11    1    3    3    0    0  0.39858394964E+01  0.42473417230E+01 -0.42866940446E+01  0.72320518732E+01  0.51100000000E-03 0.  1.
        -12    1    3    3    0    0  0.25209298442E+02 -0.25972004303E+02  0.15715542666E+02  0.39459245010E+02  0.00000000000E+00 0.  1.
</event>
<event>
 7    1  0.1098446E-012  0.5052888E+02  0.7816164E-02  0.1300439E+00
        -11   -1    0    0    0    0  0.00000000000E+00  0.00000000000E+00  0.45593999997E+02  0.45594000000E+02  0.51100000000E-03 0.  1.
         11   -1    0    0    0    0 -0.00000000000E+00 -0.00000000000E+00 -0.45593999997E+02  0.45594000000E+02  0.51100000000E-03 0. -1.
    9900012    2    1    2    0    0 -0.12721392934E+02  0.86516211508E+01 -0.37636149871E+02  0.50528878467E+02  0.30000056587E+02 0.  0.
        -12    1    1    2    0    0  0.12721392934E+02 -0.86516211508E+01  0.37636149871E+02  0.40659121533E+02  0.00000000000E+00 0.  1.
         11    1    3    3    0    0 -0.30360653953E+01 -0.93890939345E+01 -0.99114801825E+01  0.13986072274E+02  0.51100000000E-03 0. -1.
        -11    1    3    3    0    0 -0.17745792157E+01  0.15334052091E+02 -0.18446954398E+02  0.24053532210E+02  0.51100000000E-03 0.  1.
         12    1    3    3    0    0 -0.79107483234E+01  0.27066629939E+01 -0.92777152907E+01  0.12489273983E+02  0.00000000000E+00 0. -1.
</event>
<event>
 7    1  0.1098446E-012  0.5052882E+02  0.7816164E-02  0.1300439E+00
        -11   -1    0    0    0    0  0.00000000000E+00  0.00000000000E+00  0.45593999997E+02  0.45594000000E+02  0.51100000000E-03 0.  1.
         11   -1    0    0    0    0 -0.00000000000E+00 -0.00000000000E+00 -0.45593999997E+02  0.45594000000E+02  0.51100000000E-03 0. -1.
    9900012    2    1    2    0    0  0.28177012834E+01 -0.44651734582E+01 -0.40314910475E+02  0.50528816276E+02  0.29999867552E+02 0.  0.
        -12    1    1    2    0    0 -0.28177012834E+01  0.44651734582E+01  0.40314910475E+02  0.40659183724E+02  0.00000000000E+00 0.  1.
         11    1    3    3    0    0 -0.25387165191E+01 -0.46288768096E+01 -0.37188286180E+02  0.37561152956E+02  0.51100000000E-03 0. -1.
        -11    1    3    3    0    0  0.22786487949E+01 -0.43563833075E+01  0.21524198745E+01  0.53668638355E+01  0.51100000000E-03 0.  1.
         12    1    3    3    0    0  0.30777690076E+01  0.45200866588E+01 -0.52790441689E+01  0.76007994845E+01  0.00000000000E+00 0. -1.
</event>
<event>
 7    1  0.1098446E-012  0.5052885E+02  0.7816164E-02  0.1300439E+00
        -11   -1    0    0    0    0  0.00000000000E+00  0.00000000000E+00  0.45593999997E+02  0.45594000000E+02  0.51100000000E-03 0.  1.
         11   -1    0    0    0    0 -0.00000000000E+00 -0.00000000000E+00 -0.45593999997E+02  0.45594000000E+02  0.51100000000E-03 0. -1.
    9900012    2    1    2    0    0  0.39706981741E+02 -0.87240684518E+01  0.64219478707E+00  0.50528853630E+02  0.29999981095E+02 0.  0.
        -12    1    1    2    0    0 -0.39706981741E+02  0.87240684518E+01 -0.64219478707E+00  0.40659146370E+02  0.00000000000E+00 0.  1.
         11    1    3    3    0    0  0.15704246546E+02 -0.16080881339E+02 -0.13838205279E+01  0.22519615089E+02  0.51100000000E-03 0. -1.
        -11    1    3    3    0    0  0.23751060334E+02  0.51584705974E+01 -0.92311722385E+00  0.24322311394E+02  0.51100000000E-03 0.  1.
        -12    1    3    3    0    0  0.25167486133E+00  0.21983422900E+01  0.29491325388E+01  0.36869271475E+01  0.00000000000E+00 0.  1.
</event>
<event>
 7    1  0.1098446E-012  0.5052886E+02  0.7816164E-02  0.1300439E+00
        -11   -1    0    0    0    0  0.00000000000E+00  0.00000000000E+00  0.45593999997E+02  0.45594000000E+02  0.51100000000E-03 0. -1.
         11   -1    0    0    0    0 -0.00000000000E+00 -0.00000000000E+00 -0.45593999997E+02  0.45594000000E+02  0.51100000000E-03 0.  1.
    9900012    2    1    2    0    0 -0.74757329023E+01  0.29564997942E+02  0.26892186342E+02  0.50528863610E+02  0.30000011429E+02 0.  0.
        -12    1    1    2    0    0  0.74757329023E+01 -0.29564997942E+02 -0.26892186342E+02  0.40659136390E+02  0.00000000000E+00 0.  1.
         11    1    3    3    0    0 -0.22055343169E+00  0.96459766883E+01  0.18955621196E+02  0.21269910326E+02  0.51100000000E-03 0. -1.
        -11    1    3    3    0    0 -0.13723256966E+01 -0.12573382328E+01 -0.38815468019E+01  0.43047163769E+01  0.51100000000E-03 0.  1.
         12    1    3    3    0    0 -0.58828537740E+01  0.21176359486E+02  0.11818111948E+02  0.24954236907E+02  0.00000000000E+00 0. -1.
</event>
<event>
 7    1  0.1098446E-012  0.5052887E+02  0.7816164E-02  0.1300439E+00
        -11   -1    0    0    0    0  0.00000000000E+00  0.00000000000E+00  0.45593999997E+02  0.45594000000E+02  0.51100000000E-03 0. -1.
         11   -1    0    0    0    0 -0.00000000000E+00 -0.00000000000E+00 -0.45593999997E+02  0.45594000000E+02  0.51100000000E-03 0.  1.
    9900012    2    1    2    0    0  0.28853841763E+02  0.14422107659E+02 -0.24751238352E+02  0.50528866048E+02  0.30000018839E+02 0.  0.
        -12    1    1    2    0    0 -0.28853841763E+02 -0.14422107659E+02  0.24751238352E+02  0.40659133952E+02  0.00000000000E+00 0.  1.
         11    1    3    3    0    0  0.92889698056E+01  0.16746204856E+01 -0.30620332725E+01  0.99229714221E+01  0.51100000000E-03 0. -1.
        -11    1    3    3    0    0 -0.34037435791E+01 -0.43818605740E+01 -0.22825737331E+01  0.59996929546E+01  0.51100000000E-03 0.  1.
        -12    1    3    3    0    0  0.22968615536E+02  0.17129347747E+02 -0.19406631346E+02  0.34606201671E+02  0.00000000000E+00 0.  1.
</event>
<event>
 7    1  0.1098446E-012  0.5052885E+02  0.7816164E-02  0.1300439E+00
        -11   -1    0    0    0    0  0.00000000000E+00  0.00000000000E+00  0.45593999997E+02  0.45594000000E+02  0.51100000000E-03 0.  1.
         11   -1    0    0    0    0 -0.00000000000E+00 -0.00000000000E+00 -0.45593999997E+02  0.45594000000E+02  0.51100000000E-03 0. -1.
    9900012    2    1    2    0    0  0.34019167436E+02  0.27130214635E+00 -0.22266319808E+02  0.50528851513E+02  0.29999974658E+02 0.  0.
        -12    1    1    2    0    0 -0.34019167436E+02 -0.27130214635E+00  0.22266319808E+02  0.40659148487E+02  0.00000000000E+00 0.  1.
         11    1    3    3    0    0  0.12085512931E+02 -0.64041183258E+01 -0.86512677226E+01  0.16183843419E+02  0.51100000000E-03 0. -1.
        -11    1    3    3    0    0  0.27365340266E+01  0.10936231603E+02 -0.82263719383E+01  0.13955750631E+02  0.51100000000E-03 0.  1.
        -12    1    3    3    0    0  0.19197120479E+02 -0.42608111305E+01 -0.53886801475E+01  0.20389257463E+02  0.00000000000E+00 0.  1.
</event>
<event>
 7    1  0.1098446E-012  0.5052886E+02  0.7816164E-02  0.1300439E+00
        -11   -1    0    0    0    0  0.00000000000E+00  0.00000000000E+00  0.45593999997E+02  0.45594000000E+02  0.51100000000E-03 0.  1.
         11   -1    0    0    0    0 -0.00000000000E+00 -0.00000000000E+00 -0.45593999997E+02  0.45594000000E+02  0.51100000000E-03 0. -1.
    9900012    2    1    2    0    0  0.18692670203E+01 -0.33218946758E+02 -0.23370349078E+02  0.50528858360E+02  0.29999995470E+02 0.  0.
        -12    1    1    2    0    0 -0.18692670203E+01  0.33218946758E+02  0.23370349078E+02  0.40659141640E+02  0.00000000000E+00 0.  1.
         11    1    3    3    0    0 -0.19910014675E+01 -0.16704426488E+02 -0.32851207711E+01  0.17140419186E+02  0.51100000000E-03 0. -1.
        -11    1    3    3    0    0  0.93928775721E+01 -0.15290772316E+02 -0.21027840207E+02  0.27644238661E+02  0.51100000000E-03 0.  1.
        -12    1    3    3    0    0 -0.55326090843E+01 -0.12237479540E+01  0.94261190004E+00  0.57442005126E+01  0.00000000000E+00 0.  1.
</event>
<event>
 7    1  0.1098446E-012  0.5052884E+02  0.7816164E-02  0.1300439E+00
        -11   -1    0    0    0    0  0.00000000000E+00  0.00000000000E+00  0.45593999997E+02  0.45594000000E+02  0.51100000000E-03 0. -1.
         11   -1    0    0    0    0 -0.00000000000E+00 -0.00000000000E+00 -0.45593999997E+02  0.45594000000E+02  0.51100000000E-03 0.  1.
    9900012    2    1    2    0    0  0.34747445260E+02 -0.17100204618E+01 -0.21044191087E+02  0.50528842353E+02  0.29999946815E+02 0.  0.
        -12    1    1    2    0    0 -0.34747445260E+02  0.17100204618E+01  0.21044191087E+02  0.40659157647E+02  0.00000000000E+00 0.  1.
         11    1    3    3    0    0  0.10811770147E+02 -0.55609710027E+01 -0.40058206022E+01  0.12800991023E+02  0.51100000000E-03 0. -1.
        -11    1    3    3    0    0  0.94076168353E+01  0.56954039765E+01 -0.19965131496E+02  0.22793581484E+02  0.51100000000E-03 0.  1.
        -12    1    3    3    0    0  0.14528058278E+02 -0.18444534356E+01  0.29267610109E+01  0.14934269845E+02  0.00000000000E+00 0.  1.
</event>
<event>
 7    1  0.1098446E-012  0.5052886E+02  0.7816164E-02  0.1300439E+00
        -11   -1    0    0    0    0  0.00000000000E+00  0.00000000000E+00  0.45593999997E+02  0.45594000000E+02  0.51100000000E-03 0.  1.
         11   -1    0    0    0    0 -0.00000000000E+00 -0.00000000000E+00 -0.45593999997E+02  0.45594000000E+02  0.51100000000E-03 0. -1.
    9900012    2    1    2    0    0 -0.27302783486E+02  0.29443167657E+02 -0.63893591536E+01  0.50528855664E+02  0.29999987276E+02 0.  0.
        -12    1    1    2    0    0  0.27302783486E+02 -0.29443167657E+02  0.63893591536E+01  0.40659144336E+02  0.00000000000E+00 0.  1.
         11    1    3    3    0    0 -0.51129215865E+01  0.11148107304E+02 -0.15585038286E+01  0.12363300451E+02  0.51100000000E-03 0. -1.
        -11    1    3    3    0    0 -0.31684750586E+01 -0.49150228930E+01 -0.56698078091E+01  0.81451461060E+01  0.51100000000E-03 0.  1.
        -12    1    3    3    0    0 -0.19021386841E+02  0.23210083246E+02  0.83895248407E+00  0.30020409106E+02  0.00000000000E+00 0.  1.
</event>
<event>
 7    1  0.1098446E-012  0.5052886E+02  0.7816164E-02  0.1300439E+00
        -11   -1    0    0    0    0  0.00000000000E+00  0.00000000000E+00  0.45593999997E+02  0.45594000000E+02  0.51100000000E-03 0.  1.
         11   -1    0    0    0    0 -0.00000000000E+00 -0.00000000000E+00 -0.45593999997E+02  0.45594000000E+02  0.51100000000E-03 0. -1.
    9900012    2    1    2    0    0 -0.34958151937E+02  0.84398795065E+01 -0.18970015052E+02  0.50528862970E+02  0.30000009485E+02 0.  0.
        -12    1    1    2    0    0  0.34958151937E+02 -0.84398795065E+01  0.18970015052E+02  0.40659137030E+02  0.00000000000E+00 0.  1.
         11    1    3    3    0    0 -0.24925413889E+02  0.65818333712E+01 -0.24866895041E+02  0.35818420642E+02  0.51100000000E-03 0. -1.
        -11    1    3    3    0    0 -0.72916239368E+01 -0.29259939976E+01  0.43650098493E+01  0.89879103108E+01  0.51100000000E-03 0.  1.
         12    1    3    3    0    0 -0.27411141108E+01  0.47840401330E+01  0.15318701398E+01  0.57225320172E+01  0.00000000000E+00 0. -1.
</event>
<event>
 7    1  0.1098446E-012  0.5052886E+02  0.7816164E-02  0.1300439E+00
        -11   -1    0    0    0    0  0.00000000000E+00  0.00000000000E+00  0.45593999997E+02  0.45594000000E+02  0.51100000000E-03 0.  1.
         11   -1    0    0    0    0 -0.00000000000E+00 -0.00000000000E+00 -0.45593999997E+02  0.45594000000E+02  0.51100000000E-03 0. -1.
    9900012    2    1    2    0    0 -0.36045109411E+01 -0.25027565912E+02 -0.31840130617E+02  0.50528862377E+02  0.30000007680E+02 0.  0.
        -12    1    1    2    0    0  0.36045109411E+01  0.25027565912E+02  0.31840130617E+02  0.40659137623E+02  0.00000000000E+00 0.  1.
         11    1    3    3    0    0  0.56347192142E+00 -0.74917346416E+00 -0.34406135288E+01  0.35660318564E+01  0.51100000000E-03 0. -1.
        -11    1    3    3    0    0  0.48075551635E+01 -0.18224935681E+02 -0.30577348752E+02  0.35919843042E+02  0.51100000000E-03 0.  1.
        -12    1    3    3    0    0 -0.89755380260E+01 -0.60534567661E+01  0.21778316638E+01  0.11042987478E+02  0.00000000000E+00 0.  1.
</event>
<event>
 7    1  0.1098446E-012  0.5052882E+02  0.7816164E-02  0.1300439E+00
        -11   -1    0    0    0    0  0.00000000000E+00  0.00000000000E+00  0.45593999997E+02  0.45594000000E+02  0.51100000000E-03 0.  1.
         11   -1    0    0    0    0 -0.00000000000E+00 -0.00000000000E+00 -0.45593999997E+02  0.45594000000E+02  0.51100000000E-03 0. -1.
    9900012    2    1    2    0    0 -0.38422121444E+02  0.10430869742E+02  0.82526584598E+01  0.50528821067E+02  0.29999882116E+02 0.  0.
        -12    1    1    2    0    0  0.38422121444E+02 -0.10430869742E+02 -0.82526584598E+01  0.40659178933E+02  0.00000000000E+00 0.  1.
         11    1    3    3    0    0  0.11297964876E+01 -0.24713032152E+01 -0.50685880133E+01  0.57510315939E+01  0.51100000000E-03 0.  1.
        -11    1    3    3    0    0 -0.26958244840E+02  0.59228610933E+01  0.47080608344E+01  0.27999876526E+02  0.51100000000E-03 0. -1.
         12    1    3    3    0    0 -0.12593673091E+02  0.69793118634E+01  0.86131856387E+01  0.16777912947E+02  0.00000000000E+00 0. -1.
</event>
<event>
 7    1  0.1098446E-012  0.5052885E+02  0.7816164E-02  0.1300439E+00
        -11   -1    0    0    0    0  0.00000000000E+00  0.00000000000E+00  0.45593999997E+02  0.45594000000E+02  0.51100000000E-03 0.  1.
         11   -1    0    0    0    0 -0.00000000000E+00 -0.00000000000E+00 -0.45593999997E+02  0.45594000000E+02  0.51100000000E-03 0. -1.
    9900012    2    1    2    0    0  0.18733695153E+02 -0.18546052033E+01 -0.36038525617E+02  0.50528853142E+02  0.29999979612E+02 0.  0.
        -12    1    1    2    0    0 -0.18733695153E+02  0.18546052033E+01  0.36038525617E+02  0.40659146858E+02  0.00000000000E+00 0.  1.
         11    1    3    3    0    0  0.69597771439E+01  0.23952666333E+01 -0.14073383415E+02  0.15881936946E+02  0.51100000000E-03 0. -1.
        -11    1    3    3    0    0  0.85329882505E+01 -0.14063113144E+02 -0.13958946671E+02  0.21573947998E+02  0.51100000000E-03 0.  1.
        -12    1    3    3    0    0  0.32409297589E+01  0.98132413074E+01 -0.80061955307E+01  0.13072968199E+02  0.00000000000E+00 0.  1.
</event>
<event>
 7    1  0.1098446E-012  0.5052889E+02  0.7816164E-02  0.1300439E+00
        -11   -1    0    0    0    0  0.00000000000E+00  0.00000000000E+00  0.45593999997E+02  0.45594000000E+02  0.51100000000E-03 0.  1.
         11   -1    0    0    0    0 -0.00000000000E+00 -0.00000000000E+00 -0.45593999997E+02  0.45594000000E+02  0.51100000000E-03 0. -1.
    9900012    2    1    2    0    0  0.26953073578E+02  0.23870739123E+02 -0.18891336546E+02  0.50528893295E+02  0.30000101659E+02 0.  0.
        -12    1    1    2    0    0 -0.26953073578E+02 -0.23870739123E+02  0.18891336546E+02  0.40659106705E+02  0.00000000000E+00 0.  1.
         11    1    3    3    0    0  0.13197985628E+02  0.21185539015E+02 -0.17052761662E+02  0.30229299836E+02  0.51100000000E-03 0. -1.
        -11    1    3    3    0    0  0.12137128033E+02 -0.28980017272E+01  0.28873143395E+01  0.12808000440E+02  0.51100000000E-03 0.  1.
        -12    1    3    3    0    0  0.16179599172E+01  0.55832018345E+01 -0.47258892229E+01  0.74915930192E+01  0.00000000000E+00 0.  1.
</event>
<event>
 7    1  0.1098446E-012  0.5052890E+02  0.7816164E-02  0.1300439E+00
        -11   -1    0    0    0    0  0.00000000000E+00  0.00000000000E+00  0.45593999997E+02  0.45594000000E+02  0.51100000000E-03 0.  1.
         11   -1    0    0    0    0 -0.00000000000E+00 -0.00000000000E+00 -0.45593999997E+02  0.45594000000E+02  0.51100000000E-03 0. -1.
    9900012    2    1    2    0    0  0.28911792377E+02  0.89253684211E+01 -0.27158943056E+02  0.50528903505E+02  0.30000132694E+02 0.  0.
        -12    1    1    2    0    0 -0.28911792377E+02 -0.89253684211E+01  0.27158943056E+02  0.40659096495E+02  0.00000000000E+00 0.  1.
         11    1    3    3    0    0  0.28542414630E+02  0.11827413634E+02 -0.27908382910E+02  0.41634540746E+02  0.51100000000E-03 0. -1.
        -11    1    3    3    0    0  0.40392460553E+01 -0.12055777513E+01  0.19953586239E+01  0.46637305570E+01  0.51100000000E-03 0.  1.
         12    1    3    3    0    0 -0.36698683087E+01 -0.16964674617E+01 -0.12459187696E+01  0.42306322025E+01  0.00000000000E+00 0. -1.
</event>
<event>
 7    1  0.1098446E-012  0.5052876E+02  0.7816164E-02  0.1300439E+00
        -11   -1    0    0    0    0  0.00000000000E+00  0.00000000000E+00  0.45593999997E+02  0.45594000000E+02  0.51100000000E-03 0. -1.
         11   -1    0    0    0    0 -0.00000000000E+00 -0.00000000000E+00 -0.45593999997E+02  0.45594000000E+02  0.51100000000E-03 0.  1.
    9900012    2    1    2    0    0 -0.16839333148E+02  0.45272753582E+01  0.36730290316E+02  0.50528762554E+02  0.29999704257E+02 0.  0.
        -12    1    1    2    0    0  0.16839333148E+02 -0.45272753582E+01 -0.36730290316E+02  0.40659237446E+02  0.00000000000E+00 0.  1.
         11    1    3    3    0    0 -0.61819501694E+01 -0.55403505842E+01  0.31041450641E+02  0.32132283620E+02  0.51100000000E-03 0.  1.
        -11    1    3    3    0    0 -0.92746221676E-01  0.43203452180E+01 -0.12667826767E+01  0.45031903441E+01  0.51100000000E-03 0. -1.
        -12    1    3    3    0    0 -0.10564636757E+02  0.57472807244E+01  0.69556223512E+01  0.13893288589E+02  0.00000000000E+00 0.  1.
</event>
<event>
 7    1  0.1098446E-012  0.5052886E+02  0.7816164E-02  0.1300439E+00
        -11   -1    0    0    0    0  0.00000000000E+00  0.00000000000E+00  0.45593999997E+02  0.45594000000E+02  0.51100000000E-03 0.  1.
         11   -1    0    0    0    0 -0.00000000000E+00 -0.00000000000E+00 -0.45593999997E+02  0.45594000000E+02  0.51100000000E-03 0. -1.
    9900012    2    1    2    0    0  0.30399274931E+02 -0.24919490872E+02  0.10395602177E+02  0.50528862205E+02  0.30000007159E+02 0.  0.
        -12    1    1    2    0    0 -0.30399274931E+02  0.24919490872E+02 -0.10395602177E+02  0.40659137795E+02  0.00000000000E+00 0.  1.
         11    1    3    3    0    0  0.25606163302E+02 -0.57180240324E+01  0.75149249272E+01  0.27291857665E+02  0.51100000000E-03 0. -1.
        -11    1    3    3    0    0 -0.88480264023E+00 -0.11122364205E+02 -0.32409842681E+01  0.11618684973E+02  0.51100000000E-03 0.  1.
        -12    1    3    3    0    0  0.56779142685E+01 -0.80791026342E+01  0.61216615179E+01  0.11618319567E+02  0.00000000000E+00 0.  1.
</event>
<event>
 7    1  0.1098446E-012  0.5052884E+02  0.7816164E-02  0.1300439E+00
        -11   -1    0    0    0    0  0.00000000000E+00  0.00000000000E+00  0.45593999997E+02  0.45594000000E+02  0.51100000000E-03 0.  1.
         11   -1    0    0    0    0 -0.00000000000E+00 -0.00000000000E+00 -0.45593999997E+02  0.45594000000E+02  0.51100000000E-03 0. -1.
    9900012    2    1    2    0    0 -0.32822714060E+02  0.55844074316E-01 -0.23996532497E+02  0.50528840531E+02  0.29999941278E+02 0.  0.
        -12    1    1    2    0    0  0.32822714060E+02 -0.55844074316E-01  0.23996532497E+02  0.40659159469E+02  0.00000000000E+00 0.  1.
         11    1    3    3    0    0 -0.83680561079E+01  0.94824099599E+01 -0.93262138974E+01  0.15713647813E+02  0.51100000000E-03 0. -1.
        -11    1    3    3    0    0 -0.15191236202E+02 -0.76605260364E+01  0.42225673637E+00  0.17018684365E+02  0.51100000000E-03 0.  1.
        -12    1    3    3    0    0 -0.92634217503E+01 -0.17660398491E+01 -0.15092575336E+02  0.17796508353E+02  0.00000000000E+00 0.  1.
</event>
<event>
 7    1  0.1098446E-012  0.5052891E+02  0.7816164E-02  0.1300439E+00
        -11   -1    0    0    0    0  0.00000000000E+00  0.00000000000E+00  0.45593999997E+02  0.45594000000E+02  0.51100000000E-03 0.  1.
         11   -1    0    0    0    0 -0.00000000000E+00 -0.00000000000E+00 -0.45593999997E+02  0.45594000000E+02  0.51100000000E-03 0. -1.
    9900012    2    1    2    0    0  0.31793130158E+02 -0.19047504249E+01 -0.25273120381E+02  0.50528907373E+02  0.30000144452E+02 0.  0.
        -12    1    1    2    0    0 -0.31793130158E+02  0.19047504249E+01  0.25273120381E+02  0.40659092627E+02  0.00000000000E+00 0.  1.
         11    1    3    3    0    0  0.29716069230E+01 -0.84188439204E+01 -0.15317777986E+02  0.17729684243E+02  0.51100000000E-03 0. -1.
        -11    1    3    3    0    0  0.19480587405E+02 -0.62452593388E+00 -0.64903164821E+01  0.20542821778E+02  0.51100000000E-03 0.  1.
        -12    1    3    3    0    0  0.93409358302E+01  0.71386194294E+01 -0.34650259121E+01  0.12256401352E+02  0.00000000000E+00 0.  1.
</event>
<event>
 7    1  0.1098446E-012  0.5052886E+02  0.7816164E-02  0.1300439E+00
        -11   -1    0    0    0    0  0.00000000000E+00  0.00000000000E+00  0.45593999997E+02  0.45594000000E+02  0.51100000000E-03 0. -1.
         11   -1    0    0    0    0 -0.00000000000E+00 -0.00000000000E+00 -0.45593999997E+02  0.45594000000E+02  0.51100000000E-03 0.  1.
    9900012    2    1    2    0    0 -0.13603207223E+02  0.35409783583E+02  0.14637827487E+02  0.50528855718E+02  0.29999987442E+02 0.  0.
        -12    1    1    2    0    0  0.13603207223E+02 -0.35409783583E+02 -0.14637827487E+02  0.40659144282E+02  0.00000000000E+00 0.  1.
         11    1    3    3    0    0 -0.52194369545E+01  0.31443601467E+02  0.98086737462E+01  0.33348953151E+02  0.51100000000E-03 0. -1.
        -11    1    3    3    0    0 -0.68758368134E+01 -0.54591129296E+00 -0.33882233719E+01  0.76847387010E+01  0.51100000000E-03 0.  1.
         12    1    3    3    0    0 -0.15079334554E+01  0.45120934090E+01  0.82173771128E+01  0.94951638665E+01  0.00000000000E+00 0. -1.
</event>
<event>
 7    1  0.1098446E-012  0.5052886E+02  0.7816164E-02  0.1300439E+00
        -11   -1    0    0    0    0  0.00000000000E+00  0.00000000000E+00  0.45593999997E+02  0.45594000000E+02  0.51100000000E-03 0. -1.
         11   -1    0    0    0    0 -0.00000000000E+00 -0.00000000000E+00 -0.45593999997E+02  0.45594000000E+02  0.51100000000E-03 0.  1.
    9900012    2    1    2    0    0  0.20825009095E+02 -0.34531974245E+02  0.51988115490E+01  0.50528857233E+02  0.29999992044E+02 0.  0.
        -12    1    1    2    0    0 -0.20825009095E+02  0.34531974245E+02 -0.51988115490E+01  0.40659142767E+02  0.00000000000E+00 0.  1.
         11    1    3    3    0    0  0.23424353192E+01 -0.69846254059E+01  0.10595684284E+02  0.12905057961E+02  0.51100000000E-03 0. -1.
        -11    1    3    3    0    0  0.20967126981E+02 -0.24175948219E+02 -0.76001001333E+01  0.32891616081E+02  0.51100000000E-03 0.  1.
        -12    1    3    3    0    0 -0.24845532056E+01 -0.33714006199E+01  0.22032273985E+01  0.47321831898E+01  0.00000000000E+00 0.  1.
</event>
<event>
 7    1  0.1098446E-012  0.5052886E+02  0.7816164E-02  0.1300439E+00
        -11   -1    0    0    0    0  0.00000000000E+00  0.00000000000E+00  0.45593999997E+02  0.45594000000E+02  0.51100000000E-03 0.  1.
         11   -1    0    0    0    0 -0.00000000000E+00 -0.00000000000E+00 -0.45593999997E+02  0.45594000000E+02  0.51100000000E-03 0. -1.
    9900012    2    1    2    0    0  0.11706897937E+01  0.17847941025E+02 -0.36513640217E+02  0.50528862831E+02  0.30000009061E+02 0.  0.
        -12    1    1    2    0    0 -0.11706897937E+01 -0.17847941025E+02  0.36513640217E+02  0.40659137169E+02  0.00000000000E+00 0.  1.
         11    1    3    3    0    0  0.48885110648E+01 -0.54834226367E+01 -0.17110654953E+02  0.18620955331E+02  0.51100000000E-03 0. -1.
        -11    1    3    3    0    0  0.11928683340E+01  0.10397643425E+02 -0.40002572221E+01  0.11204284081E+02  0.51100000000E-03 0.  1.
         12    1    3    3    0    0 -0.49106896051E+01  0.12933720237E+02 -0.15402728042E+02  0.20703623419E+02  0.00000000000E+00 0. -1.
</event>
<event>
 7    1  0.1098446E-012  0.5052885E+02  0.7816164E-02  0.1300439E+00
        -11   -1    0    0    0    0  0.00000000000E+00  0.00000000000E+00  0.45593999997E+02  0.45594000000E+02  0.51100000000E-03 0.  1.
         11   -1    0    0    0    0 -0.00000000000E+00 -0.00000000000E+00 -0.45593999997E+02  0.45594000000E+02  0.51100000000E-03 0. -1.
    9900012    2    1    2    0    0 -0.26081752596E+02  0.11970841298E+02 -0.28802916491E+02  0.50528845333E+02  0.29999955874E+02 0.  0.
        -12    1    1    2    0    0  0.26081752596E+02 -0.11970841298E+02  0.28802916491E+02  0.40659154667E+02  0.00000000000E+00 0.  1.
         11    1    3    3    0    0 -0.14086071144E+02  0.11670555931E+02 -0.20037230442E+02  0.27131344973E+02  0.51100000000E-03 0. -1.
        -11    1    3    3    0    0 -0.86375779377E+01 -0.83844502426E+01 -0.69846559054E+01  0.13917333684E+02  0.51100000000E-03 0.  1.
         12    1    3    3    0    0 -0.33581035144E+01  0.86847356095E+01 -0.17810301433E+01  0.94801666753E+01  0.00000000000E+00 0. -1.
</event>
<event>
 7    1  0.1098446E-012  0.5052886E+02  0.7816164E-02  0.1300439E+00
        -11   -1    0    0    0    0  0.00000000000E+00  0.00000000000E+00  0.45593999997E+02  0.45594000000E+02  0.51100000000E-03 0.  1.
         11   -1    0    0    0    0 -0.00000000000E+00 -0.00000000000E+00 -0.45593999997E+02  0.45594000000E+02  0.51100000000E-03 0. -1.
    9900012    2    1    2    0    0 -0.22971690545E+02  0.31651305930E+02  0.11120341754E+02  0.50528859154E+02  0.29999997886E+02 0.  0.
        -12    1    1    2    0    0  0.22971690545E+02 -0.31651305930E+02 -0.11120341754E+02  0.40659140846E+02  0.00000000000E+00 0.  1.
         11    1    3    3    0    0 -0.14107828114E+02  0.20093429091E+02  0.21055069413E+02  0.32343355654E+02  0.51100000000E-03 0. -1.
        -11    1    3    3    0    0 -0.49289977298E+01  0.32937351360E+01 -0.51729927264E+01  0.78678817845E+01  0.51100000000E-03 0.  1.
         12    1    3    3    0    0 -0.39348647014E+01  0.82641417029E+01 -0.47617349322E+01  0.10317621716E+02  0.00000000000E+00 0. -1.
</event>
<event>
 7    1  0.1098446E-012  0.5052886E+02  0.7816164E-02  0.1300439E+00
        -11   -1    0    0    0    0  0.00000000000E+00  0.00000000000E+00  0.45593999997E+02  0.45594000000E+02  0.51100000000E-03 0.  1.
         11   -1    0    0    0    0 -0.00000000000E+00 -0.00000000000E+00 -0.45593999997E+02  0.45594000000E+02  0.51100000000E-03 0. -1.
    9900012    2    1    2    0    0  0.10290224365E+02 -0.22283048124E+02 -0.32415159202E+02  0.50528862069E+02  0.30000006746E+02 0.  0.
        -12    1    1    2    0    0 -0.10290224365E+02  0.22283048124E+02  0.32415159202E+02  0.40659137931E+02  0.00000000000E+00 0.  1.
         11    1    3    3    0    0  0.18391704524E+02 -0.14429718922E+02 -0.10886498464E+02  0.25787350242E+02  0.51100000000E-03 0. -1.
        -11    1    3    3    0    0 -0.54087357979E+01 -0.35410954844E+01 -0.79777419051E+01  0.10268307861E+02  0.51100000000E-03 0.  1.
         12    1    3    3    0    0 -0.26927443611E+01 -0.43122337181E+01 -0.13550918833E+02  0.14473203966E+02  0.00000000000E+00 0. -1.
</event>
<event>
 7    1  0.1098446E-012  0.5052876E+02  0.7816164E-02  0.1300439E+00
        -11   -1    0    0    0    0  0.00000000000E+00  0.00000000000E+00  0.45593999997E+02  0.45594000000E+02  0.51100000000E-03 0. -1.
         11   -1    0    0    0    0 -0.00000000000E+00 -0.00000000000E+00 -0.45593999997E+02  0.45594000000E+02  0.51100000000E-03 0.  1.
    9900012    2    1    2    0    0  0.71733354034E+01 -0.24254767596E+02  0.31834311681E+02  0.50528758835E+02  0.29999692953E+02 0.  0.
        -12    1    1    2    0    0 -0.71733354034E+01  0.24254767596E+02 -0.31834311681E+02  0.40659241165E+02  0.00000000000E+00 0.  1.
         11    1    3    3    0    0  0.34492367991E+01 -0.17268663187E+02  0.36869334509E+02  0.40858925465E+02  0.51100000000E-03 0. -1.
        -11    1    3    3    0    0  0.38534699143E+01 -0.52797895478E+01 -0.38162196567E+01  0.75689458168E+01  0.51100000000E-03 0.  1.
         12    1    3    3    0    0 -0.12937130993E+00 -0.17063148614E+01 -0.12188031710E+01  0.21008875534E+01  0.00000000000E+00 0. -1.
</event>
<event>
 7    1  0.1098446E-012  0.5052885E+02  0.7816164E-02  0.1300439E+00
        -11   -1    0    0    0    0  0.00000000000E+00  0.00000000000E+00  0.45593999997E+02  0.45594000000E+02  0.51100000000E-03 0.  1.
         11   -1    0    0    0    0 -0.00000000000E+00 -0.00000000000E+00 -0.45593999997E+02  0.45594000000E+02  0.51100000000E-03 0. -1.
    9900012    2    1    2    0    0  0.73949529829E+01 -0.13433151472E+02 -0.37656756147E+02  0.50528853777E+02  0.29999981540E+02 0.  0.
        -12    1    1    2    0    0 -0.73949529829E+01  0.13433151472E+02  0.37656756147E+02  0.40659146223E+02  0.00000000000E+00 0.  1.
         11    1    3    3    0    0 -0.24600779327E+01 -0.22813329711E+01 -0.12481061980E+02  0.12924139119E+02  0.51100000000E-03 0. -1.
        -11    1    3    3    0    0  0.35793447591E+01 -0.13849133809E+02 -0.32898351501E+01  0.14677643944E+02  0.51100000000E-03 0.  1.
        -12    1    3    3    0    0  0.62756861565E+01  0.26973153082E+01 -0.21885859017E+02  0.22927070714E+02  0.00000000000E+00 0.  1.
</event>
<event>
 7    1  0.1098446E-012  0.5052887E+02  0.7816164E-02  0.1300439E+00
        -11   -1    0    0    0    0  0.00000000000E+00  0.00000000000E+00  0.45593999997E+02  0.45594000000E+02  0.51100000000E-03 0. -1.
         11   -1    0    0    0    0 -0.00000000000E+00 -0.00000000000E+00 -0.45593999997E+02  0.45594000000E+02  0.51100000000E-03 0.  1.
    9900012    2    1    2    0    0 -0.30554031721E+02 -0.22646094692E+02 -0.14379519720E+02  0.50528867612E+02  0.30000023593E+02 0.  0.
        -12    1    1    2    0    0  0.30554031721E+02  0.22646094692E+02  0.14379519720E+02  0.40659132388E+02  0.00000000000E+00 0.  1.
         11    1    3    3    0    0 -0.17651807923E+02 -0.14680798584E+02 -0.14849589088E+02  0.27342685792E+02  0.51100000000E-03 0. -1.
        -11    1    3    3    0    0 -0.49510058357E+01 -0.39510437630E+01  0.88989664278E+01  0.10923131847E+02  0.51100000000E-03 0.  1.
        -12    1    3    3    0    0 -0.79512179618E+01 -0.40142523450E+01 -0.84288970606E+01  0.12263049972E+02  0.00000000000E+00 0.  1.
</event>
<event>
 7    1  0.1098446E-012  0.5052885E+02  0.7816164E-02  0.1300439E+00
        -11   -1    0    0    0    0  0.00000000000E+00  0.00000000000E+00  0.45593999997E+02  0.45594000000E+02  0.51100000000E-03 0. -1.
         11   -1    0    0    0    0 -0.00000000000E+00 -0.00000000000E+00 -0.45593999997E+02  0.45594000000E+02  0.51100000000E-03 0.  1.
    9900012    2    1    2    0    0 -0.97517869882E+01  0.23968710854E+02  0.31361915511E+02  0.50528853502E+02  0.29999980704E+02 0.  0.
        -12    1    1    2    0    0  0.97517869882E+01 -0.23968710854E+02 -0.31361915511E+02  0.40659146498E+02  0.00000000000E+00 0.  1.
         11    1    3    3    0    0 -0.37586772311E+01  0.18696013738E+02  0.98996971759E+01  0.21486567633E+02  0.51100000000E-03 0. -1.
        -11    1    3    3    0    0 -0.12160202798E+02  0.13081547572E+01  0.13128414847E+02  0.17942605096E+02  0.51100000000E-03 0.  1.
        -12    1    3    3    0    0  0.61670930412E+01  0.39645423590E+01  0.83338034877E+01  0.11099680773E+02  0.00000000000E+00 0.  1.
</event>
<event>
 7    1  0.1098446E-012  0.5052887E+02  0.7816164E-02  0.1300439E+00
        -11   -1    0    0    0    0  0.00000000000E+00  0.00000000000E+00  0.45593999997E+02  0.45594000000E+02  0.51100000000E-03 0. -1.
         11   -1    0    0    0    0 -0.00000000000E+00 -0.00000000000E+00 -0.45593999997E+02  0.45594000000E+02  0.51100000000E-03 0.  1.
    9900012    2    1    2    0    0 -0.15684150482E+02 -0.35601464357E+02  0.11819818163E+02  0.50528868896E+02  0.30000027496E+02 0.  0.
        -12    1    1    2    0    0  0.15684150482E+02  0.35601464357E+02 -0.11819818163E+02  0.40659131104E+02  0.00000000000E+00 0.  1.
         11    1    3    3    0    0 -0.96231456620E+01  0.50535918719E+00 -0.31658599393E+01  0.10143125246E+02  0.51100000000E-03 0. -1.
        -11    1    3    3    0    0 -0.80532248218E+01 -0.30101418135E+02  0.12883182300E+02  0.33718336113E+02  0.51100000000E-03 0.  1.
        -12    1    3    3    0    0  0.19922200016E+01 -0.60054054092E+01  0.21024958019E+01  0.66674075367E+01  0.00000000000E+00 0.  1.
</event>
<event>
 7    1  0.1098446E-012  0.5052888E+02  0.7816164E-02  0.1300439E+00
        -11   -1    0    0    0    0  0.00000000000E+00  0.00000000000E+00  0.45593999997E+02  0.45594000000E+02  0.51100000000E-03 0.  1.
         11   -1    0    0    0    0 -0.00000000000E+00 -0.00000000000E+00 -0.45593999997E+02  0.45594000000E+02  0.51100000000E-03 0. -1.
    9900012    2    1    2    0    0 -0.31826839176E+02  0.21471453675E+02 -0.13386297219E+02  0.50528880874E+02  0.30000063905E+02 0.  0.
        -12    1    1    2    0    0  0.31826839176E+02 -0.21471453675E+02  0.13386297219E+02  0.40659119126E+02  0.00000000000E+00 0.  1.
         11    1    3    3    0    0 -0.25268512800E+02  0.19558490479E+02 -0.73980590363E+00  0.31962158907E+02  0.51100000000E-03 0. -1.
        -11    1    3    3    0    0 -0.32393723664E+01  0.49902454967E+01 -0.94969092545E+00  0.60247818683E+01  0.51100000000E-03 0.  1.
         12    1    3    3    0    0 -0.33189540091E+01 -0.30772823005E+01 -0.11696800390E+02  0.12541940099E+02  0.00000000000E+00 0. -1.
</event>
<event>
 7    1  0.1098446E-012  0.5052885E+02  0.7816164E-02  0.1300439E+00
        -11   -1    0    0    0    0  0.00000000000E+00  0.00000000000E+00  0.45593999997E+02  0.45594000000E+02  0.51100000000E-03 0. -1.
         11   -1    0    0    0    0 -0.00000000000E+00 -0.00000000000E+00 -0.45593999997E+02  0.45594000000E+02  0.51100000000E-03 0.  1.
    9900012    2    1    2    0    0  0.36257557995E+02 -0.17399991556E+02  0.59830020115E+01  0.50528849358E+02  0.29999968108E+02 0.  0.
        -12    1    1    2    0    0 -0.36257557995E+02  0.17399991556E+02 -0.59830020115E+01  0.40659150642E+02  0.00000000000E+00 0.  1.
         11    1    3    3    0    0  0.81192246368E+00 -0.91142906012E+01  0.68706438631E+01  0.11442694552E+02  0.51100000000E-03 0. -1.
        -11    1    3    3    0    0  0.34688666896E+02 -0.10891346864E+02 -0.67651614393E+00  0.36364580596E+02  0.51100000000E-03 0.  1.
        -12    1    3    3    0    0  0.75696863490E+00  0.26056459093E+01 -0.21112570764E+00  0.27215742105E+01  0.00000000000E+00 0.  1.
</event>
<event>
 7    1  0.1098446E-012  0.5052886E+02  0.7816164E-02  0.1300439E+00
        -11   -1    0    0    0    0  0.00000000000E+00  0.00000000000E+00  0.45593999997E+02  0.45594000000E+02  0.51100000000E-03 0. -1.
         11   -1    0    0    0    0 -0.00000000000E+00 -0.00000000000E+00 -0.45593999997E+02  0.45594000000E+02  0.51100000000E-03 0.  1.
    9900012    2    1    2    0    0 -0.38978645590E+02 -0.71343443453E+01  0.91066849381E+01  0.50528863365E+02  0.30000010686E+02 0.  0.
        -12    1    1    2    0    0  0.38978645590E+02  0.71343443453E+01 -0.91066849381E+01  0.40659136635E+02  0.00000000000E+00 0.  1.
         11    1    3    3    0    0 -0.14883029351E+02  0.12708349832E+01  0.31755540284E+01  0.15271009393E+02  0.51100000000E-03 0. -1.
        -11    1    3    3    0    0 -0.32006566575E+01 -0.11239518543E+01 -0.82882861037E+01  0.89556215646E+01  0.51100000000E-03 0.  1.
        -12    1    3    3    0    0 -0.20894959582E+02 -0.72812274742E+01  0.14219417013E+02  0.26302232408E+02  0.00000000000E+00 0.  1.
</event>
<event>
 7    1  0.1098446E-012  0.5052886E+02  0.7816164E-02  0.1300439E+00
        -11   -1    0    0    0    0  0.00000000000E+00  0.00000000000E+00  0.45593999997E+02  0.45594000000E+02  0.51100000000E-03 0. -1.
         11   -1    0    0    0    0 -0.00000000000E+00 -0.00000000000E+00 -0.45593999997E+02  0.45594000000E+02  0.51100000000E-03 0.  1.
    9900012    2    1    2    0    0  0.15899683865E+02  0.13719632567E+01  0.37396307139E+02  0.50528855668E+02  0.29999987288E+02 0.  0.
        -12    1    1    2    0    0 -0.15899683865E+02 -0.13719632567E+01 -0.37396307139E+02  0.40659144332E+02  0.00000000000E+00 0.  1.
         11    1    3    3    0    0  0.98279561762E+01  0.49176838488E+01  0.31993434817E+02  0.33828275284E+02  0.51100000000E-03 0. -1.
        -11    1    3    3    0    0 -0.35269953076E+01 -0.21155459187E+01 -0.19240518343E+01  0.45406173761E+01  0.51100000000E-03 0.  1.
        -12    1    3    3    0    0  0.95987229962E+01 -0.14301746734E+01  0.73269241561E+01  0.12159963007E+02  0.00000000000E+00 0.  1.
</event>
<event>
 7    1  0.1098446E-012  0.5052886E+02  0.7816164E-02  0.1300439E+00
        -11   -1    0    0    0    0  0.00000000000E+00  0.00000000000E+00  0.45593999997E+02  0.45594000000E+02  0.51100000000E-03 0.  1.
         11   -1    0    0    0    0 -0.00000000000E+00 -0.00000000000E+00 -0.45593999997E+02  0.45594000000E+02  0.51100000000E-03 0. -1.
    9900012    2    1    2    0    0  0.24343881726E+02  0.32392347914E+02 -0.33580832113E+01  0.50528861990E+02  0.30000006504E+02 0.  0.
        -12    1    1    2    0    0 -0.24343881726E+02 -0.32392347914E+02  0.33580832113E+01  0.40659138010E+02  0.00000000000E+00 0.  1.
         11    1    3    3    0    0  0.11377225280E+02  0.12435331489E+02 -0.15912981665E+02  0.23179769414E+02  0.51100000000E-03 0. -1.
        -11    1    3    3    0    0  0.78681652490E+01  0.11625894016E+02  0.10052529992E+02  0.17266232813E+02  0.51100000000E-03 0.  1.
         12    1    3    3    0    0  0.50984911974E+01  0.83311224084E+01  0.25023684620E+01  0.10082859763E+02  0.00000000000E+00 0. -1.
</event>
<event>
 7    1  0.1098446E-012  0.5052886E+02  0.7816164E-02  0.1300439E+00
        -11   -1    0    0    0    0  0.00000000000E+00  0.00000000000E+00  0.45593999997E+02  0.45594000000E+02  0.51100000000E-03 0.  1.
         11   -1    0    0    0    0 -0.00000000000E+00 -0.00000000000E+00 -0.45593999997E+02  0.45594000000E+02  0.51100000000E-03 0. -1.
    9900012    2    1    2    0    0  0.14573691096E+02 -0.23016960497E+02 -0.30182654447E+02  0.50528861149E+02  0.30000003948E+02 0.  0.
        -12    1    1    2    0    0 -0.14573691096E+02  0.23016960497E+02  0.30182654447E+02  0.40659138851E+02  0.00000000000E+00 0.  1.
         11    1    3    3    0    0  0.10473622586E+02 -0.11318897183E+02 -0.12076631028E+02  0.19587220853E+02  0.51100000000E-03 0. -1.
        -11    1    3    3    0    0 -0.20862062744E+01 -0.52470456317E+01  0.41173311866E+01  0.69882874040E+01  0.51100000000E-03 0.  1.
        -12    1    3    3    0    0  0.61862747844E+01 -0.64510176824E+01 -0.22223354605E+02  0.23953352892E+02  0.00000000000E+00 0.  1.
</event>
<event>
 7    1  0.1098446E-012  0.5052894E+02  0.7816164E-02  0.1300438E+00
        -11   -1    0    0    0    0  0.00000000000E+00  0.00000000000E+00  0.45593999997E+02  0.45594000000E+02  0.51100000000E-03 0. -1.
         11   -1    0    0    0    0 -0.00000000000E+00 -0.00000000000E+00 -0.45593999997E+02  0.45594000000E+02  0.51100000000E-03 0.  1.
    9900012    2    1    2    0    0 -0.60183333766E+01 -0.39911864356E+02  0.48970946454E+01  0.50528944563E+02  0.30000257494E+02 0.  0.
        -12    1    1    2    0    0  0.60183333766E+01  0.39911864356E+02 -0.48970946454E+01  0.40659055437E+02  0.00000000000E+00 0.  1.
         11    1    3    3    0    0  0.72907490425E+01 -0.16652865359E+02  0.11644021171E+02  0.21588334247E+02  0.51100000000E-03 0. -1.
        -11    1    3    3    0    0 -0.12187191835E+02 -0.14864206531E+02 -0.70288716073E+01  0.20466492541E+02  0.51100000000E-03 0.  1.
         12    1    3    3    0    0 -0.11218905847E+01 -0.83947924666E+01  0.28194508166E+00  0.84741177753E+01  0.00000000000E+00 0. -1.
</event>
<event>
 7    1  0.1098446E-012  0.5052886E+02  0.7816164E-02  0.1300439E+00
        -11   -1    0    0    0    0  0.00000000000E+00  0.00000000000E+00  0.45593999997E+02  0.45594000000E+02  0.51100000000E-03 0.  1.
         11   -1    0    0    0    0 -0.00000000000E+00 -0.00000000000E+00 -0.45593999997E+02  0.45594000000E+02  0.51100000000E-03 0. -1.
    9900012    2    1    2    0    0 -0.15078901228E+02 -0.29126299459E+02 -0.24030216217E+02  0.50528857438E+02  0.29999992669E+02 0.  0.
        -12    1    1    2    0    0  0.15078901228E+02  0.29126299459E+02  0.24030216217E+02  0.40659142562E+02  0.00000000000E+00 0.  1.
         11    1    3    3    0    0 -0.78091516211E+01 -0.21051788468E+02 -0.95426163135E+01  0.24397175515E+02  0.51100000000E-03 0. -1.
        -11    1    3    3    0    0  0.29778447461E+01 -0.22276428316E+01 -0.13823220161E+02  0.14314725558E+02  0.51100000000E-03 0.  1.
         12    1    3    3    0    0 -0.10247594353E+02 -0.58468681595E+01 -0.66437974303E+00  0.11816956365E+02  0.00000000000E+00 0. -1.
</event>
<event>
 7    1  0.1098446E-012  0.5052874E+02  0.7816164E-02  0.1300439E+00
        -11   -1    0    0    0    0  0.00000000000E+00  0.00000000000E+00  0.45593999997E+02  0.45594000000E+02  0.51100000000E-03 0. -1.
         11   -1    0    0    0    0 -0.00000000000E+00 -0.00000000000E+00 -0.45593999997E+02  0.45594000000E+02  0.51100000000E-03 0.  1.
    9900012    2    1    2    0    0 -0.35043799740E+02 -0.38899315901E+01 -0.20247870657E+02  0.50528736183E+02  0.29999624101E+02 0.  0.
        -12    1    1    2    0    0  0.35043799740E+02  0.38899315901E+01  0.20247870657E+02  0.40659263817E+02  0.00000000000E+00 0.  1.
         11    1    3    3    0    0 -0.25350437213E+02  0.40173993605E+01 -0.10716632698E+02  0.27814211856E+02  0.51100000000E-03 0. -1.
        -11    1    3    3    0    0  0.17558433407E+01 -0.85319846195E+01 -0.64579636071E+01  0.10843571441E+02  0.51100000000E-03 0.  1.
        -12    1    3    3    0    0 -0.11449205867E+02  0.62465366887E+00 -0.30732743520E+01  0.11870952887E+02  0.00000000000E+00 0.  1.
</event>
<event>
 7    1  0.1098446E-012  0.5052885E+02  0.7816164E-02  0.1300439E+00
        -11   -1    0    0    0    0  0.00000000000E+00  0.00000000000E+00  0.45593999997E+02  0.45594000000E+02  0.51100000000E-03 0.  1.
         11   -1    0    0    0    0 -0.00000000000E+00 -0.00000000000E+00 -0.45593999997E+02  0.45594000000E+02  0.51100000000E-03 0. -1.
    9900012    2    1    2    0    0 -0.30321543181E+01  0.91719439126E+01 -0.39494909559E+02  0.50528851017E+02  0.29999973151E+02 0.  0.
        -12    1    1    2    0    0  0.30321543181E+01 -0.91719439126E+01  0.39494909559E+02  0.40659148983E+02  0.00000000000E+00 0.  1.
         11    1    3    3    0    0 -0.44742235844E+01  0.73677404641E+01 -0.32208119540E+02  0.33341644243E+02  0.51100000000E-03 0. -1.
        -11    1    3    3    0    0  0.73445662933E+01 -0.30102471846E+01 -0.33870917987E+01  0.86299845460E+01  0.51100000000E-03 0.  1.
        -12    1    3    3    0    0 -0.59024970270E+01  0.48144506332E+01 -0.38996982205E+01  0.85572222283E+01  0.00000000000E+00 0.  1.
</event>
<event>
 7    1  0.1098446E-012  0.5052886E+02  0.7816164E-02  0.1300439E+00
        -11   -1    0    0    0    0  0.00000000000E+00  0.00000000000E+00  0.45593999997E+02  0.45594000000E+02  0.51100000000E-03 0.  1.
         11   -1    0    0    0    0 -0.00000000000E+00 -0.00000000000E+00 -0.45593999997E+02  0.45594000000E+02  0.51100000000E-03 0. -1.
    9900012    2    1    2    0    0  0.24473202166E+02 -0.21620316483E+02 -0.24223749657E+02  0.50528858881E+02  0.29999997056E+02 0.  0.
        -12    1    1    2    0    0 -0.24473202166E+02  0.21620316483E+02  0.24223749657E+02  0.40659141119E+02  0.00000000000E+00 0.  1.
         11    1    3    3    0    0  0.81698049142E+01 -0.11176145807E+02 -0.42707201534E+01  0.14487615343E+02  0.51100000000E-03 0. -1.
        -11    1    3    3    0    0 -0.28357710495E+01  0.11219668236E+01  0.27988659738E+01  0.41393306220E+01  0.51100000000E-03 0.  1.
        -12    1    3    3    0    0  0.19139168301E+02 -0.11566137499E+02 -0.22751895478E+02  0.31901912916E+02  0.00000000000E+00 0.  1.
</event>
<event>
 7    1  0.1098446E-012  0.5052885E+02  0.7816164E-02  0.1300439E+00
        -11   -1    0    0    0    0  0.00000000000E+00  0.00000000000E+00  0.45593999997E+02  0.45594000000E+02  0.51100000000E-03 0.  1.
         11   -1    0    0    0    0 -0.00000000000E+00 -0.00000000000E+00 -0.45593999997E+02  0.45594000000E+02  0.51100000000E-03 0. -1.
    9900012    2    1    2    0    0 -0.44296976438E+01 -0.24353322786E+02 -0.32256164712E+02  0.50528847109E+02  0.29999961271E+02 0.  0.
        -12    1    1    2    0    0  0.44296976438E+01  0.24353322786E+02  0.32256164712E+02  0.40659152891E+02  0.00000000000E+00 0.  1.
         11    1    3    3    0    0 -0.23229365437E+01 -0.11959119225E+01 -0.67101171569E+01  0.72008271770E+01  0.51100000000E-03 0. -1.
        -11    1    3    3    0    0  0.39048355672E+01 -0.27109551113E+02 -0.22764852876E+02  0.35614800702E+02  0.51100000000E-03 0.  1.
        -12    1    3    3    0    0 -0.60115966673E+01  0.39521402489E+01 -0.27811946786E+01  0.77132192292E+01  0.00000000000E+00 0.  1.
</event>
<event>
 7    1  0.1098446E-012  0.5052886E+02  0.7816164E-02  0.1300439E+00
        -11   -1    0    0    0    0  0.00000000000E+00  0.00000000000E+00  0.45593999997E+02  0.45594000000E+02  0.51100000000E-03 0.  1.
         11   -1    0    0    0    0 -0.00000000000E+00 -0.00000000000E+00 -0.45593999997E+02  0.45594000000E+02  0.51100000000E-03 0. -1.
    9900012    2    1    2    0    0  0.36107583585E+02 -0.95623856275E+01 -0.16061407715E+02  0.50528860449E+02  0.30000001822E+02 0.  0.
        -12    1    1    2    0    0 -0.36107583585E+02  0.95623856275E+01  0.16061407715E+02  0.40659139551E+02  0.00000000000E+00 0.  1.
         11    1    3    3    0    0  0.28293618048E+02 -0.38066926614E+01 -0.11334176590E+02  0.30716173109E+02  0.51100000000E-03 0. -1.
        -11    1    3    3    0    0  0.31298384089E+01 -0.10956601909E+01  0.62069291296E+01  0.70372103280E+01  0.51100000000E-03 0.  1.
         12    1    3    3    0    0  0.46841271279E+01 -0.46600327753E+01 -0.10934160254E+02  0.12775477012E+02  0.00000000000E+00 0. -1.
</event>
<event>
 7    1  0.1098446E-012  0.5052886E+02  0.7816164E-02  0.1300439E+00
        -11   -1    0    0    0    0  0.00000000000E+00  0.00000000000E+00  0.45593999997E+02  0.45594000000E+02  0.51100000000E-03 0.  1.
         11   -1    0    0    0    0 -0.00000000000E+00 -0.00000000000E+00 -0.45593999997E+02  0.45594000000E+02  0.51100000000E-03 0. -1.
    9900012    2    1    2    0    0  0.33879318610E+02 -0.30274776097E+01 -0.22275359499E+02  0.50528862146E+02  0.30000006980E+02 0.  0.
        -12    1    1    2    0    0 -0.33879318610E+02  0.30274776097E+01  0.22275359499E+02  0.40659137854E+02  0.00000000000E+00 0.  1.
         11    1    3    3    0    0  0.22506354693E+02 -0.58628881805E+01 -0.25534088154E+02  0.34538371668E+02  0.51100000000E-03 0. -1.
        -11    1    3    3    0    0  0.40360848295E+01  0.63462656882E+01  0.16163287777E+01  0.76926970508E+01  0.51100000000E-03 0.  1.
         12    1    3    3    0    0  0.73368790878E+01 -0.35108551174E+01  0.16423998769E+01  0.82977934272E+01  0.00000000000E+00 0. -1.
</event>
<event>
 7    1  0.1189184E-012  0.5052887E+02  0.7816164E-02  0.1300439E+00
        -11   -1    0    0    0    0  0.00000000000E+00  0.00000000000E+00  0.45593999997E+02  0.45594000000E+02  0.51100000000E-03 0. -1.
         11   -1    0    0    0    0 -0.00000000000E+00 -0.00000000000E+00 -0.45593999997E+02  0.45594000000E+02  0.51100000000E-03 0.  1.
    9900012    2    1    2    0    0 -0.20648339334E+01 -0.15004978753E+02  0.37732635245E+02  0.50528872008E+02  0.30000036956E+02 0.  0.
        -12    1    1    2    0    0  0.20648339334E+01  0.15004978753E+02 -0.37732635245E+02  0.40659127992E+02  0.00000000000E+00 0.  1.
         11    1    3    3    0    0 -0.10159899528E+01 -0.97354853002E+01  0.36135343958E+02  0.37437614679E+02  0.51100000000E-03 0. -1.
        -11    1    3    3    0    0 -0.14853204163E+01  0.36825392097E+01  0.10732265723E+01  0.41132818171E+01  0.51100000000E-03 0.  1.
         12    1    3    3    0    0  0.43647643572E+00 -0.89520326628E+01  0.52406471440E+00  0.89779755123E+01  0.00000000000E+00 0. -1.
</event>
<event>
 7    1  0.1098446E-012  0.5052886E+02  0.7816164E-02  0.1300439E+00
        -11   -1    0    0    0    0  0.00000000000E+00  0.00000000000E+00  0.45593999997E+02  0.45594000000E+02  0.51100000000E-03 0.  1.
         11   -1    0    0    0    0 -0.00000000000E+00 -0.00000000000E+00 -0.45593999997E+02  0.45594000000E+02  0.51100000000E-03 0. -1.
    9900012    2    1    2    0    0  0.65556809488E+01 -0.50402740166E+01 -0.39809349638E+02  0.50528860395E+02  0.30000001656E+02 0.  0.
        -12    1    1    2    0    0 -0.65556809488E+01  0.50402740166E+01  0.39809349638E+02  0.40659139605E+02  0.00000000000E+00 0.  1.
         11    1    3    3    0    0  0.46727600935E+01  0.11085500461E+02 -0.10400721904E+02  0.15902767801E+02  0.51100000000E-03 0. -1.
        -11    1    3    3    0    0  0.11613660661E+01 -0.14249072803E+02 -0.17730798113E+02  0.22776436263E+02  0.51100000000E-03 0.  1.
        -12    1    3    3    0    0  0.72155478930E+00 -0.18767016740E+01 -0.11677829621E+02  0.11849656330E+02  0.00000000000E+00 0.  1.
</event>
<event>
 7    1  0.1098446E-012  0.5052886E+02  0.7816164E-02  0.1300439E+00
        -11   -1    0    0    0    0  0.00000000000E+00  0.00000000000E+00  0.45593999997E+02  0.45594000000E+02  0.51100000000E-03 0.  1.
         11   -1    0    0    0    0 -0.00000000000E+00 -0.00000000000E+00 -0.45593999997E+02  0.45594000000E+02  0.51100000000E-03 0. -1.
    9900012    2    1    2    0    0 -0.10724234961E+02  0.34385265189E+02  0.18862919224E+02  0.50528863274E+02  0.30000010407E+02 0.  0.
        -12    1    1    2    0    0  0.10724234961E+02 -0.34385265189E+02 -0.18862919224E+02  0.40659136726E+02  0.00000000000E+00 0.  1.
         11    1    3    3    0    0 -0.40685806790E+01  0.15201481786E+02  0.55181153275E+01  0.16675970565E+02  0.51100000000E-03 0. -1.
        -11    1    3    3    0    0 -0.23239356649E+01 -0.41612341673E+01  0.83124949394E+01  0.95819684381E+01  0.51100000000E-03 0.  1.
        -12    1    3    3    0    0 -0.43317186167E+01  0.23345017570E+02  0.50323089575E+01  0.24270924271E+02  0.00000000000E+00 0.  1.
</event>
<event>
 7    1  0.1098446E-012  0.5052884E+02  0.7816164E-02  0.1300439E+00
        -11   -1    0    0    0    0  0.00000000000E+00  0.00000000000E+00  0.45593999997E+02  0.45594000000E+02  0.51100000000E-03 0.  1.
         11   -1    0    0    0    0 -0.00000000000E+00 -0.00000000000E+00 -0.45593999997E+02  0.45594000000E+02  0.51100000000E-03 0. -1.
    9900012    2    1    2    0    0  0.11870262119E+02  0.25513058047E+02 -0.29348727091E+02  0.50528843153E+02  0.29999949247E+02 0.  0.
        -12    1    1    2    0    0 -0.11870262119E+02 -0.25513058047E+02  0.29348727091E+02  0.40659156847E+02  0.00000000000E+00 0.  1.
         11    1    3    3    0    0 -0.66333514244E+01  0.13534548372E+02 -0.55709079548E+01  0.16069236649E+02  0.51100000000E-03 0. -1.
        -11    1    3    3    0    0  0.13734463184E+02  0.51030083197E+01 -0.82349264211E+01  0.16807444371E+02  0.51100000000E-03 0.  1.
         12    1    3    3    0    0  0.47691503601E+01  0.68755013549E+01 -0.15542892715E+02  0.17652162133E+02  0.00000000000E+00 0. -1.
</event>
<event>
 7    1  0.1098446E-012  0.5052885E+02  0.7816164E-02  0.1300439E+00
        -11   -1    0    0    0    0  0.00000000000E+00  0.00000000000E+00  0.45593999997E+02  0.45594000000E+02  0.51100000000E-03 0. -1.
         11   -1    0    0    0    0 -0.00000000000E+00 -0.00000000000E+00 -0.45593999997E+02  0.45594000000E+02  0.51100000000E-03 0.  1.
    9900012    2    1    2    0    0  0.37977133037E+02 -0.95708095663E+01  0.10922617322E+02  0.50528848525E+02  0.29999965577E+02 0.  0.
        -12    1    1    2    0    0 -0.37977133037E+02  0.95708095663E+01 -0.10922617322E+02  0.40659151475E+02  0.00000000000E+00 0.  1.
         11    1    3    3    0    0  0.14125853801E+02 -0.40573276180E+00 -0.56939028990E+01  0.15235645545E+02  0.51100000000E-03 0.  1.
        -11    1    3    3    0    0  0.60074925001E+01  0.14094704197E+01  0.12790938427E+02  0.14201573120E+02  0.51100000000E-03 0. -1.
        -12    1    3    3    0    0  0.17843786736E+02 -0.10574547224E+02  0.38255817941E+01  0.21091629860E+02  0.00000000000E+00 0.  1.
</event>
<event>
 7    1  0.1098446E-012  0.5052886E+02  0.7816164E-02  0.1300439E+00
        -11   -1    0    0    0    0  0.00000000000E+00  0.00000000000E+00  0.45593999997E+02  0.45594000000E+02  0.51100000000E-03 0.  1.
         11   -1    0    0    0    0 -0.00000000000E+00 -0.00000000000E+00 -0.45593999997E+02  0.45594000000E+02  0.51100000000E-03 0. -1.
    9900012    2    1    2    0    0  0.39827362723E+02  0.43863810088E+00  0.81703276571E+01  0.50528862296E+02  0.30000007434E+02 0.  0.
        -12    1    1    2    0    0 -0.39827362723E+02 -0.43863810088E+00 -0.81703276571E+01  0.40659137704E+02  0.00000000000E+00 0.  1.
         11    1    3    3    0    0  0.23825116556E+02  0.31739977090E+01  0.11027387057E+01  0.24060890949E+02  0.51100000000E-03 0. -1.
        -11    1    3    3    0    0 -0.37772202556E+01  0.27565833789E+01  0.29572012007E+01  0.55327374767E+01  0.51100000000E-03 0.  1.
        -12    1    3    3    0    0  0.19779466422E+02 -0.54919429870E+01  0.41103877507E+01  0.20935233870E+02  0.00000000000E+00 0.  1.
</event>
<event>
 7    1  0.1224106E-012  0.5052886E+02  0.7816164E-02  0.1300439E+00
        -11   -1    0    0    0    0  0.00000000000E+00  0.00000000000E+00  0.45593999997E+02  0.45594000000E+02  0.51100000000E-03 0.  1.
         11   -1    0    0    0    0 -0.00000000000E+00 -0.00000000000E+00 -0.45593999997E+02  0.45594000000E+02  0.51100000000E-03 0. -1.
    9900012    2    1    2    0    0 -0.32015630049E+01  0.39839064392E+02 -0.74675592931E+01  0.50528862046E+02  0.30000006676E+02 0.  0.
        -12    1    1    2    0    0  0.32015630049E+01 -0.39839064392E+02  0.74675592931E+01  0.40659137954E+02  0.00000000000E+00 0.  1.
         11    1    3    3    0    0  0.30559661303E+01  0.23128956608E+02 -0.63847992796E+01  0.24187873509E+02  0.51100000000E-03 0. -1.
        -11    1    3    3    0    0 -0.98302138605E+01  0.62385214615E+01 -0.72090283058E+01  0.13693879799E+02  0.51100000000E-03 0.  1.
        -12    1    3    3    0    0  0.35726847252E+01  0.10471586323E+02  0.61262682922E+01  0.12647108739E+02  0.00000000000E+00 0.  1.
</event>
<event>
 7    1  0.1098446E-012  0.5052886E+02  0.7816164E-02  0.1300439E+00
        -11   -1    0    0    0    0  0.00000000000E+00  0.00000000000E+00  0.45593999997E+02  0.45594000000E+02  0.51100000000E-03 0.  1.
         11   -1    0    0    0    0 -0.00000000000E+00 -0.00000000000E+00 -0.45593999997E+02  0.45594000000E+02  0.51100000000E-03 0. -1.
    9900012    2    1    2    0    0  0.11193868701E+02 -0.23095708834E+02 -0.31534923464E+02  0.50528857597E+02  0.29999993152E+02 0.  0.
        -12    1    1    2    0    0 -0.11193868701E+02  0.23095708834E+02  0.31534923464E+02  0.40659142403E+02  0.00000000000E+00 0.  1.
         11    1    3    3    0    0  0.91095337256E+01 -0.13230945140E+02 -0.29087063086E+02  0.33227981480E+02  0.51100000000E-03 0. -1.
        -11    1    3    3    0    0 -0.10781691276E+01 -0.12693075723E+02 -0.28022796201E+01  0.13043365797E+02  0.51100000000E-03 0.  1.
        -12    1    3    3    0    0  0.31625041026E+01  0.28283120288E+01  0.35441924164E+00  0.42575103206E+01  0.00000000000E+00 0.  1.
</event>
<event>
 7    1  0.1098446E-012  0.5052885E+02  0.7816164E-02  0.1300439E+00
        -11   -1    0    0    0    0  0.00000000000E+00  0.00000000000E+00  0.45593999997E+02  0.45594000000E+02  0.51100000000E-03 0.  1.
         11   -1    0    0    0    0 -0.00000000000E+00 -0.00000000000E+00 -0.45593999997E+02  0.45594000000E+02  0.51100000000E-03 0. -1.
    9900012    2    1    2    0    0 -0.20332003359E+02  0.31634664905E+01 -0.35068053861E+02  0.50528852414E+02  0.29999977398E+02 0.  0.
        -12    1    1    2    0    0  0.20332003359E+02 -0.31634664905E+01  0.35068053861E+02  0.40659147586E+02  0.00000000000E+00 0.  1.
         11    1    3    3    0    0 -0.98412212542E+01 -0.57346362710E+01 -0.25641751384E+02  0.28057710228E+02  0.51100000000E-03 0. -1.
        -11    1    3    3    0    0 -0.64369834851E+01  0.12825647909E+02 -0.86965146569E+01  0.16779790467E+02  0.51100000000E-03 0.  1.
        -12    1    3    3    0    0 -0.40537986199E+01 -0.39275451473E+01 -0.72978782010E+00  0.56913517197E+01  0.00000000000E+00 0.  1.
</event>
<event>
 7    1  0.1098446E-012  0.5052886E+02  0.7816164E-02  0.1300439E+00
        -11   -1    0    0    0    0  0.00000000000E+00  0.00000000000E+00  0.45593999997E+02  0.45594000000E+02  0.51100000000E-03 0.  1.
         11   -1    0    0    0    0 -0.00000000000E+00 -0.00000000000E+00 -0.45593999997E+02  0.45594000000E+02  0.51100000000E-03 0. -1.
    9900012    2    1    2    0    0  0.38726468184E+02  0.96050847219E+01 -0.78210232852E+01  0.50528863318E+02  0.30000010540E+02 0.  0.
        -12    1    1    2    0    0 -0.38726468184E+02 -0.96050847219E+01  0.78210232852E+01  0.40659136682E+02  0.00000000000E+00 0.  1.
         11    1    3    3    0    0  0.25990325157E+02 -0.19652538338E+01  0.27688928553E+01  0.26211180674E+02  0.51100000000E-03 0. -1.
        -11    1    3    3    0    0  0.64706325897E+01  0.13306825370E+02 -0.46471362431E+01  0.15509241215E+02  0.51100000000E-03 0.  1.
        -12    1    3    3    0    0  0.62655104373E+01 -0.17364868147E+01 -0.59427798974E+01  0.88084414289E+01  0.00000000000E+00 0.  1.
</event>
<event>
 7    1  0.1098446E-012  0.5052886E+02  0.7816164E-02  0.1300439E+00
        -11   -1    0    0    0    0  0.00000000000E+00  0.00000000000E+00  0.45593999997E+02  0.45594000000E+02  0.51100000000E-03 0. -1.
         11   -1    0    0    0    0 -0.00000000000E+00 -0.00000000000E+00 -0.45593999997E+02  0.45594000000E+02  0.51100000000E-03 0.  1.
    9900012    2    1    2    0    0 -0.31633912462E+01 -0.13882989288E+02  0.38084394300E+02  0.50528861729E+02  0.30000005712E+02 0.  0.
        -12    1    1    2    0    0  0.31633912462E+01  0.13882989288E+02 -0.38084394300E+02  0.40659138271E+02  0.00000000000E+00 0.  1.
         11    1    3    3    0    0 -0.32933593042E+00  0.31831415650E+01  0.82167541499E+01  0.88179306756E+01  0.51100000000E-03 0. -1.
        -11    1    3    3    0    0 -0.73708164086E+01 -0.18260283817E+02  0.11608562752E+02  0.22858819503E+02  0.51100000000E-03 0.  1.
        -12    1    3    3    0    0  0.45367610929E+01  0.11941529646E+01  0.18259077398E+02  0.18852111551E+02  0.00000000000E+00 0.  1.
</event>
<event>
 7    1  0.1098446E-012  0.5052876E+02  0.7816164E-02  0.1300439E+00
        -11   -1    0    0    0    0  0.00000000000E+00  0.00000000000E+00  0.45593999997E+02  0.45594000000E+02  0.51100000000E-03 0.  1.
         11   -1    0    0    0    0 -0.00000000000E+00 -0.00000000000E+00 -0.45593999997E+02  0.45594000000E+02  0.51100000000E-03 0. -1.
    9900012    2    1    2    0    0 -0.20413911396E+02  0.12398009481E+02 -0.32904942569E+02  0.50528761652E+02  0.29999701515E+02 0.  0.
        -12    1    1    2    0    0  0.20413911396E+02 -0.12398009481E+02  0.32904942569E+02  0.40659238348E+02  0.00000000000E+00 0.  1.
         11    1    3    3    0    0 -0.16148859670E+02  0.25957196579E+01 -0.25351911638E+02  0.30170231241E+02  0.51100000000E-03 0. -1.
        -11    1    3    3    0    0  0.61729658847E+00  0.13029197371E+02 -0.55093206289E+01  0.14159578145E+02  0.51100000000E-03 0.  1.
        -12    1    3    3    0    0 -0.48823483148E+01 -0.32269075478E+01 -0.20437103020E+01  0.61989522653E+01  0.00000000000E+00 0.  1.
</event>
<event>
 7    1  0.1098446E-012  0.5052888E+02  0.7816164E-02  0.1300439E+00
        -11   -1    0    0    0    0  0.00000000000E+00  0.00000000000E+00  0.45593999997E+02  0.45594000000E+02  0.51100000000E-03 0. -1.
         11   -1    0    0    0    0 -0.00000000000E+00 -0.00000000000E+00 -0.45593999997E+02  0.45594000000E+02  0.51100000000E-03 0.  1.
    9900012    2    1    2    0    0 -0.23006256968E+02 -0.26844537698E+02  0.20081019048E+02  0.50528875686E+02  0.30000048136E+02 0.  0.
        -12    1    1    2    0    0  0.23006256968E+02  0.26844537698E+02 -0.20081019048E+02  0.40659124314E+02  0.00000000000E+00 0.  1.
         11    1    3    3    0    0 -0.16042414340E+02 -0.73510317976E+00  0.10194593260E+02  0.19021807657E+02  0.51100000000E-03 0. -1.
        -11    1    3    3    0    0 -0.10260969667E+02 -0.21041417266E+02  0.55282281780E+01  0.24053898772E+02  0.51100000000E-03 0.  1.
         12    1    3    3    0    0  0.32971270381E+01 -0.50680172523E+01  0.43581976099E+01  0.74531692575E+01  0.00000000000E+00 0. -1.
</event>
<event>
 7    1  0.1098446E-012  0.5052886E+02  0.7816164E-02  0.1300439E+00
        -11   -1    0    0    0    0  0.00000000000E+00  0.00000000000E+00  0.45593999997E+02  0.45594000000E+02  0.51100000000E-03 0.  1.
         11   -1    0    0    0    0 -0.00000000000E+00 -0.00000000000E+00 -0.45593999997E+02  0.45594000000E+02  0.51100000000E-03 0. -1.
    9900012    2    1    2    0    0  0.15820766630E+02  0.31362209333E+02 -0.20476354900E+02  0.50528856613E+02  0.29999990160E+02 0.  0.
        -12    1    1    2    0    0 -0.15820766630E+02 -0.31362209333E+02  0.20476354900E+02  0.40659143387E+02  0.00000000000E+00 0.  1.
         11    1    3    3    0    0  0.29753967671E+01  0.30729425103E+01 -0.15688810937E+02  0.16261449827E+02  0.51100000000E-03 0. -1.
        -11    1    3    3    0    0  0.14339452351E+02  0.15862907012E+02 -0.23004698805E+01  0.21506833206E+02  0.51100000000E-03 0.  1.
        -12    1    3    3    0    0 -0.14940824878E+01  0.12426359810E+02 -0.24870740823E+01  0.12760573581E+02  0.00000000000E+00 0.  1.
</event>
<event>
 7    1  0.1098446E-012  0.5052886E+02  0.7816164E-02  0.1300439E+00
        -11   -1    0    0    0    0  0.00000000000E+00  0.00000000000E+00  0.45593999997E+02  0.45594000000E+02  0.51100000000E-03 0.  1.
         11   -1    0    0    0    0 -0.00000000000E+00 -0.00000000000E+00 -0.45593999997E+02  0.45594000000E+02  0.51100000000E-03 0. -1.
    9900012    2    1    2    0    0  0.11973111960E+02  0.33459088255E+02 -0.19755999934E+02  0.50528861664E+02  0.30000005513E+02 0.  0.
        -12    1    1    2    0    0 -0.11973111960E+02 -0.33459088255E+02  0.19755999934E+02  0.40659138336E+02  0.00000000000E+00 0.  1.
         11    1    3    3    0    0  0.12278131297E+02  0.24695697053E+01 -0.67892906985E+01  0.14245902960E+02  0.51100000000E-03 0. -1.
        -11    1    3    3    0    0  0.33649809340E+01  0.10645170709E+02  0.11899261492E+01  0.11227585698E+02  0.51100000000E-03 0.  1.
         12    1    3    3    0    0 -0.36700002712E+01  0.20344347841E+02 -0.14156635385E+02  0.25055373006E+02  0.00000000000E+00 0. -1.
</event>
<event>
 7    1  0.1098446E-012  0.5052886E+02  0.7816164E-02  0.1300439E+00
        -11   -1    0    0    0    0  0.00000000000E+00  0.00000000000E+00  0.45593999997E+02  0.45594000000E+02  0.51100000000E-03 0.  1.
         11   -1    0    0    0    0 -0.00000000000E+00 -0.00000000000E+00 -0.45593999997E+02  0.45594000000E+02  0.51100000000E-03 0. -1.
    9900012    2    1    2    0    0 -0.15158484290E+02  0.36708029786E+02 -0.87124304439E+01  0.50528861532E+02  0.30000005111E+02 0.  0.
        -12    1    1    2    0    0  0.15158484290E+02 -0.36708029786E+02  0.87124304439E+01  0.40659138468E+02  0.00000000000E+00 0.  1.
         11    1    3    3    0    0 -0.32653033923E+00  0.27190376584E+02 -0.92888826639E+00  0.27208197928E+02  0.51100000000E-03 0. -1.
        -11    1    3    3    0    0 -0.14633104082E+02  0.10657394982E+02 -0.10101242566E+02  0.20730241304E+02  0.51100000000E-03 0.  1.
         12    1    3    3    0    0 -0.19884986841E+00 -0.11397417800E+01  0.23177003887E+01  0.25904222990E+01  0.00000000000E+00 0. -1.
</event>
<event>
 7    1  0.1098446E-012  0.5052887E+02  0.7816164E-02  0.1300439E+00
        -11   -1    0    0    0    0  0.00000000000E+00  0.00000000000E+00  0.45593999997E+02  0.45594000000E+02  0.51100000000E-03 0. -1.
         11   -1    0    0    0    0 -0.00000000000E+00 -0.00000000000E+00 -0.45593999997E+02  0.45594000000E+02  0.51100000000E-03 0.  1.
    9900012    2    1    2    0    0 -0.24911474567E+02 -0.28608517488E+02 -0.14633389277E+02  0.50528869172E+02  0.30000028335E+02 0.  0.
        -12    1    1    2    0    0  0.24911474567E+02  0.28608517488E+02  0.14633389277E+02  0.40659130828E+02  0.00000000000E+00 0.  1.
         11    1    3    3    0    0 -0.78203916147E+01 -0.26522290962E+02 -0.13206232000E+02  0.30643025418E+02  0.51100000000E-03 0. -1.
        -11    1    3    3    0    0 -0.18460398995E+01  0.55292412697E+00 -0.37735573158E+01  0.42371362355E+01  0.51100000000E-03 0.  1.
         12    1    3    3    0    0 -0.15245043053E+02 -0.26391506528E+01  0.23464000393E+01  0.15648707518E+02  0.00000000000E+00 0. -1.
</event>
<event>
 7    1  0.1098446E-012  0.5052886E+02  0.7816164E-02  0.1300439E+00
        -11   -1    0    0    0    0  0.00000000000E+00  0.00000000000E+00  0.45593999997E+02  0.45594000000E+02  0.51100000000E-03 0.  1.
         11   -1    0    0    0    0 -0.00000000000E+00 -0.00000000000E+00 -0.45593999997E+02  0.45594000000E+02  0.51100000000E-03 0. -1.
    9900012    2    1    2    0    0 -0.29524394461E+02 -0.26092142137E+02 -0.10033742200E+02  0.50528859181E+02  0.29999997967E+02 0.  0.
        -12    1    1    2    0    0  0.29524394461E+02  0.26092142137E+02  0.10033742200E+02  0.40659140819E+02  0.00000000000E+00 0.  1.
         11    1    3    3    0    0 -0.27501404670E+02 -0.19614795250E+02 -0.81205763352E+01  0.34742066890E+02  0.51100000000E-03 0. -1.
        -11    1    3    3    0    0  0.29001892545E+01  0.69599450705E-02  0.45473144577E+01  0.53934418687E+01  0.51100000000E-03 0.  1.
        -12    1    3    3    0    0 -0.49231790457E+01 -0.64843068324E+01 -0.64604803222E+01  0.10393350423E+02  0.00000000000E+00 0.  1.
</event>
<event>
 7    1  0.1098446E-012  0.5052886E+02  0.7816164E-02  0.1300439E+00
        -11   -1    0    0    0    0  0.00000000000E+00  0.00000000000E+00  0.45593999997E+02  0.45594000000E+02  0.51100000000E-03 0.  1.
         11   -1    0    0    0    0 -0.00000000000E+00 -0.00000000000E+00 -0.45593999997E+02  0.45594000000E+02  0.51100000000E-03 0. -1.
    9900012    2    1    2    0    0 -0.14049810881E+02 -0.36643880222E+02  0.10629890251E+02  0.50528859450E+02  0.29999998785E+02 0.  0.
        -12    1    1    2    0    0  0.14049810881E+02  0.36643880222E+02 -0.10629890251E+02  0.40659140550E+02  0.00000000000E+00 0.  1.
         11    1    3    3    0    0 -0.11991088942E+02 -0.35178437276E+02  0.68060396687E+01  0.37784002427E+02  0.51100000000E-03 0. -1.
        -11    1    3    3    0    0  0.45296031672E+01  0.39666755714E+00 -0.61064546053E+00  0.45877595995E+01  0.51100000000E-03 0.  1.
         12    1    3    3    0    0 -0.65883251056E+01 -0.18621105033E+01  0.44344960426E+01  0.81570974235E+01  0.00000000000E+00 0. -1.
</event>
<event>
 7    1  0.1098446E-012  0.5052885E+02  0.7816164E-02  0.1300439E+00
        -11   -1    0    0    0    0  0.00000000000E+00  0.00000000000E+00  0.45593999997E+02  0.45594000000E+02  0.51100000000E-03 0.  1.
         11   -1    0    0    0    0 -0.00000000000E+00 -0.00000000000E+00 -0.45593999997E+02  0.45594000000E+02  0.51100000000E-03 0. -1.
    9900012    2    1    2    0    0  0.89425981415E+01  0.19385791947E+02 -0.34603292096E+02  0.50528845867E+02  0.29999957498E+02 0.  0.
        -12    1    1    2    0    0 -0.89425981415E+01 -0.19385791947E+02  0.34603292096E+02  0.40659154133E+02  0.00000000000E+00 0.  1.
         11    1    3    3    0    0  0.10580182171E+02  0.10701245250E+02 -0.17824706144E+02  0.23327602836E+02  0.51100000000E-03 0. -1.
        -11    1    3    3    0    0 -0.85084788386E+01  0.11209004842E+02 -0.11554216039E+02  0.18208127587E+02  0.51100000000E-03 0.  1.
        -12    1    3    3    0    0  0.68708948094E+01 -0.25244581453E+01 -0.52243699127E+01  0.89931154443E+01  0.00000000000E+00 0.  1.
</event>
<event>
 7    1  0.1098446E-012  0.5052886E+02  0.7816164E-02  0.1300439E+00
        -11   -1    0    0    0    0  0.00000000000E+00  0.00000000000E+00  0.45593999997E+02  0.45594000000E+02  0.51100000000E-03 0.  1.
         11   -1    0    0    0    0 -0.00000000000E+00 -0.00000000000E+00 -0.45593999997E+02  0.45594000000E+02  0.51100000000E-03 0. -1.
    9900012    2    1    2    0    0 -0.31068952184E+02 -0.23995123774E+02 -0.10588684668E+02  0.50528855915E+02  0.29999988039E+02 0.  0.
        -12    1    1    2    0    0  0.31068952184E+02  0.23995123774E+02  0.10588684668E+02  0.40659144085E+02  0.00000000000E+00 0.  1.
         11    1    3    3    0    0 -0.41192732935E+01  0.32770684906E+00 -0.90918514577E+00  0.42311253983E+01  0.51100000000E-03 0. -1.
        -11    1    3    3    0    0 -0.25655545410E+02 -0.22751506331E+02  0.20893864526E+01  0.34354091265E+02  0.51100000000E-03 0.  1.
        -12    1    3    3    0    0 -0.12941334809E+01 -0.15713242915E+01 -0.11768885974E+02  0.11943639252E+02  0.00000000000E+00 0.  1.
</event>
<event>
 7    1  0.1098446E-012  0.5052886E+02  0.7816164E-02  0.1300439E+00
        -11   -1    0    0    0    0  0.00000000000E+00  0.00000000000E+00  0.45593999997E+02  0.45594000000E+02  0.51100000000E-03 0.  1.
         11   -1    0    0    0    0 -0.00000000000E+00 -0.00000000000E+00 -0.45593999997E+02  0.45594000000E+02  0.51100000000E-03 0. -1.
    9900012    2    1    2    0    0 -0.52911675348E+01 -0.38485833638E+02 -0.12000402931E+02  0.50528861849E+02  0.30000006076E+02 0.  0.
        -12    1    1    2    0    0  0.52911675348E+01  0.38485833638E+02  0.12000402931E+02  0.40659138151E+02  0.00000000000E+00 0.  1.
         11    1    3    3    0    0 -0.10546134624E+01 -0.77540416091E+01 -0.83455784609E+00  0.78698067250E+01  0.51100000000E-03 0. -1.
        -11    1    3    3    0    0 -0.33958792062E+01 -0.36531584777E+00 -0.11789776243E+02  0.12274537685E+02  0.51100000000E-03 0.  1.
        -12    1    3    3    0    0 -0.84067486621E+00 -0.30366476181E+02  0.62393115877E+00  0.30384517439E+02  0.00000000000E+00 0.  1.
</event>
<event>
 7    1  0.1098446E-012  0.5052883E+02  0.7816164E-02  0.1300439E+00
        -11   -1    0    0    0    0  0.00000000000E+00  0.00000000000E+00  0.45593999997E+02  0.45594000000E+02  0.51100000000E-03 0.  1.
         11   -1    0    0    0    0 -0.00000000000E+00 -0.00000000000E+00 -0.45593999997E+02  0.45594000000E+02  0.51100000000E-03 0. -1.
    9900012    2    1    2    0    0  0.28724508712E+02 -0.19248874457E+02 -0.21390451682E+02  0.50528831394E+02  0.29999913505E+02 0.  0.
        -12    1    1    2    0    0 -0.28724508712E+02  0.19248874457E+02  0.21390451682E+02  0.40659168606E+02  0.00000000000E+00 0.  1.
         11    1    3    3    0    0  0.44691189732E+01 -0.32759302163E-01  0.64494951391E+01  0.78466607789E+01  0.51100000000E-03 0. -1.
        -11    1    3    3    0    0  0.23698401584E+01  0.97325447971E+00 -0.18619000443E+01  0.31670236334E+01  0.51100000000E-03 0.  1.
         12    1    3    3    0    0  0.21885549580E+02 -0.20189369634E+02 -0.25978046777E+02  0.39515146982E+02  0.00000000000E+00 0. -1.
</event>
<event>
 7    1  0.1098446E-012  0.5052887E+02  0.7816164E-02  0.1300439E+00
        -11   -1    0    0    0    0  0.00000000000E+00  0.00000000000E+00  0.45593999997E+02  0.45594000000E+02  0.51100000000E-03 0.  1.
         11   -1    0    0    0    0 -0.00000000000E+00 -0.00000000000E+00 -0.45593999997E+02  0.45594000000E+02  0.51100000000E-03 0. -1.
    9900012    2    1    2    0    0  0.26925497738E+02 -0.14745632446E+02 -0.26659871178E+02  0.50528870202E+02  0.30000031466E+02 0.  0.
        -12    1    1    2    0    0 -0.26925497738E+02  0.14745632446E+02  0.26659871178E+02  0.40659129798E+02  0.00000000000E+00 0.  1.
         11    1    3    3    0    0  0.26172774545E+02 -0.13423808122E+02 -0.29421362303E+02  0.41603236796E+02  0.51100000000E-03 0. -1.
        -11    1    3    3    0    0 -0.64643661130E+00 -0.97793467876E+00  0.56112275368E+01  0.57323739637E+01  0.51100000000E-03 0.  1.
         12    1    3    3    0    0  0.13991598044E+01 -0.34388964487E+00 -0.28497364120E+01  0.31932594420E+01  0.00000000000E+00 0. -1.
</event>
<event>
 7    1  0.1098446E-012  0.5052886E+02  0.7816164E-02  0.1300439E+00
        -11   -1    0    0    0    0  0.00000000000E+00  0.00000000000E+00  0.45593999997E+02  0.45594000000E+02  0.51100000000E-03 0.  1.
         11   -1    0    0    0    0 -0.00000000000E+00 -0.00000000000E+00 -0.45593999997E+02  0.45594000000E+02  0.51100000000E-03 0. -1.
    9900012    2    1    2    0    0 -0.31432964945E+02 -0.25131001827E+02  0.57936903717E+01  0.50528863435E+02  0.30000010898E+02 0.  0.
        -12    1    1    2    0    0  0.31432964945E+02  0.25131001827E+02 -0.57936903717E+01  0.40659136565E+02  0.00000000000E+00 0.  1.
         11    1    3    3    0    0 -0.26566094491E+02 -0.27749306966E+02  0.65145179932E+01  0.38964347275E+02  0.51100000000E-03 0. -1.
        -11    1    3    3    0    0  0.14540362870E+01  0.34393374686E+01 -0.30055673769E+01  0.47934016382E+01  0.51100000000E-03 0.  1.
        -12    1    3    3    0    0 -0.63209067416E+01 -0.82103232894E+00  0.22847397555E+01  0.67711145221E+01  0.00000000000E+00 0.  1.
</event>
<event>
 7    1  0.1098446E-012  0.5052885E+02  0.7816164E-02  0.1300439E+00
        -11   -1    0    0    0    0  0.00000000000E+00  0.00000000000E+00  0.45593999997E+02  0.45594000000E+02  0.51100000000E-03 0.  1.
         11   -1    0    0    0    0 -0.00000000000E+00 -0.00000000000E+00 -0.45593999997E+02  0.45594000000E+02  0.51100000000E-03 0. -1.
    9900012    2    1    2    0    0 -0.66560617356E+01 -0.24162261080E+02 -0.32016371958E+02  0.50528854760E+02  0.29999984528E+02 0.  0.
        -12    1    1    2    0    0  0.66560617356E+01  0.24162261080E+02  0.32016371958E+02  0.40659145240E+02  0.00000000000E+00 0.  1.
         11    1    3    3    0    0 -0.52539438382E+01 -0.82059497257E+01 -0.44146304640E+01  0.10697219225E+02  0.51100000000E-03 0. -1.
        -11    1    3    3    0    0 -0.43348387527E+01  0.36528249790E+01 -0.15733985296E+02  0.16724002239E+02  0.51100000000E-03 0.  1.
        -12    1    3    3    0    0  0.29327208553E+01 -0.19609136333E+02 -0.11867756198E+02  0.23107633296E+02  0.00000000000E+00 0.  1.
</event>
<event>
 7    1  0.1098446E-012  0.5052885E+02  0.7816164E-02  0.1300439E+00
        -11   -1    0    0    0    0  0.00000000000E+00  0.00000000000E+00  0.45593999997E+02  0.45594000000E+02  0.51100000000E-03 0.  1.
         11   -1    0    0    0    0 -0.00000000000E+00 -0.00000000000E+00 -0.45593999997E+02  0.45594000000E+02  0.51100000000E-03 0. -1.
    9900012    2    1    2    0    0  0.12252008468E+02 -0.21218312316E+02 -0.32447461727E+02  0.50528852670E+02  0.29999978176E+02 0.  0.
        -12    1    1    2    0    0 -0.12252008468E+02  0.21218312316E+02  0.32447461727E+02  0.40659147330E+02  0.00000000000E+00 0.  1.
         11    1    3    3    0    0  0.90798605899E+01 -0.47641515910E+01 -0.73480891038E+01  0.12614888920E+02  0.51100000000E-03 0. -1.
        -11    1    3    3    0    0 -0.76288547101E+01 -0.15700872363E+02 -0.13682175278E+02  0.22179241144E+02  0.51100000000E-03 0.  1.
        -12    1    3    3    0    0  0.10801002588E+02 -0.75328836232E+00 -0.11417197346E+02  0.15734722606E+02  0.00000000000E+00 0.  1.
</event>
<event>
 7    1  0.1098446E-012  0.5052886E+02  0.7816164E-02  0.1300439E+00
        -11   -1    0    0    0    0  0.00000000000E+00  0.00000000000E+00  0.45593999997E+02  0.45594000000E+02  0.51100000000E-03 0. -1.
         11   -1    0    0    0    0 -0.00000000000E+00 -0.00000000000E+00 -0.45593999997E+02  0.45594000000E+02  0.51100000000E-03 0.  1.
    9900012    2    1    2    0    0  0.68463797198E+01  0.16587249586E+01  0.40044246414E+02  0.50528856445E+02  0.29999989650E+02 0.  0.
        -12    1    1    2    0    0 -0.68463797198E+01 -0.16587249586E+01 -0.40044246414E+02  0.40659143555E+02  0.00000000000E+00 0.  1.
         11    1    3    3    0    0  0.10404772939E+01 -0.11280148425E+02  0.16645089023E+02  0.20134133463E+02  0.51100000000E-03 0. -1.
        -11    1    3    3    0    0  0.76575000424E+01  0.79706314038E+01  0.68184060812E+01  0.12986875437E+02  0.51100000000E-03 0.  1.
         12    1    3    3    0    0 -0.18515976165E+01  0.49682419800E+01  0.16580751310E+02  0.17407847544E+02  0.00000000000E+00 0. -1.
</event>
<event>
 7    1  0.1098446E-012  0.5052886E+02  0.7816164E-02  0.1300439E+00
        -11   -1    0    0    0    0  0.00000000000E+00  0.00000000000E+00  0.45593999997E+02  0.45594000000E+02  0.51100000000E-03 0.  1.
         11   -1    0    0    0    0 -0.00000000000E+00 -0.00000000000E+00 -0.45593999997E+02  0.45594000000E+02  0.51100000000E-03 0. -1.
    9900012    2    1    2    0    0  0.16183141971E+02  0.34469549777E+02 -0.14252075012E+02  0.50528860954E+02  0.30000003355E+02 0.  0.
        -12    1    1    2    0    0 -0.16183141971E+02 -0.34469549777E+02  0.14252075012E+02  0.40659139046E+02  0.00000000000E+00 0.  1.
         11    1    3    3    0    0  0.94471991784E+01  0.10164509588E+02 -0.51649407296E+01  0.14806871394E+02  0.51100000000E-03 0. -1.
        -11    1    3    3    0    0 -0.77083428480E+01  0.34604306006E+01 -0.55675080542E+01  0.10118808013E+02  0.51100000000E-03 0.  1.
        -12    1    3    3    0    0  0.14444285640E+02  0.20844609588E+02 -0.35196262278E+01  0.25603181547E+02  0.00000000000E+00 0.  1.
</event>
<event>
 7    1  0.1098446E-012  0.5052886E+02  0.7816164E-02  0.1300439E+00
        -11   -1    0    0    0    0  0.00000000000E+00  0.00000000000E+00  0.45593999997E+02  0.45594000000E+02  0.51100000000E-03 0.  1.
         11   -1    0    0    0    0 -0.00000000000E+00 -0.00000000000E+00 -0.45593999997E+02  0.45594000000E+02  0.51100000000E-03 0. -1.
    9900012    2    1    2    0    0  0.17112084453E+02 -0.76819901971E+01 -0.36073939826E+02  0.50528861515E+02  0.30000005062E+02 0.  0.
        -12    1    1    2    0    0 -0.17112084453E+02  0.76819901971E+01  0.36073939826E+02  0.40659138485E+02  0.00000000000E+00 0.  1.
         11    1    3    3    0    0  0.21096742442E+02 -0.25985303476E+01 -0.10844371140E+02  0.23862633705E+02  0.51100000000E-03 0. -1.
        -11    1    3    3    0    0 -0.37156101747E+01 -0.40019852697E+01 -0.99832427114E+01  0.11379225825E+02  0.51100000000E-03 0.  1.
         12    1    3    3    0    0 -0.26904781437E+00 -0.10814745798E+01 -0.15246325975E+02  0.15287001986E+02  0.00000000000E+00 0. -1.
</event>
<event>
 7    1  0.1098446E-012  0.5052887E+02  0.7816164E-02  0.1300439E+00
        -11   -1    0    0    0    0  0.00000000000E+00  0.00000000000E+00  0.45593999997E+02  0.45594000000E+02  0.51100000000E-03 0. -1.
         11   -1    0    0    0    0 -0.00000000000E+00 -0.00000000000E+00 -0.45593999997E+02  0.45594000000E+02  0.51100000000E-03 0.  1.
    9900012    2    1    2    0    0  0.18818767166E+02  0.25232469690E+02  0.25735998366E+02  0.50528866510E+02  0.30000020242E+02 0.  0.
        -12    1    1    2    0    0 -0.18818767166E+02 -0.25232469690E+02 -0.25735998366E+02  0.40659133490E+02  0.00000000000E+00 0.  1.
         11    1    3    3    0    0 -0.42869705806E+01  0.41997097658E+01 -0.27657863205E+01  0.66079689094E+01  0.51100000000E-03 0. -1.
        -11    1    3    3    0    0  0.48165082112E+01 -0.68484771823E+00  0.57856337588E+01  0.75591881838E+01  0.51100000000E-03 0.  1.
         12    1    3    3    0    0  0.18289229535E+02  0.21717607643E+02  0.22716150927E+02  0.36361709416E+02  0.00000000000E+00 0. -1.
</event>
<event>
 7    1  0.1098446E-012  0.5052884E+02  0.7816164E-02  0.1300439E+00
        -11   -1    0    0    0    0  0.00000000000E+00  0.00000000000E+00  0.45593999997E+02  0.45594000000E+02  0.51100000000E-03 0. -1.
         11   -1    0    0    0    0 -0.00000000000E+00 -0.00000000000E+00 -0.45593999997E+02  0.45594000000E+02  0.51100000000E-03 0.  1.
    9900012    2    1    2    0    0 -0.32497730670E+02 -0.14585986414E+02  0.19603914911E+02  0.50528843857E+02  0.29999951389E+02 0.  0.
        -12    1    1    2    0    0  0.32497730670E+02  0.14585986414E+02 -0.19603914911E+02  0.40659156143E+02  0.00000000000E+00 0.  1.
         11    1    3    3    0    0  0.33915978159E+01  0.58206554872E+00  0.20008789631E+01  0.39806096183E+01  0.51100000000E-03 0.  1.
        -11    1    3    3    0    0 -0.25020976497E+02 -0.84242909643E+01  0.20509719168E+02  0.33431519913E+02  0.51100000000E-03 0. -1.
         12    1    3    3    0    0 -0.10868351989E+02 -0.67437609984E+01 -0.29066832197E+01  0.13116714326E+02  0.00000000000E+00 0. -1.
</event>
<event>
 7    1  0.1098446E-012  0.5052886E+02  0.7816164E-02  0.1300439E+00
        -11   -1    0    0    0    0  0.00000000000E+00  0.00000000000E+00  0.45593999997E+02  0.45594000000E+02  0.51100000000E-03 0.  1.
         11   -1    0    0    0    0 -0.00000000000E+00 -0.00000000000E+00 -0.45593999997E+02  0.45594000000E+02  0.51100000000E-03 0. -1.
    9900012    2    1    2    0    0  0.10923176888E+02  0.25348805373E+02 -0.29854450475E+02  0.50528856620E+02  0.29999990184E+02 0.  0.
        -12    1    1    2    0    0 -0.10923176888E+02 -0.25348805373E+02  0.29854450475E+02  0.40659143380E+02  0.00000000000E+00 0.  1.
         11    1    3    3    0    0  0.12739863294E+01  0.16023038799E+02 -0.24729406999E+02  0.29494141526E+02  0.51100000000E-03 0. -1.
        -11    1    3    3    0    0  0.84582664425E+01  0.59481260249E+01  0.41117864470E+01  0.11127859743E+02  0.51100000000E-03 0.  1.
        -12    1    3    3    0    0  0.11909241159E+01  0.33776405488E+01 -0.92368299232E+01  0.99068553515E+01  0.00000000000E+00 0.  1.
</event>
<event>
 7    1  0.1098446E-012  0.5052886E+02  0.7816164E-02  0.1300439E+00
        -11   -1    0    0    0    0  0.00000000000E+00  0.00000000000E+00  0.45593999997E+02  0.45594000000E+02  0.51100000000E-03 0. -1.
         11   -1    0    0    0    0 -0.00000000000E+00 -0.00000000000E+00 -0.45593999997E+02  0.45594000000E+02  0.51100000000E-03 0.  1.
    9900012    2    1    2    0    0  0.81790170896E+01  0.20568190190E+02  0.34105996365E+02  0.50528858884E+02  0.29999997065E+02 0.  0.
        -12    1    1    2    0    0 -0.81790170896E+01 -0.20568190190E+02 -0.34105996365E+02  0.40659141116E+02  0.00000000000E+00 0.  1.
         11    1    3    3    0    0 -0.43508638437E+01  0.43273584082E+01 -0.53548825456E+00  0.61597723100E+01  0.51100000000E-03 0.  1.
        -11    1    3    3    0    0  0.10279534436E+02  0.57250909069E+01  0.30764352299E+02  0.32937681563E+02  0.51100000000E-03 0. -1.
         12    1    3    3    0    0  0.22503464969E+01  0.10515740875E+02  0.38771323206E+01  0.11431405011E+02  0.00000000000E+00 0. -1.
</event>
<event>
 7    1  0.1098446E-012  0.5052885E+02  0.7816164E-02  0.1300439E+00
        -11   -1    0    0    0    0  0.00000000000E+00  0.00000000000E+00  0.45593999997E+02  0.45594000000E+02  0.51100000000E-03 0.  1.
         11   -1    0    0    0    0 -0.00000000000E+00 -0.00000000000E+00 -0.45593999997E+02  0.45594000000E+02  0.51100000000E-03 0. -1.
    9900012    2    1    2    0    0  0.19845728289E+02 -0.22075610543E+02 -0.27784542359E+02  0.50528852121E+02  0.29999976507E+02 0.  0.
        -12    1    1    2    0    0 -0.19845728289E+02  0.22075610543E+02  0.27784542359E+02  0.40659147879E+02  0.00000000000E+00 0.  1.
         11    1    3    3    0    0  0.19052095064E+02 -0.42792590542E+01 -0.21045736015E+02  0.28709186492E+02  0.51100000000E-03 0. -1.
        -11    1    3    3    0    0 -0.44584656493E+01 -0.40367972094E+01 -0.16379836495E+01  0.62335093129E+01  0.51100000000E-03 0.  1.
        -12    1    3    3    0    0  0.52520988747E+01 -0.13759554279E+02 -0.51008226938E+01  0.15586156316E+02  0.00000000000E+00 0.  1.
</event>
<event>
 7    1  0.1098446E-012  0.5052886E+02  0.7816164E-02  0.1300439E+00
        -11   -1    0    0    0    0  0.00000000000E+00  0.00000000000E+00  0.45593999997E+02  0.45594000000E+02  0.51100000000E-03 0. -1.
         11   -1    0    0    0    0 -0.00000000000E+00 -0.00000000000E+00 -0.45593999997E+02  0.45594000000E+02  0.51100000000E-03 0.  1.
    9900012    2    1    2    0    0 -0.19737692628E+02 -0.31750637465E+02  0.15983939012E+02  0.50528858395E+02  0.29999995578E+02 0.  0.
        -12    1    1    2    0    0  0.19737692628E+02  0.31750637465E+02 -0.15983939012E+02  0.40659141605E+02  0.00000000000E+00 0.  1.
         11    1    3    3    0    0 -0.11313845780E+02 -0.52559014658E+01  0.90794461557E+01  0.15429321090E+02  0.51100000000E-03 0. -1.
        -11    1    3    3    0    0 -0.42672555888E+01 -0.27174531114E+02  0.10616749287E+02  0.29485250164E+02  0.51100000000E-03 0.  1.
        -12    1    3    3    0    0 -0.41565912587E+01  0.67979511511E+00 -0.37122564311E+01  0.56142871409E+01  0.00000000000E+00 0.  1.
</event>
<event>
 7    1  0.1098446E-012  0.5052887E+02  0.7816164E-02  0.1300439E+00
        -11   -1    0    0    0    0  0.00000000000E+00  0.00000000000E+00  0.45593999997E+02  0.45594000000E+02  0.51100000000E-03 0.  1.
         11   -1    0    0    0    0 -0.00000000000E+00 -0.00000000000E+00 -0.45593999997E+02  0.45594000000E+02  0.51100000000E-03 0. -1.
    9900012    2    1    2    0    0 -0.39494036613E+02  0.71386260040E+01  0.65135240740E+01  0.50528869351E+02  0.30000028880E+02 0.  0.
        -12    1    1    2    0    0  0.39494036613E+02 -0.71386260040E+01 -0.65135240740E+01  0.40659130649E+02  0.00000000000E+00 0.  1.
         11    1    3    3    0    0 -0.19475515751E+02 -0.53832626860E+01 -0.57687972588E+00  0.20214055046E+02  0.51100000000E-03 0. -1.
        -11    1    3    3    0    0 -0.28638125858E+01  0.11077440570E+02  0.63451601756E+01  0.13083278260E+02  0.51100000000E-03 0.  1.
        -12    1    3    3    0    0 -0.17154708277E+02  0.14444481199E+01  0.74524362426E+00  0.17231536046E+02  0.00000000000E+00 0.  1.
</event>
<event>
 7    1  0.1098446E-012  0.5052886E+02  0.7816164E-02  0.1300439E+00
        -11   -1    0    0    0    0  0.00000000000E+00  0.00000000000E+00  0.45593999997E+02  0.45594000000E+02  0.51100000000E-03 0.  1.
         11   -1    0    0    0    0 -0.00000000000E+00 -0.00000000000E+00 -0.45593999997E+02  0.45594000000E+02  0.51100000000E-03 0. -1.
    9900012    2    1    2    0    0  0.31316817105E+02 -0.22723912680E+02 -0.12491865620E+02  0.50528856529E+02  0.29999989906E+02 0.  0.
        -12    1    1    2    0    0 -0.31316817105E+02  0.22723912680E+02  0.12491865620E+02  0.40659143471E+02  0.00000000000E+00 0.  1.
         11    1    3    3    0    0  0.18868213278E+02 -0.79491139511E+01 -0.29701770118E+01  0.20688640280E+02  0.51100000000E-03 0. -1.
        -11    1    3    3    0    0 -0.41891210136E+01 -0.21228667841E+01 -0.74891363248E+01  0.88398224757E+01  0.51100000000E-03 0.  1.
        -12    1    3    3    0    0  0.16637724841E+02 -0.12651931945E+02 -0.20325522834E+01  0.21000393773E+02  0.00000000000E+00 0.  1.
</event>
<event>
 7    1  0.1098446E-012  0.5052886E+02  0.7816164E-02  0.1300439E+00
        -11   -1    0    0    0    0  0.00000000000E+00  0.00000000000E+00  0.45593999997E+02  0.45594000000E+02  0.51100000000E-03 0.  1.
         11   -1    0    0    0    0 -0.00000000000E+00 -0.00000000000E+00 -0.45593999997E+02  0.45594000000E+02  0.51100000000E-03 0. -1.
    9900012    2    1    2    0    0  0.35744822704E+01 -0.27813054025E+02 -0.29441852866E+02  0.50528860833E+02  0.30000002987E+02 0.  0.
        -12    1    1    2    0    0 -0.35744822704E+01  0.27813054025E+02  0.29441852866E+02  0.40659139167E+02  0.00000000000E+00 0.  1.
         11    1    3    3    0    0 -0.33575872564E+01 -0.24022731912E+02 -0.26676736807E+02  0.36055697575E+02  0.51100000000E-03 0. -1.
        -11    1    3    3    0    0 -0.20566762486E+01 -0.91742096433E+00  0.27410713138E+01  0.35475414904E+01  0.51100000000E-03 0.  1.
         12    1    3    3    0    0  0.89887457754E+01 -0.28729011487E+01 -0.55061873726E+01  0.10925621768E+02  0.00000000000E+00 0. -1.
</event>
<event>
 7    1  0.1098446E-012  0.5052886E+02  0.7816164E-02  0.1300439E+00
        -11   -1    0    0    0    0  0.00000000000E+00  0.00000000000E+00  0.45593999997E+02  0.45594000000E+02  0.51100000000E-03 0. -1.
         11   -1    0    0    0    0 -0.00000000000E+00 -0.00000000000E+00 -0.45593999997E+02  0.45594000000E+02  0.51100000000E-03 0.  1.
    9900012    2    1    2    0    0  0.20897263604E+02  0.17216642341E+02  0.30332451350E+02  0.50528855831E+02  0.29999987785E+02 0.  0.
        -12    1    1    2    0    0 -0.20897263604E+02 -0.17216642341E+02 -0.30332451350E+02  0.40659144169E+02  0.00000000000E+00 0.  1.
         11    1    3    3    0    0  0.14314447589E+02  0.19320264433E+02  0.25913112739E+02  0.35350607345E+02  0.51100000000E-03 0. -1.
        -11    1    3    3    0    0 -0.14580064898E+01 -0.21613737760E+01 -0.31815652254E+01  0.41133535063E+01  0.51100000000E-03 0.  1.
        -12    1    3    3    0    0  0.80408225045E+01  0.57751684120E-01  0.76009038361E+01  0.11064894981E+02  0.00000000000E+00 0.  1.
</event>
<event>
 7    1  0.1098446E-012  0.5052886E+02  0.7816164E-02  0.1300439E+00
        -11   -1    0    0    0    0  0.00000000000E+00  0.00000000000E+00  0.45593999997E+02  0.45594000000E+02  0.51100000000E-03 0.  1.
         11   -1    0    0    0    0 -0.00000000000E+00 -0.00000000000E+00 -0.45593999997E+02  0.45594000000E+02  0.51100000000E-03 0. -1.
    9900012    2    1    2    0    0 -0.20883110210E+02  0.32775766085E+02 -0.11950333365E+02  0.50528860781E+02  0.30000002829E+02 0.  0.
        -12    1    1    2    0    0  0.20883110210E+02 -0.32775766085E+02  0.11950333365E+02  0.40659139219E+02  0.00000000000E+00 0.  1.
         11    1    3    3    0    0  0.41818768442E+01  0.18327063307E+02 -0.93829777102E+00  0.18821523487E+02  0.51100000000E-03 0. -1.
        -11    1    3    3    0    0 -0.14211058970E+02  0.42752290909E+01 -0.49625661410E+01  0.15647966123E+02  0.51100000000E-03 0.  1.
         12    1    3    3    0    0 -0.10853928084E+02  0.10173473686E+02 -0.60494694532E+01  0.16059371170E+02  0.00000000000E+00 0. -1.
</event>
<event>
 7    1  0.1098446E-012  0.5052885E+02  0.7816164E-02  0.1300439E+00
        -11   -1    0    0    0    0  0.00000000000E+00  0.00000000000E+00  0.45593999997E+02  0.45594000000E+02  0.51100000000E-03 0.  1.
         11   -1    0    0    0    0 -0.00000000000E+00 -0.00000000000E+00 -0.45593999997E+02  0.45594000000E+02  0.51100000000E-03 0. -1.
    9900012    2    1    2    0    0 -0.32692589164E+02  0.23916151461E+02 -0.35183925484E+01  0.50528846380E+02  0.29999959058E+02 0.  0.
        -12    1    1    2    0    0  0.32692589164E+02 -0.23916151461E+02  0.35183925484E+01  0.40659153620E+02  0.00000000000E+00 0.  1.
         11    1    3    3    0    0 -0.50647577686E+01 -0.38173365793E+01  0.49776731344E+01  0.80623234807E+01  0.51100000000E-03 0. -1.
        -11    1    3    3    0    0 -0.42233437207E+01  0.13659995061E+02 -0.29468562545E+01  0.14598495104E+02  0.51100000000E-03 0.  1.
         12    1    3    3    0    0 -0.23404487675E+02  0.14073492979E+02 -0.55492094282E+01  0.27868027796E+02  0.00000000000E+00 0. -1.
</event>
<event>
 7    1  0.1098446E-012  0.5052886E+02  0.7816164E-02  0.1300439E+00
        -11   -1    0    0    0    0  0.00000000000E+00  0.00000000000E+00  0.45593999997E+02  0.45594000000E+02  0.51100000000E-03 0. -1.
         11   -1    0    0    0    0 -0.00000000000E+00 -0.00000000000E+00 -0.45593999997E+02  0.45594000000E+02  0.51100000000E-03 0.  1.
    9900012    2    1    2    0    0 -0.36511799923E+02 -0.70816197799E+01  0.16428769690E+02  0.50528863931E+02  0.30000012406E+02 0.  0.
        -12    1    1    2    0    0  0.36511799923E+02  0.70816197799E+01 -0.16428769690E+02  0.40659136069E+02  0.00000000000E+00 0.  1.
         11    1    3    3    0    0 -0.10617460635E+02 -0.43686006099E+01  0.10597226166E+02  0.15624222998E+02  0.51100000000E-03 0. -1.
        -11    1    3    3    0    0 -0.27056800631E+02  0.41462978559E+01  0.36586154032E+01  0.27616077079E+02  0.51100000000E-03 0.  1.
        -12    1    3    3    0    0  0.11624613434E+01 -0.68593170259E+01  0.21729281212E+01  0.72885638542E+01  0.00000000000E+00 0.  1.
</event>
<event>
 7    1  0.1098446E-012  0.5052886E+02  0.7816164E-02  0.1300439E+00
        -11   -1    0    0    0    0  0.00000000000E+00  0.00000000000E+00  0.45593999997E+02  0.45594000000E+02  0.51100000000E-03 0.  1.
         11   -1    0    0    0    0 -0.00000000000E+00 -0.00000000000E+00 -0.45593999997E+02  0.45594000000E+02  0.51100000000E-03 0. -1.
    9900012    2    1    2    0    0 -0.67618783713E+01  0.29002861681E+02 -0.27681701834E+02  0.50528860791E+02  0.30000002859E+02 0.  0.
        -12    1    1    2    0    0  0.67618783713E+01 -0.29002861681E+02  0.27681701834E+02  0.40659139209E+02  0.00000000000E+00 0.  1.
         11    1    3    3    0    0  0.92882317359E+01  0.21771574053E+01 -0.10076804216E+02  0.13876355668E+02  0.51100000000E-03 0. -1.
        -11    1    3    3    0    0 -0.94840599576E+01  0.13806344775E+02 -0.52869193212E+01  0.17564568469E+02  0.51100000000E-03 0.  1.
         12    1    3    3    0    0 -0.65660501495E+01  0.13019359501E+02 -0.12317978297E+02  0.19087936654E+02  0.00000000000E+00 0. -1.
</event>
<event>
 7    1  0.1098446E-012  0.5052886E+02  0.7816164E-02  0.1300439E+00
        -11   -1    0    0    0    0  0.00000000000E+00  0.00000000000E+00  0.45593999997E+02  0.45594000000E+02  0.51100000000E-03 0. -1.
         11   -1    0    0    0    0 -0.00000000000E+00 -0.00000000000E+00 -0.45593999997E+02  0.45594000000E+02  0.51100000000E-03 0.  1.
    9900012    2    1    2    0    0 -0.15634362750E+02 -0.37046363680E+02  0.60248846534E+01  0.50528860860E+02  0.30000003071E+02 0.  0.
        -12    1    1    2    0    0  0.15634362750E+02  0.37046363680E+02 -0.60248846534E+01  0.40659139140E+02  0.00000000000E+00 0.  1.
         11    1    3    3    0    0 -0.55063633905E+01 -0.25632206726E+02 -0.13311209608E+00  0.26217318294E+02  0.51100000000E-03 0. -1.
        -11    1    3    3    0    0 -0.87714632857E+01  0.20561399651E+01  0.59026957828E+01  0.10770705524E+02  0.51100000000E-03 0.  1.
        -12    1    3    3    0    0 -0.13565360735E+01 -0.13470296919E+02  0.25530096663E+00  0.13540837042E+02  0.00000000000E+00 0.  1.
</event>
<event>
 7    1  0.1098446E-012  0.5052886E+02  0.7816164E-02  0.1300439E+00
        -11   -1    0    0    0    0  0.00000000000E+00  0.00000000000E+00  0.45593999997E+02  0.45594000000E+02  0.51100000000E-03 0.  1.
         11   -1    0    0    0    0 -0.00000000000E+00 -0.00000000000E+00 -0.45593999997E+02  0.45594000000E+02  0.51100000000E-03 0. -1.
    9900012    2    1    2    0    0 -0.10372361721E+02 -0.37988432668E+02 -0.10122180893E+02  0.50528862647E+02  0.30000008501E+02 0.  0.
        -12    1    1    2    0    0  0.10372361721E+02  0.37988432668E+02  0.10122180893E+02  0.40659137353E+02  0.00000000000E+00 0.  1.
         11    1    3    3    0    0 -0.11691944243E+02 -0.16928541147E+02 -0.17213433301E+02  0.26824976269E+02  0.51100000000E-03 0. -1.
        -11    1    3    3    0    0  0.36211102029E+01 -0.49114801955E+01  0.33791802750E+01  0.69752373726E+01  0.51100000000E-03 0.  1.
         12    1    3    3    0    0 -0.23015276806E+01 -0.16148411326E+02  0.37120721333E+01  0.16728649005E+02  0.00000000000E+00 0. -1.
</event>
<event>
 7    1  0.1098446E-012  0.5052885E+02  0.7816164E-02  0.1300439E+00
        -11   -1    0    0    0    0  0.00000000000E+00  0.00000000000E+00  0.45593999997E+02  0.45594000000E+02  0.51100000000E-03 0. -1.
         11   -1    0    0    0    0 -0.00000000000E+00 -0.00000000000E+00 -0.45593999997E+02  0.45594000000E+02  0.51100000000E-03 0.  1.
    9900012    2    1    2    0    0  0.20225440064E+02 -0.35249185322E+02 -0.12621053968E+01  0.50528850948E+02  0.29999972941E+02 0.  0.
        -12    1    1    2    0    0 -0.20225440064E+02  0.35249185322E+02  0.12621053968E+01  0.40659149052E+02  0.00000000000E+00 0.  1.
         11    1    3    3    0    0  0.17791835527E+02 -0.20640552769E+02 -0.73572693135E+01  0.28226073797E+02  0.51100000000E-03 0. -1.
        -11    1    3    3    0    0  0.78168263837E+00 -0.13676092446E+02  0.10661299085E+02  0.17358278451E+02  0.51100000000E-03 0.  1.
        -12    1    3    3    0    0  0.16519218986E+01 -0.93254010676E+00 -0.45661351682E+01  0.49444986990E+01  0.00000000000E+00 0.  1.
</event>
<event>
 7    1  0.1098446E-012  0.5052887E+02  0.7816164E-02  0.1300439E+00
        -11   -1    0    0    0    0  0.00000000000E+00  0.00000000000E+00  0.45593999997E+02  0.45594000000E+02  0.51100000000E-03 0.  1.
         11   -1    0    0    0    0 -0.00000000000E+00 -0.00000000000E+00 -0.45593999997E+02  0.45594000000E+02  0.51100000000E-03 0. -1.
    9900012    2    1    2    0    0 -0.33419807548E+01  0.12736201554E+02 -0.38467974151E+02  0.50528871865E+02  0.30000036522E+02 0.  0.
        -12    1    1    2    0    0  0.33419807548E+01 -0.12736201554E+02  0.38467974151E+02  0.40659128135E+02  0.00000000000E+00 0.  1.
         11    1    3    3    0    0 -0.65839681145E+01 -0.66024850051E+01 -0.10583897645E+02  0.14105329986E+02  0.51100000000E-03 0. -1.
        -11    1    3    3    0    0  0.62006957817E+01  0.19456313208E+02 -0.25118648059E+02  0.32371951322E+02  0.51100000000E-03 0.  1.
        -12    1    3    3    0    0 -0.29587084219E+01 -0.11762664821E+00 -0.27654284471E+01  0.40515905581E+01  0.00000000000E+00 0.  1.
</event>
<event>
 7    1  0.1098446E-012  0.5052884E+02  0.7816164E-02  0.1300439E+00
        -11   -1    0    0    0    0  0.00000000000E+00  0.00000000000E+00  0.45593999997E+02  0.45594000000E+02  0.51100000000E-03 0.  1.
         11   -1    0    0    0    0 -0.00000000000E+00 -0.00000000000E+00 -0.45593999997E+02  0.45594000000E+02  0.51100000000E-03 0. -1.
    9900012    2    1    2    0    0 -0.45031884476E+00 -0.37375131923E+02  0.16001991204E+02  0.50528843641E+02  0.29999950731E+02 0.  0.
        -12    1    1    2    0    0  0.45031884476E+00  0.37375131923E+02 -0.16001991204E+02  0.40659156359E+02  0.00000000000E+00 0.  1.
         11    1    3    3    0    0  0.11364581916E+02 -0.32624645417E+02  0.10770648324E+02  0.36187402177E+02  0.51100000000E-03 0. -1.
        -11    1    3    3    0    0 -0.65478505900E+01 -0.93958379407E+00  0.12919973115E+01  0.67399126381E+01  0.51100000000E-03 0.  1.
         12    1    3    3    0    0 -0.52670501711E+01 -0.38109027123E+01  0.39393455681E+01  0.76015288260E+01  0.00000000000E+00 0. -1.
</event>
<event>
 7    1  0.1098446E-012  0.5052885E+02  0.7816164E-02  0.1300439E+00
        -11   -1    0    0    0    0  0.00000000000E+00  0.00000000000E+00  0.45593999997E+02  0.45594000000E+02  0.51100000000E-03 0.  1.
         11   -1    0    0    0    0 -0.00000000000E+00 -0.00000000000E+00 -0.45593999997E+02  0.45594000000E+02  0.51100000000E-03 0. -1.
    9900012    2    1    2    0    0  0.35429714688E+02 -0.14253432665E+02  0.13954966587E+02  0.50528854436E+02  0.29999983542E+02 0.  0.
        -12    1    1    2    0    0 -0.35429714688E+02  0.14253432665E+02 -0.13954966587E+02  0.40659145564E+02  0.00000000000E+00 0.  1.
         11    1    3    3    0    0  0.17141861809E+02 -0.44666920075E+01  0.63411457819E+01  0.18815017775E+02  0.51100000000E-03 0. -1.
        -11    1    3    3    0    0 -0.17813907357E+01  0.37036129037E+01  0.62671342852E+01  0.74944695545E+01  0.51100000000E-03 0.  1.
        -12    1    3    3    0    0  0.20069243615E+02 -0.13490353561E+02  0.13466865201E+01  0.24219367106E+02  0.00000000000E+00 0.  1.
</event>
<event>
 7    1  0.1098446E-012  0.5052887E+02  0.7816164E-02  0.1300439E+00
        -11   -1    0    0    0    0  0.00000000000E+00  0.00000000000E+00  0.45593999997E+02  0.45594000000E+02  0.51100000000E-03 0.  1.
         11   -1    0    0    0    0 -0.00000000000E+00 -0.00000000000E+00 -0.45593999997E+02  0.45594000000E+02  0.51100000000E-03 0. -1.
    9900012    2    1    2    0    0  0.26303879592E+02 -0.15638147236E+02 -0.26771615482E+02  0.50528866634E+02  0.30000020619E+02 0.  0.
        -12    1    1    2    0    0 -0.26303879592E+02  0.15638147236E+02  0.26771615482E+02  0.40659133366E+02  0.00000000000E+00 0.  1.
         11    1    3    3    0    0  0.17196023432E+02 -0.17161257765E+02 -0.29959597820E+02  0.38571874361E+02  0.51100000000E-03 0. -1.
        -11    1    3    3    0    0  0.44296326493E+01 -0.27283519259E+01  0.13990249140E+01  0.53872832309E+01  0.51100000000E-03 0.  1.
         12    1    3    3    0    0  0.46782235112E+01  0.42514624547E+01  0.17889574237E+01  0.65697090414E+01  0.00000000000E+00 0. -1.
</event>
<event>
 7    1  0.1098446E-012  0.5052887E+02  0.7816164E-02  0.1300439E+00
        -11   -1    0    0    0    0  0.00000000000E+00  0.00000000000E+00  0.45593999997E+02  0.45594000000E+02  0.51100000000E-03 0.  1.
         11   -1    0    0    0    0 -0.00000000000E+00 -0.00000000000E+00 -0.45593999997E+02  0.45594000000E+02  0.51100000000E-03 0. -1.
    9900012    2    1    2    0    0  0.94322940639E+01 -0.22843916992E+01 -0.39483902319E+02  0.50528866228E+02  0.30000019387E+02 0.  0.
        -12    1    1    2    0    0 -0.94322940639E+01  0.22843916992E+01  0.39483902319E+02  0.40659133772E+02  0.00000000000E+00 0.  1.
         11    1    3    3    0    0 -0.16742041021E+01  0.63281616259E+01 -0.83895132927E+01  0.10641077130E+02  0.51100000000E-03 0. -1.
        -11    1    3    3    0    0  0.17168734982E+02 -0.48242855361E+01 -0.22379416576E+02  0.28616035336E+02  0.51100000000E-03 0.  1.
        -12    1    3    3    0    0 -0.60622368163E+01 -0.37882677890E+01 -0.87149724506E+01  0.11271753762E+02  0.00000000000E+00 0.  1.
</event>
<event>
 7    1  0.1098446E-012  0.5052886E+02  0.7816164E-02  0.1300439E+00
        -11   -1    0    0    0    0  0.00000000000E+00  0.00000000000E+00  0.45593999997E+02  0.45594000000E+02  0.51100000000E-03 0.  1.
         11   -1    0    0    0    0 -0.00000000000E+00 -0.00000000000E+00 -0.45593999997E+02  0.45594000000E+02  0.51100000000E-03 0. -1.
    9900012    2    1    2    0    0  0.60111376814E+01 -0.18219256790E+02 -0.35848157772E+02  0.50528861914E+02  0.30000006275E+02 0.  0.
        -12    1    1    2    0    0 -0.60111376814E+01  0.18219256790E+02  0.35848157772E+02  0.40659138086E+02  0.00000000000E+00 0.  1.
         11    1    3    3    0    0 -0.57801687196E+01 -0.13232126225E+02 -0.81344770604E+01  0.16573147926E+02  0.51100000000E-03 0. -1.
        -11    1    3    3    0    0  0.50724444849E+01  0.51830206152E+01 -0.81892203145E+01  0.10938771657E+02  0.51100000000E-03 0.  1.
         12    1    3    3    0    0  0.67188619161E+01 -0.10170151180E+02 -0.19524460397E+02  0.23016942331E+02  0.00000000000E+00 0. -1.
</event>
<event>
 7    1  0.1098446E-012  0.5052886E+02  0.7816164E-02  0.1300439E+00
        -11   -1    0    0    0    0  0.00000000000E+00  0.00000000000E+00  0.45593999997E+02  0.45594000000E+02  0.51100000000E-03 0. -1.
         11   -1    0    0    0    0 -0.00000000000E+00 -0.00000000000E+00 -0.45593999997E+02  0.45594000000E+02  0.51100000000E-03 0.  1.
    9900012    2    1    2    0    0  0.25743890454E+02 -0.12252131307E+02  0.28987978927E+02  0.50528861550E+02  0.30000005166E+02 0.  0.
        -12    1    1    2    0    0 -0.25743890454E+02  0.12252131307E+02 -0.28987978927E+02  0.40659138450E+02  0.00000000000E+00 0.  1.
         11    1    3    3    0    0  0.21144385349E+02  0.18506545518E+01  0.20370003110E+02  0.29418480263E+02  0.51100000000E-03 0. -1.
        -11    1    3    3    0    0  0.72310562570E+01 -0.88693161758E+01  0.98086418768E+00  0.11485427238E+02  0.51100000000E-03 0.  1.
         12    1    3    3    0    0 -0.26315511522E+01 -0.52334696830E+01  0.76371116297E+01  0.96249540485E+01  0.00000000000E+00 0. -1.
</event>
<event>
 7    1  0.1098446E-012  0.5052884E+02  0.7816164E-02  0.1300439E+00
        -11   -1    0    0    0    0  0.00000000000E+00  0.00000000000E+00  0.45593999997E+02  0.45594000000E+02  0.51100000000E-03 0. -1.
         11   -1    0    0    0    0 -0.00000000000E+00 -0.00000000000E+00 -0.45593999997E+02  0.45594000000E+02  0.51100000000E-03 0.  1.
    9900012    2    1    2    0    0 -0.27871029536E+02  0.43636631135E+01  0.29280219817E+02  0.50528842167E+02  0.29999946250E+02 0.  0.
        -12    1    1    2    0    0  0.27871029536E+02 -0.43636631135E+01 -0.29280219817E+02  0.40659157833E+02  0.00000000000E+00 0.  1.
         11    1    3    3    0    0 -0.27219619363E+02  0.14363881968E+01  0.32912790523E+02  0.42734326596E+02  0.51100000000E-03 0. -1.
        -11    1    3    3    0    0 -0.78921890574E+00 -0.40440695103E-01 -0.46020602677E+01  0.46694176189E+01  0.51100000000E-03 0.  1.
        -12    1    3    3    0    0  0.13780873286E+00  0.29677156118E+01  0.96948956235E+00  0.31250979522E+01  0.00000000000E+00 0.  1.
</event>
<event>
 7    1  0.1098446E-012  0.5052887E+02  0.7816164E-02  0.1300439E+00
        -11   -1    0    0    0    0  0.00000000000E+00  0.00000000000E+00  0.45593999997E+02  0.45594000000E+02  0.51100000000E-03 0.  1.
         11   -1    0    0    0    0 -0.00000000000E+00 -0.00000000000E+00 -0.45593999997E+02  0.45594000000E+02  0.51100000000E-03 0. -1.
    9900012    2    1    2    0    0 -0.13022375567E+02 -0.27474773255E+02 -0.26994808485E+02  0.50528866758E+02  0.30000020998E+02 0.  0.
        -12    1    1    2    0    0  0.13022375567E+02  0.27474773255E+02  0.26994808485E+02  0.40659133242E+02  0.00000000000E+00 0.  1.
         11    1    3    3    0    0  0.22065095174E+01 -0.22230256481E+02 -0.49552323542E+01  0.22882467424E+02  0.51100000000E-03 0. -1.
        -11    1    3    3    0    0 -0.13461564304E+02 -0.60068222274E+01 -0.19953903496E+02  0.24808343189E+02  0.51100000000E-03 0.  1.
         12    1    3    3    0    0 -0.17673207805E+01  0.76230545362E+00 -0.20856726352E+01  0.28380561459E+01  0.00000000000E+00 0. -1.
</event>
<event>
 7    1  0.1098446E-012  0.5052887E+02  0.7816164E-02  0.1300439E+00
        -11   -1    0    0    0    0  0.00000000000E+00  0.00000000000E+00  0.45593999997E+02  0.45594000000E+02  0.51100000000E-03 0. -1.
         11   -1    0    0    0    0 -0.00000000000E+00 -0.00000000000E+00 -0.45593999997E+02  0.45594000000E+02  0.51100000000E-03 0.  1.
    9900012    2    1    2    0    0  0.22763615438E+01  0.19952528036E+02  0.35353639038E+02  0.50528868306E+02  0.30000025703E+02 0.  0.
        -12    1    1    2    0    0 -0.22763615438E+01 -0.19952528036E+02 -0.35353639038E+02  0.40659131694E+02  0.00000000000E+00 0.  1.
         11    1    3    3    0    0  0.11064504127E+02  0.12657982603E+02  0.26387202784E+02  0.31287892965E+02  0.51100000000E-03 0. -1.
        -11    1    3    3    0    0 -0.78673379049E+00 -0.31865391676E+01 -0.22647834149E-01  0.32823002771E+01  0.51100000000E-03 0.  1.
         12    1    3    3    0    0 -0.80014087929E+01  0.10481084600E+02  0.89890840876E+01  0.15958675064E+02  0.00000000000E+00 0. -1.
</event>
<event>
 7    1  0.1098446E-012  0.5052886E+02  0.7816164E-02  0.1300439E+00
        -11   -1    0    0    0    0  0.00000000000E+00  0.00000000000E+00  0.45593999997E+02  0.45594000000E+02  0.51100000000E-03 0.  1.
         11   -1    0    0    0    0 -0.00000000000E+00 -0.00000000000E+00 -0.45593999997E+02  0.45594000000E+02  0.51100000000E-03 0. -1.
    9900012    2    1    2    0    0 -0.20826194970E+02  0.29643470207E+02  0.18458066282E+02  0.50528856702E+02  0.29999990432E+02 0.  0.
        -12    1    1    2    0    0  0.20826194970E+02 -0.29643470207E+02 -0.18458066282E+02  0.40659143298E+02  0.00000000000E+00 0.  1.
         11    1    3    3    0    0 -0.10719191429E+02  0.94354959886E+01  0.16120753382E+01  0.14371097265E+02  0.51100000000E-03 0. -1.
        -11    1    3    3    0    0  0.68021990991E+01  0.25929577139E+01  0.60269921716E+01  0.94508188633E+01  0.51100000000E-03 0.  1.
        -12    1    3    3    0    0 -0.16909202641E+02  0.17615016505E+02  0.10818998772E+02  0.26706940574E+02  0.00000000000E+00 0.  1.
</event>
<event>
 7    1  0.1098446E-012  0.5052887E+02  0.7816164E-02  0.1300439E+00
        -11   -1    0    0    0    0  0.00000000000E+00  0.00000000000E+00  0.45593999997E+02  0.45594000000E+02  0.51100000000E-03 0.  1.
         11   -1    0    0    0    0 -0.00000000000E+00 -0.00000000000E+00 -0.45593999997E+02  0.45594000000E+02  0.51100000000E-03 0. -1.
    9900012    2    1    2    0    0  0.30087459085E+02  0.27189101255E+02 -0.29432149179E+01  0.50528868980E+02  0.30000027753E+02 0.  0.
        -12    1    1    2    0    0 -0.30087459085E+02 -0.27189101255E+02  0.29432149179E+01  0.40659131020E+02  0.00000000000E+00 0.  1.
         11    1    3    3    0    0  0.28952830988E+02  0.23115451554E+02 -0.93573773372E+01  0.38211922663E+02  0.51100000000E-03 0. -1.
        -11    1    3    3    0    0  0.29910451544E+01  0.38749414431E+01  0.83173405993E+01  0.96508899698E+01  0.51100000000E-03 0.  1.
        -12    1    3    3    0    0 -0.18564170574E+01  0.19870825803E+00 -0.19031781800E+01  0.26660563475E+01  0.00000000000E+00 0.  1.
</event>
<event>
 7    1  0.1098446E-012  0.5052886E+02  0.7816164E-02  0.1300439E+00
        -11   -1    0    0    0    0  0.00000000000E+00  0.00000000000E+00  0.45593999997E+02  0.45594000000E+02  0.51100000000E-03 0. -1.
         11   -1    0    0    0    0 -0.00000000000E+00 -0.00000000000E+00 -0.45593999997E+02  0.45594000000E+02  0.51100000000E-03 0.  1.
    9900012    2    1    2    0    0 -0.26490099864E+01  0.28065074642E+02  0.29300170220E+02  0.50528860272E+02  0.30000001281E+02 0.  0.
        -12    1    1    2    0    0  0.26490099864E+01 -0.28065074642E+02 -0.29300170220E+02  0.40659139728E+02  0.00000000000E+00 0.  1.
         11    1    3    3    0    0  0.75943683163E+01  0.21433669779E+01  0.18641800734E+02  0.20243151607E+02  0.51100000000E-03 0. -1.
        -11    1    3    3    0    0 -0.40197030111E+01  0.83881430609E+01  0.10932423394E+01  0.93655824902E+01  0.51100000000E-03 0.  1.
         12    1    3    3    0    0 -0.62236752915E+01  0.17533564603E+02  0.95651271466E+01  0.20920126174E+02  0.00000000000E+00 0. -1.
</event>
<event>
 7    1  0.1098446E-012  0.5052886E+02  0.7816164E-02  0.1300439E+00
        -11   -1    0    0    0    0  0.00000000000E+00  0.00000000000E+00  0.45593999997E+02  0.45594000000E+02  0.51100000000E-03 0.  1.
         11   -1    0    0    0    0 -0.00000000000E+00 -0.00000000000E+00 -0.45593999997E+02  0.45594000000E+02  0.51100000000E-03 0. -1.
    9900012    2    1    2    0    0  0.19212988331E+02  0.87378186361E+01 -0.34751646621E+02  0.50528864028E+02  0.30000012700E+02 0.  0.
        -12    1    1    2    0    0 -0.19212988331E+02 -0.87378186361E+01  0.34751646621E+02  0.40659135972E+02  0.00000000000E+00 0.  1.
         11    1    3    3    0    0  0.12882382554E+02 -0.82589812576E+01 -0.11998088717E+02  0.19445325525E+02  0.51100000000E-03 0. -1.
        -11    1    3    3    0    0  0.50552897204E+01  0.13821456208E+02 -0.97895224112E+01  0.17675501554E+02  0.51100000000E-03 0.  1.
         12    1    3    3    0    0  0.12753160569E+01  0.31753436854E+01 -0.12964035493E+02  0.13408036949E+02  0.00000000000E+00 0. -1.
</event>
<event>
 7    1  0.1098446E-012  0.5052886E+02  0.7816164E-02  0.1300439E+00
        -11   -1    0    0    0    0  0.00000000000E+00  0.00000000000E+00  0.45593999997E+02  0.45594000000E+02  0.51100000000E-03 0.  1.
         11   -1    0    0    0    0 -0.00000000000E+00 -0.00000000000E+00 -0.45593999997E+02  0.45594000000E+02  0.51100000000E-03 0. -1.
    9900012    2    1    2    0    0  0.23503518208E+00  0.40658058785E+02  0.18102525690E+00  0.50528858890E+02  0.29999997081E+02 0.  0.
        -12    1    1    2    0    0 -0.23503518208E+00 -0.40658058785E+02 -0.18102525690E+00  0.40659141110E+02  0.00000000000E+00 0.  1.
         11    1    3    3    0    0  0.85159196885E+01  0.87841596728E+01 -0.53193727029E+01  0.13340842384E+02  0.51100000000E-03 0. -1.
        -11    1    3    3    0    0 -0.10119441576E+02  0.14520572269E+02 -0.27055168094E+01  0.17904466992E+02  0.51100000000E-03 0.  1.
         12    1    3    3    0    0  0.18385570696E+01  0.17353326843E+02  0.82059147692E+01  0.19283549513E+02  0.00000000000E+00 0. -1.
</event>
<event>
 7    1  0.1098446E-012  0.5052885E+02  0.7816164E-02  0.1300439E+00
        -11   -1    0    0    0    0  0.00000000000E+00  0.00000000000E+00  0.45593999997E+02  0.45594000000E+02  0.51100000000E-03 0.  1.
         11   -1    0    0    0    0 -0.00000000000E+00 -0.00000000000E+00 -0.45593999997E+02  0.45594000000E+02  0.51100000000E-03 0. -1.
    9900012    2    1    2    0    0 -0.25994445943E+02  0.28637547713E+02 -0.12543752250E+02  0.50528854910E+02  0.29999984985E+02 0.  0.
        -12    1    1    2    0    0  0.25994445943E+02 -0.28637547713E+02  0.12543752250E+02  0.40659145090E+02  0.00000000000E+00 0.  1.
         11    1    3    3    0    0 -0.21308994923E+02  0.33714276794E+02 -0.10844401522E+02  0.41331909816E+02  0.51100000000E-03 0. -1.
        -11    1    3    3    0    0 -0.15495745496E+01 -0.15470589741E+01 -0.35126552830E+01  0.41392414948E+01  0.51100000000E-03 0.  1.
         12    1    3    3    0    0 -0.31358764699E+01 -0.35296701063E+01  0.18133045546E+01  0.50577035996E+01  0.00000000000E+00 0. -1.
</event>
<event>
 7    1  0.1098446E-012  0.5052886E+02  0.7816164E-02  0.1300439E+00
        -11   -1    0    0    0    0  0.00000000000E+00  0.00000000000E+00  0.45593999997E+02  0.45594000000E+02  0.51100000000E-03 0.  1.
         11   -1    0    0    0    0 -0.00000000000E+00 -0.00000000000E+00 -0.45593999997E+02  0.45594000000E+02  0.51100000000E-03 0. -1.
    9900012    2    1    2    0    0  0.37455930447E+01  0.28226612386E+02  0.29024028168E+02  0.50528864187E+02  0.30000013181E+02 0.  0.
        -12    1    1    2    0    0 -0.37455930447E+01 -0.28226612386E+02 -0.29024028168E+02  0.40659135813E+02  0.00000000000E+00 0.  1.
         11    1    3    3    0    0  0.10399496902E+02  0.14498831665E+02  0.49774301415E+01  0.18524051029E+02  0.51100000000E-03 0. -1.
        -11    1    3    3    0    0 -0.74922442208E+01  0.19866077791E+01  0.15902741937E+02  0.17691171112E+02  0.51100000000E-03 0.  1.
        -12    1    3    3    0    0  0.83834036377E+00  0.11741172941E+02  0.81438560892E+01  0.14313642046E+02  0.00000000000E+00 0.  1.
</event>
<event>
 7    1  0.1098446E-012  0.5052886E+02  0.7816164E-02  0.1300439E+00
        -11   -1    0    0    0    0  0.00000000000E+00  0.00000000000E+00  0.45593999997E+02  0.45594000000E+02  0.51100000000E-03 0.  1.
         11   -1    0    0    0    0 -0.00000000000E+00 -0.00000000000E+00 -0.45593999997E+02  0.45594000000E+02  0.51100000000E-03 0. -1.
    9900012    2    1    2    0    0 -0.36928363734E+01  0.31903228532E+02 -0.24934165878E+02  0.50528860077E+02  0.30000000690E+02 0.  0.
        -12    1    1    2    0    0  0.36928363734E+01 -0.31903228532E+02  0.24934165878E+02  0.40659139923E+02  0.00000000000E+00 0.  1.
         11    1    3    3    0    0  0.23651969998E+00 -0.11635211084E+01  0.18480256858E+01  0.21965705395E+01  0.51100000000E-03 0.  1.
        -11    1    3    3    0    0 -0.67964791723E+01  0.34419616898E+02 -0.18932439424E+02  0.39866520031E+02  0.51100000000E-03 0. -1.
         12    1    3    3    0    0  0.28671230989E+01 -0.13528672578E+01 -0.78497521403E+01  0.84657695070E+01  0.00000000000E+00 0. -1.
</event>
<event>
 7    1  0.1098446E-012  0.5052889E+02  0.7816164E-02  0.1300439E+00
        -11   -1    0    0    0    0  0.00000000000E+00  0.00000000000E+00  0.45593999997E+02  0.45594000000E+02  0.51100000000E-03 0.  1.
         11   -1    0    0    0    0 -0.00000000000E+00 -0.00000000000E+00 -0.45593999997E+02  0.45594000000E+02  0.51100000000E-03 0. -1.
    9900012    2    1    2    0    0  0.29169887214E+02  0.22674417914E+02 -0.16975027887E+02  0.50528891309E+02  0.30000095621E+02 0.  0.
        -12    1    1    2    0    0 -0.29169887214E+02 -0.22674417914E+02  0.16975027887E+02  0.40659108691E+02  0.00000000000E+00 0.  1.
         11    1    3    3    0    0  0.56426640699E+01  0.48495898584E+01 -0.61771503787E+01  0.96703343615E+01  0.51100000000E-03 0. -1.
        -11    1    3    3    0    0  0.19103784414E+02  0.58080697382E+01  0.49401955212E+01  0.20569243668E+02  0.51100000000E-03 0.  1.
        -12    1    3    3    0    0  0.44234387300E+01  0.12016758317E+02 -0.15738073030E+02  0.20289313279E+02  0.00000000000E+00 0.  1.
</event>
<event>
 7    1  0.1098446E-012  0.5052886E+02  0.7816164E-02  0.1300439E+00
        -11   -1    0    0    0    0  0.00000000000E+00  0.00000000000E+00  0.45593999997E+02  0.45594000000E+02  0.51100000000E-03 0. -1.
         11   -1    0    0    0    0 -0.00000000000E+00 -0.00000000000E+00 -0.45593999997E+02  0.45594000000E+02  0.51100000000E-03 0.  1.
    9900012    2    1    2    0    0  0.55674696419E+01 -0.38160108541E+02  0.12883118767E+02  0.50528863865E+02  0.30000012204E+02 0.  0.
        -12    1    1    2    0    0 -0.55674696419E+01  0.38160108541E+02 -0.12883118767E+02  0.40659136135E+02  0.00000000000E+00 0.  1.
         11    1    3    3    0    0  0.35903779611E+01 -0.58089093628E+01  0.15528902467E+02  0.16964110763E+02  0.51100000000E-03 0. -1.
        -11    1    3    3    0    0 -0.21625620898E+01 -0.22570303583E+02 -0.33535798460E+01  0.22920335439E+02  0.51100000000E-03 0.  1.
         12    1    3    3    0    0  0.41396537706E+01 -0.97808955958E+01  0.70779614631E+00  0.10644417663E+02  0.00000000000E+00 0. -1.
</event>
<event>
 7    1  0.1098446E-012  0.5052887E+02  0.7816164E-02  0.1300439E+00
        -11   -1    0    0    0    0  0.00000000000E+00  0.00000000000E+00  0.45593999997E+02  0.45594000000E+02  0.51100000000E-03 0. -1.
         11   -1    0    0    0    0 -0.00000000000E+00 -0.00000000000E+00 -0.45593999997E+02  0.45594000000E+02  0.51100000000E-03 0.  1.
    9900012    2    1    2    0    0 -0.13689182622E+02 -0.37870623012E+02  0.56202046485E+01  0.50528874229E+02  0.30000043706E+02 0.  0.
        -12    1    1    2    0    0  0.13689182622E+02  0.37870623012E+02 -0.56202046485E+01  0.40659125771E+02  0.00000000000E+00 0.  1.
         11    1    3    3    0    0 -0.13443003622E+02 -0.25660095268E+02  0.50283069825E+01  0.29401338522E+02  0.51100000000E-03 0. -1.
        -11    1    3    3    0    0  0.29920748026E+01 -0.72670871817E+01  0.82897096238E+01  0.11422887272E+02  0.51100000000E-03 0.  1.
        -12    1    3    3    0    0 -0.32382538032E+01 -0.49434405625E+01 -0.76978119579E+01  0.97046484340E+01  0.00000000000E+00 0.  1.
</event>
<event>
 7    1  0.1515697E-012  0.5052886E+02  0.7816164E-02  0.1300439E+00
        -11   -1    0    0    0    0  0.00000000000E+00  0.00000000000E+00  0.45593999997E+02  0.45594000000E+02  0.51100000000E-03 0. -1.
         11   -1    0    0    0    0 -0.00000000000E+00 -0.00000000000E+00 -0.45593999997E+02  0.45594000000E+02  0.51100000000E-03 0.  1.
    9900012    2    1    2    0    0 -0.25927442644E+01  0.23750456511E+02  0.32899226619E+02  0.50528860567E+02  0.30000002179E+02 0.  0.
        -12    1    1    2    0    0  0.25927442644E+01 -0.23750456511E+02 -0.32899226619E+02  0.40659139433E+02  0.00000000000E+00 0.  1.
         11    1    3    3    0    0  0.70876843952E+01  0.11694521673E+02  0.21434733298E+02  0.25425280707E+02  0.51100000000E-03 0. -1.
        -11    1    3    3    0    0 -0.22636826323E+01  0.82920870429E+00 -0.39593182815E+01  0.46355202136E+01  0.51100000000E-03 0.  1.
         12    1    3    3    0    0 -0.74167460272E+01  0.11226726134E+02  0.15423811603E+02  0.20468059646E+02  0.00000000000E+00 0. -1.
</event>
<event>
 7    1  0.1098446E-012  0.5052885E+02  0.7816164E-02  0.1300439E+00
        -11   -1    0    0    0    0  0.00000000000E+00  0.00000000000E+00  0.45593999997E+02  0.45594000000E+02  0.51100000000E-03 0.  1.
         11   -1    0    0    0    0 -0.00000000000E+00 -0.00000000000E+00 -0.45593999997E+02  0.45594000000E+02  0.51100000000E-03 0. -1.
    9900012    2    1    2    0    0  0.69796303129E+01 -0.12553364086E+02 -0.38037664746E+02  0.50528854306E+02  0.29999983150E+02 0.  0.
        -12    1    1    2    0    0 -0.69796303129E+01  0.12553364086E+02  0.38037664746E+02  0.40659145694E+02  0.00000000000E+00 0.  1.
         11    1    3    3    0    0  0.32394952975E+01 -0.12109307096E+02 -0.32697622581E+02  0.35018054927E+02  0.51100000000E-03 0. -1.
        -11    1    3    3    0    0  0.30120258000E+01  0.43142852035E+01  0.28700740733E+01  0.59935533438E+01  0.51100000000E-03 0.  1.
        -12    1    3    3    0    0  0.72810921547E+00 -0.47583421932E+01 -0.82101162387E+01  0.95172460360E+01  0.00000000000E+00 0.  1.
</event>
<event>
 7    1  0.1098446E-012  0.5052886E+02  0.7816164E-02  0.1300439E+00
        -11   -1    0    0    0    0  0.00000000000E+00  0.00000000000E+00  0.45593999997E+02  0.45594000000E+02  0.51100000000E-03 0. -1.
         11   -1    0    0    0    0 -0.00000000000E+00 -0.00000000000E+00 -0.45593999997E+02  0.45594000000E+02  0.51100000000E-03 0.  1.
    9900012    2    1    2    0    0  0.25717175175E+02 -0.28845276962E+02  0.12638936301E+02  0.50528858189E+02  0.29999994951E+02 0.  0.
        -12    1    1    2    0    0 -0.25717175175E+02  0.28845276962E+02 -0.12638936301E+02  0.40659141811E+02  0.00000000000E+00 0.  1.
         11    1    3    3    0    0  0.50699794942E+00 -0.71360664864E+01  0.41945540646E+01  0.82930558832E+01  0.51100000000E-03 0. -1.
        -11    1    3    3    0    0  0.27864623630E+02 -0.24787120078E+02  0.71761013300E+01  0.37978085818E+02  0.51100000000E-03 0.  1.
        -12    1    3    3    0    0 -0.26544464044E+01  0.30779096026E+01  0.12682809060E+01  0.42577164881E+01  0.00000000000E+00 0.  1.
</event>
<event>
 7    1  0.1098446E-012  0.5052887E+02  0.7816164E-02  0.1300439E+00
        -11   -1    0    0    0    0  0.00000000000E+00  0.00000000000E+00  0.45593999997E+02  0.45594000000E+02  0.51100000000E-03 0. -1.
         11   -1    0    0    0    0 -0.00000000000E+00 -0.00000000000E+00 -0.45593999997E+02  0.45594000000E+02  0.51100000000E-03 0.  1.
    9900012    2    1    2    0    0  0.33769648601E+02 -0.76480211275E+01  0.21313930933E+02  0.50528867623E+02  0.30000023627E+02 0.  0.
        -12    1    1    2    0    0 -0.33769648601E+02  0.76480211275E+01 -0.21313930933E+02  0.40659132377E+02  0.00000000000E+00 0.  1.
         11    1    3    3    0    0  0.19612859057E+02 -0.13583775339E+02  0.77572006426E+01  0.25086995733E+02  0.51100000000E-03 0. -1.
        -11    1    3    3    0    0  0.12420187908E+02  0.69852236032E+01  0.28339380655E+01  0.14528785967E+02  0.51100000000E-03 0.  1.
        -12    1    3    3    0    0  0.17366016363E+01 -0.10494693913E+01  0.10722792225E+02  0.10913085923E+02  0.00000000000E+00 0.  1.
</event>
<event>
 7    1  0.1098446E-012  0.5052885E+02  0.7816164E-02  0.1300439E+00
        -11   -1    0    0    0    0  0.00000000000E+00  0.00000000000E+00  0.45593999997E+02  0.45594000000E+02  0.51100000000E-03 0. -1.
         11   -1    0    0    0    0 -0.00000000000E+00 -0.00000000000E+00 -0.45593999997E+02  0.45594000000E+02  0.51100000000E-03 0.  1.
    9900012    2    1    2    0    0 -0.19385371626E+02 -0.26236000897E+02  0.24270265922E+02  0.50528853623E+02  0.29999981074E+02 0.  0.
        -12    1    1    2    0    0  0.19385371626E+02  0.26236000897E+02 -0.24270265922E+02  0.40659146377E+02  0.00000000000E+00 0.  1.
         11    1    3    3    0    0 -0.10115893533E+02 -0.14699089754E+01  0.18160736051E+02  0.20839968055E+02  0.51100000000E-03 0. -1.
        -11    1    3    3    0    0  0.14181077873E+01 -0.13303956973E+02  0.26256935894E+01  0.13634535853E+02  0.51100000000E-03 0.  1.
         12    1    3    3    0    0 -0.10687585881E+02 -0.11462134948E+02  0.34838362810E+01  0.16054349715E+02  0.00000000000E+00 0. -1.
</event>
<event>
 7    1  0.1098446E-012  0.5052886E+02  0.7816164E-02  0.1300439E+00
        -11   -1    0    0    0    0  0.00000000000E+00  0.00000000000E+00  0.45593999997E+02  0.45594000000E+02  0.51100000000E-03 0.  1.
         11   -1    0    0    0    0 -0.00000000000E+00 -0.00000000000E+00 -0.45593999997E+02  0.45594000000E+02  0.51100000000E-03 0. -1.
    9900012    2    1    2    0    0  0.31063595860E+01  0.25217871313E+02 -0.31742326656E+02  0.50528858285E+02  0.29999995244E+02 0.  0.
        -12    1    1    2    0    0 -0.31063595860E+01 -0.25217871313E+02  0.31742326656E+02  0.40659141715E+02  0.00000000000E+00 0.  1.
         11    1    3    3    0    0 -0.64986091898E+01  0.52671472778E+01 -0.15566037772E+02  0.17671341036E+02  0.51100000000E-03 0. -1.
        -11    1    3    3    0    0  0.25232759982E+01  0.15396500156E+02 -0.11639347400E+01  0.15645251138E+02  0.51100000000E-03 0.  1.
         12    1    3    3    0    0  0.70816927776E+01  0.45542238787E+01 -0.15012354144E+02  0.17212266112E+02  0.00000000000E+00 0. -1.
</event>
<event>
 7    1  0.1098446E-012  0.5052886E+02  0.7816164E-02  0.1300439E+00
        -11   -1    0    0    0    0  0.00000000000E+00  0.00000000000E+00  0.45593999997E+02  0.45594000000E+02  0.51100000000E-03 0.  1.
         11   -1    0    0    0    0 -0.00000000000E+00 -0.00000000000E+00 -0.45593999997E+02  0.45594000000E+02  0.51100000000E-03 0. -1.
    9900012    2    1    2    0    0  0.25932657897E+02  0.18539751653E+02 -0.25237679317E+02  0.50528860876E+02  0.30000003119E+02 0.  0.
        -12    1    1    2    0    0 -0.25932657897E+02 -0.18539751653E+02  0.25237679317E+02  0.40659139124E+02  0.00000000000E+00 0.  1.
         11    1    3    3    0    0  0.28227459712E+02  0.15068180892E+02 -0.17721997616E+02  0.36577435079E+02  0.51100000000E-03 0. -1.
        -11    1    3    3    0    0 -0.45757093502E+01  0.62962378468E+01 -0.66055622290E+01  0.10208485671E+02  0.51100000000E-03 0.  1.
         12    1    3    3    0    0  0.22809075349E+01 -0.28246670859E+01 -0.91011947205E+00  0.37429401255E+01  0.00000000000E+00 0. -1.
</event>
<event>
 7    1  0.1098446E-012  0.5052888E+02  0.7816164E-02  0.1300439E+00
        -11   -1    0    0    0    0  0.00000000000E+00  0.00000000000E+00  0.45593999997E+02  0.45594000000E+02  0.51100000000E-03 0. -1.
         11   -1    0    0    0    0 -0.00000000000E+00 -0.00000000000E+00 -0.45593999997E+02  0.45594000000E+02  0.51100000000E-03 0.  1.
    9900012    2    1    2    0    0  0.57802577596E+01  0.96959055480E+01  0.39060751428E+02  0.50528877207E+02  0.30000052760E+02 0.  0.
        -12    1    1    2    0    0 -0.57802577596E+01 -0.96959055480E+01 -0.39060751428E+02  0.40659122793E+02  0.00000000000E+00 0.  1.
         11    1    3    3    0    0 -0.48247805792E+01  0.86895487118E+01  0.16786352558E+02  0.19508162315E+02  0.51100000000E-03 0. -1.
        -11    1    3    3    0    0  0.15375132984E+02 -0.21184654123E+01  0.18652801888E+02  0.24265399822E+02  0.51100000000E-03 0.  1.
        -12    1    3    3    0    0 -0.47700946447E+01  0.31248222485E+01  0.36215969811E+01  0.67553150702E+01  0.00000000000E+00 0.  1.
</event>
<event>
 7    1  0.1098446E-012  0.5052886E+02  0.7816164E-02  0.1300439E+00
        -11   -1    0    0    0    0  0.00000000000E+00  0.00000000000E+00  0.45593999997E+02  0.45594000000E+02  0.51100000000E-03 0.  1.
         11   -1    0    0    0    0 -0.00000000000E+00 -0.00000000000E+00 -0.45593999997E+02  0.45594000000E+02  0.51100000000E-03 0. -1.
    9900012    2    1    2    0    0  0.32598969287E+02  0.14282130647E+02 -0.19659436935E+02  0.50528861851E+02  0.30000006083E+02 0.  0.
        -12    1    1    2    0    0 -0.32598969287E+02 -0.14282130647E+02  0.19659436935E+02  0.40659138149E+02  0.00000000000E+00 0.  1.
         11    1    3    3    0    0  0.26218696312E+02  0.25512786988E+01 -0.18969190200E+02  0.32461657943E+02  0.51100000000E-03 0. -1.
        -11    1    3    3    0    0  0.70159062986E+00  0.12288173609E+02 -0.10294704581E+01  0.12351163903E+02  0.51100000000E-03 0.  1.
        -12    1    3    3    0    0  0.56786823450E+01 -0.55732166075E+00  0.33922372348E+00  0.57160400054E+01  0.00000000000E+00 0.  1.
</event>
<event>
 7    1  0.1098446E-012  0.5052887E+02  0.7816164E-02  0.1300439E+00
        -11   -1    0    0    0    0  0.00000000000E+00  0.00000000000E+00  0.45593999997E+02  0.45594000000E+02  0.51100000000E-03 0. -1.
         11   -1    0    0    0    0 -0.00000000000E+00 -0.00000000000E+00 -0.45593999997E+02  0.45594000000E+02  0.51100000000E-03 0.  1.
    9900012    2    1    2    0    0 -0.68758141076E+01 -0.36561264136E+02  0.16406168471E+02  0.50528865494E+02  0.30000017156E+02 0.  0.
        -12    1    1    2    0    0  0.68758141076E+01  0.36561264136E+02 -0.16406168471E+02  0.40659134506E+02  0.00000000000E+00 0.  1.
         11    1    3    3    0    0 -0.73416745884E+01 -0.16511477825E+02  0.14753988202E+02  0.23328292990E+02  0.51100000000E-03 0. -1.
        -11    1    3    3    0    0 -0.16402153792E+01 -0.20969319292E+02 -0.37179027863E+01  0.21359434905E+02  0.51100000000E-03 0.  1.
        -12    1    3    3    0    0  0.21060758600E+01  0.91953298039E+00  0.53700830553E+01  0.58411375990E+01  0.00000000000E+00 0.  1.
</event>
<event>
 7    1  0.1098446E-012  0.5052885E+02  0.7816164E-02  0.1300439E+00
        -11   -1    0    0    0    0  0.00000000000E+00  0.00000000000E+00  0.45593999997E+02  0.45594000000E+02  0.51100000000E-03 0.  1.
         11   -1    0    0    0    0 -0.00000000000E+00 -0.00000000000E+00 -0.45593999997E+02  0.45594000000E+02  0.51100000000E-03 0. -1.
    9900012    2    1    2    0    0 -0.16939735919E+02  0.36771760331E+02 -0.37482167440E+01  0.50528854171E+02  0.29999982737E+02 0.  0.
        -12    1    1    2    0    0  0.16939735919E+02 -0.36771760331E+02  0.37482167440E+01  0.40659145829E+02  0.00000000000E+00 0.  1.
         11    1    3    3    0    0 -0.13101066335E+02  0.11998949594E+02  0.10719854284E+02  0.20749168817E+02  0.51100000000E-03 0.  1.
        -11    1    3    3    0    0 -0.90351807024E+00  0.99864605535E+01 -0.97443542464E+01  0.13982066343E+02  0.51100000000E-03 0. -1.
         12    1    3    3    0    0 -0.29351515136E+01  0.14786350184E+02 -0.47237167815E+01  0.15797619010E+02  0.00000000000E+00 0. -1.
</event>
<event>
 7    1  0.1098446E-012  0.5052888E+02  0.7816164E-02  0.1300439E+00
        -11   -1    0    0    0    0  0.00000000000E+00  0.00000000000E+00  0.45593999997E+02  0.45594000000E+02  0.51100000000E-03 0. -1.
         11   -1    0    0    0    0 -0.00000000000E+00 -0.00000000000E+00 -0.45593999997E+02  0.45594000000E+02  0.51100000000E-03 0.  1.
    9900012    2    1    2    0    0  0.35105246588E+02 -0.15740826247E+02  0.13153410680E+02  0.50528878496E+02  0.30000056677E+02 0.  0.
        -12    1    1    2    0    0 -0.35105246588E+02  0.15740826247E+02 -0.13153410680E+02  0.40659121504E+02  0.00000000000E+00 0.  1.
         11    1    3    3    0    0  0.28572915409E+02 -0.79540376656E+01  0.12164629187E+02  0.32057080554E+02  0.51100000000E-03 0. -1.
        -11    1    3    3    0    0 -0.50819343991E+01 -0.20108354245E+01  0.32971918898E-01  0.54654006029E+01  0.51100000000E-03 0.  1.
        -12    1    3    3    0    0  0.11614265579E+02 -0.57759531568E+01  0.95580957408E+00  0.13006397339E+02  0.00000000000E+00 0.  1.
</event>
<event>
 7    1  0.1098446E-012  0.5052886E+02  0.7816164E-02  0.1300439E+00
        -11   -1    0    0    0    0  0.00000000000E+00  0.00000000000E+00  0.45593999997E+02  0.45594000000E+02  0.51100000000E-03 0.  1.
         11   -1    0    0    0    0 -0.00000000000E+00 -0.00000000000E+00 -0.45593999997E+02  0.45594000000E+02  0.51100000000E-03 0. -1.
    9900012    2    1    2    0    0  0.38363271299E+02  0.34800333939E+01 -0.13012100041E+02  0.50528856321E+02  0.29999989274E+02 0.  0.
        -12    1    1    2    0    0 -0.38363271299E+02 -0.34800333939E+01  0.13012100041E+02  0.40659143679E+02  0.00000000000E+00 0.  1.
         11    1    3    3    0    0  0.22942266051E+02  0.61770249886E+01 -0.18962106216E+02  0.30398432224E+02  0.51100000000E-03 0. -1.
        -11    1    3    3    0    0  0.40169873751E+01  0.14882945736E+01  0.67078410017E+01  0.79590413666E+01  0.51100000000E-03 0.  1.
        -12    1    3    3    0    0  0.11404017873E+02 -0.41852861683E+01 -0.75783482712E+00  0.12171382731E+02  0.00000000000E+00 0.  1.
</event>
<event>
 7    1  0.1098446E-012  0.5052886E+02  0.7816164E-02  0.1300439E+00
        -11   -1    0    0    0    0  0.00000000000E+00  0.00000000000E+00  0.45593999997E+02  0.45594000000E+02  0.51100000000E-03 0.  1.
         11   -1    0    0    0    0 -0.00000000000E+00 -0.00000000000E+00 -0.45593999997E+02  0.45594000000E+02  0.51100000000E-03 0. -1.
    9900012    2    1    2    0    0  0.22132130358E+02 -0.29608213297E+02 -0.16931860105E+02  0.50528863568E+02  0.30000011300E+02 0.  0.
        -12    1    1    2    0    0 -0.22132130358E+02  0.29608213297E+02  0.16931860105E+02  0.40659136432E+02  0.00000000000E+00 0.  1.
         11    1    3    3    0    0  0.16710625214E+02 -0.18152234358E+02  0.33652477846E+01  0.24901275071E+02  0.51100000000E-03 0. -1.
        -11    1    3    3    0    0 -0.26208784163E+00 -0.73315576887E+01 -0.15424546249E+02  0.17080311924E+02  0.51100000000E-03 0.  1.
        -12    1    3    3    0    0  0.56835929855E+01 -0.41244212504E+01 -0.48725616402E+01  0.85472765729E+01  0.00000000000E+00 0.  1.
</event>
<event>
 7    1  0.1098446E-012  0.5052886E+02  0.7816164E-02  0.1300439E+00
        -11   -1    0    0    0    0  0.00000000000E+00  0.00000000000E+00  0.45593999997E+02  0.45594000000E+02  0.51100000000E-03 0.  1.
         11   -1    0    0    0    0 -0.00000000000E+00 -0.00000000000E+00 -0.45593999997E+02  0.45594000000E+02  0.51100000000E-03 0. -1.
    9900012    2    1    2    0    0  0.32196713797E+00 -0.24716883991E+02 -0.32282153572E+02  0.50528862573E+02  0.30000008277E+02 0.  0.
        -12    1    1    2    0    0 -0.32196713797E+00  0.24716883991E+02  0.32282153572E+02  0.40659137427E+02  0.00000000000E+00 0.  1.
         11    1    3    3    0    0 -0.55412758108E+01 -0.22132695451E+02 -0.72915192960E+01  0.23952624062E+02  0.51100000000E-03 0. -1.
        -11    1    3    3    0    0  0.29537898977E+01  0.31761517290E+00 -0.19463716792E+02  0.19689134714E+02  0.51100000000E-03 0.  1.
         12    1    3    3    0    0  0.29094530511E+01 -0.29018037130E+01 -0.55269174833E+01  0.68871037971E+01  0.00000000000E+00 0. -1.
</event>
<event>
 7    1  0.1098446E-012  0.5052885E+02  0.7816164E-02  0.1300439E+00
        -11   -1    0    0    0    0  0.00000000000E+00  0.00000000000E+00  0.45593999997E+02  0.45594000000E+02  0.51100000000E-03 0. -1.
         11   -1    0    0    0    0 -0.00000000000E+00 -0.00000000000E+00 -0.45593999997E+02  0.45594000000E+02  0.51100000000E-03 0.  1.
    9900012    2    1    2    0    0 -0.45150796921E+01 -0.99627136488E+01  0.39160241914E+02  0.50528853986E+02  0.29999982175E+02 0.  0.
        -12    1    1    2    0    0  0.45150796921E+01  0.99627136488E+01 -0.39160241914E+02  0.40659146014E+02  0.00000000000E+00 0.  1.
         11    1    3    3    0    0 -0.11454259102E+02 -0.85165021638E+01  0.13283325761E+02  0.19498143609E+02  0.51100000000E-03 0. -1.
        -11    1    3    3    0    0  0.44771401960E+01 -0.84557925481E+01  0.12660499571E+02  0.15869261533E+02  0.51100000000E-03 0.  1.
        -12    1    3    3    0    0  0.24620392138E+01  0.70095810631E+01  0.13216416582E+02  0.15161448844E+02  0.00000000000E+00 0.  1.
</event>
<event>
 7    1  0.1098446E-012  0.5052892E+02  0.7816164E-02  0.1300439E+00
        -11   -1    0    0    0    0  0.00000000000E+00  0.00000000000E+00  0.45593999997E+02  0.45594000000E+02  0.51100000000E-03 0.  1.
         11   -1    0    0    0    0 -0.00000000000E+00 -0.00000000000E+00 -0.45593999997E+02  0.45594000000E+02  0.51100000000E-03 0. -1.
    9900012    2    1    2    0    0 -0.25688444751E+02 -0.15278878686E+02 -0.27564838809E+02  0.50528921479E+02  0.30000187326E+02 0.  0.
        -12    1    1    2    0    0  0.25688444751E+02  0.15278878686E+02  0.27564838809E+02  0.40659078521E+02  0.00000000000E+00 0.  1.
         11    1    3    3    0    0 -0.29812069175E+01 -0.14087054855E+02 -0.41717028593E+01  0.14991191219E+02  0.51100000000E-03 0. -1.
        -11    1    3    3    0    0 -0.21235180917E+02 -0.54544664178E+01 -0.17145708235E+02  0.27832704210E+02  0.51100000000E-03 0.  1.
         12    1    3    3    0    0 -0.14720569171E+01  0.42626425862E+01 -0.62474277141E+01  0.77050260498E+01  0.00000000000E+00 0. -1.
</event>
<event>
 7    1  0.1098446E-012  0.5052887E+02  0.7816164E-02  0.1300439E+00
        -11   -1    0    0    0    0  0.00000000000E+00  0.00000000000E+00  0.45593999997E+02  0.45594000000E+02  0.51100000000E-03 0.  1.
         11   -1    0    0    0    0 -0.00000000000E+00 -0.00000000000E+00 -0.45593999997E+02  0.45594000000E+02  0.51100000000E-03 0. -1.
    9900012    2    1    2    0    0  0.26506321164E+02  0.30165923570E+02  0.63715926364E+01  0.50528865735E+02  0.30000017888E+02 0.  0.
        -12    1    1    2    0    0 -0.26506321164E+02 -0.30165923570E+02 -0.63715926364E+01  0.40659134265E+02  0.00000000000E+00 0.  1.
         11    1    3    3    0    0  0.13269459229E+02  0.15725793262E+02  0.52037743759E+01  0.21224005041E+02  0.51100000000E-03 0. -1.
        -11    1    3    3    0    0 -0.60012721095E+01  0.19122681995E+01 -0.24950733616E+00  0.63035141604E+01  0.51100000000E-03 0.  1.
        -12    1    3    3    0    0  0.19238134044E+02  0.12527862108E+02  0.14173255967E+01  0.23001346534E+02  0.00000000000E+00 0.  1.
</event>
<event>
 7    1  0.1098446E-012  0.5052886E+02  0.7816164E-02  0.1300439E+00
        -11   -1    0    0    0    0  0.00000000000E+00  0.00000000000E+00  0.45593999997E+02  0.45594000000E+02  0.51100000000E-03 0. -1.
         11   -1    0    0    0    0 -0.00000000000E+00 -0.00000000000E+00 -0.45593999997E+02  0.45594000000E+02  0.51100000000E-03 0.  1.
    9900012    2    1    2    0    0 -0.10753525348E+02  0.25672459619E+02  0.29638690487E+02  0.50528862478E+02  0.30000007987E+02 0.  0.
        -12    1    1    2    0    0  0.10753525348E+02 -0.25672459619E+02 -0.29638690487E+02  0.40659137522E+02  0.00000000000E+00 0.  1.
         11    1    3    3    0    0  0.13198518652E+01  0.13342808034E+01  0.19368645653E+02  0.19459361472E+02  0.51100000000E-03 0. -1.
        -11    1    3    3    0    0 -0.77712600612E+01  0.21929663303E+02  0.11550791902E+02  0.25975438579E+02  0.51100000000E-03 0.  1.
        -12    1    3    3    0    0 -0.43021171523E+01  0.24085155118E+01 -0.12807470676E+01  0.50940624273E+01  0.00000000000E+00 0.  1.
</event>
<event>
 7    1  0.1098446E-012  0.5052886E+02  0.7816164E-02  0.1300439E+00
        -11   -1    0    0    0    0  0.00000000000E+00  0.00000000000E+00  0.45593999997E+02  0.45594000000E+02  0.51100000000E-03 0.  1.
         11   -1    0    0    0    0 -0.00000000000E+00 -0.00000000000E+00 -0.45593999997E+02  0.45594000000E+02  0.51100000000E-03 0. -1.
    9900012    2    1    2    0    0 -0.30885690781E+02 -0.24209545459E+02 -0.10636615626E+02  0.50528861073E+02  0.30000003716E+02 0.  0.
        -12    1    1    2    0    0  0.30885690781E+02  0.24209545459E+02  0.10636615626E+02  0.40659138927E+02  0.00000000000E+00 0.  1.
         11    1    3    3    0    0 -0.88031834316E+01 -0.70997105126E+01 -0.77202394434E+01  0.13693210917E+02  0.51100000000E-03 0. -1.
        -11    1    3    3    0    0 -0.13549210245E+02 -0.43178491178E+00  0.74045250561E+01  0.15446505367E+02  0.51100000000E-03 0.  1.
        -12    1    3    3    0    0 -0.85332971041E+01 -0.16678050034E+02 -0.10320901238E+02  0.21389144789E+02  0.00000000000E+00 0.  1.
</event>
<event>
 7    1  0.1098446E-012  0.5052886E+02  0.7816164E-02  0.1300439E+00
        -11   -1    0    0    0    0  0.00000000000E+00  0.00000000000E+00  0.45593999997E+02  0.45594000000E+02  0.51100000000E-03 0.  1.
         11   -1    0    0    0    0 -0.00000000000E+00 -0.00000000000E+00 -0.45593999997E+02  0.45594000000E+02  0.51100000000E-03 0. -1.
    9900012    2    1    2    0    0  0.29107878352E+01 -0.13487181527E+02 -0.38246427028E+02  0.50528856726E+02  0.29999990504E+02 0.  0.
        -12    1    1    2    0    0 -0.29107878352E+01  0.13487181527E+02  0.38246427028E+02  0.40659143274E+02  0.00000000000E+00 0.  1.
         11    1    3    3    0    0 -0.10041767180E+01  0.29926014925E+01 -0.72141166894E+01  0.78744850272E+01  0.51100000000E-03 0. -1.
        -11    1    3    3    0    0 -0.90498390268E+01 -0.12741580499E+02 -0.18741376528E+02  0.24402595240E+02  0.51100000000E-03 0.  1.
        -12    1    3    3    0    0  0.12964803580E+02 -0.37382025206E+01 -0.12290933810E+02  0.18251776458E+02  0.00000000000E+00 0.  1.
</event>
<event>
 7    1  0.1098446E-012  0.5052886E+02  0.7816164E-02  0.1300439E+00
        -11   -1    0    0    0    0  0.00000000000E+00  0.00000000000E+00  0.45593999997E+02  0.45594000000E+02  0.51100000000E-03 0.  1.
         11   -1    0    0    0    0 -0.00000000000E+00 -0.00000000000E+00 -0.45593999997E+02  0.45594000000E+02  0.51100000000E-03 0. -1.
    9900012    2    1    2    0    0 -0.40379306057E+02 -0.47152948272E+01 -0.66569364734E+00  0.50528861900E+02  0.30000006232E+02 0.  0.
        -12    1    1    2    0    0  0.40379306057E+02  0.47152948272E+01  0.66569364734E+00  0.40659138100E+02  0.00000000000E+00 0.  1.
         11    1    3    3    0    0 -0.45851116073E+01  0.90717451455E+01  0.89580113420E+00  0.10204031966E+02  0.51100000000E-03 0. -1.
        -11    1    3    3    0    0 -0.17208128958E+02 -0.94053141210E+01  0.48142370670E+01  0.20192981819E+02  0.51100000000E-03 0.  1.
         12    1    3    3    0    0 -0.18586065492E+02 -0.43817258517E+01 -0.63757318485E+01  0.20131848115E+02  0.00000000000E+00 0. -1.
</event>
<event>
 7    1  0.1098446E-012  0.5052886E+02  0.7816164E-02  0.1300439E+00
        -11   -1    0    0    0    0  0.00000000000E+00  0.00000000000E+00  0.45593999997E+02  0.45594000000E+02  0.51100000000E-03 0.  1.
         11   -1    0    0    0    0 -0.00000000000E+00 -0.00000000000E+00 -0.45593999997E+02  0.45594000000E+02  0.51100000000E-03 0. -1.
    9900012    2    1    2    0    0  0.35197368338E+02  0.19477337564E+02 -0.59113945673E+01  0.50528855859E+02  0.29999987870E+02 0.  0.
        -12    1    1    2    0    0 -0.35197368338E+02 -0.19477337564E+02  0.59113945673E+01  0.40659144141E+02  0.00000000000E+00 0.  1.
         11    1    3    3    0    0  0.41293202466E+01  0.97921600283E+01 -0.11539991683E+02  0.15687864482E+02  0.51100000000E-03 0. -1.
        -11    1    3    3    0    0  0.26213142096E+02  0.63128836397E+01  0.42534197625E+00  0.26965945829E+02  0.51100000000E-03 0.  1.
         12    1    3    3    0    0  0.48549059958E+01  0.33722938960E+01  0.52032551390E+01  0.78750455484E+01  0.00000000000E+00 0. -1.
</event>
<event>
 7    1  0.1098446E-012  0.5052884E+02  0.7816164E-02  0.1300439E+00
        -11   -1    0    0    0    0  0.00000000000E+00  0.00000000000E+00  0.45593999997E+02  0.45594000000E+02  0.51100000000E-03 0. -1.
         11   -1    0    0    0    0 -0.00000000000E+00 -0.00000000000E+00 -0.45593999997E+02  0.45594000000E+02  0.51100000000E-03 0.  1.
    9900012    2    1    2    0    0 -0.30874326976E+02 -0.21699821025E+02  0.15134765327E+02  0.50528838422E+02  0.29999934867E+02 0.  0.
        -12    1    1    2    0    0  0.30874326976E+02  0.21699821025E+02 -0.15134765327E+02  0.40659161578E+02  0.00000000000E+00 0.  1.
         11    1    3    3    0    0 -0.98940687297E+01 -0.45719866723E+01  0.18606979441E+02  0.21564214392E+02  0.51100000000E-03 0. -1.
        -11    1    3    3    0    0 -0.11165254553E+02 -0.14520362248E+02 -0.27869261795E+00  0.18318883669E+02  0.51100000000E-03 0.  1.
         12    1    3    3    0    0 -0.98150036937E+01 -0.26074721043E+01 -0.31935214960E+01  0.10645740361E+02  0.00000000000E+00 0. -1.
</event>
<event>
 7    1  0.1098446E-012  0.5052885E+02  0.7816164E-02  0.1300439E+00
        -11   -1    0    0    0    0  0.00000000000E+00  0.00000000000E+00  0.45593999997E+02  0.45594000000E+02  0.51100000000E-03 0. -1.
         11   -1    0    0    0    0 -0.00000000000E+00 -0.00000000000E+00 -0.45593999997E+02  0.45594000000E+02  0.51100000000E-03 0.  1.
    9900012    2    1    2    0    0  0.39119614866E+02  0.88446554465E+01  0.66778653938E+01  0.50528854861E+02  0.29999984835E+02 0.  0.
        -12    1    1    2    0    0 -0.39119614866E+02 -0.88446554465E+01 -0.66778653938E+01  0.40659145139E+02  0.00000000000E+00 0.  1.
         11    1    3    3    0    0  0.16491710119E+02  0.40257690193E+01  0.15172915273E+02  0.22768414020E+02  0.51100000000E-03 0. -1.
        -11    1    3    3    0    0  0.13871600884E+02  0.62460936279E+01 -0.10723995755E+02  0.18612874090E+02  0.51100000000E-03 0.  1.
        -12    1    3    3    0    0  0.87563038633E+01 -0.14272072007E+01  0.22289458757E+01  0.91475667506E+01  0.00000000000E+00 0.  1.
</event>
<event>
 7    1  0.1098446E-012  0.5052884E+02  0.7816164E-02  0.1300439E+00
        -11   -1    0    0    0    0  0.00000000000E+00  0.00000000000E+00  0.45593999997E+02  0.45594000000E+02  0.51100000000E-03 0.  1.
         11   -1    0    0    0    0 -0.00000000000E+00 -0.00000000000E+00 -0.45593999997E+02  0.45594000000E+02  0.51100000000E-03 0. -1.
    9900012    2    1    2    0    0 -0.13961917483E+02 -0.19626824780E+02 -0.32756979370E+02  0.50528842505E+02  0.29999947279E+02 0.  0.
        -12    1    1    2    0    0  0.13961917483E+02  0.19626824780E+02  0.32756979370E+02  0.40659157495E+02  0.00000000000E+00 0.  1.
         11    1    3    3    0    0 -0.14341341556E+02 -0.22272294797E+02 -0.21199084824E+02  0.33928312525E+02  0.51100000000E-03 0. -1.
        -11    1    3    3    0    0 -0.53464764484E+01  0.29158096424E+01 -0.69904971499E+01  0.92711275985E+01  0.51100000000E-03 0.  1.
         12    1    3    3    0    0  0.57259005221E+01 -0.27033962517E+00 -0.45673973961E+01  0.73294023819E+01  0.00000000000E+00 0. -1.
</event>
<event>
 7    1  0.1098446E-012  0.5052889E+02  0.7816164E-02  0.1300439E+00
        -11   -1    0    0    0    0  0.00000000000E+00  0.00000000000E+00  0.45593999997E+02  0.45594000000E+02  0.51100000000E-03 0.  1.
         11   -1    0    0    0    0 -0.00000000000E+00 -0.00000000000E+00 -0.45593999997E+02  0.45594000000E+02  0.51100000000E-03 0. -1.
    9900012    2    1    2    0    0  0.17816876730E+01 -0.36131029787E+02 -0.18561715431E+02  0.50528892727E+02  0.30000099934E+02 0.  0.
        -12    1    1    2    0    0 -0.17816876730E+01  0.36131029787E+02  0.18561715431E+02  0.40659107273E+02  0.00000000000E+00 0.  1.
         11    1    3    3    0    0 -0.25541619982E+01 -0.27721074345E+01 -0.14629435118E+02  0.15107239830E+02  0.51100000000E-03 0. -1.
        -11    1    3    3    0    0  0.49020555050E+01 -0.17226157340E+02  0.24225137983E+01  0.18073162928E+02  0.51100000000E-03 0.  1.
         12    1    3    3    0    0 -0.56620583385E+00 -0.16132765013E+02 -0.63547941110E+01  0.17348489969E+02  0.00000000000E+00 0. -1.
</event>
<event>
 7    1  0.1098446E-012  0.5052886E+02  0.7816164E-02  0.1300439E+00
        -11   -1    0    0    0    0  0.00000000000E+00  0.00000000000E+00  0.45593999997E+02  0.45594000000E+02  0.51100000000E-03 0. -1.
         11   -1    0    0    0    0 -0.00000000000E+00 -0.00000000000E+00 -0.45593999997E+02  0.45594000000E+02  0.51100000000E-03 0.  1.
    9900012    2    1    2    0    0  0.33009003557E+02 -0.13456878283E+02  0.19557193257E+02  0.50528859612E+02  0.29999999278E+02 0.  0.
        -12    1    1    2    0    0 -0.33009003557E+02  0.13456878283E+02 -0.19557193257E+02  0.40659140388E+02  0.00000000000E+00 0.  1.
         11    1    3    3    0    0  0.12298731877E+02 -0.84340435935E+01  0.20546019276E+02  0.25387611260E+02  0.51100000000E-03 0. -1.
        -11    1    3    3    0    0  0.15617838743E+02 -0.87672223148E+01 -0.36576983740E+01  0.18280039162E+02  0.51100000000E-03 0.  1.
         12    1    3    3    0    0  0.50924329368E+01  0.37443876252E+01  0.26688723548E+01  0.68612091900E+01  0.00000000000E+00 0. -1.
</event>
<event>
 7    1  0.1098446E-012  0.5052887E+02  0.7816164E-02  0.1300439E+00
        -11   -1    0    0    0    0  0.00000000000E+00  0.00000000000E+00  0.45593999997E+02  0.45594000000E+02  0.51100000000E-03 0.  1.
         11   -1    0    0    0    0 -0.00000000000E+00 -0.00000000000E+00 -0.45593999997E+02  0.45594000000E+02  0.51100000000E-03 0. -1.
    9900012    2    1    2    0    0 -0.22410355472E+02  0.18686241536E+01 -0.33874015431E+02  0.50528871750E+02  0.30000036172E+02 0.  0.
        -12    1    1    2    0    0  0.22410355472E+02 -0.18686241536E+01  0.33874015431E+02  0.40659128250E+02  0.00000000000E+00 0.  1.
         11    1    3    3    0    0 -0.68181495822E+01  0.31246673655E+01 -0.23805596031E+02  0.24959108808E+02  0.51100000000E-03 0. -1.
        -11    1    3    3    0    0 -0.78363115712E+01 -0.10167769738E+01  0.44783575569E+01  0.90828024929E+01  0.51100000000E-03 0.  1.
        -12    1    3    3    0    0 -0.77558943190E+01 -0.23926623804E+00 -0.14546776957E+02  0.16486960449E+02  0.00000000000E+00 0.  1.
</event>
<event>
 7    1  0.1098446E-012  0.5052885E+02  0.7816164E-02  0.1300439E+00
        -11   -1    0    0    0    0  0.00000000000E+00  0.00000000000E+00  0.45593999997E+02  0.45594000000E+02  0.51100000000E-03 0.  1.
         11   -1    0    0    0    0 -0.00000000000E+00 -0.00000000000E+00 -0.45593999997E+02  0.45594000000E+02  0.51100000000E-03 0. -1.
    9900012    2    1    2    0    0 -0.34828159597E+02  0.34156640072E+00 -0.20977350365E+02  0.50528848547E+02  0.29999965645E+02 0.  0.
        -12    1    1    2    0    0  0.34828159597E+02 -0.34156640072E+00  0.20977350365E+02  0.40659151453E+02  0.00000000000E+00 0.  1.
         11    1    3    3    0    0 -0.24954591329E+02 -0.77419654101E+01 -0.16037381044E+02  0.30657254408E+02  0.51100000000E-03 0. -1.
        -11    1    3    3    0    0 -0.10190667861E+02  0.56578887225E+01  0.26019613426E+01  0.11942848041E+02  0.51100000000E-03 0.  1.
         12    1    3    3    0    0  0.31709959394E+00  0.24256430883E+01 -0.75419306641E+01  0.79287460980E+01  0.00000000000E+00 0. -1.
</event>
<event>
 7    1  0.1098446E-012  0.5052887E+02  0.7816164E-02  0.1300439E+00
        -11   -1    0    0    0    0  0.00000000000E+00  0.00000000000E+00  0.45593999997E+02  0.45594000000E+02  0.51100000000E-03 0.  1.
         11   -1    0    0    0    0 -0.00000000000E+00 -0.00000000000E+00 -0.45593999997E+02  0.45594000000E+02  0.51100000000E-03 0. -1.
    9900012    2    1    2    0    0  0.38152153888E+02 -0.23220194383E+01 -0.13863127568E+02  0.50528869088E+02  0.30000028080E+02 0.  0.
        -12    1    1    2    0    0 -0.38152153888E+02  0.23220194383E+01  0.13863127568E+02  0.40659130912E+02  0.00000000000E+00 0.  1.
         11    1    3    3    0    0  0.31542657642E+02  0.42189062791E+01 -0.18164123189E+02  0.36642513462E+02  0.51100000000E-03 0. -1.
        -11    1    3    3    0    0  0.33286713997E+01  0.68225231385E+00  0.48637210822E+01  0.59330687282E+01  0.51100000000E-03 0.  1.
         12    1    3    3    0    0  0.32808248462E+01 -0.72231780312E+01 -0.56272546151E+00  0.79532868983E+01  0.00000000000E+00 0. -1.
</event>
<event>
 7    1  0.1502272E-012  0.5052886E+02  0.7816164E-02  0.1300439E+00
        -11   -1    0    0    0    0  0.00000000000E+00  0.00000000000E+00  0.45593999997E+02  0.45594000000E+02  0.51100000000E-03 0. -1.
         11   -1    0    0    0    0 -0.00000000000E+00 -0.00000000000E+00 -0.45593999997E+02  0.45594000000E+02  0.51100000000E-03 0.  1.
    9900012    2    1    2    0    0 -0.28850158071E+02 -0.45929420238E+01  0.28279649711E+02  0.50528864188E+02  0.30000013187E+02 0.  0.
        -12    1    1    2    0    0  0.28850158071E+02  0.45929420238E+01 -0.28279649711E+02  0.40659135812E+02  0.00000000000E+00 0.  1.
         11    1    3    3    0    0 -0.15124122600E+02 -0.17492700249E+01  0.18542146160E+02  0.23991878094E+02  0.51100000000E-03 0. -1.
        -11    1    3    3    0    0  0.50178152413E+01  0.18146888082E+01  0.15257807974E+01  0.55497362613E+01  0.51100000000E-03 0.  1.
        -12    1    3    3    0    0 -0.18743850713E+02 -0.46583608071E+01  0.82117227539E+01  0.20987249833E+02  0.00000000000E+00 0.  1.
</event>
<event>
 7    1  0.1098446E-012  0.5052886E+02  0.7816164E-02  0.1300439E+00
        -11   -1    0    0    0    0  0.00000000000E+00  0.00000000000E+00  0.45593999997E+02  0.45594000000E+02  0.51100000000E-03 0.  1.
         11   -1    0    0    0    0 -0.00000000000E+00 -0.00000000000E+00 -0.45593999997E+02  0.45594000000E+02  0.51100000000E-03 0. -1.
    9900012    2    1    2    0    0 -0.19996729561E+02  0.30736008567E+02 -0.17566852485E+02  0.50528859306E+02  0.29999998347E+02 0.  0.
        -12    1    1    2    0    0  0.19996729561E+02 -0.30736008567E+02  0.17566852485E+02  0.40659140694E+02  0.00000000000E+00 0.  1.
         11    1    3    3    0    0 -0.34382480389E+01  0.30074212968E+00  0.45586227904E+01  0.57177825607E+01  0.51100000000E-03 0. -1.
        -11    1    3    3    0    0 -0.95185723802E+01  0.30455183759E+02 -0.17567376042E+02  0.36424361892E+02  0.51100000000E-03 0.  1.
         12    1    3    3    0    0 -0.70399091415E+01 -0.19917321993E-01 -0.45580992327E+01  0.83867148536E+01  0.00000000000E+00 0. -1.
</event>
<event>
 7    1  0.1098446E-012  0.5052886E+02  0.7816164E-02  0.1300439E+00
        -11   -1    0    0    0    0  0.00000000000E+00  0.00000000000E+00  0.45593999997E+02  0.45594000000E+02  0.51100000000E-03 0.  1.
         11   -1    0    0    0    0 -0.00000000000E+00 -0.00000000000E+00 -0.45593999997E+02  0.45594000000E+02  0.51100000000E-03 0. -1.
    9900012    2    1    2    0    0  0.22143509321E+02  0.32637464374E+02 -0.98806052688E+01  0.50528862696E+02  0.30000008651E+02 0.  0.
        -12    1    1    2    0    0 -0.22143509321E+02 -0.32637464374E+02  0.98806052688E+01  0.40659137304E+02  0.00000000000E+00 0.  1.
         11    1    3    3    0    0  0.21073391223E+02  0.28809258225E+02  0.14768867435E+01  0.35724534593E+02  0.51100000000E-03 0. -1.
        -11    1    3    3    0    0  0.15902709885E+01  0.52351570949E+01 -0.11987710465E+02  0.13177292365E+02  0.51100000000E-03 0.  1.
         12    1    3    3    0    0 -0.52015289085E+00 -0.14069509463E+01  0.63021845281E+00  0.16270357382E+01  0.00000000000E+00 0. -1.
</event>
<event>
 7    1  0.1098446E-012  0.5052886E+02  0.7816164E-02  0.1300439E+00
        -11   -1    0    0    0    0  0.00000000000E+00  0.00000000000E+00  0.45593999997E+02  0.45594000000E+02  0.51100000000E-03 0.  1.
         11   -1    0    0    0    0 -0.00000000000E+00 -0.00000000000E+00 -0.45593999997E+02  0.45594000000E+02  0.51100000000E-03 0. -1.
    9900012    2    1    2    0    0  0.15429837014E+02 -0.16522804558E+02 -0.33794712313E+02  0.50528861777E+02  0.30000005858E+02 0.  0.
        -12    1    1    2    0    0 -0.15429837014E+02  0.16522804558E+02  0.33794712313E+02  0.40659138223E+02  0.00000000000E+00 0.  1.
         11    1    3    3    0    0  0.49552295301E+01  0.29741956706E+01 -0.19627434419E+02  0.20460604139E+02  0.51100000000E-03 0. -1.
        -11    1    3    3    0    0 -0.90131571174E+00 -0.87068874218E+01  0.26575607872E+00  0.87574474102E+01  0.51100000000E-03 0.  1.
         12    1    3    3    0    0  0.11375923196E+02 -0.10790112807E+02 -0.14433033972E+02  0.21310810228E+02  0.00000000000E+00 0. -1.
</event>
<event>
 7    1  0.1098446E-012  0.5052886E+02  0.7816164E-02  0.1300439E+00
        -11   -1    0    0    0    0  0.00000000000E+00  0.00000000000E+00  0.45593999997E+02  0.45594000000E+02  0.51100000000E-03 0. -1.
         11   -1    0    0    0    0 -0.00000000000E+00 -0.00000000000E+00 -0.45593999997E+02  0.45594000000E+02  0.51100000000E-03 0.  1.
    9900012    2    1    2    0    0  0.38402554675E+02  0.68346925451E+01  0.11475910762E+02  0.50528858893E+02  0.29999997091E+02 0.  0.
        -12    1    1    2    0    0 -0.38402554675E+02 -0.68346925451E+01 -0.11475910762E+02  0.40659141107E+02  0.00000000000E+00 0.  1.
         11    1    3    3    0    0  0.77627626651E+00  0.26294387482E+01  0.45858132794E+01  0.53428678317E+01  0.51100000000E-03 0. -1.
        -11    1    3    3    0    0  0.12624237592E+02 -0.94670151897E+01  0.52983860441E+01  0.16645379128E+02  0.51100000000E-03 0.  1.
        -12    1    3    3    0    0  0.25002040817E+02  0.13672268987E+02  0.15917114384E+01  0.28540611934E+02  0.00000000000E+00 0.  1.
</event>
<event>
 7    1  0.1098446E-012  0.5052886E+02  0.7816164E-02  0.1300439E+00
        -11   -1    0    0    0    0  0.00000000000E+00  0.00000000000E+00  0.45593999997E+02  0.45594000000E+02  0.51100000000E-03 0. -1.
         11   -1    0    0    0    0 -0.00000000000E+00 -0.00000000000E+00 -0.45593999997E+02  0.45594000000E+02  0.51100000000E-03 0.  1.
    9900012    2    1    2    0    0 -0.16103841962E+02  0.33427744523E+02  0.16625812311E+02  0.50528862468E+02  0.30000007958E+02 0.  0.
        -12    1    1    2    0    0  0.16103841962E+02 -0.33427744523E+02 -0.16625812311E+02  0.40659137532E+02  0.00000000000E+00 0.  1.
         11    1    3    3    0    0 -0.13280077201E+02  0.24448519177E+02  0.25503150858E+01  0.27939123961E+02  0.51100000000E-03 0. -1.
        -11    1    3    3    0    0 -0.35492996106E+01 -0.32682167424E+01  0.15775218476E+01  0.50761544345E+01  0.51100000000E-03 0.  1.
         12    1    3    3    0    0  0.72553484974E+00  0.12247442088E+02  0.12497975378E+02  0.17513584072E+02  0.00000000000E+00 0. -1.
</event>
<event>
 7    1  0.1098446E-012  0.5052887E+02  0.7816164E-02  0.1300439E+00
        -11   -1    0    0    0    0  0.00000000000E+00  0.00000000000E+00  0.45593999997E+02  0.45594000000E+02  0.51100000000E-03 0.  1.
         11   -1    0    0    0    0 -0.00000000000E+00 -0.00000000000E+00 -0.45593999997E+02  0.45594000000E+02  0.51100000000E-03 0. -1.
    9900012    2    1    2    0    0 -0.36660296157E+02 -0.88842747022E+01 -0.15174236872E+02  0.50528866758E+02  0.30000020998E+02 0.  0.
        -12    1    1    2    0    0  0.36660296157E+02  0.88842747022E+01  0.15174236872E+02  0.40659133242E+02  0.00000000000E+00 0.  1.
         11    1    3    3    0    0 -0.19524908044E+02  0.61308234425E+01 -0.32714229664E+01  0.20724652921E+02  0.51100000000E-03 0.  1.
        -11    1    3    3    0    0 -0.19265955840E+02 -0.12529384478E+02 -0.12934507455E+02  0.26371651697E+02  0.51100000000E-03 0. -1.
        -12    1    3    3    0    0  0.21305677267E+01 -0.24857136664E+01  0.10316935496E+01  0.34325621407E+01  0.00000000000E+00 0.  1.
</event>
<event>
 7    1  0.1098446E-012  0.5052886E+02  0.7816164E-02  0.1300439E+00
        -11   -1    0    0    0    0  0.00000000000E+00  0.00000000000E+00  0.45593999997E+02  0.45594000000E+02  0.51100000000E-03 0.  1.
         11   -1    0    0    0    0 -0.00000000000E+00 -0.00000000000E+00 -0.45593999997E+02  0.45594000000E+02  0.51100000000E-03 0. -1.
    9900012    2    1    2    0    0  0.33676415667E+02  0.21115451505E+02 -0.85558295076E+01  0.50528862245E+02  0.30000007279E+02 0.  0.
        -12    1    1    2    0    0 -0.33676415667E+02 -0.21115451505E+02  0.85558295076E+01  0.40659137755E+02  0.00000000000E+00 0.  1.
         11    1    3    3    0    0  0.65648631450E+01  0.13046884054E+02  0.29802946919E+01  0.14906400248E+02  0.51100000000E-03 0.  1.
        -11    1    3    3    0    0  0.17094803236E+02 -0.44550264495E+01 -0.61234854864E+01  0.18696968554E+02  0.51100000000E-03 0. -1.
         12    1    3    3    0    0  0.10016749286E+02  0.12523593900E+02 -0.54126387131E+01  0.16925493443E+02  0.00000000000E+00 0. -1.
</event>
<event>
 7    1  0.1098446E-012  0.5052886E+02  0.7816164E-02  0.1300439E+00
        -11   -1    0    0    0    0  0.00000000000E+00  0.00000000000E+00  0.45593999997E+02  0.45594000000E+02  0.51100000000E-03 0.  1.
         11   -1    0    0    0    0 -0.00000000000E+00 -0.00000000000E+00 -0.45593999997E+02  0.45594000000E+02  0.51100000000E-03 0. -1.
    9900012    2    1    2    0    0  0.93944863968E+01  0.27786429300E+02 -0.28157128334E+02  0.50528857069E+02  0.29999991546E+02 0.  0.
        -12    1    1    2    0    0 -0.93944863968E+01 -0.27786429300E+02  0.28157128334E+02  0.40659142931E+02  0.00000000000E+00 0.  1.
         11    1    3    3    0    0  0.13663757727E+01  0.10742030352E+02 -0.21085529864E+02  0.23703539161E+02  0.51100000000E-03 0. -1.
        -11    1    3    3    0    0  0.70730117727E+01  0.20763806664E+02 -0.68447253110E+01  0.22978542764E+02  0.51100000000E-03 0.  1.
        -12    1    3    3    0    0  0.95509885143E+00 -0.37194077163E+01 -0.22687315857E+00  0.38467751437E+01  0.00000000000E+00 0.  1.
</event>
<event>
 7    1  0.1261609E-012  0.5052886E+02  0.7816164E-02  0.1300439E+00
        -11   -1    0    0    0    0  0.00000000000E+00  0.00000000000E+00  0.45593999997E+02  0.45594000000E+02  0.51100000000E-03 0. -1.
         11   -1    0    0    0    0 -0.00000000000E+00 -0.00000000000E+00 -0.45593999997E+02  0.45594000000E+02  0.51100000000E-03 0.  1.
    9900012    2    1    2    0    0  0.16868020873E+02 -0.21740770854E+02  0.29932831458E+02  0.50528860258E+02  0.30000001239E+02 0.  0.
        -12    1    1    2    0    0 -0.16868020873E+02  0.21740770854E+02 -0.29932831458E+02  0.40659139742E+02  0.00000000000E+00 0.  1.
         11    1    3    3    0    0  0.80995771047E+01 -0.62578432569E+01  0.17101486704E+02  0.19930494205E+02  0.51100000000E-03 0. -1.
        -11    1    3    3    0    0  0.10322021287E+02 -0.11314118683E+02 -0.16925385571E+01  0.15408377333E+02  0.51100000000E-03 0.  1.
        -12    1    3    3    0    0 -0.15535775186E+01 -0.41688089147E+01  0.14523883311E+02  0.15189988720E+02  0.00000000000E+00 0.  1.
</event>
<event>
 7    1  0.1098446E-012  0.5052887E+02  0.7816164E-02  0.1300439E+00
        -11   -1    0    0    0    0  0.00000000000E+00  0.00000000000E+00  0.45593999997E+02  0.45594000000E+02  0.51100000000E-03 0.  1.
         11   -1    0    0    0    0 -0.00000000000E+00 -0.00000000000E+00 -0.45593999997E+02  0.45594000000E+02  0.51100000000E-03 0. -1.
    9900012    2    1    2    0    0 -0.12304661154E+02  0.24723007270E+02 -0.29841799266E+02  0.50528871160E+02  0.30000034379E+02 0.  0.
        -12    1    1    2    0    0  0.12304661154E+02 -0.24723007270E+02  0.29841799266E+02  0.40659128840E+02  0.00000000000E+00 0.  1.
         11    1    3    3    0    0 -0.37598694738E+01  0.11837033873E+02 -0.10312894722E+02  0.16143351175E+02  0.51100000000E-03 0. -1.
        -11    1    3    3    0    0  0.58255955234E+00 -0.29368000505E+01  0.37479424377E+01  0.47970035383E+01  0.51100000000E-03 0.  1.
        -12    1    3    3    0    0 -0.91273512326E+01  0.15822773448E+02 -0.23276846982E+02  0.29588516447E+02  0.00000000000E+00 0.  1.
</event>
<event>
 7    1  0.1098446E-012  0.5052893E+02  0.7816164E-02  0.1300439E+00
        -11   -1    0    0    0    0  0.00000000000E+00  0.00000000000E+00  0.45593999997E+02  0.45594000000E+02  0.51100000000E-03 0. -1.
         11   -1    0    0    0    0 -0.00000000000E+00 -0.00000000000E+00 -0.45593999997E+02  0.45594000000E+02  0.51100000000E-03 0.  1.
    9900012    2    1    2    0    0 -0.24811901241E+02 -0.12601169077E+02  0.29643554337E+02  0.50528926977E+02  0.30000204040E+02 0.  0.
        -12    1    1    2    0    0  0.24811901241E+02  0.12601169077E+02 -0.29643554337E+02  0.40659073023E+02  0.00000000000E+00 0.  1.
         11    1    3    3    0    0 -0.16750097855E+02 -0.14731968592E+02  0.34984852108E+01  0.22579549946E+02  0.51100000000E-03 0. -1.
        -11    1    3    3    0    0 -0.82004874603E+01  0.30087699753E+01  0.25105041255E+02  0.26581267615E+02  0.51100000000E-03 0.  1.
         12    1    3    3    0    0  0.13868407372E+00 -0.87797045963E+00  0.10400278720E+01  0.13681094162E+01  0.00000000000E+00 0. -1.
</event>
<event>
 7    1  0.1098446E-012  0.5052885E+02  0.7816164E-02  0.1300439E+00
        -11   -1    0    0    0    0  0.00000000000E+00  0.00000000000E+00  0.45593999997E+02  0.45594000000E+02  0.51100000000E-03 0.  1.
         11   -1    0    0    0    0 -0.00000000000E+00 -0.00000000000E+00 -0.45593999997E+02  0.45594000000E+02  0.51100000000E-03 0. -1.
    9900012    2    1    2    0    0 -0.50383288435E+01 -0.22931271385E+02 -0.33195453559E+02  0.50528854635E+02  0.29999984147E+02 0.  0.
        -12    1    1    2    0    0  0.50383288435E+01  0.22931271385E+02  0.33195453559E+02  0.40659145365E+02  0.00000000000E+00 0.  1.
         11    1    3    3    0    0 -0.11764232378E+02 -0.10905229611E+02 -0.18596502968E+02  0.24559135148E+02  0.51100000000E-03 0. -1.
        -11    1    3    3    0    0  0.92521170955E+01 -0.67560656671E+01 -0.16263234689E+02  0.19893187197E+02  0.51100000000E-03 0.  1.
        -12    1    3    3    0    0 -0.25262135607E+01 -0.52699761062E+01  0.16642840970E+01  0.60765322899E+01  0.00000000000E+00 0.  1.
</event>
<event>
 7    1  0.1098446E-012  0.5052884E+02  0.7816164E-02  0.1300439E+00
        -11   -1    0    0    0    0  0.00000000000E+00  0.00000000000E+00  0.45593999997E+02  0.45594000000E+02  0.51100000000E-03 0. -1.
         11   -1    0    0    0    0 -0.00000000000E+00 -0.00000000000E+00 -0.45593999997E+02  0.45594000000E+02  0.51100000000E-03 0.  1.
    9900012    2    1    2    0    0  0.35324016941E+02 -0.11009194552E+02  0.16857611720E+02  0.50528836083E+02  0.29999927758E+02 0.  0.
        -12    1    1    2    0    0 -0.35324016941E+02  0.11009194552E+02 -0.16857611720E+02  0.40659163917E+02  0.00000000000E+00 0.  1.
         11    1    3    3    0    0  0.79142329134E+01 -0.88833630916E+01  0.73002390705E+01  0.13958607136E+02  0.51100000000E-03 0. -1.
        -11    1    3    3    0    0  0.27882777078E+02 -0.12768402359E+01  0.14554986275E+02  0.31478996240E+02  0.51100000000E-03 0.  1.
        -12    1    3    3    0    0 -0.47299305045E+00 -0.84899122425E+00 -0.49976136257E+01  0.50912327070E+01  0.00000000000E+00 0.  1.
</event>
<event>
 7    1  0.1098446E-012  0.5052886E+02  0.7816164E-02  0.1300439E+00
        -11   -1    0    0    0    0  0.00000000000E+00  0.00000000000E+00  0.45593999997E+02  0.45594000000E+02  0.51100000000E-03 0. -1.
         11   -1    0    0    0    0 -0.00000000000E+00 -0.00000000000E+00 -0.45593999997E+02  0.45594000000E+02  0.51100000000E-03 0.  1.
    9900012    2    1    2    0    0  0.29684839472E+02 -0.15681420063E+02  0.22936191953E+02  0.50528861655E+02  0.30000005486E+02 0.  0.
        -12    1    1    2    0    0 -0.29684839472E+02  0.15681420063E+02 -0.22936191953E+02  0.40659138345E+02  0.00000000000E+00 0.  1.
         11    1    3    3    0    0  0.32311722001E+02 -0.95572338604E+01  0.25115365457E+02  0.42025821587E+02  0.51100000000E-03 0. -1.
        -11    1    3    3    0    0 -0.31962775994E+00 -0.46280447505E+01  0.49733347948E+00  0.46656511838E+01  0.51100000000E-03 0.  1.
         12    1    3    3    0    0 -0.23072547692E+01 -0.14961414518E+01 -0.26765069839E+01  0.38373888842E+01  0.00000000000E+00 0. -1.
</event>
<event>
 7    1  0.1098446E-012  0.5052886E+02  0.7816164E-02  0.1300439E+00
        -11   -1    0    0    0    0  0.00000000000E+00  0.00000000000E+00  0.45593999997E+02  0.45594000000E+02  0.51100000000E-03 0.  1.
         11   -1    0    0    0    0 -0.00000000000E+00 -0.00000000000E+00 -0.45593999997E+02  0.45594000000E+02  0.51100000000E-03 0. -1.
    9900012    2    1    2    0    0  0.32712304020E+02 -0.66170563808E+01 -0.23222517730E+02  0.50528860816E+02  0.30000002936E+02 0.  0.
        -12    1    1    2    0    0 -0.32712304020E+02  0.66170563808E+01  0.23222517730E+02  0.40659139184E+02  0.00000000000E+00 0.  1.
         11    1    3    3    0    0  0.19288932822E+02 -0.32883340163E+01 -0.74384213069E+00  0.19581352645E+02  0.51100000000E-03 0. -1.
        -11    1    3    3    0    0  0.34762241843E+01 -0.61886689084E+01 -0.18576145535E+02  0.19886099181E+02  0.51100000000E-03 0.  1.
        -12    1    3    3    0    0  0.99471470136E+01  0.28599465439E+01 -0.39025300650E+01  0.11061408990E+02  0.00000000000E+00 0.  1.
</event>
<event>
 7    1  0.1098446E-012  0.5052889E+02  0.7816164E-02  0.1300439E+00
        -11   -1    0    0    0    0  0.00000000000E+00  0.00000000000E+00  0.45593999997E+02  0.45594000000E+02  0.51100000000E-03 0. -1.
         11   -1    0    0    0    0 -0.00000000000E+00 -0.00000000000E+00 -0.45593999997E+02  0.45594000000E+02  0.51100000000E-03 0.  1.
    9900012    2    1    2    0    0 -0.29855939484E-01 -0.40125518964E+02 -0.65654568544E+01  0.50528888018E+02  0.30000085618E+02 0.  0.
        -12    1    1    2    0    0  0.29855939484E-01  0.40125518964E+02  0.65654568544E+01  0.40659111982E+02  0.00000000000E+00 0.  1.
         11    1    3    3    0    0 -0.44182215160E+01 -0.22682075192E+02  0.52171668123E+01  0.23689998864E+02  0.51100000000E-03 0. -1.
        -11    1    3    3    0    0  0.10263295974E+02 -0.12498482111E+02 -0.97927851085E+01  0.18906240763E+02  0.51100000000E-03 0.  1.
         12    1    3    3    0    0 -0.58749303976E+01 -0.49449616607E+01 -0.19898385581E+01  0.79326483907E+01  0.00000000000E+00 0. -1.
</event>
<event>
 7    1  0.1098446E-012  0.5052884E+02  0.7816164E-02  0.1300439E+00
        -11   -1    0    0    0    0  0.00000000000E+00  0.00000000000E+00  0.45593999997E+02  0.45594000000E+02  0.51100000000E-03 0.  1.
         11   -1    0    0    0    0 -0.00000000000E+00 -0.00000000000E+00 -0.45593999997E+02  0.45594000000E+02  0.51100000000E-03 0. -1.
    9900012    2    1    2    0    0 -0.29346197682E+02  0.18886905444E+02 -0.20862710332E+02  0.50528841154E+02  0.29999943173E+02 0.  0.
        -12    1    1    2    0    0  0.29346197682E+02 -0.18886905444E+02  0.20862710332E+02  0.40659158846E+02  0.00000000000E+00 0.  1.
         11    1    3    3    0    0 -0.58909650591E+01  0.13804865480E+02 -0.21727978527E+01  0.15165712348E+02  0.51100000000E-03 0. -1.
        -11    1    3    3    0    0 -0.14536927840E+02 -0.59857642434E+01 -0.11146639184E+02  0.19271720472E+02  0.51100000000E-03 0.  1.
        -12    1    3    3    0    0 -0.89183047833E+01  0.11067804207E+02 -0.75432732951E+01  0.16091408334E+02  0.00000000000E+00 0.  1.
</event>
<event>
 7    1  0.1269125E-012  0.5052888E+02  0.7816164E-02  0.1300439E+00
        -11   -1    0    0    0    0  0.00000000000E+00  0.00000000000E+00  0.45593999997E+02  0.45594000000E+02  0.51100000000E-03 0. -1.
         11   -1    0    0    0    0 -0.00000000000E+00 -0.00000000000E+00 -0.45593999997E+02  0.45594000000E+02  0.51100000000E-03 0.  1.
    9900012    2    1    2    0    0 -0.19337198184E+02 -0.82610253851E+01  0.34799315177E+02  0.50528879119E+02  0.30000058571E+02 0.  0.
        -12    1    1    2    0    0  0.19337198184E+02  0.82610253851E+01 -0.34799315177E+02  0.40659120881E+02  0.00000000000E+00 0.  1.
         11    1    3    3    0    0 -0.36632211080E+01 -0.60596700942E+01  0.10865655344E+02  0.12969242724E+02  0.51100000000E-03 0. -1.
        -11    1    3    3    0    0 -0.93588964956E+00 -0.35267903297E+01 -0.43264836405E+01  0.56597350131E+01  0.51100000000E-03 0.  1.
        -12    1    3    3    0    0 -0.14738087426E+02  0.13254350388E+01  0.28260143474E+02  0.31899901382E+02  0.00000000000E+00 0.  1.
</event>
<event>
 7    1  0.1098446E-012  0.5052886E+02  0.7816164E-02  0.1300439E+00
        -11   -1    0    0    0    0  0.00000000000E+00  0.00000000000E+00  0.45593999997E+02  0.45594000000E+02  0.51100000000E-03 0. -1.
         11   -1    0    0    0    0 -0.00000000000E+00 -0.00000000000E+00 -0.45593999997E+02  0.45594000000E+02  0.51100000000E-03 0.  1.
    9900012    2    1    2    0    0 -0.15759145925E+02 -0.14430640858E+02  0.34591498683E+02  0.50528857646E+02  0.29999993299E+02 0.  0.
        -12    1    1    2    0    0  0.15759145925E+02  0.14430640858E+02 -0.34591498683E+02  0.40659142354E+02  0.00000000000E+00 0.  1.
         11    1    3    3    0    0 -0.82782945823E+01  0.79715665039E+01  0.10291259909E+02  0.15426796962E+02  0.51100000000E-03 0. -1.
        -11    1    3    3    0    0 -0.94935750850E+01 -0.16520096297E+02  0.19335948197E+02  0.27146278612E+02  0.51100000000E-03 0.  1.
         12    1    3    3    0    0  0.20127237419E+01 -0.58821110649E+01  0.49642905769E+01  0.79557820717E+01  0.00000000000E+00 0. -1.
</event>
<event>
 7    1  0.1098446E-012  0.5052886E+02  0.7816164E-02  0.1300439E+00
        -11   -1    0    0    0    0  0.00000000000E+00  0.00000000000E+00  0.45593999997E+02  0.45594000000E+02  0.51100000000E-03 0. -1.
         11   -1    0    0    0    0 -0.00000000000E+00 -0.00000000000E+00 -0.45593999997E+02  0.45594000000E+02  0.51100000000E-03 0.  1.
    9900012    2    1    2    0    0  0.25906645842E+02 -0.31336660414E+02  0.15867416269E+00  0.50528858812E+02  0.29999996845E+02 0.  0.
        -12    1    1    2    0    0 -0.25906645842E+02  0.31336660414E+02 -0.15867416269E+00  0.40659141188E+02  0.00000000000E+00 0.  1.
         11    1    3    3    0    0  0.12076878820E+02 -0.61442591311E+01 -0.38406593961E+01  0.14083805848E+02  0.51100000000E-03 0. -1.
        -11    1    3    3    0    0  0.54411756544E+01 -0.24037735314E+02  0.94268856287E+01  0.26387218202E+02  0.51100000000E-03 0.  1.
        -12    1    3    3    0    0  0.83885913675E+01 -0.11546659689E+01 -0.54275520698E+01  0.10057834762E+02  0.00000000000E+00 0.  1.
</event>
<event>
 7    1  0.1098446E-012  0.5052886E+02  0.7816164E-02  0.1300439E+00
        -11   -1    0    0    0    0  0.00000000000E+00  0.00000000000E+00  0.45593999997E+02  0.45594000000E+02  0.51100000000E-03 0.  1.
         11   -1    0    0    0    0 -0.00000000000E+00 -0.00000000000E+00 -0.45593999997E+02  0.45594000000E+02  0.51100000000E-03 0. -1.
    9900012    2    1    2    0    0  0.25311635874E+01 -0.90540452109E+01 -0.39557337811E+02  0.50528862054E+02  0.30000006701E+02 0.  0.
        -12    1    1    2    0    0 -0.25311635874E+01  0.90540452109E+01  0.39557337811E+02  0.40659137946E+02  0.00000000000E+00 0.  1.
         11    1    3    3    0    0 -0.30598988117E+01 -0.29861735950E+01  0.33121253153E+01  0.54083627691E+01  0.51100000000E-03 0. -1.
        -11    1    3    3    0    0  0.95882921809E+00  0.33548640528E+01 -0.12964603549E+02  0.13425923124E+02  0.51100000000E-03 0.  1.
         12    1    3    3    0    0  0.46322331810E+01 -0.94227356687E+01 -0.29904859577E+02  0.31694576162E+02  0.00000000000E+00 0. -1.
</event>
<event>
 7    1  0.1098446E-012  0.5052885E+02  0.7816164E-02  0.1300439E+00
        -11   -1    0    0    0    0  0.00000000000E+00  0.00000000000E+00  0.45593999997E+02  0.45594000000E+02  0.51100000000E-03 0.  1.
         11   -1    0    0    0    0 -0.00000000000E+00 -0.00000000000E+00 -0.45593999997E+02  0.45594000000E+02  0.51100000000E-03 0. -1.
    9900012    2    1    2    0    0  0.39966976893E+02 -0.11923062398E+01  0.73746395000E+01  0.50528854117E+02  0.29999982575E+02 0.  0.
        -12    1    1    2    0    0 -0.39966976893E+02  0.11923062398E+01 -0.73746395000E+01  0.40659145883E+02  0.00000000000E+00 0.  1.
         11    1    3    3    0    0  0.15320492403E+02 -0.10463406776E+02  0.43627296995E+01  0.19058693017E+02  0.51100000000E-03 0. -1.
        -11    1    3    3    0    0  0.93630797504E+01  0.12566485577E+02  0.20690946705E+01  0.15807117865E+02  0.51100000000E-03 0.  1.
        -12    1    3    3    0    0  0.15283404740E+02 -0.32953850411E+01  0.94281513001E+00  0.15663043235E+02  0.00000000000E+00 0.  1.
</event>
<event>
 7    1  0.1098446E-012  0.5052885E+02  0.7816164E-02  0.1300439E+00
        -11   -1    0    0    0    0  0.00000000000E+00  0.00000000000E+00  0.45593999997E+02  0.45594000000E+02  0.51100000000E-03 0. -1.
         11   -1    0    0    0    0 -0.00000000000E+00 -0.00000000000E+00 -0.45593999997E+02  0.45594000000E+02  0.51100000000E-03 0.  1.
    9900012    2    1    2    0    0  0.25371158965E+02 -0.69908584676E+01  0.30993521711E+02  0.50528853459E+02  0.29999980575E+02 0.  0.
        -12    1    1    2    0    0 -0.25371158965E+02  0.69908584676E+01 -0.30993521711E+02  0.40659146541E+02  0.00000000000E+00 0.  1.
         11    1    3    3    0    0  0.12667102848E+01  0.12322242370E+01  0.16174492450E+02  0.16270744844E+02  0.51100000000E-03 0. -1.
        -11    1    3    3    0    0  0.26090349302E+02 -0.99045540765E+01  0.14937319766E+02  0.31653278506E+02  0.51100000000E-03 0.  1.
        -12    1    3    3    0    0 -0.19859006209E+01  0.16814713719E+01 -0.11829050539E+00  0.26048301085E+01  0.00000000000E+00 0.  1.
</event>
<event>
 7    1  0.1098446E-012  0.5052884E+02  0.7816164E-02  0.1300439E+00
        -11   -1    0    0    0    0  0.00000000000E+00  0.00000000000E+00  0.45593999997E+02  0.45594000000E+02  0.51100000000E-03 0.  1.
         11   -1    0    0    0    0 -0.00000000000E+00 -0.00000000000E+00 -0.45593999997E+02  0.45594000000E+02  0.51100000000E-03 0. -1.
    9900012    2    1    2    0    0 -0.18321001166E+02  0.36285238172E+02 -0.94341777624E+00  0.50528835842E+02  0.29999927025E+02 0.  0.
        -12    1    1    2    0    0  0.18321001166E+02 -0.36285238172E+02  0.94341777624E+00  0.40659164158E+02  0.00000000000E+00 0.  1.
         11    1    3    3    0    0 -0.30445116751E+01  0.59067641669E+01 -0.68953878132E+01  0.95762877786E+01  0.51100000000E-03 0. -1.
        -11    1    3    3    0    0 -0.17771955956E+02  0.11823974741E+02  0.62042316102E+01  0.22229288952E+02  0.51100000000E-03 0.  1.
        -12    1    3    3    0    0  0.24954664655E+01  0.18554499265E+02 -0.25226157323E+00  0.18723259111E+02  0.00000000000E+00 0.  1.
</event>
<event>
 7    1  0.1098446E-012  0.5052887E+02  0.7816164E-02  0.1300439E+00
        -11   -1    0    0    0    0  0.00000000000E+00  0.00000000000E+00  0.45593999997E+02  0.45594000000E+02  0.51100000000E-03 0.  1.
         11   -1    0    0    0    0 -0.00000000000E+00 -0.00000000000E+00 -0.45593999997E+02  0.45594000000E+02  0.51100000000E-03 0. -1.
    9900012    2    1    2    0    0  0.17434181571E+02  0.19455812560E+02 -0.31155829146E+02  0.50528867948E+02  0.30000024615E+02 0.  0.
        -12    1    1    2    0    0 -0.17434181571E+02 -0.19455812560E+02  0.31155829146E+02  0.40659132052E+02  0.00000000000E+00 0.  1.
         11    1    3    3    0    0  0.70588201901E+01  0.92960929014E+01 -0.27056555158E+02  0.29466955441E+02  0.51100000000E-03 0. -1.
        -11    1    3    3    0    0  0.36921270516E+01  0.54252364164E+01  0.54149044472E+01  0.85080069800E+01  0.51100000000E-03 0.  1.
        -12    1    3    3    0    0  0.66832343292E+01  0.47344832427E+01 -0.95141784356E+01  0.12553905527E+02  0.00000000000E+00 0.  1.
</event>
<event>
 7    1  0.1098446E-012  0.5052884E+02  0.7816164E-02  0.1300439E+00
        -11   -1    0    0    0    0  0.00000000000E+00  0.00000000000E+00  0.45593999997E+02  0.45594000000E+02  0.51100000000E-03 0. -1.
         11   -1    0    0    0    0 -0.00000000000E+00 -0.00000000000E+00 -0.45593999997E+02  0.45594000000E+02  0.51100000000E-03 0.  1.
    9900012    2    1    2    0    0 -0.59778800281E+01 -0.15616934339E+02  0.37061348162E+02  0.50528840941E+02  0.29999942524E+02 0.  0.
        -12    1    1    2    0    0  0.59778800281E+01  0.15616934339E+02 -0.37061348162E+02  0.40659159059E+02  0.00000000000E+00 0.  1.
         11    1    3    3    0    0  0.35129186524E+01 -0.99327878682E+01  0.34736932541E+02  0.36299522792E+02  0.51100000000E-03 0. -1.
        -11    1    3    3    0    0 -0.64512592937E+01 -0.79135345929E+01  0.22710242770E+01  0.10459461160E+02  0.51100000000E-03 0.  1.
         12    1    3    3    0    0 -0.30395393868E+01  0.22293881222E+01  0.53391344256E-01  0.37698569892E+01  0.00000000000E+00 0. -1.
</event>
<event>
 7    1  0.1098446E-012  0.5052886E+02  0.7816164E-02  0.1300439E+00
        -11   -1    0    0    0    0  0.00000000000E+00  0.00000000000E+00  0.45593999997E+02  0.45594000000E+02  0.51100000000E-03 0.  1.
         11   -1    0    0    0    0 -0.00000000000E+00 -0.00000000000E+00 -0.45593999997E+02  0.45594000000E+02  0.51100000000E-03 0. -1.
    9900012    2    1    2    0    0  0.37019425114E+01 -0.41197753419E+01 -0.40280131104E+02  0.50528857252E+02  0.29999992105E+02 0.  0.
        -12    1    1    2    0    0 -0.37019425114E+01  0.41197753419E+01  0.40280131104E+02  0.40659142748E+02  0.00000000000E+00 0.  1.
         11    1    3    3    0    0 -0.22121247266E+00  0.57775354882E+01 -0.12135692010E+02  0.13442614036E+02  0.51100000000E-03 0. -1.
        -11    1    3    3    0    0 -0.81673929531E+00 -0.14720086979E+02 -0.10247320411E+02  0.17954264107E+02  0.51100000000E-03 0.  1.
        -12    1    3    3    0    0  0.47398942794E+01  0.48227761486E+01 -0.17897118682E+02  0.19131979110E+02  0.00000000000E+00 0.  1.
</event>
<event>
 7    1  0.1098446E-012  0.5052886E+02  0.7816164E-02  0.1300439E+00
        -11   -1    0    0    0    0  0.00000000000E+00  0.00000000000E+00  0.45593999997E+02  0.45594000000E+02  0.51100000000E-03 0. -1.
         11   -1    0    0    0    0 -0.00000000000E+00 -0.00000000000E+00 -0.45593999997E+02  0.45594000000E+02  0.51100000000E-03 0.  1.
    9900012    2    1    2    0    0 -0.38570457060E+02 -0.21219328428E+01  0.12687908132E+02  0.50528858721E+02  0.29999996569E+02 0.  0.
        -12    1    1    2    0    0  0.38570457060E+02  0.21219328428E+01 -0.12687908132E+02  0.40659141279E+02  0.00000000000E+00 0.  1.
         11    1    3    3    0    0 -0.23456635380E+02 -0.82606658679E+01  0.11698956140E+02  0.27483047847E+02  0.51100000000E-03 0. -1.
        -11    1    3    3    0    0 -0.13228006527E+02  0.63836492688E+01 -0.59528367395E+01  0.15848261739E+02  0.51100000000E-03 0.  1.
        -12    1    3    3    0    0 -0.18858151531E+01 -0.24491624377E+00  0.69417887310E+01  0.71975491345E+01  0.00000000000E+00 0.  1.
</event>
<event>
 7    1  0.1098446E-012  0.5052886E+02  0.7816164E-02  0.1300439E+00
        -11   -1    0    0    0    0  0.00000000000E+00  0.00000000000E+00  0.45593999997E+02  0.45594000000E+02  0.51100000000E-03 0.  1.
         11   -1    0    0    0    0 -0.00000000000E+00 -0.00000000000E+00 -0.45593999997E+02  0.45594000000E+02  0.51100000000E-03 0. -1.
    9900012    2    1    2    0    0 -0.26638007807E+02 -0.23566451493E+02 -0.19702914754E+02  0.50528856554E+02  0.29999989983E+02 0.  0.
        -12    1    1    2    0    0  0.26638007807E+02  0.23566451493E+02  0.19702914754E+02  0.40659143446E+02  0.00000000000E+00 0.  1.
         11    1    3    3    0    0 -0.25494161990E+02 -0.14535623613E+02 -0.15029242897E+02  0.32971423865E+02  0.51100000000E-03 0. -1.
        -11    1    3    3    0    0  0.53815846124E+01 -0.15559733127E+01  0.15901071251E+01  0.58233106409E+01  0.51100000000E-03 0.  1.
        -12    1    3    3    0    0 -0.65254304297E+01 -0.74748545677E+01 -0.62637789825E+01  0.11734122048E+02  0.00000000000E+00 0.  1.
</event>
<event>
 7    1  0.1098446E-012  0.5052886E+02  0.7816164E-02  0.1300439E+00
        -11   -1    0    0    0    0  0.00000000000E+00  0.00000000000E+00  0.45593999997E+02  0.45594000000E+02  0.51100000000E-03 0. -1.
         11   -1    0    0    0    0 -0.00000000000E+00 -0.00000000000E+00 -0.45593999997E+02  0.45594000000E+02  0.51100000000E-03 0.  1.
    9900012    2    1    2    0    0  0.35971461811E+02  0.14219026255E+02 -0.12531501802E+02  0.50528864374E+02  0.30000013750E+02 0.  0.
        -12    1    1    2    0    0 -0.35971461811E+02 -0.14219026255E+02  0.12531501802E+02  0.40659135626E+02  0.00000000000E+00 0.  1.
         11    1    3    3    0    0  0.11198827960E+02  0.41797918822E+01  0.54788644185E+01  0.13149234329E+02  0.51100000000E-03 0. -1.
        -11    1    3    3    0    0  0.22577935421E+02  0.99653473654E+01 -0.21846339303E+02  0.32959579142E+02  0.51100000000E-03 0.  1.
        -12    1    3    3    0    0  0.21946984310E+01  0.73887007528E-01  0.38359730833E+01  0.44200509034E+01  0.00000000000E+00 0.  1.
</event>
<event>
 7    1  0.1098446E-012  0.5052885E+02  0.7816164E-02  0.1300439E+00
        -11   -1    0    0    0    0  0.00000000000E+00  0.00000000000E+00  0.45593999997E+02  0.45594000000E+02  0.51100000000E-03 0.  1.
         11   -1    0    0    0    0 -0.00000000000E+00 -0.00000000000E+00 -0.45593999997E+02  0.45594000000E+02  0.51100000000E-03 0. -1.
    9900012    2    1    2    0    0 -0.30491600645E+01  0.12966948298E+02 -0.38415201280E+02  0.50528845869E+02  0.29999957503E+02 0.  0.
        -12    1    1    2    0    0  0.30491600645E+01 -0.12966948298E+02  0.38415201280E+02  0.40659154131E+02  0.00000000000E+00 0.  1.
         11    1    3    3    0    0  0.31230516035E+01  0.21708863755E+02 -0.24469550328E+02  0.32860114278E+02  0.51100000000E-03 0. -1.
        -11    1    3    3    0    0 -0.40452275191E+01 -0.47227934664E+01 -0.69581078077E+01  0.93318759278E+01  0.51100000000E-03 0.  1.
         12    1    3    3    0    0 -0.21269841489E+01 -0.40191219910E+01 -0.69875431446E+01  0.83368556631E+01  0.00000000000E+00 0. -1.
</event>
<event>
 7    1  0.1098446E-012  0.5052883E+02  0.7816164E-02  0.1300439E+00
        -11   -1    0    0    0    0  0.00000000000E+00  0.00000000000E+00  0.45593999997E+02  0.45594000000E+02  0.51100000000E-03 0.  1.
         11   -1    0    0    0    0 -0.00000000000E+00 -0.00000000000E+00 -0.45593999997E+02  0.45594000000E+02  0.51100000000E-03 0. -1.
    9900012    2    1    2    0    0 -0.28193818944E+02 -0.12849886094E+02 -0.26327884069E+02  0.50528825404E+02  0.29999895298E+02 0.  0.
        -12    1    1    2    0    0  0.28193818944E+02  0.12849886094E+02  0.26327884069E+02  0.40659174596E+02  0.00000000000E+00 0.  1.
         11    1    3    3    0    0 -0.16666649189E+02 -0.18676246379E+01 -0.35380497584E+01  0.17140099572E+02  0.51100000000E-03 0. -1.
        -11    1    3    3    0    0 -0.27558255122E+01 -0.14635944672E+02 -0.13538342517E+02  0.20126901626E+02  0.51100000000E-03 0.  1.
        -12    1    3    3    0    0 -0.87713442424E+01  0.36536832160E+01 -0.92514917939E+01  0.13261824206E+02  0.00000000000E+00 0.  1.
</event>
<event>
 7    1  0.1098446E-012  0.5052886E+02  0.7816164E-02  0.1300439E+00
        -11   -1    0    0    0    0  0.00000000000E+00  0.00000000000E+00  0.45593999997E+02  0.45594000000E+02  0.51100000000E-03 0. -1.
         11   -1    0    0    0    0 -0.00000000000E+00 -0.00000000000E+00 -0.45593999997E+02  0.45594000000E+02  0.51100000000E-03 0.  1.
    9900012    2    1    2    0    0 -0.19803599843E+02  0.14120005117E+02  0.32582337204E+02  0.50528858237E+02  0.29999995096E+02 0.  0.
        -12    1    1    2    0    0  0.19803599843E+02 -0.14120005117E+02 -0.32582337204E+02  0.40659141763E+02  0.00000000000E+00 0.  1.
         11    1    3    3    0    0 -0.12005176795E+02  0.14302834878E+02  0.17294882393E+02  0.25452078749E+02  0.51100000000E-03 0. -1.
        -11    1    3    3    0    0  0.36753843736E+01 -0.28449735447E+00  0.12820976863E+02  0.13340421171E+02  0.51100000000E-03 0.  1.
         12    1    3    3    0    0 -0.11473807422E+02  0.10166759273E+00  0.24664779488E+01  0.11736358316E+02  0.00000000000E+00 0. -1.
</event>
<event>
 7    1  0.1098446E-012  0.5052899E+02  0.7816164E-02  0.1300438E+00
        -11   -1    0    0    0    0  0.00000000000E+00  0.00000000000E+00  0.45593999997E+02  0.45594000000E+02  0.51100000000E-03 0.  1.
         11   -1    0    0    0    0 -0.00000000000E+00 -0.00000000000E+00 -0.45593999997E+02  0.45594000000E+02  0.51100000000E-03 0. -1.
    9900012    2    1    2    0    0  0.32287841777E+02  0.89270460127E+01 -0.23042523914E+02  0.50528993796E+02  0.30000407141E+02 0.  0.
        -12    1    1    2    0    0 -0.32287841777E+02 -0.89270460127E+01  0.23042523914E+02  0.40659006204E+02  0.00000000000E+00 0.  1.
         11    1    3    3    0    0  0.10432056221E+01  0.83629763235E+01 -0.57670683013E+01  0.10212087348E+02  0.51100000000E-03 0. -1.
        -11    1    3    3    0    0  0.27305303013E+02 -0.12636733517E+01 -0.21099400315E+02  0.34530582632E+02  0.51100000000E-03 0.  1.
        -12    1    3    3    0    0  0.39393331415E+01  0.18277430409E+01  0.38239447018E+01  0.57863238162E+01  0.00000000000E+00 0.  1.
</event>
<event>
 7    1  0.1098446E-012  0.5052886E+02  0.7816164E-02  0.1300439E+00
        -11   -1    0    0    0    0  0.00000000000E+00  0.00000000000E+00  0.45593999997E+02  0.45594000000E+02  0.51100000000E-03 0.  1.
         11   -1    0    0    0    0 -0.00000000000E+00 -0.00000000000E+00 -0.45593999997E+02  0.45594000000E+02  0.51100000000E-03 0. -1.
    9900012    2    1    2    0    0  0.31666581399E+02 -0.93592741703E+01 -0.23723341177E+02  0.50528864408E+02  0.30000013854E+02 0.  0.
        -12    1    1    2    0    0 -0.31666581399E+02  0.93592741703E+01  0.23723341177E+02  0.40659135592E+02  0.00000000000E+00 0.  1.
         11    1    3    3    0    0  0.24486926460E+02 -0.11548781148E+02 -0.23168654465E+02  0.35633838741E+02  0.51100000000E-03 0. -1.
        -11    1    3    3    0    0  0.76566544017E+01 -0.31362301822E+01  0.26169875419E+01  0.86780712395E+01  0.51100000000E-03 0.  1.
         12    1    3    3    0    0 -0.47699946248E+00  0.53257371595E+01 -0.31716742542E+01  0.62169544275E+01  0.00000000000E+00 0. -1.
</event>
<event>
 7    1  0.1098446E-012  0.5052886E+02  0.7816164E-02  0.1300439E+00
        -11   -1    0    0    0    0  0.00000000000E+00  0.00000000000E+00  0.45593999997E+02  0.45594000000E+02  0.51100000000E-03 0.  1.
         11   -1    0    0    0    0 -0.00000000000E+00 -0.00000000000E+00 -0.45593999997E+02  0.45594000000E+02  0.51100000000E-03 0. -1.
    9900012    2    1    2    0    0  0.31773590151E+02  0.25358591416E+02 -0.73913961398E+00  0.50528861826E+02  0.30000006006E+02 0.  0.
        -12    1    1    2    0    0 -0.31773590151E+02 -0.25358591416E+02  0.73913961398E+00  0.40659138174E+02  0.00000000000E+00 0.  1.
         11    1    3    3    0    0  0.58730327135E+00  0.14422911128E+02  0.38938277584E+01  0.14950825576E+02  0.51100000000E-03 0. -1.
        -11    1    3    3    0    0  0.30698855953E+02  0.73319621435E+01 -0.48607550329E+01  0.31934375921E+02  0.51100000000E-03 0.  1.
        -12    1    3    3    0    0  0.48743092634E+00  0.36037181451E+01  0.22778766050E+00  0.36436603293E+01  0.00000000000E+00 0.  1.
</event>
<event>
 7    1  0.1098446E-012  0.5052886E+02  0.7816164E-02  0.1300439E+00
        -11   -1    0    0    0    0  0.00000000000E+00  0.00000000000E+00  0.45593999997E+02  0.45594000000E+02  0.51100000000E-03 0.  1.
         11   -1    0    0    0    0 -0.00000000000E+00 -0.00000000000E+00 -0.45593999997E+02  0.45594000000E+02  0.51100000000E-03 0. -1.
    9900012    2    1    2    0    0 -0.13101734979E+02  0.33082673949E+02 -0.19673499834E+02  0.50528863625E+02  0.30000011475E+02 0.  0.
        -12    1    1    2    0    0  0.13101734979E+02 -0.33082673949E+02  0.19673499834E+02  0.40659136375E+02  0.00000000000E+00 0.  1.
         11    1    3    3    0    0 -0.81283648160E+01  0.29502008628E+02 -0.14770079529E+02  0.33979318375E+02  0.51100000000E-03 0. -1.
        -11    1    3    3    0    0 -0.76356756040E+01 -0.45408656668E+00 -0.77914083255E+01  0.10918597918E+02  0.51100000000E-03 0.  1.
        -12    1    3    3    0    0  0.26623054410E+01  0.40347518870E+01  0.28879880206E+01  0.56309473322E+01  0.00000000000E+00 0.  1.
</event>
<event>
 7    1  0.1098446E-012  0.5052886E+02  0.7816164E-02  0.1300439E+00
        -11   -1    0    0    0    0  0.00000000000E+00  0.00000000000E+00  0.45593999997E+02  0.45594000000E+02  0.51100000000E-03 0.  1.
         11   -1    0    0    0    0 -0.00000000000E+00 -0.00000000000E+00 -0.45593999997E+02  0.45594000000E+02  0.51100000000E-03 0. -1.
    9900012    2    1    2    0    0 -0.24675010118E+02  0.91616083367E+01 -0.30989913581E+02  0.50528856682E+02  0.29999990370E+02 0.  0.
        -12    1    1    2    0    0  0.24675010118E+02 -0.91616083367E+01  0.30989913581E+02  0.40659143318E+02  0.00000000000E+00 0.  1.
         11    1    3    3    0    0 -0.83144454431E+01  0.35667080035E+01 -0.36994753259E+01  0.97743300004E+01  0.51100000000E-03 0. -1.
        -11    1    3    3    0    0 -0.15897722915E+02  0.13596898556E+01 -0.31154570775E+02  0.35002766045E+02  0.51100000000E-03 0.  1.
        -12    1    3    3    0    0 -0.46284175992E+00  0.42352104776E+01  0.38641325200E+01  0.57517606362E+01  0.00000000000E+00 0.  1.
</event>
<event>
 7    1  0.1098446E-012  0.5052886E+02  0.7816164E-02  0.1300439E+00
        -11   -1    0    0    0    0  0.00000000000E+00  0.00000000000E+00  0.45593999997E+02  0.45594000000E+02  0.51100000000E-03 0.  1.
         11   -1    0    0    0    0 -0.00000000000E+00 -0.00000000000E+00 -0.45593999997E+02  0.45594000000E+02  0.51100000000E-03 0. -1.
    9900012    2    1    2    0    0  0.31777006770E+02  0.25235927916E+02  0.25564268878E+01  0.50528861600E+02  0.30000005318E+02 0.  0.
        -12    1    1    2    0    0 -0.31777006770E+02 -0.25235927916E+02 -0.25564268878E+01  0.40659138400E+02  0.00000000000E+00 0.  1.
         11    1    3    3    0    0  0.15704769720E+02  0.23115496042E+02 -0.93534687789E+01  0.29469532193E+02  0.51100000000E-03 0. -1.
        -11    1    3    3    0    0  0.62312625955E+01  0.15071214112E+01  0.84566942238E+01  0.10612055689E+02  0.51100000000E-03 0.  1.
         12    1    3    3    0    0  0.98409744543E+01  0.61331046305E+00  0.34532014429E+01  0.10447273718E+02  0.00000000000E+00 0. -1.
</event>
<event>
 7    1  0.1098446E-012  0.5052885E+02  0.7816164E-02  0.1300439E+00
        -11   -1    0    0    0    0  0.00000000000E+00  0.00000000000E+00  0.45593999997E+02  0.45594000000E+02  0.51100000000E-03 0. -1.
         11   -1    0    0    0    0 -0.00000000000E+00 -0.00000000000E+00 -0.45593999997E+02  0.45594000000E+02  0.51100000000E-03 0.  1.
    9900012    2    1    2    0    0 -0.24986620234E+02 -0.12984943648E+02  0.29329614037E+02  0.50528853282E+02  0.29999980037E+02 0.  0.
        -12    1    1    2    0    0  0.24986620234E+02  0.12984943648E+02 -0.29329614037E+02  0.40659146718E+02  0.00000000000E+00 0.  1.
         11    1    3    3    0    0 -0.45391663871E+01 -0.33459183736E+01  0.76339697854E+01  0.94908743643E+01  0.51100000000E-03 0. -1.
        -11    1    3    3    0    0 -0.13318231650E+01 -0.50966501109E+01 -0.54160744497E+01  0.75553595547E+01  0.51100000000E-03 0.  1.
        -12    1    3    3    0    0 -0.19115630682E+02 -0.45423751632E+01  0.27111718701E+02  0.33482619363E+02  0.00000000000E+00 0.  1.
</event>
<event>
 7    1  0.1098446E-012  0.5052886E+02  0.7816164E-02  0.1300439E+00
        -11   -1    0    0    0    0  0.00000000000E+00  0.00000000000E+00  0.45593999997E+02  0.45594000000E+02  0.51100000000E-03 0.  1.
         11   -1    0    0    0    0 -0.00000000000E+00 -0.00000000000E+00 -0.45593999997E+02  0.45594000000E+02  0.51100000000E-03 0. -1.
    9900012    2    1    2    0    0  0.20782734731E+02 -0.16527048004E+02 -0.30791234574E+02  0.50528861972E+02  0.30000006450E+02 0.  0.
        -12    1    1    2    0    0 -0.20782734731E+02  0.16527048004E+02  0.30791234574E+02  0.40659138028E+02  0.00000000000E+00 0.  1.
         11    1    3    3    0    0  0.26682612029E+01 -0.17804186459E+02 -0.20050776140E+02  0.26947027617E+02  0.51100000000E-03 0. -1.
        -11    1    3    3    0    0  0.87625461318E+01  0.31126507335E+01 -0.10296191709E+00  0.92995381992E+01  0.51100000000E-03 0.  1.
        -12    1    3    3    0    0  0.93519273961E+01 -0.18355122790E+01 -0.10637496516E+02  0.14282296156E+02  0.00000000000E+00 0.  1.
</event>
<event>
 7    1  0.1098446E-012  0.5052884E+02  0.7816164E-02  0.1300439E+00
        -11   -1    0    0    0    0  0.00000000000E+00  0.00000000000E+00  0.45593999997E+02  0.45594000000E+02  0.51100000000E-03 0.  1.
         11   -1    0    0    0    0 -0.00000000000E+00 -0.00000000000E+00 -0.45593999997E+02  0.45594000000E+02  0.51100000000E-03 0. -1.
    9900012    2    1    2    0    0  0.10466976472E+02  0.31946243134E+02 -0.22870217427E+02  0.50528844918E+02  0.29999954613E+02 0.  0.
        -12    1    1    2    0    0 -0.10466976472E+02 -0.31946243134E+02  0.22870217427E+02  0.40659155082E+02  0.00000000000E+00 0.  1.
         11    1    3    3    0    0  0.10138190037E+02  0.15147625661E+02 -0.16460315817E+02  0.24559630645E+02  0.51100000000E-03 0. -1.
        -11    1    3    3    0    0 -0.35146546429E+01  0.19911022745E+02 -0.52531301227E+01  0.20890117290E+02  0.51100000000E-03 0.  1.
        -12    1    3    3    0    0  0.38434410772E+01 -0.31124052718E+01 -0.11567714869E+01  0.50790969831E+01  0.00000000000E+00 0.  1.
</event>
<event>
 7    1  0.1098446E-012  0.5052880E+02  0.7816164E-02  0.1300439E+00
        -11   -1    0    0    0    0  0.00000000000E+00  0.00000000000E+00  0.45593999997E+02  0.45594000000E+02  0.51100000000E-03 0.  1.
         11   -1    0    0    0    0 -0.00000000000E+00 -0.00000000000E+00 -0.45593999997E+02  0.45594000000E+02  0.51100000000E-03 0. -1.
    9900012    2    1    2    0    0 -0.23299728848E+02 -0.32336645511E+02 -0.80395743892E+01  0.50528797306E+02  0.29999809891E+02 0.  0.
        -12    1    1    2    0    0  0.23299728848E+02  0.32336645511E+02  0.80395743892E+01  0.40659202694E+02  0.00000000000E+00 0.  1.
         11    1    3    3    0    0 -0.25542649131E+01 -0.64987001451E+01 -0.22558382767E+01  0.73379955992E+01  0.51100000000E-03 0. -1.
        -11    1    3    3    0    0  0.24780983860E+01 -0.16416890073E+01 -0.90199115058E+01  0.94971005175E+01  0.51100000000E-03 0.  1.
        -12    1    3    3    0    0 -0.23223562321E+02 -0.24196256359E+02  0.32361753932E+01  0.33693701189E+02  0.00000000000E+00 0.  1.
</event>
<event>
 7    1  0.1098446E-012  0.5052889E+02  0.7816164E-02  0.1300439E+00
        -11   -1    0    0    0    0  0.00000000000E+00  0.00000000000E+00  0.45593999997E+02  0.45594000000E+02  0.51100000000E-03 0. -1.
         11   -1    0    0    0    0 -0.00000000000E+00 -0.00000000000E+00 -0.45593999997E+02  0.45594000000E+02  0.51100000000E-03 0.  1.
    9900012    2    1    2    0    0  0.26698140193E+02  0.14166668796E+02  0.27197029374E+02  0.50528885385E+02  0.30000077615E+02 0.  0.
        -12    1    1    2    0    0 -0.26698140193E+02 -0.14166668796E+02 -0.27197029374E+02  0.40659114615E+02  0.00000000000E+00 0.  1.
         11    1    3    3    0    0  0.22020010545E+02  0.15047393050E+02  0.29247692816E+02  0.39581971115E+02  0.51100000000E-03 0. -1.
        -11    1    3    3    0    0  0.64307923687E+01 -0.37092594087E+01 -0.15068592837E+01  0.75752439573E+01  0.51100000000E-03 0.  1.
        -12    1    3    3    0    0 -0.17526627202E+01  0.28285351545E+01 -0.54380415911E+00  0.33716703123E+01  0.00000000000E+00 0.  1.
</event>
<event>
 7    1  0.1098446E-012  0.5052888E+02  0.7816164E-02  0.1300439E+00
        -11   -1    0    0    0    0  0.00000000000E+00  0.00000000000E+00  0.45593999997E+02  0.45594000000E+02  0.51100000000E-03 0.  1.
         11   -1    0    0    0    0 -0.00000000000E+00 -0.00000000000E+00 -0.45593999997E+02  0.45594000000E+02  0.51100000000E-03 0. -1.
    9900012    2    1    2    0    0  0.16008119158E+02 -0.30232915293E+02 -0.21974425317E+02  0.50528875389E+02  0.30000047234E+02 0.  0.
        -12    1    1    2    0    0 -0.16008119158E+02  0.30232915293E+02  0.21974425317E+02  0.40659124611E+02  0.00000000000E+00 0.  1.
         11    1    3    3    0    0  0.85284316365E+01 -0.33799952908E+02 -0.20534111156E+02  0.40457640613E+02  0.51100000000E-03 0. -1.
        -11    1    3    3    0    0  0.49135393604E+01  0.51522802323E+00  0.14473248845E+01  0.51481140765E+01  0.51100000000E-03 0.  1.
         12    1    3    3    0    0  0.25661481616E+01  0.30518095915E+01 -0.28876390453E+01  0.49231207000E+01  0.00000000000E+00 0. -1.
</event>
<event>
 7    1  0.1098446E-012  0.5052888E+02  0.7816164E-02  0.1300439E+00
        -11   -1    0    0    0    0  0.00000000000E+00  0.00000000000E+00  0.45593999997E+02  0.45594000000E+02  0.51100000000E-03 0.  1.
         11   -1    0    0    0    0 -0.00000000000E+00 -0.00000000000E+00 -0.45593999997E+02  0.45594000000E+02  0.51100000000E-03 0. -1.
    9900012    2    1    2    0    0  0.17367761676E+02  0.22801973809E+02 -0.28837384095E+02  0.50528881998E+02  0.30000067322E+02 0.  0.
        -12    1    1    2    0    0 -0.17367761676E+02 -0.22801973809E+02  0.28837384095E+02  0.40659118002E+02  0.00000000000E+00 0.  1.
         11    1    3    3    0    0  0.21245218902E+01  0.87870327344E+01 -0.11375339334E+02  0.14530102641E+02  0.51100000000E-03 0. -1.
        -11    1    3    3    0    0  0.17206383884E+02  0.27308820636E+00 -0.12451254138E+02  0.21240714522E+02  0.51100000000E-03 0.  1.
        -12    1    3    3    0    0 -0.19631440983E+01  0.13741852868E+02 -0.50107906232E+01  0.14758064835E+02  0.00000000000E+00 0.  1.
</event>
<event>
 7    1  0.1098446E-012  0.5052888E+02  0.7816164E-02  0.1300439E+00
        -11   -1    0    0    0    0  0.00000000000E+00  0.00000000000E+00  0.45593999997E+02  0.45594000000E+02  0.51100000000E-03 0. -1.
         11   -1    0    0    0    0 -0.00000000000E+00 -0.00000000000E+00 -0.45593999997E+02  0.45594000000E+02  0.51100000000E-03 0.  1.
    9900012    2    1    2    0    0 -0.19250779712E+00  0.27885187986E+02  0.29589587033E+02  0.50528875206E+02  0.30000046675E+02 0.  0.
        -12    1    1    2    0    0  0.19250779712E+00 -0.27885187986E+02 -0.29589587033E+02  0.40659124794E+02  0.00000000000E+00 0.  1.
         11    1    3    3    0    0 -0.62110776349E+01  0.26626835198E+02  0.20250424785E+02  0.34024190546E+02  0.51100000000E-03 0. -1.
        -11    1    3    3    0    0  0.57347878120E+01  0.46622729157E+01  0.95607341924E+00  0.74524262246E+01  0.51100000000E-03 0.  1.
         12    1    3    3    0    0  0.28378202584E+00 -0.34039201276E+01  0.83830888286E+01  0.90522584354E+01  0.00000000000E+00 0. -1.
</event>
<event>
 7    1  0.1098446E-012  0.5052886E+02  0.7816164E-02  0.1300439E+00
        -11   -1    0    0    0    0  0.00000000000E+00  0.00000000000E+00  0.45593999997E+02  0.45594000000E+02  0.51100000000E-03 0.  1.
         11   -1    0    0    0    0 -0.00000000000E+00 -0.00000000000E+00 -0.45593999997E+02  0.45594000000E+02  0.51100000000E-03 0. -1.
    9900012    2    1    2    0    0  0.23450835343E+02 -0.16869546491E+02 -0.28611928391E+02  0.50528859289E+02  0.29999998295E+02 0.  0.
        -12    1    1    2    0    0 -0.23450835343E+02  0.16869546491E+02  0.28611928391E+02  0.40659140711E+02  0.00000000000E+00 0.  1.
         11    1    3    3    0    0  0.14845045938E+02 -0.11041116732E+02 -0.28658848462E+02  0.34111746408E+02  0.51100000000E-03 0. -1.
        -11    1    3    3    0    0  0.11038277510E+02 -0.30030661050E+01 -0.27391742730E+01  0.11762867524E+02  0.51100000000E-03 0.  1.
         12    1    3    3    0    0 -0.24324881048E+01 -0.28253636534E+01  0.27860943438E+01  0.46542453573E+01  0.00000000000E+00 0. -1.
</event>
<event>
 7    1  0.1098446E-012  0.5052887E+02  0.7816164E-02  0.1300439E+00
        -11   -1    0    0    0    0  0.00000000000E+00  0.00000000000E+00  0.45593999997E+02  0.45594000000E+02  0.51100000000E-03 0. -1.
         11   -1    0    0    0    0 -0.00000000000E+00 -0.00000000000E+00 -0.45593999997E+02  0.45594000000E+02  0.51100000000E-03 0.  1.
    9900012    2    1    2    0    0  0.39118069869E+02 -0.11063193730E+02  0.73964947368E+00  0.50528871540E+02  0.30000035534E+02 0.  0.
        -12    1    1    2    0    0 -0.39118069869E+02  0.11063193730E+02 -0.73964947368E+00  0.40659128460E+02  0.00000000000E+00 0.  1.
         11    1    3    3    0    0  0.28001456270E+02 -0.36238439570E+01  0.61560449851E+01  0.28898281755E+02  0.51100000000E-03 0. -1.
        -11    1    3    3    0    0  0.55173555104E+01  0.31092817838E+01 -0.71626814599E+01  0.95610067983E+01  0.51100000000E-03 0.  1.
         12    1    3    3    0    0  0.55992580880E+01 -0.10548631557E+02  0.17462859485E+01  0.12069582987E+02  0.00000000000E+00 0. -1.
</event>
<event>
 7    1  0.1098446E-012  0.5052886E+02  0.7816164E-02  0.1300439E+00
        -11   -1    0    0    0    0  0.00000000000E+00  0.00000000000E+00  0.45593999997E+02  0.45594000000E+02  0.51100000000E-03 0.  1.
         11   -1    0    0    0    0 -0.00000000000E+00 -0.00000000000E+00 -0.45593999997E+02  0.45594000000E+02  0.51100000000E-03 0. -1.
    9900012    2    1    2    0    0  0.11092143324E+02  0.38092025659E+02 -0.88953643469E+01  0.50528861185E+02  0.30000004057E+02 0.  0.
        -12    1    1    2    0    0 -0.11092143324E+02 -0.38092025659E+02  0.88953643469E+01  0.40659138815E+02  0.00000000000E+00 0.  1.
         11    1    3    3    0    0  0.71146559240E+01 -0.75892196730E+00  0.24287148662E+01  0.75559875352E+01  0.51100000000E-03 0.  1.
        -11    1    3    3    0    0  0.73588568568E+01  0.29376855268E+02 -0.12661793861E+02  0.32824890308E+02  0.51100000000E-03 0. -1.
        -12    1    3    3    0    0 -0.33813694572E+01  0.94740923587E+01  0.13377146478E+01  0.10147983342E+02  0.00000000000E+00 0.  1.
</event>
<event>
 7    1  0.1098446E-012  0.5052886E+02  0.7816164E-02  0.1300439E+00
        -11   -1    0    0    0    0  0.00000000000E+00  0.00000000000E+00  0.45593999997E+02  0.45594000000E+02  0.51100000000E-03 0. -1.
         11   -1    0    0    0    0 -0.00000000000E+00 -0.00000000000E+00 -0.45593999997E+02  0.45594000000E+02  0.51100000000E-03 0.  1.
    9900012    2    1    2    0    0 -0.80044631650E+01 -0.35095672246E+02  0.18904713207E+02  0.50528858072E+02  0.29999994594E+02 0.  0.
        -12    1    1    2    0    0  0.80044631650E+01  0.35095672246E+02 -0.18904713207E+02  0.40659141928E+02  0.00000000000E+00 0.  1.
         11    1    3    3    0    0 -0.52450273846E+01 -0.79814452528E+01 -0.40778395046E+01  0.10384727049E+02  0.51100000000E-03 0. -1.
        -11    1    3    3    0    0  0.72236633735E+01 -0.17864860797E+02  0.12553963295E+02  0.22998620796E+02  0.51100000000E-03 0.  1.
        -12    1    3    3    0    0 -0.99830991539E+01 -0.92493661958E+01  0.10428589416E+02  0.17145510227E+02  0.00000000000E+00 0.  1.
</event>
<event>
 7    1  0.1098446E-012  0.5052886E+02  0.7816164E-02  0.1300439E+00
        -11   -1    0    0    0    0  0.00000000000E+00  0.00000000000E+00  0.45593999997E+02  0.45594000000E+02  0.51100000000E-03 0.  1.
         11   -1    0    0    0    0 -0.00000000000E+00 -0.00000000000E+00 -0.45593999997E+02  0.45594000000E+02  0.51100000000E-03 0. -1.
    9900012    2    1    2    0    0 -0.93301327041E+01  0.27767777433E+02 -0.28196899069E+02  0.50528856416E+02  0.29999989563E+02 0.  0.
        -12    1    1    2    0    0  0.93301327041E+01 -0.27767777433E+02  0.28196899069E+02  0.40659143584E+02  0.00000000000E+00 0.  1.
         11    1    3    3    0    0 -0.62103135918E+01  0.86481869055E+01 -0.53085861757E+01  0.11897067668E+02  0.51100000000E-03 0. -1.
        -11    1    3    3    0    0  0.65270009107E+01  0.11371944304E+02 -0.22750143737E+02  0.26258177744E+02  0.51100000000E-03 0.  1.
        -12    1    3    3    0    0 -0.96468200230E+01  0.77476462235E+01 -0.13816915685E+00  0.12373611004E+02  0.00000000000E+00 0.  1.
</event>
<event>
 7    1  0.1098446E-012  0.5052886E+02  0.7816164E-02  0.1300439E+00
        -11   -1    0    0    0    0  0.00000000000E+00  0.00000000000E+00  0.45593999997E+02  0.45594000000E+02  0.51100000000E-03 0.  1.
         11   -1    0    0    0    0 -0.00000000000E+00 -0.00000000000E+00 -0.45593999997E+02  0.45594000000E+02  0.51100000000E-03 0. -1.
    9900012    2    1    2    0    0 -0.20455399409E+02  0.35120443052E+02 -0.11386815502E+01  0.50528862272E+02  0.30000007361E+02 0.  0.
        -12    1    1    2    0    0  0.20455399409E+02 -0.35120443052E+02  0.11386815502E+01  0.40659137728E+02  0.00000000000E+00 0.  1.
         11    1    3    3    0    0 -0.11369157007E+02  0.25273988486E+02  0.75546961941E+01  0.28724652477E+02  0.51100000000E-03 0. -1.
        -11    1    3    3    0    0 -0.35455123386E+00 -0.26035801885E+01 -0.57406437034E+01  0.63134243296E+01  0.51100000000E-03 0.  1.
        -12    1    3    3    0    0 -0.87316911676E+01  0.12450034754E+02 -0.29527340409E+01  0.15490785465E+02  0.00000000000E+00 0.  1.
</event>
<event>
 7    1  0.1098446E-012  0.5052886E+02  0.7816164E-02  0.1300439E+00
        -11   -1    0    0    0    0  0.00000000000E+00  0.00000000000E+00  0.45593999997E+02  0.45594000000E+02  0.51100000000E-03 0.  1.
         11   -1    0    0    0    0 -0.00000000000E+00 -0.00000000000E+00 -0.45593999997E+02  0.45594000000E+02  0.51100000000E-03 0. -1.
    9900012    2    1    2    0    0 -0.58118094359E+01  0.34325687857E+02 -0.21003233595E+02  0.50528858380E+02  0.29999995533E+02 0.  0.
        -12    1    1    2    0    0  0.58118094359E+01 -0.34325687857E+02  0.21003233595E+02  0.40659141620E+02  0.00000000000E+00 0.  1.
         11    1    3    3    0    0 -0.86870148629E+01  0.24597021780E+02 -0.18069541848E+02  0.31733043512E+02  0.51100000000E-03 0. -1.
        -11    1    3    3    0    0  0.10352086446E+00 -0.42678790289E+01 -0.11125804319E+01  0.44117279442E+01  0.51100000000E-03 0.  1.
        -12    1    3    3    0    0  0.27716845626E+01  0.13996545106E+02 -0.18211113152E+01  0.14384086924E+02  0.00000000000E+00 0.  1.
</event>
<event>
 7    1  0.1098446E-012  0.5052891E+02  0.7816164E-02  0.1300439E+00
        -11   -1    0    0    0    0  0.00000000000E+00  0.00000000000E+00  0.45593999997E+02  0.45594000000E+02  0.51100000000E-03 0.  1.
         11   -1    0    0    0    0 -0.00000000000E+00 -0.00000000000E+00 -0.45593999997E+02  0.45594000000E+02  0.51100000000E-03 0. -1.
    9900012    2    1    2    0    0 -0.16255868449E+02 -0.11539192522E+02 -0.35436636547E+02  0.50528912051E+02  0.30000158670E+02 0.  0.
        -12    1    1    2    0    0  0.16255868449E+02  0.11539192522E+02  0.35436636547E+02  0.40659087949E+02  0.00000000000E+00 0.  1.
         11    1    3    3    0    0 -0.27388155128E+01 -0.65184129714E+01 -0.28537067763E+02  0.29399915899E+02  0.51100000000E-03 0. -1.
        -11    1    3    3    0    0 -0.21305574967E+01 -0.61687907674E+01  0.17810771106E+01  0.67650196388E+01  0.51100000000E-03 0.  1.
         12    1    3    3    0    0 -0.11386495439E+02  0.11480112164E+01 -0.86806458946E+01  0.14363976514E+02  0.00000000000E+00 0. -1.
</event>
<event>
 7    1  0.1098446E-012  0.5052886E+02  0.7816164E-02  0.1300439E+00
        -11   -1    0    0    0    0  0.00000000000E+00  0.00000000000E+00  0.45593999997E+02  0.45594000000E+02  0.51100000000E-03 0.  1.
         11   -1    0    0    0    0 -0.00000000000E+00 -0.00000000000E+00 -0.45593999997E+02  0.45594000000E+02  0.51100000000E-03 0. -1.
    9900012    2    1    2    0    0 -0.35992899084E+02  0.53380765568E+01 -0.18143373783E+02  0.50528857633E+02  0.29999993260E+02 0.  0.
        -12    1    1    2    0    0  0.35992899084E+02 -0.53380765568E+01  0.18143373783E+02  0.40659142367E+02  0.00000000000E+00 0.  1.
         11    1    3    3    0    0 -0.16849094809E+02 -0.56440541784E+01 -0.35406055768E+01  0.18118588012E+02  0.51100000000E-03 0. -1.
        -11    1    3    3    0    0 -0.86511353327E+01  0.97834073467E+01  0.15080477763E+01  0.13146536054E+02  0.51100000000E-03 0.  1.
        -12    1    3    3    0    0 -0.10492668942E+02  0.11987233885E+01 -0.16110815983E+02  0.19263733567E+02  0.00000000000E+00 0.  1.
</event>
<event>
 7    1  0.1098446E-012  0.5052885E+02  0.7816164E-02  0.1300439E+00
        -11   -1    0    0    0    0  0.00000000000E+00  0.00000000000E+00  0.45593999997E+02  0.45594000000E+02  0.51100000000E-03 0.  1.
         11   -1    0    0    0    0 -0.00000000000E+00 -0.00000000000E+00 -0.45593999997E+02  0.45594000000E+02  0.51100000000E-03 0. -1.
    9900012    2    1    2    0    0  0.55201764548E+01  0.38164044057E+02 -0.12891846614E+02  0.50528852001E+02  0.29999976143E+02 0.  0.
        -12    1    1    2    0    0 -0.55201764548E+01 -0.38164044057E+02  0.12891846614E+02  0.40659147999E+02  0.00000000000E+00 0.  1.
         11    1    3    3    0    0 -0.26532674135E+01  0.30626200611E+02 -0.13941122403E+02  0.33754390617E+02  0.51100000000E-03 0. -1.
        -11    1    3    3    0    0  0.10597797861E+02  0.89461509890E+01  0.14407223691E+01  0.13943551134E+02  0.51100000000E-03 0.  1.
         12    1    3    3    0    0 -0.24243539928E+01 -0.14083075433E+01 -0.39144658062E+00  0.28309102501E+01  0.00000000000E+00 0. -1.
</event>
<event>
 7    1  0.1098446E-012  0.5052886E+02  0.7816164E-02  0.1300439E+00
        -11   -1    0    0    0    0  0.00000000000E+00  0.00000000000E+00  0.45593999997E+02  0.45594000000E+02  0.51100000000E-03 0.  1.
         11   -1    0    0    0    0 -0.00000000000E+00 -0.00000000000E+00 -0.45593999997E+02  0.45594000000E+02  0.51100000000E-03 0. -1.
    9900012    2    1    2    0    0 -0.25995315954E+01  0.63259030793E+01 -0.40079813432E+02  0.50528855161E+02  0.29999985748E+02 0.  0.
        -12    1    1    2    0    0  0.25995315954E+01 -0.63259030793E+01  0.40079813432E+02  0.40659144839E+02  0.00000000000E+00 0.  1.
         11    1    3    3    0    0 -0.60499473958E+01  0.69093028274E+01 -0.41043766235E+02  0.42058662319E+02  0.51100000000E-03 0. -1.
        -11    1    3    3    0    0  0.29403547567E+01 -0.38297428871E+01 -0.53583126166E+00  0.48579555452E+01  0.51100000000E-03 0.  1.
         12    1    3    3    0    0  0.51006104366E+00  0.32463431390E+01  0.14997840652E+01  0.36122372965E+01  0.00000000000E+00 0. -1.
</event>
<event>
 7    1  0.1098446E-012  0.5052886E+02  0.7816164E-02  0.1300439E+00
        -11   -1    0    0    0    0  0.00000000000E+00  0.00000000000E+00  0.45593999997E+02  0.45594000000E+02  0.51100000000E-03 0.  1.
         11   -1    0    0    0    0 -0.00000000000E+00 -0.00000000000E+00 -0.45593999997E+02  0.45594000000E+02  0.51100000000E-03 0. -1.
    9900012    2    1    2    0    0 -0.24569395607E+02  0.19633133949E+02 -0.25769180028E+02  0.50528858488E+02  0.29999995861E+02 0.  0.
        -12    1    1    2    0    0  0.24569395607E+02 -0.19633133949E+02  0.25769180028E+02  0.40659141512E+02  0.00000000000E+00 0.  1.
         11    1    3    3    0    0 -0.69007908282E+01  0.96201843895E+01 -0.20550591630E+02  0.23716991343E+02  0.51100000000E-03 0. -1.
        -11    1    3    3    0    0 -0.46780301618E+01 -0.39633694155E+01  0.19417974776E+01  0.64313949516E+01  0.51100000000E-03 0.  1.
        -12    1    3    3    0    0 -0.12990574617E+02  0.13976318975E+02 -0.71603858757E+01  0.20380472194E+02  0.00000000000E+00 0.  1.
</event>
<event>
 7    1  0.1098446E-012  0.5052892E+02  0.7816164E-02  0.1300439E+00
        -11   -1    0    0    0    0  0.00000000000E+00  0.00000000000E+00  0.45593999997E+02  0.45594000000E+02  0.51100000000E-03 0. -1.
         11   -1    0    0    0    0 -0.00000000000E+00 -0.00000000000E+00 -0.45593999997E+02  0.45594000000E+02  0.51100000000E-03 0.  1.
    9900012    2    1    2    0    0 -0.73560572877E+01  0.16587661782E+02  0.36385419855E+02  0.50528918846E+02  0.30000179325E+02 0.  0.
        -12    1    1    2    0    0  0.73560572877E+01 -0.16587661782E+02 -0.36385419855E+02  0.40659081154E+02  0.00000000000E+00 0.  1.
         11    1    3    3    0    0 -0.12559821144E+02  0.62849584461E+01  0.29112415850E+02  0.32323096490E+02  0.51100000000E-03 0. -1.
        -11    1    3    3    0    0  0.50659910895E+01 -0.46197379526E+00 -0.21603216833E+00  0.50915965733E+01  0.51100000000E-03 0.  1.
         12    1    3    3    0    0  0.13777276663E+00  0.10764677131E+02  0.74890361741E+01  0.13114225783E+02  0.00000000000E+00 0. -1.
</event>
<event>
 7    1  0.1098446E-012  0.5052887E+02  0.7816164E-02  0.1300439E+00
        -11   -1    0    0    0    0  0.00000000000E+00  0.00000000000E+00  0.45593999997E+02  0.45594000000E+02  0.51100000000E-03 0.  1.
         11   -1    0    0    0    0 -0.00000000000E+00 -0.00000000000E+00 -0.45593999997E+02  0.45594000000E+02  0.51100000000E-03 0. -1.
    9900012    2    1    2    0    0  0.14436991786E+02 -0.35830775279E+02 -0.12684393935E+02  0.50528867711E+02  0.30000023896E+02 0.  0.
        -12    1    1    2    0    0 -0.14436991786E+02  0.35830775279E+02  0.12684393935E+02  0.40659132289E+02  0.00000000000E+00 0.  1.
         11    1    3    3    0    0  0.89604987270E+01 -0.12719775942E+02 -0.98759656407E+01  0.18428725812E+02  0.51100000000E-03 0. -1.
        -11    1    3    3    0    0  0.11072279246E+02 -0.12722373520E+02  0.54192607801E+01  0.17715037210E+02  0.51100000000E-03 0.  1.
        -12    1    3    3    0    0 -0.55957861868E+01 -0.10388625817E+02 -0.82276890745E+01  0.14385104689E+02  0.00000000000E+00 0.  1.
</event>
<event>
 7    1  0.1098446E-012  0.5052885E+02  0.7816164E-02  0.1300439E+00
        -11   -1    0    0    0    0  0.00000000000E+00  0.00000000000E+00  0.45593999997E+02  0.45594000000E+02  0.51100000000E-03 0.  1.
         11   -1    0    0    0    0 -0.00000000000E+00 -0.00000000000E+00 -0.45593999997E+02  0.45594000000E+02  0.51100000000E-03 0. -1.
    9900012    2    1    2    0    0  0.10168467729E+02 -0.33237358121E+01 -0.39226538123E+02  0.50528852827E+02  0.29999978654E+02 0.  0.
        -12    1    1    2    0    0 -0.10168467729E+02  0.33237358121E+01  0.39226538123E+02  0.40659147173E+02  0.00000000000E+00 0.  1.
         11    1    3    3    0    0  0.10862592027E+02 -0.13311393002E+02 -0.23357815570E+02  0.28996148670E+02  0.51100000000E-03 0. -1.
        -11    1    3    3    0    0 -0.30500963057E+01 -0.24561461517E+00 -0.79445006798E+00  0.31614182236E+01  0.51100000000E-03 0.  1.
         12    1    3    3    0    0  0.23559720078E+01  0.10233271805E+02 -0.15074272484E+02  0.18371285934E+02  0.00000000000E+00 0. -1.
</event>
<event>
 7    1  0.1098446E-012  0.5052886E+02  0.7816164E-02  0.1300439E+00
        -11   -1    0    0    0    0  0.00000000000E+00  0.00000000000E+00  0.45593999997E+02  0.45594000000E+02  0.51100000000E-03 0.  1.
         11   -1    0    0    0    0 -0.00000000000E+00 -0.00000000000E+00 -0.45593999997E+02  0.45594000000E+02  0.51100000000E-03 0. -1.
    9900012    2    1    2    0    0  0.18287568040E+02 -0.36272690344E+02 -0.17386169764E+01  0.50528855904E+02  0.29999988006E+02 0.  0.
        -12    1    1    2    0    0 -0.18287568040E+02  0.36272690344E+02  0.17386169764E+01  0.40659144096E+02  0.00000000000E+00 0.  1.
         11    1    3    3    0    0  0.21674374659E+02 -0.25582197580E+02 -0.42527067590E+01  0.33798119251E+02  0.51100000000E-03 0. -1.
        -11    1    3    3    0    0 -0.79923390902E+01 -0.70787488545E+01  0.19217481264E+01  0.10848008370E+02  0.51100000000E-03 0.  1.
        -12    1    3    3    0    0  0.46055324708E+01 -0.36117439099E+01  0.59234165621E+00  0.58827282827E+01  0.00000000000E+00 0.  1.
</event>
<event>
 7    1  0.1098446E-012  0.5052887E+02  0.7816164E-02  0.1300439E+00
        -11   -1    0    0    0    0  0.00000000000E+00  0.00000000000E+00  0.45593999997E+02  0.45594000000E+02  0.51100000000E-03 0. -1.
         11   -1    0    0    0    0 -0.00000000000E+00 -0.00000000000E+00 -0.45593999997E+02  0.45594000000E+02  0.51100000000E-03 0.  1.
    9900012    2    1    2    0    0 -0.37853117339E+02 -0.11514689036E+02 -0.93658044503E+01  0.50528870042E+02  0.30000030981E+02 0.  0.
        -12    1    1    2    0    0  0.37853117339E+02  0.11514689036E+02  0.93658044503E+01  0.40659129958E+02  0.00000000000E+00 0.  1.
         11    1    3    3    0    0 -0.10715966145E+02  0.22651421728E+01 -0.90851985863E+01  0.14230377124E+02  0.51100000000E-03 0.  1.
        -11    1    3    3    0    0 -0.14352035830E+02 -0.94203657379E+01  0.95006275120E+01  0.19621063847E+02  0.51100000000E-03 0. -1.
         12    1    3    3    0    0 -0.12785115364E+02 -0.43594654712E+01 -0.97812333760E+01  0.16677429071E+02  0.00000000000E+00 0. -1.
</event>
<event>
 7    1  0.1098446E-012  0.5052886E+02  0.7816164E-02  0.1300439E+00
        -11   -1    0    0    0    0  0.00000000000E+00  0.00000000000E+00  0.45593999997E+02  0.45594000000E+02  0.51100000000E-03 0. -1.
         11   -1    0    0    0    0 -0.00000000000E+00 -0.00000000000E+00 -0.45593999997E+02  0.45594000000E+02  0.51100000000E-03 0.  1.
    9900012    2    1    2    0    0 -0.30561399142E+02 -0.12637111045E+02  0.23653113177E+02  0.50528862576E+02  0.30000008286E+02 0.  0.
        -12    1    1    2    0    0  0.30561399142E+02  0.12637111045E+02 -0.23653113177E+02  0.40659137424E+02  0.00000000000E+00 0.  1.
         11    1    3    3    0    0 -0.39637522595E+01 -0.39728432038E+01  0.86663591856E+01  0.10324756505E+02  0.51100000000E-03 0. -1.
        -11    1    3    3    0    0 -0.30109270438E+02 -0.11340201131E+02  0.10340813499E+02  0.33794981167E+02  0.51100000000E-03 0.  1.
        -12    1    3    3    0    0  0.35116235552E+01  0.26759332902E+01  0.46459404929E+01  0.64091249036E+01  0.00000000000E+00 0.  1.
</event>
<event>
 7    1  0.1098446E-012  0.5052886E+02  0.7816164E-02  0.1300439E+00
        -11   -1    0    0    0    0  0.00000000000E+00  0.00000000000E+00  0.45593999997E+02  0.45594000000E+02  0.51100000000E-03 0. -1.
         11   -1    0    0    0    0 -0.00000000000E+00 -0.00000000000E+00 -0.45593999997E+02  0.45594000000E+02  0.51100000000E-03 0.  1.
    9900012    2    1    2    0    0 -0.30705133802E+02  0.15500049435E+02  0.21681985669E+02  0.50528864780E+02  0.30000014985E+02 0.  0.
        -12    1    1    2    0    0  0.30705133802E+02 -0.15500049435E+02 -0.21681985669E+02  0.40659135220E+02  0.00000000000E+00 0.  1.
         11    1    3    3    0    0  0.70706822624E+00  0.11002680980E+02  0.10491017722E+02  0.15219079713E+02  0.51100000000E-03 0. -1.
        -11    1    3    3    0    0 -0.48362498664E+01 -0.21495906229E+01 -0.89502390351E+00  0.53675991528E+01  0.51100000000E-03 0.  1.
         12    1    3    3    0    0 -0.26575952162E+02  0.66469590784E+01  0.12085991851E+02  0.29942185914E+02  0.00000000000E+00 0. -1.
</event>
<event>
 7    1  0.1098446E-012  0.5052887E+02  0.7816164E-02  0.1300439E+00
        -11   -1    0    0    0    0  0.00000000000E+00  0.00000000000E+00  0.45593999997E+02  0.45594000000E+02  0.51100000000E-03 0.  1.
         11   -1    0    0    0    0 -0.00000000000E+00 -0.00000000000E+00 -0.45593999997E+02  0.45594000000E+02  0.51100000000E-03 0. -1.
    9900012    2    1    2    0    0  0.27218338704E+02 -0.29042917724E+00 -0.30203351162E+02  0.50528871476E+02  0.30000035340E+02 0.  0.
        -12    1    1    2    0    0 -0.27218338704E+02  0.29042917724E+00  0.30203351162E+02  0.40659128524E+02  0.00000000000E+00 0.  1.
         11    1    3    3    0    0  0.13314227626E+02  0.50183052897E+01 -0.17934387531E+02  0.22893105985E+02  0.51100000000E-03 0. -1.
        -11    1    3    3    0    0  0.13860553419E+02 -0.63834976753E+01  0.59968779204E-01  0.15259999350E+02  0.51100000000E-03 0.  1.
        -12    1    3    3    0    0  0.43557658666E-01  0.10747632083E+01 -0.12328932410E+02  0.12375766141E+02  0.00000000000E+00 0.  1.
</event>
<event>
 7    1  0.1098446E-012  0.5052882E+02  0.7816164E-02  0.1300439E+00
        -11   -1    0    0    0    0  0.00000000000E+00  0.00000000000E+00  0.45593999997E+02  0.45594000000E+02  0.51100000000E-03 0.  1.
         11   -1    0    0    0    0 -0.00000000000E+00 -0.00000000000E+00 -0.45593999997E+02  0.45594000000E+02  0.51100000000E-03 0. -1.
    9900012    2    1    2    0    0  0.18889074608E+02 -0.26149115630E+02 -0.24750665181E+02  0.50528821274E+02  0.29999882743E+02 0.  0.
        -12    1    1    2    0    0 -0.18889074608E+02  0.26149115630E+02  0.24750665181E+02  0.40659178726E+02  0.00000000000E+00 0.  1.
         11    1    3    3    0    0  0.54622316907E+01 -0.22382058269E+02 -0.24284340730E+02  0.33474194723E+02  0.51100000000E-03 0. -1.
        -11    1    3    3    0    0  0.18534559666E+01 -0.46942844138E+01  0.15300514555E+01  0.52737712214E+01  0.51100000000E-03 0.  1.
         12    1    3    3    0    0  0.11573386951E+02  0.92722705232E+00 -0.19963759060E+01  0.11780855329E+02  0.00000000000E+00 0. -1.
</event>
<event>
 7    1  0.1098446E-012  0.5052886E+02  0.7816164E-02  0.1300439E+00
        -11   -1    0    0    0    0  0.00000000000E+00  0.00000000000E+00  0.45593999997E+02  0.45594000000E+02  0.51100000000E-03 0.  1.
         11   -1    0    0    0    0 -0.00000000000E+00 -0.00000000000E+00 -0.45593999997E+02  0.45594000000E+02  0.51100000000E-03 0. -1.
    9900012    2    1    2    0    0  0.13553125772E+02  0.14306086693E+01 -0.38307075364E+02  0.50528857335E+02  0.29999992355E+02 0.  0.
        -12    1    1    2    0    0 -0.13553125772E+02 -0.14306086693E+01  0.38307075364E+02  0.40659142665E+02  0.00000000000E+00 0.  1.
         11    1    3    3    0    0  0.18949660534E+02  0.37319739370E+01 -0.35726867908E+02  0.40613130323E+02  0.51100000000E-03 0. -1.
        -11    1    3    3    0    0 -0.65075321231E+01 -0.28202959289E+01 -0.39166433414E+01  0.81019836327E+01  0.51100000000E-03 0.  1.
        -12    1    3    3    0    0  0.11109973616E+01  0.51893066123E+00  0.13364358861E+01  0.18137433794E+01  0.00000000000E+00 0.  1.
</event>
<event>
 7    1  0.1098446E-012  0.5052882E+02  0.7816164E-02  0.1300439E+00
        -11   -1    0    0    0    0  0.00000000000E+00  0.00000000000E+00  0.45593999997E+02  0.45594000000E+02  0.51100000000E-03 0.  1.
         11   -1    0    0    0    0 -0.00000000000E+00 -0.00000000000E+00 -0.45593999997E+02  0.45594000000E+02  0.51100000000E-03 0. -1.
    9900012    2    1    2    0    0  0.20766256153E+02 -0.27757921673E+02 -0.21246857228E+02  0.50528824500E+02  0.29999892550E+02 0.  0.
        -12    1    1    2    0    0 -0.20766256153E+02  0.27757921673E+02  0.21246857228E+02  0.40659175500E+02  0.00000000000E+00 0.  1.
         11    1    3    3    0    0  0.42570002867E+01 -0.15033176818E+02 -0.15030646904E+02  0.21680378301E+02  0.51100000000E-03 0. -1.
        -11    1    3    3    0    0  0.85477498846E+01  0.20023172903E+01 -0.81711413478E+01  0.11993367075E+02  0.51100000000E-03 0.  1.
        -12    1    3    3    0    0  0.79615059819E+01 -0.14727062146E+02  0.19549310232E+01  0.16855079123E+02  0.00000000000E+00 0.  1.
</event>
<event>
 7    1  0.1098446E-012  0.5052886E+02  0.7816164E-02  0.1300439E+00
        -11   -1    0    0    0    0  0.00000000000E+00  0.00000000000E+00  0.45593999997E+02  0.45594000000E+02  0.51100000000E-03 0. -1.
         11   -1    0    0    0    0 -0.00000000000E+00 -0.00000000000E+00 -0.45593999997E+02  0.45594000000E+02  0.51100000000E-03 0.  1.
    9900012    2    1    2    0    0 -0.39463185348E+02  0.73439370694E+01 -0.64721705220E+01  0.50528863256E+02  0.30000010353E+02 0.  0.
        -12    1    1    2    0    0  0.39463185348E+02 -0.73439370694E+01  0.64721705220E+01  0.40659136744E+02  0.00000000000E+00 0.  1.
         11    1    3    3    0    0 -0.90140013466E+01  0.58618894565E+01  0.23417228336E+01  0.11004437031E+02  0.51100000000E-03 0. -1.
        -11    1    3    3    0    0 -0.26575995852E+02 -0.83523454117E+01 -0.50952038433E+01  0.28319716309E+02  0.51100000000E-03 0.  1.
        -12    1    3    3    0    0 -0.38731881501E+01  0.98343930246E+01 -0.37186895123E+01  0.11204709916E+02  0.00000000000E+00 0.  1.
</event>
<event>
 7    1  0.1098446E-012  0.5052884E+02  0.7816164E-02  0.1300439E+00
        -11   -1    0    0    0    0  0.00000000000E+00  0.00000000000E+00  0.45593999997E+02  0.45594000000E+02  0.51100000000E-03 0. -1.
         11   -1    0    0    0    0 -0.00000000000E+00 -0.00000000000E+00 -0.45593999997E+02  0.45594000000E+02  0.51100000000E-03 0.  1.
    9900012    2    1    2    0    0 -0.25354264108E+01  0.24907890115E+02  0.32036473631E+02  0.50528843347E+02  0.29999949837E+02 0.  0.
        -12    1    1    2    0    0  0.25354264108E+01 -0.24907890115E+02 -0.32036473631E+02  0.40659156653E+02  0.00000000000E+00 0.  1.
         11    1    3    3    0    0  0.12261578947E+02  0.99131962953E+01  0.19067165367E+02  0.24742161879E+02  0.51100000000E-03 0. -1.
        -11    1    3    3    0    0 -0.66946825395E+01  0.48149117782E+01  0.13762016946E+01  0.83603876167E+01  0.51100000000E-03 0.  1.
         12    1    3    3    0    0 -0.81023228184E+01  0.10179782041E+02  0.11593106569E+02  0.17426293851E+02  0.00000000000E+00 0. -1.
</event>
<event>
 7    1  0.1098446E-012  0.5052883E+02  0.7816164E-02  0.1300439E+00
        -11   -1    0    0    0    0  0.00000000000E+00  0.00000000000E+00  0.45593999997E+02  0.45594000000E+02  0.51100000000E-03 0.  1.
         11   -1    0    0    0    0 -0.00000000000E+00 -0.00000000000E+00 -0.45593999997E+02  0.45594000000E+02  0.51100000000E-03 0. -1.
    9900012    2    1    2    0    0  0.17213508516E+02  0.22469070156E+02 -0.29189103567E+02  0.50528834290E+02  0.29999922309E+02 0.  0.
        -12    1    1    2    0    0 -0.17213508516E+02 -0.22469070156E+02  0.29189103567E+02  0.40659165710E+02  0.00000000000E+00 0.  1.
         11    1    3    3    0    0  0.15985636698E+02 -0.14107700475E+01 -0.10011753821E+02  0.18914705063E+02  0.51100000000E-03 0.  1.
        -11    1    3    3    0    0 -0.15800056019E+01  0.19068619894E+02 -0.12227596427E+02  0.22707329147E+02  0.51100000000E-03 0. -1.
        -12    1    3    3    0    0  0.28078774200E+01  0.48112203101E+01 -0.69497533187E+01  0.89068000802E+01  0.00000000000E+00 0.  1.
</event>
<event>
 7    1  0.1098446E-012  0.5052885E+02  0.7816164E-02  0.1300439E+00
        -11   -1    0    0    0    0  0.00000000000E+00  0.00000000000E+00  0.45593999997E+02  0.45594000000E+02  0.51100000000E-03 0.  1.
         11   -1    0    0    0    0 -0.00000000000E+00 -0.00000000000E+00 -0.45593999997E+02  0.45594000000E+02  0.51100000000E-03 0. -1.
    9900012    2    1    2    0    0 -0.15609717954E+01 -0.26858456483E+02 -0.30485300274E+02  0.50528845430E+02  0.29999956168E+02 0.  0.
        -12    1    1    2    0    0  0.15609717954E+01  0.26858456483E+02  0.30485300274E+02  0.40659154570E+02  0.00000000000E+00 0.  1.
         11    1    3    3    0    0  0.10147103270E+01 -0.20493057595E+02 -0.31910760082E+02  0.37937997521E+02  0.51100000000E-03 0. -1.
        -11    1    3    3    0    0  0.37774569756E+01 -0.11438966185E+01 -0.89325208327E+00  0.40466752059E+01  0.51100000000E-03 0.  1.
         12    1    3    3    0    0 -0.63531390980E+01 -0.52215022694E+01  0.23187118911E+01  0.85441727032E+01  0.00000000000E+00 0. -1.
</event>
<event>
 7    1  0.1098446E-012  0.5052885E+02  0.7816164E-02  0.1300439E+00
        -11   -1    0    0    0    0  0.00000000000E+00  0.00000000000E+00  0.45593999997E+02  0.45594000000E+02  0.51100000000E-03 0.  1.
         11   -1    0    0    0    0 -0.00000000000E+00 -0.00000000000E+00 -0.45593999997E+02  0.45594000000E+02  0.51100000000E-03 0. -1.
    9900012    2    1    2    0    0  0.55564772710E+01 -0.38946782043E+02 -0.10268400918E+02  0.50528851846E+02  0.29999975672E+02 0.  0.
        -12    1    1    2    0    0 -0.55564772710E+01  0.38946782043E+02  0.10268400918E+02  0.40659148154E+02  0.00000000000E+00 0.  1.
         11    1    3    3    0    0  0.66241603757E+01 -0.54394337417E+01  0.31768789373E+01  0.91410885651E+01  0.51100000000E-03 0. -1.
        -11    1    3    3    0    0 -0.10285981822E+02 -0.20298684224E+02 -0.10289433533E+02  0.24974195602E+02  0.51100000000E-03 0.  1.
        -12    1    3    3    0    0  0.92182987173E+01 -0.13208664078E+02 -0.31558463222E+01  0.16413567679E+02  0.00000000000E+00 0.  1.
</event>
<event>
 7    1  0.1098446E-012  0.5052887E+02  0.7816164E-02  0.1300439E+00
        -11   -1    0    0    0    0  0.00000000000E+00  0.00000000000E+00  0.45593999997E+02  0.45594000000E+02  0.51100000000E-03 0.  1.
         11   -1    0    0    0    0 -0.00000000000E+00 -0.00000000000E+00 -0.45593999997E+02  0.45594000000E+02  0.51100000000E-03 0. -1.
    9900012    2    1    2    0    0 -0.36861422542E+02 -0.10286420044E+02 -0.13732791751E+02  0.50528874598E+02  0.30000044828E+02 0.  0.
        -12    1    1    2    0    0  0.36861422542E+02  0.10286420044E+02  0.13732791751E+02  0.40659125402E+02  0.00000000000E+00 0.  1.
         11    1    3    3    0    0 -0.91178862054E+01  0.43336547801E+00  0.32386517811E+01  0.96856863521E+01  0.51100000000E-03 0. -1.
        -11    1    3    3    0    0 -0.14968387995E+02  0.68585780445E+00 -0.18316457557E+02  0.23664649961E+02  0.51100000000E-03 0.  1.
        -12    1    3    3    0    0 -0.12775148342E+02 -0.11405643327E+02  0.13450140255E+01  0.17178538285E+02  0.00000000000E+00 0.  1.
</event>
<event>
 7    1  0.1098446E-012  0.5052886E+02  0.7816164E-02  0.1300439E+00
        -11   -1    0    0    0    0  0.00000000000E+00  0.00000000000E+00  0.45593999997E+02  0.45594000000E+02  0.51100000000E-03 0.  1.
         11   -1    0    0    0    0 -0.00000000000E+00 -0.00000000000E+00 -0.45593999997E+02  0.45594000000E+02  0.51100000000E-03 0. -1.
    9900012    2    1    2    0    0  0.17305258543E+02 -0.30631467104E+02 -0.20381539011E+02  0.50528857330E+02  0.29999992341E+02 0.  0.
        -12    1    1    2    0    0 -0.17305258543E+02  0.30631467104E+02  0.20381539011E+02  0.40659142670E+02  0.00000000000E+00 0.  1.
         11    1    3    3    0    0  0.18710212776E+01 -0.65943121784E+00 -0.10628524733E+01  0.22506056504E+01  0.51100000000E-03 0. -1.
        -11    1    3    3    0    0  0.18839708458E+02 -0.62610236405E+01 -0.12143953649E+02  0.23272529779E+02  0.51100000000E-03 0.  1.
        -12    1    3    3    0    0 -0.34054711933E+01 -0.23711012246E+02 -0.71747328890E+01  0.25005721901E+02  0.00000000000E+00 0.  1.
</event>
<event>
 7    1  0.1098446E-012  0.5052886E+02  0.7816164E-02  0.1300439E+00
        -11   -1    0    0    0    0  0.00000000000E+00  0.00000000000E+00  0.45593999997E+02  0.45594000000E+02  0.51100000000E-03 0. -1.
         11   -1    0    0    0    0 -0.00000000000E+00 -0.00000000000E+00 -0.45593999997E+02  0.45594000000E+02  0.51100000000E-03 0.  1.
    9900012    2    1    2    0    0  0.34477379059E+02  0.20789821677E+02 -0.56797413325E+01  0.50528858177E+02  0.29999994916E+02 0.  0.
        -12    1    1    2    0    0 -0.34477379059E+02 -0.20789821677E+02  0.56797413325E+01  0.40659141823E+02  0.00000000000E+00 0.  1.
         11    1    3    3    0    0  0.15803306285E+02  0.24652113754E+01 -0.49152377264E+00  0.16001979644E+02  0.51100000000E-03 0. -1.
        -11    1    3    3    0    0 -0.39360460190E+01  0.19059872085E+00  0.23377796400E+01  0.45819209991E+01  0.51100000000E-03 0.  1.
        -12    1    3    3    0    0  0.22610118793E+02  0.18134011581E+02 -0.75259971999E+01  0.29944957534E+02  0.00000000000E+00 0.  1.
</event>
<event>
 7    1  0.1098446E-012  0.5052886E+02  0.7816164E-02  0.1300439E+00
        -11   -1    0    0    0    0  0.00000000000E+00  0.00000000000E+00  0.45593999997E+02  0.45594000000E+02  0.51100000000E-03 0. -1.
         11   -1    0    0    0    0 -0.00000000000E+00 -0.00000000000E+00 -0.45593999997E+02  0.45594000000E+02  0.51100000000E-03 0.  1.
    9900012    2    1    2    0    0 -0.18538292338E+02 -0.24977802032E+02 -0.26184097649E+02  0.50528857770E+02  0.29999993678E+02 0.  0.
        -12    1    1    2    0    0  0.18538292338E+02  0.24977802032E+02  0.26184097649E+02  0.40659142230E+02  0.00000000000E+00 0.  1.
         11    1    3    3    0    0 -0.17129133405E+02 -0.28738996424E+02 -0.19992996154E+02  0.38975082067E+02  0.51100000000E-03 0. -1.
        -11    1    3    3    0    0  0.34879215278E+01  0.15158831852E+01 -0.45330854692E+01  0.59171245168E+01  0.51100000000E-03 0.  1.
         12    1    3    3    0    0 -0.48970804611E+01  0.22453112062E+01 -0.16580160258E+01  0.56366511864E+01  0.00000000000E+00 0. -1.
</event>
<event>
 7    1  0.1098446E-012  0.5052886E+02  0.7816164E-02  0.1300439E+00
        -11   -1    0    0    0    0  0.00000000000E+00  0.00000000000E+00  0.45593999997E+02  0.45594000000E+02  0.51100000000E-03 0.  1.
         11   -1    0    0    0    0 -0.00000000000E+00 -0.00000000000E+00 -0.45593999997E+02  0.45594000000E+02  0.51100000000E-03 0. -1.
    9900012    2    1    2    0    0  0.34998320882E+02  0.11319948546E+02 -0.17324608550E+02  0.50528858825E+02  0.29999996885E+02 0.  0.
        -12    1    1    2    0    0 -0.34998320882E+02 -0.11319948546E+02  0.17324608550E+02  0.40659141175E+02  0.00000000000E+00 0.  1.
         11    1    3    3    0    0  0.17487263845E+02 -0.15719137955E+01 -0.12442993401E+02  0.21519837239E+02  0.51100000000E-03 0. -1.
        -11    1    3    3    0    0 -0.38347126998E+01  0.25828718066E+01  0.64578712896E+00  0.46683283450E+01  0.51100000000E-03 0.  1.
         12    1    3    3    0    0  0.21345769737E+02  0.10308990535E+02 -0.55274022780E+01  0.24340693241E+02  0.00000000000E+00 0. -1.
</event>
<event>
 7    1  0.1098446E-012  0.5052873E+02  0.7816164E-02  0.1300439E+00
        -11   -1    0    0    0    0  0.00000000000E+00  0.00000000000E+00  0.45593999997E+02  0.45594000000E+02  0.51100000000E-03 0.  1.
         11   -1    0    0    0    0 -0.00000000000E+00 -0.00000000000E+00 -0.45593999997E+02  0.45594000000E+02  0.51100000000E-03 0. -1.
    9900012    2    1    2    0    0  0.23963521153E+02 -0.28764156368E+02 -0.15860309201E+02  0.50528727434E+02  0.29999597505E+02 0.  0.
        -12    1    1    2    0    0 -0.23963521153E+02  0.28764156368E+02  0.15860309201E+02  0.40659272566E+02  0.00000000000E+00 0.  1.
         11    1    3    3    0    0  0.23177584978E+01  0.13508243139E+01 -0.78624562558E+01  0.83075236633E+01  0.51100000000E-03 0. -1.
        -11    1    3    3    0    0  0.11436142200E+01 -0.15024785380E+02  0.12889929037E+01  0.15123277825E+02  0.51100000000E-03 0.  1.
        -12    1    3    3    0    0  0.20502148435E+02 -0.15090195302E+02 -0.92868458492E+01  0.27097925946E+02  0.00000000000E+00 0.  1.
</event>
<event>
 7    1  0.1098446E-012  0.5052885E+02  0.7816164E-02  0.1300439E+00
        -11   -1    0    0    0    0  0.00000000000E+00  0.00000000000E+00  0.45593999997E+02  0.45594000000E+02  0.51100000000E-03 0. -1.
         11   -1    0    0    0    0 -0.00000000000E+00 -0.00000000000E+00 -0.45593999997E+02  0.45594000000E+02  0.51100000000E-03 0.  1.
    9900012    2    1    2    0    0 -0.12280358639E+02 -0.15180720298E+02  0.35663775814E+02  0.50528851185E+02  0.29999973662E+02 0.  0.
        -12    1    1    2    0    0  0.12280358639E+02  0.15180720298E+02 -0.35663775814E+02  0.40659148815E+02  0.00000000000E+00 0.  1.
         11    1    3    3    0    0 -0.65995041355E+01 -0.23058287880E+02  0.27615386545E+02  0.36576600021E+02  0.51100000000E-03 0. -1.
        -11    1    3    3    0    0 -0.22890170049E+01  0.68467756018E+01  0.74190299511E+01  0.10351808570E+02  0.51100000000E-03 0.  1.
         12    1    3    3    0    0 -0.33918374987E+01  0.10307919797E+01  0.62935931722E+00  0.36004425941E+01  0.00000000000E+00 0. -1.
</event>
<event>
 7    1  0.1098446E-012  0.5052886E+02  0.7816164E-02  0.1300439E+00
        -11   -1    0    0    0    0  0.00000000000E+00  0.00000000000E+00  0.45593999997E+02  0.45594000000E+02  0.51100000000E-03 0.  1.
         11   -1    0    0    0    0 -0.00000000000E+00 -0.00000000000E+00 -0.45593999997E+02  0.45594000000E+02  0.51100000000E-03 0. -1.
    9900012    2    1    2    0    0  0.17456564069E+02 -0.20779075807E+02 -0.30276459412E+02  0.50528860621E+02  0.30000002344E+02 0.  0.
        -12    1    1    2    0    0 -0.17456564069E+02  0.20779075807E+02  0.30276459412E+02  0.40659139379E+02  0.00000000000E+00 0.  1.
         11    1    3    3    0    0  0.80175888486E+01 -0.74615092044E+01 -0.10436996257E+02  0.15129003328E+02  0.51100000000E-03 0. -1.
        -11    1    3    3    0    0 -0.31050509077E+01  0.56488121567E+01 -0.30331891090E+01  0.71239494912E+01  0.51100000000E-03 0.  1.
        -12    1    3    3    0    0  0.12544026128E+02 -0.18966378759E+02 -0.16806274046E+02  0.28275907802E+02  0.00000000000E+00 0.  1.
</event>
<event>
 7    1  0.1098446E-012  0.5052888E+02  0.7816164E-02  0.1300439E+00
        -11   -1    0    0    0    0  0.00000000000E+00  0.00000000000E+00  0.45593999997E+02  0.45594000000E+02  0.51100000000E-03 0. -1.
         11   -1    0    0    0    0 -0.00000000000E+00 -0.00000000000E+00 -0.45593999997E+02  0.45594000000E+02  0.51100000000E-03 0.  1.
    9900012    2    1    2    0    0  0.25068292954E+02  0.14192943803E+00  0.32011324367E+02  0.50528876260E+02  0.30000049880E+02 0.  0.
        -12    1    1    2    0    0 -0.25068292954E+02 -0.14192943803E+00 -0.32011324367E+02  0.40659123740E+02  0.00000000000E+00 0.  1.
         11    1    3    3    0    0  0.18694058394E+02 -0.51682626246E+01  0.77562629855E+01  0.20888714024E+02  0.51100000000E-03 0. -1.
        -11    1    3    3    0    0  0.10576365286E+02  0.67548828960E+01  0.18811083168E+02  0.22612934259E+02  0.51100000000E-03 0.  1.
        -12    1    3    3    0    0 -0.42021307269E+01 -0.14446908333E+01  0.54439782134E+01  0.70272279768E+01  0.00000000000E+00 0.  1.
</event>
<event>
 7    1  0.1098446E-012  0.5052885E+02  0.7816164E-02  0.1300439E+00
        -11   -1    0    0    0    0  0.00000000000E+00  0.00000000000E+00  0.45593999997E+02  0.45594000000E+02  0.51100000000E-03 0.  1.
         11   -1    0    0    0    0 -0.00000000000E+00 -0.00000000000E+00 -0.45593999997E+02  0.45594000000E+02  0.51100000000E-03 0. -1.
    9900012    2    1    2    0    0  0.45719270256E+01 -0.23566875946E+02 -0.32815636609E+02  0.50528853863E+02  0.29999981801E+02 0.  0.
        -12    1    1    2    0    0 -0.45719270256E+01  0.23566875946E+02  0.32815636609E+02  0.40659146137E+02  0.00000000000E+00 0.  1.
         11    1    3    3    0    0 -0.71580286552E+01 -0.11474025588E+02 -0.14301529158E+02  0.19683098688E+02  0.51100000000E-03 0. -1.
        -11    1    3    3    0    0  0.82085152644E+01 -0.95953138500E+01 -0.84357947958E+00  0.12655488822E+02  0.51100000000E-03 0.  1.
        -12    1    3    3    0    0  0.35214404163E+01 -0.24975365076E+01 -0.17670527971E+02  0.18190266353E+02  0.00000000000E+00 0.  1.
</event>
<event>
 7    1  0.1098446E-012  0.5052886E+02  0.7816164E-02  0.1300439E+00
        -11   -1    0    0    0    0  0.00000000000E+00  0.00000000000E+00  0.45593999997E+02  0.45594000000E+02  0.51100000000E-03 0. -1.
         11   -1    0    0    0    0 -0.00000000000E+00 -0.00000000000E+00 -0.45593999997E+02  0.45594000000E+02  0.51100000000E-03 0.  1.
    9900012    2    1    2    0    0  0.40419917007E+02  0.44039816263E+01  0.33461336863E-01  0.50528857551E+02  0.29999993012E+02 0.  0.
        -12    1    1    2    0    0 -0.40419917007E+02 -0.44039816263E+01 -0.33461336863E-01  0.40659142449E+02  0.00000000000E+00 0.  1.
         11    1    3    3    0    0  0.18729133817E+02 -0.71949299639E+01  0.63640549353E+01  0.21048721249E+02  0.51100000000E-03 0.  1.
        -11    1    3    3    0    0  0.56251630641E+00  0.71604701710E+01 -0.11018550994E+01  0.72665564463E+01  0.51100000000E-03 0. -1.
        -12    1    3    3    0    0  0.21128266884E+02  0.44384414192E+01 -0.52287384990E+01  0.22213579856E+02  0.00000000000E+00 0.  1.
</event>
<event>
 7    1  0.1098446E-012  0.5052886E+02  0.7816164E-02  0.1300439E+00
        -11   -1    0    0    0    0  0.00000000000E+00  0.00000000000E+00  0.45593999997E+02  0.45594000000E+02  0.51100000000E-03 0. -1.
         11   -1    0    0    0    0 -0.00000000000E+00 -0.00000000000E+00 -0.45593999997E+02  0.45594000000E+02  0.51100000000E-03 0.  1.
    9900012    2    1    2    0    0  0.91151383307E+01  0.37000691763E+02 -0.14178451426E+02  0.50528862988E+02  0.30000009538E+02 0.  0.
        -12    1    1    2    0    0 -0.91151383307E+01 -0.37000691763E+02  0.14178451426E+02  0.40659137012E+02  0.00000000000E+00 0.  1.
         11    1    3    3    0    0 -0.17135333636E+01  0.35141150300E+01  0.66280067228E+01  0.76951721495E+01  0.51100000000E-03 0. -1.
        -11    1    3    3    0    0  0.47070205037E+01  0.93911566336E+01 -0.13129068390E+02  0.16814348099E+02  0.51100000000E-03 0.  1.
         12    1    3    3    0    0  0.61216511906E+01  0.24095420100E+02 -0.76773897580E+01  0.26019342739E+02  0.00000000000E+00 0. -1.
</event>
<event>
 7    1  0.1098446E-012  0.5052886E+02  0.7816164E-02  0.1300439E+00
        -11   -1    0    0    0    0  0.00000000000E+00  0.00000000000E+00  0.45593999997E+02  0.45594000000E+02  0.51100000000E-03 0.  1.
         11   -1    0    0    0    0 -0.00000000000E+00 -0.00000000000E+00 -0.45593999997E+02  0.45594000000E+02  0.51100000000E-03 0. -1.
    9900012    2    1    2    0    0  0.93739700162E+01 -0.23365779474E+02 -0.31927019686E+02  0.50528861417E+02  0.30000004762E+02 0.  0.
        -12    1    1    2    0    0 -0.93739700162E+01  0.23365779474E+02  0.31927019686E+02  0.40659138583E+02  0.00000000000E+00 0.  1.
         11    1    3    3    0    0  0.69367909682E+01 -0.21401391972E+02 -0.10851056364E+02  0.24977671464E+02  0.51100000000E-03 0. -1.
        -11    1    3    3    0    0  0.70399051125E+01  0.13460536405E+01 -0.56822100297E+01  0.91465641352E+01  0.51100000000E-03 0.  1.
         12    1    3    3    0    0 -0.46027260645E+01 -0.33104411424E+01 -0.15393753293E+02  0.16404625818E+02  0.00000000000E+00 0. -1.
</event>
<event>
 7    1  0.1098446E-012  0.5052886E+02  0.7816164E-02  0.1300439E+00
        -11   -1    0    0    0    0  0.00000000000E+00  0.00000000000E+00  0.45593999997E+02  0.45594000000E+02  0.51100000000E-03 0. -1.
         11   -1    0    0    0    0 -0.00000000000E+00 -0.00000000000E+00 -0.45593999997E+02  0.45594000000E+02  0.51100000000E-03 0.  1.
    9900012    2    1    2    0    0  0.27488406207E+02 -0.15686249185E+02  0.25524401405E+02  0.50528856424E+02  0.29999989586E+02 0.  0.
        -12    1    1    2    0    0 -0.27488406207E+02  0.15686249185E+02 -0.25524401405E+02  0.40659143576E+02  0.00000000000E+00 0.  1.
         11    1    3    3    0    0 -0.70898271941E+00 -0.14607306760E+02  0.11610860479E+02  0.18673193316E+02  0.51100000000E-03 0. -1.
        -11    1    3    3    0    0  0.16002506522E+02  0.17487062810E+01  0.69862326170E+01  0.17548379842E+02  0.51100000000E-03 0.  1.
         12    1    3    3    0    0  0.12194882404E+02 -0.28276487066E+01  0.69273083082E+01  0.14307283266E+02  0.00000000000E+00 0. -1.
</event>
<event>
 7    1  0.1098446E-012  0.5052886E+02  0.7816164E-02  0.1300439E+00
        -11   -1    0    0    0    0  0.00000000000E+00  0.00000000000E+00  0.45593999997E+02  0.45594000000E+02  0.51100000000E-03 0. -1.
         11   -1    0    0    0    0 -0.00000000000E+00 -0.00000000000E+00 -0.45593999997E+02  0.45594000000E+02  0.51100000000E-03 0.  1.
    9900012    2    1    2    0    0 -0.34884928756E+02  0.20885570399E+02  0.17951019526E-01  0.50528860469E+02  0.30000001881E+02 0.  0.
        -12    1    1    2    0    0  0.34884928756E+02 -0.20885570399E+02 -0.17951019526E-01  0.40659139531E+02  0.00000000000E+00 0.  1.
         11    1    3    3    0    0 -0.18689225536E+02  0.12293717506E+02  0.10002263931E+02  0.24504447051E+02  0.51100000000E-03 0. -1.
        -11    1    3    3    0    0 -0.99991934703E+01 -0.27939813862E+01 -0.75447153824E+01  0.12834053627E+02  0.51100000000E-03 0.  1.
         12    1    3    3    0    0 -0.61965097491E+01  0.11385834279E+02 -0.24395975292E+01  0.13190359791E+02  0.00000000000E+00 0. -1.
</event>
<event>
 7    1  0.1098446E-012  0.5052886E+02  0.7816164E-02  0.1300439E+00
        -11   -1    0    0    0    0  0.00000000000E+00  0.00000000000E+00  0.45593999997E+02  0.45594000000E+02  0.51100000000E-03 0. -1.
         11   -1    0    0    0    0 -0.00000000000E+00 -0.00000000000E+00 -0.45593999997E+02  0.45594000000E+02  0.51100000000E-03 0.  1.
    9900012    2    1    2    0    0  0.71338907787E+01  0.85845029603E-01  0.40028315590E+02  0.50528858150E+02  0.29999994833E+02 0.  0.
        -12    1    1    2    0    0 -0.71338907787E+01 -0.85845029603E-01 -0.40028315590E+02  0.40659141850E+02  0.00000000000E+00 0.  1.
         11    1    3    3    0    0  0.48559762301E+01 -0.12226879244E+02  0.19126920443E+02  0.23214567993E+02  0.51100000000E-03 0. -1.
        -11    1    3    3    0    0 -0.50610561596E+01  0.46473286999E+01  0.68128720833E+01  0.96761138780E+01  0.51100000000E-03 0.  1.
         12    1    3    3    0    0  0.73389707082E+01  0.76653955736E+01  0.14088523063E+02  0.17638176279E+02  0.00000000000E+00 0. -1.
</event>
<event>
 7    1  0.1098446E-012  0.5052886E+02  0.7816164E-02  0.1300439E+00
        -11   -1    0    0    0    0  0.00000000000E+00  0.00000000000E+00  0.45593999997E+02  0.45594000000E+02  0.51100000000E-03 0. -1.
         11   -1    0    0    0    0 -0.00000000000E+00 -0.00000000000E+00 -0.45593999997E+02  0.45594000000E+02  0.51100000000E-03 0.  1.
    9900012    2    1    2    0    0 -0.22855278838E+02 -0.30987517009E+02  0.13060452299E+02  0.50528863322E+02  0.30000010554E+02 0.  0.
        -12    1    1    2    0    0  0.22855278838E+02  0.30987517009E+02 -0.13060452299E+02  0.40659136678E+02  0.00000000000E+00 0.  1.
         11    1    3    3    0    0 -0.10356943269E+02 -0.13746640147E+02  0.21344020495E+02  0.27419037189E+02  0.51100000000E-03 0. -1.
        -11    1    3    3    0    0 -0.45858242141E+01 -0.89471137219E+01 -0.30301394170E+01  0.10500589166E+02  0.51100000000E-03 0.  1.
         12    1    3    3    0    0 -0.79125113556E+01 -0.82937631395E+01 -0.52534287794E+01  0.12609236968E+02  0.00000000000E+00 0. -1.
</event>
<event>
 7    1  0.1098446E-012  0.5052887E+02  0.7816164E-02  0.1300439E+00
        -11   -1    0    0    0    0  0.00000000000E+00  0.00000000000E+00  0.45593999997E+02  0.45594000000E+02  0.51100000000E-03 0.  1.
         11   -1    0    0    0    0 -0.00000000000E+00 -0.00000000000E+00 -0.45593999997E+02  0.45594000000E+02  0.51100000000E-03 0. -1.
    9900012    2    1    2    0    0 -0.22839347207E+01  0.20951012602E+02 -0.34770723592E+02  0.50528874260E+02  0.30000043800E+02 0.  0.
        -12    1    1    2    0    0  0.22839347207E+01 -0.20951012602E+02  0.34770723592E+02  0.40659125740E+02  0.00000000000E+00 0.  1.
         11    1    3    3    0    0  0.56875016396E+01 -0.33235992726E+01 -0.39180900830E+01  0.76645559027E+01  0.51100000000E-03 0. -1.
        -11    1    3    3    0    0 -0.66055477097E+01  0.24665654420E+02 -0.32069502337E+02  0.40993667181E+02  0.51100000000E-03 0.  1.
        -12    1    3    3    0    0 -0.13658886506E+01 -0.39104254547E+00  0.12168688282E+01  0.18706511763E+01  0.00000000000E+00 0.  1.
</event>
<event>
 7    1  0.1098446E-012  0.5052887E+02  0.7816164E-02  0.1300439E+00
        -11   -1    0    0    0    0  0.00000000000E+00  0.00000000000E+00  0.45593999997E+02  0.45594000000E+02  0.51100000000E-03 0.  1.
         11   -1    0    0    0    0 -0.00000000000E+00 -0.00000000000E+00 -0.45593999997E+02  0.45594000000E+02  0.51100000000E-03 0. -1.
    9900012    2    1    2    0    0  0.24376020508E+02 -0.27897259631E+02 -0.16754626685E+02  0.50528868355E+02  0.30000025852E+02 0.  0.
        -12    1    1    2    0    0 -0.24376020508E+02  0.27897259631E+02  0.16754626685E+02  0.40659131645E+02  0.00000000000E+00 0.  1.
         11    1    3    3    0    0  0.21769230549E+02 -0.87723271408E+01 -0.98151282716E+01  0.25439926600E+02  0.51100000000E-03 0. -1.
        -11    1    3    3    0    0 -0.40231808808E+01 -0.28012803306E+01  0.20448835093E+01  0.53117515678E+01  0.51100000000E-03 0.  1.
         12    1    3    3    0    0  0.66299708406E+01 -0.16323652160E+02 -0.89843819227E+01  0.19777190188E+02  0.00000000000E+00 0. -1.
</event>
<event>
 7    1  0.1098446E-012  0.5052884E+02  0.7816164E-02  0.1300439E+00
        -11   -1    0    0    0    0  0.00000000000E+00  0.00000000000E+00  0.45593999997E+02  0.45594000000E+02  0.51100000000E-03 0. -1.
         11   -1    0    0    0    0 -0.00000000000E+00 -0.00000000000E+00 -0.45593999997E+02  0.45594000000E+02  0.51100000000E-03 0.  1.
    9900012    2    1    2    0    0  0.30515723983E+02 -0.26680423160E+02  0.31800380401E+01  0.50528843194E+02  0.29999949374E+02 0.  0.
        -12    1    1    2    0    0 -0.30515723983E+02  0.26680423160E+02 -0.31800380401E+01  0.40659156806E+02  0.00000000000E+00 0.  1.
         11    1    3    3    0    0  0.29695375339E+02 -0.12578917673E+02 -0.11170916086E+01  0.32269062277E+02  0.51100000000E-03 0. -1.
        -11    1    3    3    0    0  0.12036983388E+01 -0.67128360578E+01 -0.33681976930E+01  0.76063009137E+01  0.51100000000E-03 0.  1.
         12    1    3    3    0    0 -0.38334969469E+00 -0.73886694300E+01  0.76653273417E+01  0.10653480004E+02  0.00000000000E+00 0. -1.
</event>
<event>
 7    1  0.1098446E-012  0.5052886E+02  0.7816164E-02  0.1300439E+00
        -11   -1    0    0    0    0  0.00000000000E+00  0.00000000000E+00  0.45593999997E+02  0.45594000000E+02  0.51100000000E-03 0.  1.
         11   -1    0    0    0    0 -0.00000000000E+00 -0.00000000000E+00 -0.45593999997E+02  0.45594000000E+02  0.51100000000E-03 0. -1.
    9900012    2    1    2    0    0  0.33504703443E+02 -0.12474623306E+02 -0.19364514420E+02  0.50528858369E+02  0.29999995499E+02 0.  0.
        -12    1    1    2    0    0 -0.33504703443E+02  0.12474623306E+02  0.19364514420E+02  0.40659141631E+02  0.00000000000E+00 0.  1.
         11    1    3    3    0    0  0.22526710363E+02 -0.28626205819E+01 -0.24105436941E+02  0.33116753566E+02  0.51100000000E-03 0. -1.
        -11    1    3    3    0    0  0.43712016920E+01 -0.91194147550E+01  0.24890009448E+01  0.10414713422E+02  0.51100000000E-03 0.  1.
         12    1    3    3    0    0  0.66067913881E+01 -0.49258796912E+00  0.22519215760E+01  0.69973913809E+01  0.00000000000E+00 0. -1.
</event>
<event>
 7    1  0.1098446E-012  0.5052887E+02  0.7816164E-02  0.1300439E+00
        -11   -1    0    0    0    0  0.00000000000E+00  0.00000000000E+00  0.45593999997E+02  0.45594000000E+02  0.51100000000E-03 0.  1.
         11   -1    0    0    0    0 -0.00000000000E+00 -0.00000000000E+00 -0.45593999997E+02  0.45594000000E+02  0.51100000000E-03 0. -1.
    9900012    2    1    2    0    0 -0.26673626149E+02  0.30552359851E+02  0.28698500004E+01  0.50528867404E+02  0.30000022961E+02 0.  0.
        -12    1    1    2    0    0  0.26673626149E+02 -0.30552359851E+02 -0.28698500004E+01  0.40659132596E+02  0.00000000000E+00 0.  1.
         11    1    3    3    0    0 -0.23754132023E+02  0.14912314568E+02 -0.98521468138E+01  0.29727103980E+02  0.51100000000E-03 0. -1.
        -11    1    3    3    0    0 -0.60001425878E+00  0.10345759817E+02  0.61542665825E+01  0.12052790578E+02  0.51100000000E-03 0.  1.
         12    1    3    3    0    0 -0.23194798675E+01  0.52942854659E+01  0.65677302318E+01  0.87489728453E+01  0.00000000000E+00 0. -1.
</event>
<event>
 7    1  0.1098446E-012  0.5052888E+02  0.7816164E-02  0.1300439E+00
        -11   -1    0    0    0    0  0.00000000000E+00  0.00000000000E+00  0.45593999997E+02  0.45594000000E+02  0.51100000000E-03 0.  1.
         11   -1    0    0    0    0 -0.00000000000E+00 -0.00000000000E+00 -0.45593999997E+02  0.45594000000E+02  0.51100000000E-03 0. -1.
    9900012    2    1    2    0    0  0.29751517049E+02 -0.18377656762E+02 -0.20743017829E+02  0.50528882653E+02  0.30000069312E+02 0.  0.
        -12    1    1    2    0    0 -0.29751517049E+02  0.18377656762E+02  0.20743017829E+02  0.40659117347E+02  0.00000000000E+00 0.  1.
         11    1    3    3    0    0  0.23866625323E+02 -0.10498258161E+02 -0.16637381899E+02  0.30929463388E+02  0.51100000000E-03 0. -1.
        -11    1    3    3    0    0 -0.31014791210E+01  0.24470882279E+01  0.22065888912E+01  0.45250909747E+01  0.51100000000E-03 0.  1.
        -12    1    3    3    0    0  0.89863708466E+01 -0.10326486829E+02 -0.63122248213E+01  0.15074328291E+02  0.00000000000E+00 0.  1.
</event>
<event>
 7    1  0.1098446E-012  0.5052886E+02  0.7816164E-02  0.1300439E+00
        -11   -1    0    0    0    0  0.00000000000E+00  0.00000000000E+00  0.45593999997E+02  0.45594000000E+02  0.51100000000E-03 0.  1.
         11   -1    0    0    0    0 -0.00000000000E+00 -0.00000000000E+00 -0.45593999997E+02  0.45594000000E+02  0.51100000000E-03 0. -1.
    9900012    2    1    2    0    0  0.25537224698E+00 -0.16670379503E+02 -0.37083673555E+02  0.50528860658E+02  0.30000002455E+02 0.  0.
        -12    1    1    2    0    0 -0.25537224698E+00  0.16670379503E+02  0.37083673555E+02  0.40659139342E+02  0.00000000000E+00 0.  1.
         11    1    3    3    0    0  0.74616720323E+01 -0.18268882809E+02 -0.15382406634E+02  0.25020932491E+02  0.51100000000E-03 0. -1.
        -11    1    3    3    0    0 -0.10857787955E+01  0.19435088855E+01  0.65966519759E+00  0.23219174866E+01  0.51100000000E-03 0.  1.
         12    1    3    3    0    0 -0.61205209898E+01 -0.34500557907E+00 -0.22360932119E+02  0.23186010680E+02  0.00000000000E+00 0. -1.
</event>
<event>
 7    1  0.1098446E-012  0.5052886E+02  0.7816164E-02  0.1300439E+00
        -11   -1    0    0    0    0  0.00000000000E+00  0.00000000000E+00  0.45593999997E+02  0.45594000000E+02  0.51100000000E-03 0. -1.
         11   -1    0    0    0    0 -0.00000000000E+00 -0.00000000000E+00 -0.45593999997E+02  0.45594000000E+02  0.51100000000E-03 0.  1.
    9900012    2    1    2    0    0 -0.23223399404E+02 -0.32125977523E+02  0.90421723993E+01  0.50528860888E+02  0.30000003154E+02 0.  0.
        -12    1    1    2    0    0  0.23223399404E+02  0.32125977523E+02 -0.90421723993E+01  0.40659139112E+02  0.00000000000E+00 0.  1.
         11    1    3    3    0    0  0.16806894163E+01 -0.12507101370E+02  0.13457799394E+02  0.18448974670E+02  0.51100000000E-03 0. -1.
        -11    1    3    3    0    0 -0.16069285760E+02 -0.12823717897E+02 -0.38756897495E+01  0.20921057737E+02  0.51100000000E-03 0.  1.
         12    1    3    3    0    0 -0.88348030602E+01 -0.67951582559E+01 -0.53993724473E+00  0.11158828481E+02  0.00000000000E+00 0. -1.
</event>
<event>
 7    1  0.1098446E-012  0.5052887E+02  0.7816164E-02  0.1300439E+00
        -11   -1    0    0    0    0  0.00000000000E+00  0.00000000000E+00  0.45593999997E+02  0.45594000000E+02  0.51100000000E-03 0. -1.
         11   -1    0    0    0    0 -0.00000000000E+00 -0.00000000000E+00 -0.45593999997E+02  0.45594000000E+02  0.51100000000E-03 0.  1.
    9900012    2    1    2    0    0  0.35222379972E+02 -0.32150057646E+01  0.20055242312E+02  0.50528867481E+02  0.30000023196E+02 0.  0.
        -12    1    1    2    0    0 -0.35222379972E+02  0.32150057646E+01 -0.20055242312E+02  0.40659132519E+02  0.00000000000E+00 0.  1.
         11    1    3    3    0    0  0.21084237450E+02 -0.16425167917E+01  0.14755434713E+01  0.21199532048E+02  0.51100000000E-03 0. -1.
        -11    1    3    3    0    0  0.46758771118E+01  0.41681407270E+01  0.17040503147E+02  0.18155329015E+02  0.51100000000E-03 0.  1.
        -12    1    3    3    0    0  0.94622654103E+01 -0.57406297000E+01  0.15391956939E+01  0.11174006418E+02  0.00000000000E+00 0.  1.
</event>
<event>
 7    1  0.1098446E-012  0.5052886E+02  0.7816164E-02  0.1300439E+00
        -11   -1    0    0    0    0  0.00000000000E+00  0.00000000000E+00  0.45593999997E+02  0.45594000000E+02  0.51100000000E-03 0. -1.
         11   -1    0    0    0    0 -0.00000000000E+00 -0.00000000000E+00 -0.45593999997E+02  0.45594000000E+02  0.51100000000E-03 0.  1.
    9900012    2    1    2    0    0  0.24988711065E+01  0.35743425259E+02  0.19217922562E+02  0.50528863835E+02  0.30000012114E+02 0.  0.
        -12    1    1    2    0    0 -0.24988711065E+01 -0.35743425259E+02 -0.19217922562E+02  0.40659136165E+02  0.00000000000E+00 0.  1.
         11    1    3    3    0    0 -0.52184992575E+01  0.73490382666E+01 -0.62821485824E+01  0.10986650491E+02  0.51100000000E-03 0. -1.
        -11    1    3    3    0    0  0.65588014057E+00  0.43527131893E+01  0.10345012956E+01  0.45217788600E+01  0.51100000000E-03 0.  1.
         12    1    3    3    0    0  0.70614902234E+01  0.24041673803E+02  0.24465569849E+02  0.35020434484E+02  0.00000000000E+00 0. -1.
</event>
<event>
 7    1  0.1098446E-012  0.5052886E+02  0.7816164E-02  0.1300439E+00
        -11   -1    0    0    0    0  0.00000000000E+00  0.00000000000E+00  0.45593999997E+02  0.45594000000E+02  0.51100000000E-03 0.  1.
         11   -1    0    0    0    0 -0.00000000000E+00 -0.00000000000E+00 -0.45593999997E+02  0.45594000000E+02  0.51100000000E-03 0. -1.
    9900012    2    1    2    0    0  0.11024928117E+02 -0.13540762379E+02 -0.36718724675E+02  0.50528855548E+02  0.29999986924E+02 0.  0.
        -12    1    1    2    0    0 -0.11024928117E+02  0.13540762379E+02  0.36718724675E+02  0.40659144452E+02  0.00000000000E+00 0.  1.
         11    1    3    3    0    0  0.14311637730E+02 -0.67077298988E+01 -0.20379285634E+02  0.25790151185E+02  0.51100000000E-03 0. -1.
        -11    1    3    3    0    0 -0.76154423871E+01 -0.97570981140E+01 -0.14798710482E+02  0.19292427492E+02  0.51100000000E-03 0.  1.
        -12    1    3    3    0    0  0.43287327745E+01  0.29240656334E+01 -0.15407285589E+01  0.54462768709E+01  0.00000000000E+00 0.  1.
</event>
<event>
 7    1  0.1098446E-012  0.5052886E+02  0.7816164E-02  0.1300439E+00
        -11   -1    0    0    0    0  0.00000000000E+00  0.00000000000E+00  0.45593999997E+02  0.45594000000E+02  0.51100000000E-03 0.  1.
         11   -1    0    0    0    0 -0.00000000000E+00 -0.00000000000E+00 -0.45593999997E+02  0.45594000000E+02  0.51100000000E-03 0. -1.
    9900012    2    1    2    0    0 -0.19015334309E+02  0.31409229744E+01 -0.35801078599E+02  0.50528861238E+02  0.30000004220E+02 0.  0.
        -12    1    1    2    0    0  0.19015334309E+02 -0.31409229744E+01  0.35801078599E+02  0.40659138762E+02  0.00000000000E+00 0.  1.
         11    1    3    3    0    0  0.33433753714E+01 -0.12661334701E+01 -0.15325112207E+02  0.15736591666E+02  0.51100000000E-03 0. -1.
        -11    1    3    3    0    0 -0.21101761660E+02  0.34682270400E+01 -0.23260058976E+02  0.31596570823E+02  0.51100000000E-03 0.  1.
         12    1    3    3    0    0 -0.12569480201E+01  0.93882940444E+00  0.27840925846E+01  0.31956987492E+01  0.00000000000E+00 0. -1.
</event>
<event>
 7    1  0.1098446E-012  0.5052887E+02  0.7816164E-02  0.1300439E+00
        -11   -1    0    0    0    0  0.00000000000E+00  0.00000000000E+00  0.45593999997E+02  0.45594000000E+02  0.51100000000E-03 0. -1.
         11   -1    0    0    0    0 -0.00000000000E+00 -0.00000000000E+00 -0.45593999997E+02  0.45594000000E+02  0.51100000000E-03 0.  1.
    9900012    2    1    2    0    0 -0.13012530967E+02  0.24187797222E+02  0.29979821492E+02  0.50528865807E+02  0.30000018107E+02 0.  0.
        -12    1    1    2    0    0  0.13012530967E+02 -0.24187797222E+02 -0.29979821492E+02  0.40659134193E+02  0.00000000000E+00 0.  1.
         11    1    3    3    0    0 -0.15650267544E+02  0.42983311509E+01  0.16399521582E+02  0.23072729211E+02  0.51100000000E-03 0. -1.
        -11    1    3    3    0    0  0.59861769555E+01  0.74513274483E+01  0.12761186426E+01  0.96428768703E+01  0.51100000000E-03 0.  1.
         12    1    3    3    0    0 -0.33484403785E+01  0.12438138623E+02  0.12304181267E+02  0.17813259725E+02  0.00000000000E+00 0. -1.
</event>
<event>
 7    1  0.1098446E-012  0.5052886E+02  0.7816164E-02  0.1300439E+00
        -11   -1    0    0    0    0  0.00000000000E+00  0.00000000000E+00  0.45593999997E+02  0.45594000000E+02  0.51100000000E-03 0.  1.
         11   -1    0    0    0    0 -0.00000000000E+00 -0.00000000000E+00 -0.45593999997E+02  0.45594000000E+02  0.51100000000E-03 0. -1.
    9900012    2    1    2    0    0 -0.27707624140E+02 -0.46261686275E+01 -0.29394756450E+02  0.50528861072E+02  0.30000003713E+02 0.  0.
        -12    1    1    2    0    0  0.27707624140E+02  0.46261686275E+01  0.29394756450E+02  0.40659138928E+02  0.00000000000E+00 0.  1.
         11    1    3    3    0    0 -0.11528389629E+02  0.10944255040E+02 -0.18192302202E+02  0.24158649496E+02  0.51100000000E-03 0. -1.
        -11    1    3    3    0    0 -0.16406535758E+01 -0.37778562756E+01  0.71277479328E+00  0.41799510000E+01  0.51100000000E-03 0.  1.
         12    1    3    3    0    0 -0.14538580935E+02 -0.11792567392E+02 -0.11915229041E+02  0.22190260575E+02  0.00000000000E+00 0. -1.
</event>
<event>
 7    1  0.1098446E-012  0.5052886E+02  0.7816164E-02  0.1300439E+00
        -11   -1    0    0    0    0  0.00000000000E+00  0.00000000000E+00  0.45593999997E+02  0.45594000000E+02  0.51100000000E-03 0. -1.
         11   -1    0    0    0    0 -0.00000000000E+00 -0.00000000000E+00 -0.45593999997E+02  0.45594000000E+02  0.51100000000E-03 0.  1.
    9900012    2    1    2    0    0 -0.31320598331E+02  0.18206468945E+02  0.18458334929E+02  0.50528861795E+02  0.30000005912E+02 0.  0.
        -12    1    1    2    0    0  0.31320598331E+02 -0.18206468945E+02 -0.18458334929E+02  0.40659138205E+02  0.00000000000E+00 0.  1.
         11    1    3    3    0    0 -0.17507784620E+02 -0.38020403281E+01 -0.65456718121E-01  0.17915979398E+02  0.51100000000E-03 0. -1.
        -11    1    3    3    0    0 -0.60810735205E+01  0.15774426142E+02  0.11408870571E+02  0.20395448101E+02  0.51100000000E-03 0.  1.
         12    1    3    3    0    0 -0.77317401906E+01  0.62340831305E+01  0.71149210764E+01  0.12217434296E+02  0.00000000000E+00 0. -1.
</event>
<event>
 7    1  0.1098446E-012  0.5052886E+02  0.7816164E-02  0.1300439E+00
        -11   -1    0    0    0    0  0.00000000000E+00  0.00000000000E+00  0.45593999997E+02  0.45594000000E+02  0.51100000000E-03 0. -1.
         11   -1    0    0    0    0 -0.00000000000E+00 -0.00000000000E+00 -0.45593999997E+02  0.45594000000E+02  0.51100000000E-03 0.  1.
    9900012    2    1    2    0    0  0.11906563505E+02 -0.33772739651E+02  0.19256212529E+02  0.50528856883E+02  0.29999990983E+02 0.  0.
        -12    1    1    2    0    0 -0.11906563505E+02  0.33772739651E+02 -0.19256212529E+02  0.40659143117E+02  0.00000000000E+00 0.  1.
         11    1    3    3    0    0  0.90149102390E+01 -0.14951281321E+02  0.10388169552E+02  0.20315597128E+02  0.51100000000E-03 0. -1.
        -11    1    3    3    0    0 -0.84365074771E+01 -0.79579526265E+01 -0.10529959417E+01  0.11645276688E+02  0.51100000000E-03 0.  1.
        -12    1    3    3    0    0  0.11328160743E+02 -0.10863505703E+02  0.99210389193E+01  0.18567983068E+02  0.00000000000E+00 0.  1.
</event>
<event>
 7    1  0.1098446E-012  0.5052886E+02  0.7816164E-02  0.1300439E+00
        -11   -1    0    0    0    0  0.00000000000E+00  0.00000000000E+00  0.45593999997E+02  0.45594000000E+02  0.51100000000E-03 0. -1.
         11   -1    0    0    0    0 -0.00000000000E+00 -0.00000000000E+00 -0.45593999997E+02  0.45594000000E+02  0.51100000000E-03 0.  1.
    9900012    2    1    2    0    0 -0.17955620254E+02  0.30190944698E+02  0.20476050049E+02  0.50528855075E+02  0.29999985486E+02 0.  0.
        -12    1    1    2    0    0  0.17955620254E+02 -0.30190944698E+02 -0.20476050049E+02  0.40659144925E+02  0.00000000000E+00 0.  1.
         11    1    3    3    0    0 -0.16070242508E+02  0.15070636863E+02  0.12166361612E+02  0.25167382558E+02  0.51100000000E-03 0. -1.
        -11    1    3    3    0    0 -0.27916903487E+01  0.14292949528E+01 -0.52213698804E+01  0.60909049208E+01  0.51100000000E-03 0.  1.
         12    1    3    3    0    0  0.90631260279E+00  0.13691012882E+02  0.13531058318E+02  0.19270567596E+02  0.00000000000E+00 0. -1.
</event>
<event>
 7    1  0.1098446E-012  0.5052883E+02  0.7816164E-02  0.1300439E+00
        -11   -1    0    0    0    0  0.00000000000E+00  0.00000000000E+00  0.45593999997E+02  0.45594000000E+02  0.51100000000E-03 0.  1.
         11   -1    0    0    0    0 -0.00000000000E+00 -0.00000000000E+00 -0.45593999997E+02  0.45594000000E+02  0.51100000000E-03 0. -1.
    9900012    2    1    2    0    0 -0.36667401328E+02  0.11301905333E+02 -0.13451268694E+02  0.50528831123E+02  0.29999912681E+02 0.  0.
        -12    1    1    2    0    0  0.36667401328E+02 -0.11301905333E+02  0.13451268694E+02  0.40659168877E+02  0.00000000000E+00 0.  1.
         11    1    3    3    0    0 -0.52058387272E+01 -0.13181100107E-01 -0.69216275357E+01  0.86608232056E+01  0.51100000000E-03 0. -1.
        -11    1    3    3    0    0 -0.55787107417E+01  0.96948964154E+01  0.64032948547E+01  0.12888569172E+02  0.51100000000E-03 0.  1.
        -12    1    3    3    0    0 -0.25882851859E+02  0.16201900172E+01 -0.12932936013E+02  0.28979438745E+02  0.00000000000E+00 0.  1.
</event>
<event>
 7    1  0.1098446E-012  0.5052886E+02  0.7816164E-02  0.1300439E+00
        -11   -1    0    0    0    0  0.00000000000E+00  0.00000000000E+00  0.45593999997E+02  0.45594000000E+02  0.51100000000E-03 0.  1.
         11   -1    0    0    0    0 -0.00000000000E+00 -0.00000000000E+00 -0.45593999997E+02  0.45594000000E+02  0.51100000000E-03 0. -1.
    9900012    2    1    2    0    0 -0.16770558138E+02 -0.21486168313E+00 -0.37038731451E+02  0.50528863102E+02  0.30000009884E+02 0.  0.
        -12    1    1    2    0    0  0.16770558138E+02  0.21486168313E+00  0.37038731451E+02  0.40659136898E+02  0.00000000000E+00 0.  1.
         11    1    3    3    0    0 -0.97474018044E+00  0.78271494403E+01 -0.17082013537E+02  0.18815142134E+02  0.51100000000E-03 0. -1.
        -11    1    3    3    0    0 -0.15375897760E+02 -0.79797200520E+01 -0.68947955111E+01  0.18644901969E+02  0.51100000000E-03 0.  1.
        -12    1    3    3    0    0 -0.41992019722E+00 -0.62291071408E-01 -0.13061922403E+02  0.13068818998E+02  0.00000000000E+00 0.  1.
</event>
<event>
 7    1  0.1098446E-012  0.5052884E+02  0.7816164E-02  0.1300439E+00
        -11   -1    0    0    0    0  0.00000000000E+00  0.00000000000E+00  0.45593999997E+02  0.45594000000E+02  0.51100000000E-03 0.  1.
         11   -1    0    0    0    0 -0.00000000000E+00 -0.00000000000E+00 -0.45593999997E+02  0.45594000000E+02  0.51100000000E-03 0. -1.
    9900012    2    1    2    0    0 -0.25760063767E+02  0.23764026944E+02 -0.20612064595E+02  0.50528842744E+02  0.29999948006E+02 0.  0.
        -12    1    1    2    0    0  0.25760063767E+02 -0.23764026944E+02  0.20612064595E+02  0.40659157256E+02  0.00000000000E+00 0.  1.
         11    1    3    3    0    0 -0.10044716122E+02  0.76887272255E+01  0.51484866768E+01  0.13657223863E+02  0.51100000000E-03 0.  1.
        -11    1    3    3    0    0 -0.95034389294E+01  0.17414137560E+02 -0.21300736377E+02  0.29108227512E+02  0.51100000000E-03 0. -1.
         12    1    3    3    0    0 -0.62119087157E+01 -0.13388378415E+01 -0.44598148946E+01  0.77633913693E+01  0.00000000000E+00 0. -1.
</event>
<event>
 7    1  0.1098446E-012  0.5052885E+02  0.7816164E-02  0.1300439E+00
        -11   -1    0    0    0    0  0.00000000000E+00  0.00000000000E+00  0.45593999997E+02  0.45594000000E+02  0.51100000000E-03 0.  1.
         11   -1    0    0    0    0 -0.00000000000E+00 -0.00000000000E+00 -0.45593999997E+02  0.45594000000E+02  0.51100000000E-03 0. -1.
    9900012    2    1    2    0    0  0.14512023073E+02 -0.23124414205E+02 -0.30130198795E+02  0.50528853115E+02  0.29999979528E+02 0.  0.
        -12    1    1    2    0    0 -0.14512023073E+02  0.23124414205E+02  0.30130198795E+02  0.40659146885E+02  0.00000000000E+00 0.  1.
         11    1    3    3    0    0  0.50741664445E+01  0.11923426432E+01 -0.19857320454E+01  0.55778112287E+01  0.51100000000E-03 0. -1.
        -11    1    3    3    0    0 -0.45560179427E+00 -0.15670806740E+02 -0.27670968736E+02  0.31803526029E+02  0.51100000000E-03 0.  1.
        -12    1    3    3    0    0  0.98934584224E+01 -0.86459501083E+01 -0.47349801417E+00  0.13147515857E+02  0.00000000000E+00 0.  1.
</event>
<event>
 7    1  0.1098446E-012  0.5052886E+02  0.7816164E-02  0.1300439E+00
        -11   -1    0    0    0    0  0.00000000000E+00  0.00000000000E+00  0.45593999997E+02  0.45594000000E+02  0.51100000000E-03 0. -1.
         11   -1    0    0    0    0 -0.00000000000E+00 -0.00000000000E+00 -0.45593999997E+02  0.45594000000E+02  0.51100000000E-03 0.  1.
    9900012    2    1    2    0    0 -0.39093472589E+02  0.73656277122E+01  0.84031985046E+01  0.50528858153E+02  0.29999994841E+02 0.  0.
        -12    1    1    2    0    0  0.39093472589E+02 -0.73656277122E+01 -0.84031985046E+01  0.40659141847E+02  0.00000000000E+00 0.  1.
         11    1    3    3    0    0 -0.76183898436E+01 -0.38173499116E+01 -0.37784646949E+01  0.93214172672E+01  0.51100000000E-03 0. -1.
        -11    1    3    3    0    0 -0.32591551765E+02  0.48861048089E+01  0.10616697118E+02  0.34623655564E+02  0.51100000000E-03 0.  1.
        -12    1    3    3    0    0  0.11164690201E+01  0.62968728149E+01  0.15649660813E+01  0.65837853212E+01  0.00000000000E+00 0.  1.
</event>
<event>
 7    1  0.1098446E-012  0.5052886E+02  0.7816164E-02  0.1300439E+00
        -11   -1    0    0    0    0  0.00000000000E+00  0.00000000000E+00  0.45593999997E+02  0.45594000000E+02  0.51100000000E-03 0.  1.
         11   -1    0    0    0    0 -0.00000000000E+00 -0.00000000000E+00 -0.45593999997E+02  0.45594000000E+02  0.51100000000E-03 0. -1.
    9900012    2    1    2    0    0  0.10360115500E+02  0.54883856889E+00 -0.39313260962E+02  0.50528859522E+02  0.29999999003E+02 0.  0.
        -12    1    1    2    0    0 -0.10360115500E+02 -0.54883856889E+00  0.39313260962E+02  0.40659140478E+02  0.00000000000E+00 0.  1.
         11    1    3    3    0    0  0.37093989370E+01 -0.37061596397E+01 -0.32847264462E+02  0.33263163449E+02  0.51100000000E-03 0. -1.
        -11    1    3    3    0    0  0.60501200517E+01 -0.38262757721E+01 -0.44909389557E+00  0.71725884109E+01  0.51100000000E-03 0.  1.
         12    1    3    3    0    0  0.60059651082E+00  0.80812739807E+01 -0.60169026042E+01  0.10093107662E+02  0.00000000000E+00 0. -1.
</event>
<event>
 7    1  0.1098446E-012  0.5052886E+02  0.7816164E-02  0.1300439E+00
        -11   -1    0    0    0    0  0.00000000000E+00  0.00000000000E+00  0.45593999997E+02  0.45594000000E+02  0.51100000000E-03 0. -1.
         11   -1    0    0    0    0 -0.00000000000E+00 -0.00000000000E+00 -0.45593999997E+02  0.45594000000E+02  0.51100000000E-03 0.  1.
    9900012    2    1    2    0    0 -0.24335235651E+02 -0.15744049778E+02  0.28514681654E+02  0.50528857518E+02  0.29999992910E+02 0.  0.
        -12    1    1    2    0    0  0.24335235651E+02  0.15744049778E+02 -0.28514681654E+02  0.40659142482E+02  0.00000000000E+00 0.  1.
         11    1    3    3    0    0 -0.23951506285E+02  0.54864765410E+00  0.21239154518E+02  0.32016829207E+02  0.51100000000E-03 0. -1.
        -11    1    3    3    0    0 -0.21825621460E+01 -0.13481600495E+02  0.62607526775E+01  0.15023786267E+02  0.51100000000E-03 0.  1.
         12    1    3    3    0    0  0.17988327800E+01 -0.28110969368E+01  0.10147744587E+01  0.34882420444E+01  0.00000000000E+00 0. -1.
</event>
<event>
 7    1  0.1098446E-012  0.5052886E+02  0.7816164E-02  0.1300439E+00
        -11   -1    0    0    0    0  0.00000000000E+00  0.00000000000E+00  0.45593999997E+02  0.45594000000E+02  0.51100000000E-03 0.  1.
         11   -1    0    0    0    0 -0.00000000000E+00 -0.00000000000E+00 -0.45593999997E+02  0.45594000000E+02  0.51100000000E-03 0. -1.
    9900012    2    1    2    0    0 -0.16937278337E+02 -0.53992391475E+01 -0.36566956603E+02  0.50528862084E+02  0.30000006792E+02 0.  0.
        -12    1    1    2    0    0  0.16937278337E+02  0.53992391475E+01  0.36566956603E+02  0.40659137916E+02  0.00000000000E+00 0.  1.
         11    1    3    3    0    0 -0.19695063299E+02  0.71238495111E+00 -0.28698493786E+02  0.34813884537E+02  0.51100000000E-03 0. -1.
        -11    1    3    3    0    0  0.61279110397E+01 -0.28612754597E+01 -0.24371499443E+00  0.67673915378E+01  0.51100000000E-03 0.  1.
         12    1    3    3    0    0 -0.33701260784E+01 -0.32503486390E+01 -0.76247478219E+01  0.89475860100E+01  0.00000000000E+00 0. -1.
</event>
<event>
 7    1  0.1098446E-012  0.5052887E+02  0.7816164E-02  0.1300439E+00
        -11   -1    0    0    0    0  0.00000000000E+00  0.00000000000E+00  0.45593999997E+02  0.45594000000E+02  0.51100000000E-03 0. -1.
         11   -1    0    0    0    0 -0.00000000000E+00 -0.00000000000E+00 -0.45593999997E+02  0.45594000000E+02  0.51100000000E-03 0.  1.
    9900012    2    1    2    0    0  0.10813780612E+02  0.12168095420E+02  0.37258077901E+02  0.50528871060E+02  0.30000034073E+02 0.  0.
        -12    1    1    2    0    0 -0.10813780612E+02 -0.12168095420E+02 -0.37258077901E+02  0.40659128940E+02  0.00000000000E+00 0.  1.
         11    1    3    3    0    0  0.12194010180E+02  0.11359532753E+02  0.36354899368E+02  0.39992644035E+02  0.51100000000E-03 0. -1.
        -11    1    3    3    0    0  0.27560102481E+01 -0.11459869350E+01 -0.32106964811E+01  0.43837712871E+01  0.51100000000E-03 0.  1.
         12    1    3    3    0    0 -0.41362398157E+01  0.19545496026E+01  0.41138750147E+01  0.61524557373E+01  0.00000000000E+00 0. -1.
</event>
<event>
 7    1  0.1098446E-012  0.5052887E+02  0.7816164E-02  0.1300439E+00
        -11   -1    0    0    0    0  0.00000000000E+00  0.00000000000E+00  0.45593999997E+02  0.45594000000E+02  0.51100000000E-03 0.  1.
         11   -1    0    0    0    0 -0.00000000000E+00 -0.00000000000E+00 -0.45593999997E+02  0.45594000000E+02  0.51100000000E-03 0. -1.
    9900012    2    1    2    0    0  0.81700149948E+01  0.37815403814E+02 -0.12506449796E+02  0.50528865760E+02  0.30000017963E+02 0.  0.
        -12    1    1    2    0    0 -0.81700149948E+01 -0.37815403814E+02  0.12506449796E+02  0.40659134240E+02  0.00000000000E+00 0.  1.
         11    1    3    3    0    0  0.58833692530E+01  0.36966145940E+02 -0.11184443150E+02  0.39066632159E+02  0.51100000000E-03 0. -1.
        -11    1    3    3    0    0 -0.30417945715E+01  0.34524800974E+01  0.15732891511E+01  0.48628563676E+01  0.51100000000E-03 0.  1.
         12    1    3    3    0    0  0.53284403132E+01 -0.26032222226E+01 -0.28952957972E+01  0.65993772332E+01  0.00000000000E+00 0. -1.
</event>
<event>
 7    1  0.1098446E-012  0.5052887E+02  0.7816164E-02  0.1300439E+00
        -11   -1    0    0    0    0  0.00000000000E+00  0.00000000000E+00  0.45593999997E+02  0.45594000000E+02  0.51100000000E-03 0.  1.
         11   -1    0    0    0    0 -0.00000000000E+00 -0.00000000000E+00 -0.45593999997E+02  0.45594000000E+02  0.51100000000E-03 0. -1.
    9900012    2    1    2    0    0  0.18455985654E+02 -0.20348724320E+02 -0.29974504111E+02  0.50528869603E+02  0.30000029646E+02 0.  0.
        -12    1    1    2    0    0 -0.18455985654E+02  0.20348724320E+02  0.29974504111E+02  0.40659130397E+02  0.00000000000E+00 0.  1.
         11    1    3    3    0    0  0.80046932431E+01 -0.14108619762E+02  0.13358165437E+01  0.16276138105E+02  0.51100000000E-03 0.  1.
        -11    1    3    3    0    0  0.58977656517E+01  0.22494617699E-01 -0.16808942308E+02  0.17813609614E+02  0.51100000000E-03 0. -1.
         12    1    3    3    0    0  0.45535267595E+01 -0.62625991754E+01 -0.14501378346E+02  0.16439121884E+02  0.00000000000E+00 0. -1.
</event>
<event>
 7    1  0.1098446E-012  0.5052886E+02  0.7816164E-02  0.1300439E+00
        -11   -1    0    0    0    0  0.00000000000E+00  0.00000000000E+00  0.45593999997E+02  0.45594000000E+02  0.51100000000E-03 0.  1.
         11   -1    0    0    0    0 -0.00000000000E+00 -0.00000000000E+00 -0.45593999997E+02  0.45594000000E+02  0.51100000000E-03 0. -1.
    9900012    2    1    2    0    0 -0.24189735604E+02 -0.39209230957E+01 -0.32444550204E+02  0.50528858537E+02  0.29999996011E+02 0.  0.
        -12    1    1    2    0    0  0.24189735604E+02  0.39209230957E+01  0.32444550204E+02  0.40659141463E+02  0.00000000000E+00 0.  1.
         11    1    3    3    0    0 -0.26667493700E+02 -0.61795781454E+01 -0.32030956605E+02  0.42134600835E+02  0.51100000000E-03 0. -1.
        -11    1    3    3    0    0  0.45172136065E+01 -0.48231520070E+00 -0.15401087686E+01  0.47968512589E+01  0.51100000000E-03 0.  1.
         12    1    3    3    0    0 -0.20394555103E+01  0.27409702504E+01  0.11265151687E+01  0.35974064432E+01  0.00000000000E+00 0. -1.
</event>
<event>
 7    1  0.1098446E-012  0.5052887E+02  0.7816164E-02  0.1300439E+00
        -11   -1    0    0    0    0  0.00000000000E+00  0.00000000000E+00  0.45593999997E+02  0.45594000000E+02  0.51100000000E-03 0.  1.
         11   -1    0    0    0    0 -0.00000000000E+00 -0.00000000000E+00 -0.45593999997E+02  0.45594000000E+02  0.51100000000E-03 0. -1.
    9900012    2    1    2    0    0 -0.12598262530E+02  0.18740073045E+02 -0.33812101445E+02  0.50528871128E+02  0.30000034281E+02 0.  0.
        -12    1    1    2    0    0  0.12598262530E+02 -0.18740073045E+02  0.33812101445E+02  0.40659128872E+02  0.00000000000E+00 0.  1.
         11    1    3    3    0    0 -0.15972116754E+01  0.14350595065E+02 -0.29737282866E+02  0.33057475045E+02  0.51100000000E-03 0. -1.
        -11    1    3    3    0    0 -0.12631357112E+02  0.10354512028E+01 -0.11382630114E+01  0.12724739079E+02  0.51100000000E-03 0.  1.
        -12    1    3    3    0    0  0.16303062570E+01  0.33540267773E+01 -0.29365555676E+01  0.47466570042E+01  0.00000000000E+00 0.  1.
</event>
<event>
 7    1  0.1098446E-012  0.5052883E+02  0.7816164E-02  0.1300439E+00
        -11   -1    0    0    0    0  0.00000000000E+00  0.00000000000E+00  0.45593999997E+02  0.45594000000E+02  0.51100000000E-03 0.  1.
         11   -1    0    0    0    0 -0.00000000000E+00 -0.00000000000E+00 -0.45593999997E+02  0.45594000000E+02  0.51100000000E-03 0. -1.
    9900012    2    1    2    0    0  0.36382483116E+02  0.16459935420E+02  0.76520445241E+01  0.50528827147E+02  0.29999900594E+02 0.  0.
        -12    1    1    2    0    0 -0.36382483116E+02 -0.16459935420E+02 -0.76520445241E+01  0.40659172853E+02  0.00000000000E+00 0.  1.
         11    1    3    3    0    0  0.70837633855E+01  0.14362111806E+02 -0.59421493786E+01  0.17080957196E+02  0.51100000000E-03 0.  1.
        -11    1    3    3    0    0  0.28176375597E+02  0.21223157393E+01  0.10479245937E+02  0.30136804103E+02  0.51100000000E-03 0. -1.
         12    1    3    3    0    0  0.11223441337E+01 -0.24492124758E-01  0.31149479659E+01  0.33110658479E+01  0.00000000000E+00 0. -1.
</event>
<event>
 7    1  0.1098446E-012  0.5052884E+02  0.7816164E-02  0.1300439E+00
        -11   -1    0    0    0    0  0.00000000000E+00  0.00000000000E+00  0.45593999997E+02  0.45594000000E+02  0.51100000000E-03 0.  1.
         11   -1    0    0    0    0 -0.00000000000E+00 -0.00000000000E+00 -0.45593999997E+02  0.45594000000E+02  0.51100000000E-03 0. -1.
    9900012    2    1    2    0    0 -0.31929246867E+01 -0.33878118715E+02 -0.22254116012E+02  0.50528838976E+02  0.29999936551E+02 0.  0.
        -12    1    1    2    0    0  0.31929246867E+01  0.33878118715E+02  0.22254116012E+02  0.40659161024E+02  0.00000000000E+00 0.  1.
         11    1    3    3    0    0 -0.50879521911E+01 -0.59621656236E+01 -0.15118414711E+02  0.17029419839E+02  0.51100000000E-03 0. -1.
        -11    1    3    3    0    0  0.88552446237E+01 -0.95788574363E+01 -0.39418140301E+01  0.13627463639E+02  0.51100000000E-03 0.  1.
         12    1    3    3    0    0 -0.69602171193E+01 -0.18337095655E+02 -0.31938872715E+01  0.19871955498E+02  0.00000000000E+00 0. -1.
</event>
<event>
 7    1  0.1098446E-012  0.5052887E+02  0.7816164E-02  0.1300439E+00
        -11   -1    0    0    0    0  0.00000000000E+00  0.00000000000E+00  0.45593999997E+02  0.45594000000E+02  0.51100000000E-03 0.  1.
         11   -1    0    0    0    0 -0.00000000000E+00 -0.00000000000E+00 -0.45593999997E+02  0.45594000000E+02  0.51100000000E-03 0. -1.
    9900012    2    1    2    0    0  0.22907963460E+02 -0.32894229359E+02  0.68087731044E+01  0.50528874257E+02  0.30000043792E+02 0.  0.
        -12    1    1    2    0    0 -0.22907963460E+02  0.32894229359E+02 -0.68087731044E+01  0.40659125743E+02  0.00000000000E+00 0.  1.
         11    1    3    3    0    0  0.18685303163E+02 -0.17034955671E+02  0.67596806693E+01  0.26172954591E+02  0.51100000000E-03 0. -1.
        -11    1    3    3    0    0 -0.42466327907E+01 -0.14240655284E+02  0.31539580760E+01  0.15191366127E+02  0.51100000000E-03 0.  1.
        -12    1    3    3    0    0  0.84692930873E+01 -0.16186184036E+01 -0.31048656409E+01  0.91645535398E+01  0.00000000000E+00 0.  1.
</event>
<event>
 7    1  0.1098446E-012  0.5052887E+02  0.7816164E-02  0.1300439E+00
        -11   -1    0    0    0    0  0.00000000000E+00  0.00000000000E+00  0.45593999997E+02  0.45594000000E+02  0.51100000000E-03 0.  1.
         11   -1    0    0    0    0 -0.00000000000E+00 -0.00000000000E+00 -0.45593999997E+02  0.45594000000E+02  0.51100000000E-03 0. -1.
    9900012    2    1    2    0    0 -0.10707119124E+02 -0.24747167752E+02 -0.30431898446E+02  0.50528866282E+02  0.30000019551E+02 0.  0.
        -12    1    1    2    0    0  0.10707119124E+02  0.24747167752E+02  0.30431898446E+02  0.40659133718E+02  0.00000000000E+00 0.  1.
         11    1    3    3    0    0 -0.40672933724E+01 -0.99327175723E+01 -0.60448012716E+01  0.12318334970E+02  0.51100000000E-03 0. -1.
        -11    1    3    3    0    0  0.92537199099E+01 -0.53358770855E+01 -0.11269279795E+02  0.15527381743E+02  0.51100000000E-03 0.  1.
        -12    1    3    3    0    0 -0.15893545661E+02 -0.94785730945E+01 -0.13117817379E+02  0.22683149570E+02  0.00000000000E+00 0.  1.
</event>
<event>
 7    1  0.1098446E-012  0.5052887E+02  0.7816164E-02  0.1300439E+00
        -11   -1    0    0    0    0  0.00000000000E+00  0.00000000000E+00  0.45593999997E+02  0.45594000000E+02  0.51100000000E-03 0.  1.
         11   -1    0    0    0    0 -0.00000000000E+00 -0.00000000000E+00 -0.45593999997E+02  0.45594000000E+02  0.51100000000E-03 0. -1.
    9900012    2    1    2    0    0  0.31135524104E+02  0.18918084106E+02  0.18051327068E+02  0.50528866015E+02  0.30000018739E+02 0.  0.
        -12    1    1    2    0    0 -0.31135524104E+02 -0.18918084106E+02 -0.18051327068E+02  0.40659133985E+02  0.00000000000E+00 0.  1.
         11    1    3    3    0    0  0.57120477418E+01 -0.46188325190E+01 -0.41546924394E+01  0.84393467028E+01  0.51100000000E-03 0. -1.
        -11    1    3    3    0    0  0.25567083581E+02  0.24080497720E+02  0.21473897154E+02  0.41166423120E+02  0.51100000000E-03 0.  1.
        -12    1    3    3    0    0 -0.14360721831E+00 -0.54358109452E+00  0.73212235366E+00  0.92309619228E+00  0.00000000000E+00 0.  1.
</event>
<event>
 7    1  0.1098446E-012  0.5052889E+02  0.7816164E-02  0.1300439E+00
        -11   -1    0    0    0    0  0.00000000000E+00  0.00000000000E+00  0.45593999997E+02  0.45594000000E+02  0.51100000000E-03 0. -1.
         11   -1    0    0    0    0 -0.00000000000E+00 -0.00000000000E+00 -0.45593999997E+02  0.45594000000E+02  0.51100000000E-03 0.  1.
    9900012    2    1    2    0    0 -0.22174043051E+02  0.14352319157E+02  0.30910939686E+02  0.50528887335E+02  0.30000083544E+02 0.  0.
        -12    1    1    2    0    0  0.22174043051E+02 -0.14352319157E+02 -0.30910939686E+02  0.40659112665E+02  0.00000000000E+00 0.  1.
         11    1    3    3    0    0 -0.74620131641E+01  0.46554957076E+00  0.29003468145E+02  0.29951620015E+02  0.51100000000E-03 0. -1.
        -11    1    3    3    0    0 -0.29082212621E+01  0.26223062722E+01 -0.90839421296E+00  0.40198782820E+01  0.51100000000E-03 0.  1.
         12    1    3    3    0    0 -0.11803808625E+02  0.11264463314E+02  0.28158657546E+01  0.16557389038E+02  0.00000000000E+00 0. -1.
</event>
<event>
 7    1  0.1098446E-012  0.5052886E+02  0.7816164E-02  0.1300439E+00
        -11   -1    0    0    0    0  0.00000000000E+00  0.00000000000E+00  0.45593999997E+02  0.45594000000E+02  0.51100000000E-03 0.  1.
         11   -1    0    0    0    0 -0.00000000000E+00 -0.00000000000E+00 -0.45593999997E+02  0.45594000000E+02  0.51100000000E-03 0. -1.
    9900012    2    1    2    0    0  0.23165847377E+02  0.30353501406E+02 -0.13970477256E+02  0.50528858752E+02  0.29999996662E+02 0.  0.
        -12    1    1    2    0    0 -0.23165847377E+02 -0.30353501406E+02  0.13970477256E+02  0.40659141248E+02  0.00000000000E+00 0.  1.
         11    1    3    3    0    0  0.21273012498E+02  0.18451793688E+02 -0.45337097546E+01  0.28523048145E+02  0.51100000000E-03 0. -1.
        -11    1    3    3    0    0 -0.68234211364E+00 -0.27537093806E+01  0.17998725978E+01  0.33597690013E+01  0.51100000000E-03 0.  1.
         12    1    3    3    0    0  0.25751769928E+01  0.14655417098E+02 -0.11236640099E+02  0.18646041606E+02  0.00000000000E+00 0. -1.
</event>
<event>
 7    1  0.1098446E-012  0.5052895E+02  0.7816164E-02  0.1300438E+00
        -11   -1    0    0    0    0  0.00000000000E+00  0.00000000000E+00  0.45593999997E+02  0.45594000000E+02  0.51100000000E-03 0. -1.
         11   -1    0    0    0    0 -0.00000000000E+00 -0.00000000000E+00 -0.45593999997E+02  0.45594000000E+02  0.51100000000E-03 0.  1.
    9900012    2    1    2    0    0  0.26064688489E+02 -0.42327119417E+01 -0.30917217991E+02  0.50528951749E+02  0.30000279334E+02 0.  0.
        -12    1    1    2    0    0 -0.26064688489E+02  0.42327119417E+01  0.30917217991E+02  0.40659048251E+02  0.00000000000E+00 0.  1.
         11    1    3    3    0    0  0.18934464115E+02 -0.76306965490E+01 -0.51245265769E+01  0.21047618251E+02  0.51100000000E-03 0. -1.
        -11    1    3    3    0    0 -0.22994378659E+01  0.42160321064E+01 -0.92465881001E+01  0.10419296184E+02  0.51100000000E-03 0.  1.
        -12    1    3    3    0    0  0.94296622396E+01 -0.81804749915E+00 -0.16546103314E+02  0.19062037313E+02  0.00000000000E+00 0.  1.
</event>
<event>
 7    1  0.1098446E-012  0.5052888E+02  0.7816164E-02  0.1300439E+00
        -11   -1    0    0    0    0  0.00000000000E+00  0.00000000000E+00  0.45593999997E+02  0.45594000000E+02  0.51100000000E-03 0.  1.
         11   -1    0    0    0    0 -0.00000000000E+00 -0.00000000000E+00 -0.45593999997E+02  0.45594000000E+02  0.51100000000E-03 0. -1.
    9900012    2    1    2    0    0  0.34612068468E+02  0.20191210106E+02 -0.68908770508E+01  0.50528875123E+02  0.30000046425E+02 0.  0.
        -12    1    1    2    0    0 -0.34612068468E+02 -0.20191210106E+02  0.68908770508E+01  0.40659124877E+02  0.00000000000E+00 0.  1.
         11    1    3    3    0    0  0.99120832394E+01  0.19051995985E+02 -0.17118559148E+01  0.21544335592E+02  0.51100000000E-03 0. -1.
        -11    1    3    3    0    0  0.20134459881E+02  0.59733549947E+01 -0.78876888691E+00  0.21016650571E+02  0.51100000000E-03 0.  1.
         12    1    3    3    0    0  0.45655253477E+01 -0.48341408734E+01 -0.43902522490E+01  0.79678889609E+01  0.00000000000E+00 0. -1.
</event>
<event>
 7    1  0.1098446E-012  0.5052887E+02  0.7816164E-02  0.1300439E+00
        -11   -1    0    0    0    0  0.00000000000E+00  0.00000000000E+00  0.45593999997E+02  0.45594000000E+02  0.51100000000E-03 0.  1.
         11   -1    0    0    0    0 -0.00000000000E+00 -0.00000000000E+00 -0.45593999997E+02  0.45594000000E+02  0.51100000000E-03 0. -1.
    9900012    2    1    2    0    0  0.19620946707E+02  0.91413743092E+01 -0.34418293629E+02  0.50528865598E+02  0.30000017473E+02 0.  0.
        -12    1    1    2    0    0 -0.19620946707E+02 -0.91413743092E+01  0.34418293629E+02  0.40659134402E+02  0.00000000000E+00 0.  1.
         11    1    3    3    0    0  0.11767082104E+02  0.19206388687E+02 -0.28194101603E+02  0.36086797490E+02  0.51100000000E-03 0.  1.
        -11    1    3    3    0    0  0.68445852294E+01 -0.69797143041E+01 -0.44244091463E+01  0.10730338079E+02  0.51100000000E-03 0. -1.
        -12    1    3    3    0    0  0.10092793737E+01 -0.30853000735E+01 -0.17997828801E+01  0.37117300297E+01  0.00000000000E+00 0.  1.
</event>
<event>
 7    1  0.1098446E-012  0.5052886E+02  0.7816164E-02  0.1300439E+00
        -11   -1    0    0    0    0  0.00000000000E+00  0.00000000000E+00  0.45593999997E+02  0.45594000000E+02  0.51100000000E-03 0.  1.
         11   -1    0    0    0    0 -0.00000000000E+00 -0.00000000000E+00 -0.45593999997E+02  0.45594000000E+02  0.51100000000E-03 0. -1.
    9900012    2    1    2    0    0 -0.32208481490E+01  0.75242803072E+01 -0.39826836194E+02  0.50528861566E+02  0.30000005216E+02 0.  0.
        -12    1    1    2    0    0  0.32208481490E+01 -0.75242803072E+01  0.39826836194E+02  0.40659138434E+02  0.00000000000E+00 0.  1.
         11    1    3    3    0    0 -0.11430774439E+02  0.73764994737E+01 -0.22985102133E+02  0.26709366692E+02  0.51100000000E-03 0. -1.
        -11    1    3    3    0    0  0.68034042314E+01 -0.28646984117E+01 -0.78656755692E+00  0.74237116666E+01  0.51100000000E-03 0.  1.
         12    1    3    3    0    0  0.14065220587E+01  0.30124792452E+01 -0.16055166504E+02  0.16395783207E+02  0.00000000000E+00 0. -1.
</event>
<event>
 7    1  0.1098446E-012  0.5052886E+02  0.7816164E-02  0.1300439E+00
        -11   -1    0    0    0    0  0.00000000000E+00  0.00000000000E+00  0.45593999997E+02  0.45594000000E+02  0.51100000000E-03 0.  1.
         11   -1    0    0    0    0 -0.00000000000E+00 -0.00000000000E+00 -0.45593999997E+02  0.45594000000E+02  0.51100000000E-03 0. -1.
    9900012    2    1    2    0    0 -0.20264725691E+02 -0.28421568344E+02 -0.20849961824E+02  0.50528861266E+02  0.30000004305E+02 0.  0.
        -12    1    1    2    0    0  0.20264725691E+02  0.28421568344E+02  0.20849961824E+02  0.40659138734E+02  0.00000000000E+00 0.  1.
         11    1    3    3    0    0 -0.27137295790E+01  0.56950383391E+01 -0.37418562734E+01  0.73347991481E+01  0.51100000000E-03 0. -1.
        -11    1    3    3    0    0 -0.53215019662E+01 -0.15450570496E+02 -0.12073523598E+02  0.20317688947E+02  0.51100000000E-03 0.  1.
        -12    1    3    3    0    0 -0.12229494146E+02 -0.18666036188E+02 -0.50345819530E+01  0.22876373171E+02  0.00000000000E+00 0.  1.
</event>
<event>
 7    1  0.1098446E-012  0.5052886E+02  0.7816164E-02  0.1300439E+00
        -11   -1    0    0    0    0  0.00000000000E+00  0.00000000000E+00  0.45593999997E+02  0.45594000000E+02  0.51100000000E-03 0. -1.
         11   -1    0    0    0    0 -0.00000000000E+00 -0.00000000000E+00 -0.45593999997E+02  0.45594000000E+02  0.51100000000E-03 0.  1.
    9900012    2    1    2    0    0 -0.19591130088E+02 -0.35527182086E+02  0.26782002607E+01  0.50528858325E+02  0.29999995366E+02 0.  0.
        -12    1    1    2    0    0  0.19591130088E+02  0.35527182086E+02 -0.26782002607E+01  0.40659141675E+02  0.00000000000E+00 0.  1.
         11    1    3    3    0    0 -0.97470422320E+01 -0.26902237185E+02 -0.22714366581E+01  0.28703564632E+02  0.51100000000E-03 0. -1.
        -11    1    3    3    0    0  0.35188368853E+01 -0.33927997613E+01  0.56332058819E+01  0.74583049022E+01  0.51100000000E-03 0.  1.
        -12    1    3    3    0    0 -0.13362924741E+02 -0.52321451396E+01 -0.68356896304E+00  0.14366988791E+02  0.00000000000E+00 0.  1.
</event>
<event>
 7    1  0.1098446E-012  0.5052887E+02  0.7816164E-02  0.1300439E+00
        -11   -1    0    0    0    0  0.00000000000E+00  0.00000000000E+00  0.45593999997E+02  0.45594000000E+02  0.51100000000E-03 0.  1.
         11   -1    0    0    0    0 -0.00000000000E+00 -0.00000000000E+00 -0.45593999997E+02  0.45594000000E+02  0.51100000000E-03 0. -1.
    9900012    2    1    2    0    0  0.98465249107E+01  0.29504277563E+02 -0.26186041907E+02  0.50528865257E+02  0.30000016434E+02 0.  0.
        -12    1    1    2    0    0 -0.98465249107E+01 -0.29504277563E+02  0.26186041907E+02  0.40659134743E+02  0.00000000000E+00 0.  1.
         11    1    3    3    0    0  0.97211155797E+01  0.18078488197E+02 -0.24809957441E+02  0.32200400806E+02  0.51100000000E-03 0. -1.
        -11    1    3    3    0    0 -0.12384813707E+01  0.96954958401E+01  0.54253825740E+01  0.11179054165E+02  0.51100000000E-03 0.  1.
         12    1    3    3    0    0  0.13638907018E+01  0.17302935263E+01 -0.68014670403E+01  0.71494102858E+01  0.00000000000E+00 0. -1.
</event>
<event>
 7    1  0.1098446E-012  0.5052886E+02  0.7816164E-02  0.1300439E+00
        -11   -1    0    0    0    0  0.00000000000E+00  0.00000000000E+00  0.45593999997E+02  0.45594000000E+02  0.51100000000E-03 0.  1.
         11   -1    0    0    0    0 -0.00000000000E+00 -0.00000000000E+00 -0.45593999997E+02  0.45594000000E+02  0.51100000000E-03 0. -1.
    9900012    2    1    2    0    0  0.63493029592E+01  0.20702090745E+01 -0.40106930582E+02  0.50528864564E+02  0.30000014329E+02 0.  0.
        -12    1    1    2    0    0 -0.63493029592E+01 -0.20702090745E+01  0.40106930582E+02  0.40659135436E+02  0.00000000000E+00 0.  1.
         11    1    3    3    0    0 -0.55711252877E+01  0.16048234005E+01 -0.18982411192E+02  0.19848043482E+02  0.51100000000E-03 0. -1.
        -11    1    3    3    0    0  0.91071777958E+01  0.87516200785E+01 -0.16511850704E+02  0.20788765123E+02  0.51100000000E-03 0.  1.
        -12    1    3    3    0    0  0.28132504511E+01 -0.82862344045E+01 -0.46126686859E+01  0.98920559598E+01  0.00000000000E+00 0.  1.
</event>
<event>
 7    1  0.1098446E-012  0.5052886E+02  0.7816164E-02  0.1300439E+00
        -11   -1    0    0    0    0  0.00000000000E+00  0.00000000000E+00  0.45593999997E+02  0.45594000000E+02  0.51100000000E-03 0.  1.
         11   -1    0    0    0    0 -0.00000000000E+00 -0.00000000000E+00 -0.45593999997E+02  0.45594000000E+02  0.51100000000E-03 0. -1.
    9900012    2    1    2    0    0  0.31435065123E+02  0.15256940125E+02 -0.20790105778E+02  0.50528855400E+02  0.29999986475E+02 0.  0.
        -12    1    1    2    0    0 -0.31435065123E+02 -0.15256940125E+02  0.20790105778E+02  0.40659144600E+02  0.00000000000E+00 0.  1.
         11    1    3    3    0    0  0.79272612826E+00 -0.29789001945E+01 -0.10916886203E+02  0.11343750073E+02  0.51100000000E-03 0. -1.
        -11    1    3    3    0    0  0.26406678188E+02  0.20193676136E+02 -0.83370163513E+01  0.34272482413E+02  0.51100000000E-03 0.  1.
        -12    1    3    3    0    0  0.42356608070E+01 -0.19578358167E+01 -0.15362032238E+01  0.49126229147E+01  0.00000000000E+00 0.  1.
</event>
<event>
 7    1  0.1098446E-012  0.5052886E+02  0.7816164E-02  0.1300439E+00
        -11   -1    0    0    0    0  0.00000000000E+00  0.00000000000E+00  0.45593999997E+02  0.45594000000E+02  0.51100000000E-03 0.  1.
         11   -1    0    0    0    0 -0.00000000000E+00 -0.00000000000E+00 -0.45593999997E+02  0.45594000000E+02  0.51100000000E-03 0. -1.
    9900012    2    1    2    0    0  0.14570033472E+02 -0.12291242534E+02 -0.35913859267E+02  0.50528858275E+02  0.29999995212E+02 0.  0.
        -12    1    1    2    0    0 -0.14570033472E+02  0.12291242534E+02  0.35913859267E+02  0.40659141725E+02  0.00000000000E+00 0.  1.
         11    1    3    3    0    0  0.17164164512E+02 -0.30159769074E+00 -0.28662762755E+02  0.33410379727E+02  0.51100000000E-03 0. -1.
        -11    1    3    3    0    0 -0.30585421027E+01 -0.11577374636E+02 -0.23810523559E+01  0.12209000526E+02  0.51100000000E-03 0.  1.
        -12    1    3    3    0    0  0.46441106332E+00 -0.41227020692E+00 -0.48700441563E+01  0.49094780214E+01  0.00000000000E+00 0.  1.
</event>
<event>
 7    1  0.1098446E-012  0.5052886E+02  0.7816164E-02  0.1300439E+00
        -11   -1    0    0    0    0  0.00000000000E+00  0.00000000000E+00  0.45593999997E+02  0.45594000000E+02  0.51100000000E-03 0. -1.
         11   -1    0    0    0    0 -0.00000000000E+00 -0.00000000000E+00 -0.45593999997E+02  0.45594000000E+02  0.51100000000E-03 0.  1.
    9900012    2    1    2    0    0  0.14661902354E+02  0.33668372736E+02  0.17453789770E+02  0.50528862273E+02  0.30000007365E+02 0.  0.
        -12    1    1    2    0    0 -0.14661902354E+02 -0.33668372736E+02 -0.17453789770E+02  0.40659137727E+02  0.00000000000E+00 0.  1.
         11    1    3    3    0    0  0.13589868039E+02  0.75764473362E+01  0.18078399105E+02  0.23851951325E+02  0.51100000000E-03 0. -1.
        -11    1    3    3    0    0  0.25290963770E+01  0.10619013432E+02 -0.19123884178E+01  0.11082283360E+02  0.51100000000E-03 0.  1.
         12    1    3    3    0    0 -0.14570620617E+01  0.15472911968E+02  0.12877790828E+01  0.15594627587E+02  0.00000000000E+00 0. -1.
</event>
<event>
 7    1  0.1098446E-012  0.5052886E+02  0.7816164E-02  0.1300439E+00
        -11   -1    0    0    0    0  0.00000000000E+00  0.00000000000E+00  0.45593999997E+02  0.45594000000E+02  0.51100000000E-03 0. -1.
         11   -1    0    0    0    0 -0.00000000000E+00 -0.00000000000E+00 -0.45593999997E+02  0.45594000000E+02  0.51100000000E-03 0.  1.
    9900012    2    1    2    0    0  0.14756269799E+01 -0.37381712311E+02  0.15924693969E+02  0.50528858736E+02  0.29999996614E+02 0.  0.
        -12    1    1    2    0    0 -0.14756269799E+01  0.37381712311E+02 -0.15924693969E+02  0.40659141264E+02  0.00000000000E+00 0.  1.
         11    1    3    3    0    0 -0.19235380846E+01 -0.18835397865E+02  0.12898134844E+02  0.22909257828E+02  0.51100000000E-03 0. -1.
        -11    1    3    3    0    0  0.53493093288E+01 -0.58029574487E+01 -0.75668831158E+01  0.10933761740E+02  0.51100000000E-03 0.  1.
        -12    1    3    3    0    0 -0.19501442643E+01 -0.12743356998E+02  0.10593442241E+02  0.16685839168E+02  0.00000000000E+00 0.  1.
</event>
<event>
 7    1  0.1098446E-012  0.5052887E+02  0.7816164E-02  0.1300439E+00
        -11   -1    0    0    0    0  0.00000000000E+00  0.00000000000E+00  0.45593999997E+02  0.45594000000E+02  0.51100000000E-03 0. -1.
         11   -1    0    0    0    0 -0.00000000000E+00 -0.00000000000E+00 -0.45593999997E+02  0.45594000000E+02  0.51100000000E-03 0.  1.
    9900012    2    1    2    0    0 -0.17605581766E+02 -0.32087922975E+02  0.17708012122E+02  0.50528868141E+02  0.30000025202E+02 0.  0.
        -12    1    1    2    0    0  0.17605581766E+02  0.32087922975E+02 -0.17708012122E+02  0.40659131859E+02  0.00000000000E+00 0.  1.
         11    1    3    3    0    0  0.37000555771E+01 -0.16465385393E+02 -0.11275918372E+01  0.16913627376E+02  0.51100000000E-03 0. -1.
        -11    1    3    3    0    0 -0.18655389646E+02 -0.16615586438E+02  0.17377372557E+02  0.30431469777E+02  0.51100000000E-03 0.  1.
        -12    1    3    3    0    0 -0.26502476965E+01  0.99304885545E+00  0.14582314028E+01  0.31837709884E+01  0.00000000000E+00 0.  1.
</event>
<event>
 7    1  0.1098446E-012  0.5052885E+02  0.7816164E-02  0.1300439E+00
        -11   -1    0    0    0    0  0.00000000000E+00  0.00000000000E+00  0.45593999997E+02  0.45594000000E+02  0.51100000000E-03 0.  1.
         11   -1    0    0    0    0 -0.00000000000E+00 -0.00000000000E+00 -0.45593999997E+02  0.45594000000E+02  0.51100000000E-03 0. -1.
    9900012    2    1    2    0    0 -0.25755724770E+02 -0.15903945966E+02 -0.27145408851E+02  0.50528854935E+02  0.29999985061E+02 0.  0.
        -12    1    1    2    0    0  0.25755724770E+02  0.15903945966E+02  0.27145408851E+02  0.40659145065E+02  0.00000000000E+00 0.  1.
         11    1    3    3    0    0 -0.20263437857E+01 -0.28019125630E+01 -0.85272164157E+01  0.92016413324E+01  0.51100000000E-03 0. -1.
        -11    1    3    3    0    0 -0.17242122952E+02 -0.63182036909E+01  0.21963006687E+01  0.18494167693E+02  0.51100000000E-03 0.  1.
        -12    1    3    3    0    0 -0.64872580324E+01 -0.67838297117E+01 -0.20814493104E+02  0.22833045910E+02  0.00000000000E+00 0.  1.
</event>
<event>
 7    1  0.1098446E-012  0.5052886E+02  0.7816164E-02  0.1300439E+00
        -11   -1    0    0    0    0  0.00000000000E+00  0.00000000000E+00  0.45593999997E+02  0.45594000000E+02  0.51100000000E-03 0.  1.
         11   -1    0    0    0    0 -0.00000000000E+00 -0.00000000000E+00 -0.45593999997E+02  0.45594000000E+02  0.51100000000E-03 0. -1.
    9900012    2    1    2    0    0  0.81832014047E+01  0.25487608381E+02 -0.30603636718E+02  0.50528861463E+02  0.30000004903E+02 0.  0.
        -12    1    1    2    0    0 -0.81832014047E+01 -0.25487608381E+02  0.30603636718E+02  0.40659138537E+02  0.00000000000E+00 0.  1.
         11    1    3    3    0    0  0.17276126591E+01  0.80047128437E+01 -0.27260512244E+02  0.28463935098E+02  0.51100000000E-03 0. -1.
        -11    1    3    3    0    0  0.84252034788E+01  0.13819946880E+02 -0.58482596404E+01  0.17209797398E+02  0.51100000000E-03 0.  1.
         12    1    3    3    0    0 -0.19696147332E+01  0.36629486583E+01  0.25051351671E+01  0.48551289659E+01  0.00000000000E+00 0. -1.
</event>
<event>
 7    1  0.1098446E-012  0.5052887E+02  0.7816164E-02  0.1300439E+00
        -11   -1    0    0    0    0  0.00000000000E+00  0.00000000000E+00  0.45593999997E+02  0.45594000000E+02  0.51100000000E-03 0.  1.
         11   -1    0    0    0    0 -0.00000000000E+00 -0.00000000000E+00 -0.45593999997E+02  0.45594000000E+02  0.51100000000E-03 0. -1.
    9900012    2    1    2    0    0  0.15288366209E+02  0.19188822057E+02 -0.32422517766E+02  0.50528871977E+02  0.30000036861E+02 0.  0.
        -12    1    1    2    0    0 -0.15288366209E+02 -0.19188822057E+02  0.32422517766E+02  0.40659128023E+02  0.00000000000E+00 0.  1.
         11    1    3    3    0    0  0.19888034618E+01  0.16461904284E+02 -0.38919968454E+01  0.17032242118E+02  0.51100000000E-03 0. -1.
        -11    1    3    3    0    0  0.21005540001E+01 -0.50258089545E+00 -0.16877416802E+02  0.17015055475E+02  0.51100000000E-03 0.  1.
        -12    1    3    3    0    0  0.11199008747E+02  0.32294986692E+01 -0.11653104119E+02  0.16481574384E+02  0.00000000000E+00 0.  1.
</event>
<event>
 7    1  0.1098446E-012  0.5052885E+02  0.7816164E-02  0.1300439E+00
        -11   -1    0    0    0    0  0.00000000000E+00  0.00000000000E+00  0.45593999997E+02  0.45594000000E+02  0.51100000000E-03 0.  1.
         11   -1    0    0    0    0 -0.00000000000E+00 -0.00000000000E+00 -0.45593999997E+02  0.45594000000E+02  0.51100000000E-03 0. -1.
    9900012    2    1    2    0    0  0.11138635288E+02  0.38159525311E+02  0.85409468610E+01  0.50528851690E+02  0.29999975196E+02 0.  0.
        -12    1    1    2    0    0 -0.11138635288E+02 -0.38159525311E+02 -0.85409468610E+01  0.40659148310E+02  0.00000000000E+00 0.  1.
         11    1    3    3    0    0  0.14169236491E+01  0.16912502015E+02  0.67044803691E+00  0.16984990370E+02  0.51100000000E-03 0. -1.
        -11    1    3    3    0    0  0.43388872327E+01  0.56580779518E+01  0.14191402199E+02  0.15881929517E+02  0.51100000000E-03 0.  1.
        -12    1    3    3    0    0  0.53828244061E+01  0.15588945345E+02 -0.63209033753E+01  0.17661931803E+02  0.00000000000E+00 0.  1.
</event>
<event>
 7    1  0.1098446E-012  0.5052887E+02  0.7816164E-02  0.1300439E+00
        -11   -1    0    0    0    0  0.00000000000E+00  0.00000000000E+00  0.45593999997E+02  0.45594000000E+02  0.51100000000E-03 0. -1.
         11   -1    0    0    0    0 -0.00000000000E+00 -0.00000000000E+00 -0.45593999997E+02  0.45594000000E+02  0.51100000000E-03 0.  1.
    9900012    2    1    2    0    0  0.40652432906E+02 -0.50306628406E-01  0.73634910273E+00  0.50528867669E+02  0.30000023767E+02 0.  0.
        -12    1    1    2    0    0 -0.40652432906E+02  0.50306628406E-01 -0.73634910273E+00  0.40659132331E+02  0.00000000000E+00 0.  1.
         11    1    3    3    0    0  0.36192642392E+02 -0.68130299040E+01  0.67986820828E+01  0.37450591692E+02  0.51100000000E-03 0. -1.
        -11    1    3    3    0    0  0.57438646970E+01  0.55319621910E+01 -0.73793853216E+01  0.10865077787E+02  0.51100000000E-03 0.  1.
        -12    1    3    3    0    0 -0.12840741833E+01  0.12307610846E+01  0.13170523416E+01  0.22131981895E+01  0.00000000000E+00 0.  1.
</event>
<event>
 7    1  0.1098446E-012  0.5052884E+02  0.7816164E-02  0.1300439E+00
        -11   -1    0    0    0    0  0.00000000000E+00  0.00000000000E+00  0.45593999997E+02  0.45594000000E+02  0.51100000000E-03 0. -1.
         11   -1    0    0    0    0 -0.00000000000E+00 -0.00000000000E+00 -0.45593999997E+02  0.45594000000E+02  0.51100000000E-03 0.  1.
    9900012    2    1    2    0    0  0.29779387601E+02 -0.27676189971E+02 -0.61960202125E+00  0.50528839607E+02  0.29999938469E+02 0.  0.
        -12    1    1    2    0    0 -0.29779387601E+02  0.27676189971E+02  0.61960202125E+00  0.40659160393E+02  0.00000000000E+00 0.  1.
         11    1    3    3    0    0  0.16920817751E+02 -0.10522865384E+02  0.48035461019E+01  0.20496800352E+02  0.51100000000E-03 0. -1.
        -11    1    3    3    0    0  0.48645424073E+01 -0.14556652100E+02 -0.11900010896E+02  0.19420869002E+02  0.51100000000E-03 0.  1.
         12    1    3    3    0    0  0.79940274430E+01 -0.25966724867E+01  0.64768627727E+01  0.10611170253E+02  0.00000000000E+00 0. -1.
</event>
<event>
 7    1  0.1098446E-012  0.5052887E+02  0.7816164E-02  0.1300439E+00
        -11   -1    0    0    0    0  0.00000000000E+00  0.00000000000E+00  0.45593999997E+02  0.45594000000E+02  0.51100000000E-03 0.  1.
         11   -1    0    0    0    0 -0.00000000000E+00 -0.00000000000E+00 -0.45593999997E+02  0.45594000000E+02  0.51100000000E-03 0. -1.
    9900012    2    1    2    0    0 -0.18458136736E+02  0.27273317142E+02 -0.23845934561E+02  0.50528865297E+02  0.30000016558E+02 0.  0.
        -12    1    1    2    0    0  0.18458136736E+02 -0.27273317142E+02  0.23845934561E+02  0.40659134703E+02  0.00000000000E+00 0.  1.
         11    1    3    3    0    0 -0.75714899424E+01  0.15232818847E+02 -0.18790904774E+02  0.25346880132E+02  0.51100000000E-03 0. -1.
        -11    1    3    3    0    0  0.20814640969E+01 -0.17845732370E+01  0.34493779927E+01  0.44062913229E+01  0.51100000000E-03 0.  1.
        -12    1    3    3    0    0 -0.12968110890E+02  0.13825071532E+02 -0.85044077798E+01  0.20775693842E+02  0.00000000000E+00 0.  1.
</event>
<event>
 7    1  0.1098446E-012  0.5052886E+02  0.7816164E-02  0.1300439E+00
        -11   -1    0    0    0    0  0.00000000000E+00  0.00000000000E+00  0.45593999997E+02  0.45594000000E+02  0.51100000000E-03 0.  1.
         11   -1    0    0    0    0 -0.00000000000E+00 -0.00000000000E+00 -0.45593999997E+02  0.45594000000E+02  0.51100000000E-03 0. -1.
    9900012    2    1    2    0    0 -0.13187733586E+02 -0.14011054454E+02 -0.35818147022E+02  0.50528860558E+02  0.30000002152E+02 0.  0.
        -12    1    1    2    0    0  0.13187733586E+02  0.14011054454E+02  0.35818147022E+02  0.40659139442E+02  0.00000000000E+00 0.  1.
         11    1    3    3    0    0 -0.10142105204E+02 -0.12657908138E+01 -0.35263486209E+01  0.10812014576E+02  0.51100000000E-03 0. -1.
        -11    1    3    3    0    0  0.63823859500E+01 -0.12010853341E+02 -0.17567998578E+02  0.22217786179E+02  0.51100000000E-03 0.  1.
        -12    1    3    3    0    0 -0.94280143327E+01 -0.73441029947E+00 -0.14723799824E+02  0.17499059803E+02  0.00000000000E+00 0.  1.
</event>
<event>
 7    1  0.1098446E-012  0.5052888E+02  0.7816164E-02  0.1300439E+00
        -11   -1    0    0    0    0  0.00000000000E+00  0.00000000000E+00  0.45593999997E+02  0.45594000000E+02  0.51100000000E-03 0.  1.
         11   -1    0    0    0    0 -0.00000000000E+00 -0.00000000000E+00 -0.45593999997E+02  0.45594000000E+02  0.51100000000E-03 0. -1.
    9900012    2    1    2    0    0 -0.24244997467E+02 -0.24569573696E+02 -0.21486744827E+02  0.50528879781E+02  0.30000060581E+02 0.  0.
        -12    1    1    2    0    0  0.24244997467E+02  0.24569573696E+02  0.21486744827E+02  0.40659120219E+02  0.00000000000E+00 0.  1.
         11    1    3    3    0    0 -0.25746023774E+02 -0.22679167959E+02 -0.18350709818E+02  0.38909522621E+02  0.51100000000E-03 0. -1.
        -11    1    3    3    0    0  0.35492615914E+01 -0.14257690118E+00  0.31709990681E+01  0.47615986148E+01  0.51100000000E-03 0.  1.
         12    1    3    3    0    0 -0.20482352843E+01 -0.17478288355E+01 -0.63070340768E+01  0.68577585451E+01  0.00000000000E+00 0. -1.
</event>
<event>
 7    1  0.1098446E-012  0.5052886E+02  0.7816164E-02  0.1300439E+00
        -11   -1    0    0    0    0  0.00000000000E+00  0.00000000000E+00  0.45593999997E+02  0.45594000000E+02  0.51100000000E-03 0.  1.
         11   -1    0    0    0    0 -0.00000000000E+00 -0.00000000000E+00 -0.45593999997E+02  0.45594000000E+02  0.51100000000E-03 0. -1.
    9900012    2    1    2    0    0 -0.12825388595E+02 -0.35467953838E+02 -0.15188790143E+02  0.50528859723E+02  0.29999999614E+02 0.  0.
        -12    1    1    2    0    0  0.12825388595E+02  0.35467953838E+02  0.15188790143E+02  0.40659140277E+02  0.00000000000E+00 0.  1.
         11    1    3    3    0    0 -0.19506861741E+02 -0.34362934372E+02 -0.15814881647E+02  0.42561007923E+02  0.51100000000E-03 0. -1.
        -11    1    3    3    0    0  0.18510922903E+01  0.15165949841E+01 -0.23623746972E+00  0.24046645122E+01  0.51100000000E-03 0.  1.
         12    1    3    3    0    0  0.48303808561E+01 -0.26216144497E+01  0.86232897345E+00  0.55631872875E+01  0.00000000000E+00 0. -1.
</event>
<event>
 7    1  0.1098446E-012  0.5052885E+02  0.7816164E-02  0.1300439E+00
        -11   -1    0    0    0    0  0.00000000000E+00  0.00000000000E+00  0.45593999997E+02  0.45594000000E+02  0.51100000000E-03 0.  1.
         11   -1    0    0    0    0 -0.00000000000E+00 -0.00000000000E+00 -0.45593999997E+02  0.45594000000E+02  0.51100000000E-03 0. -1.
    9900012    2    1    2    0    0 -0.37484827006E+02  0.12150698893E+02 -0.10020720790E+02  0.50528848700E+02  0.29999966110E+02 0.  0.
        -12    1    1    2    0    0  0.37484827006E+02 -0.12150698893E+02  0.10020720790E+02  0.40659151300E+02  0.00000000000E+00 0.  1.
         11    1    3    3    0    0 -0.15416398175E+02  0.14341368502E+02 -0.76081904597E+01  0.22388049167E+02  0.51100000000E-03 0. -1.
        -11    1    3    3    0    0 -0.97802813722E+01 -0.17318498119E+01  0.74186758698E+01  0.12397175461E+02  0.51100000000E-03 0.  1.
         12    1    3    3    0    0 -0.12288147459E+02 -0.45881979695E+00 -0.98312061996E+01  0.15743624072E+02  0.00000000000E+00 0. -1.
</event>
<event>
 7    1  0.1098446E-012  0.5052883E+02  0.7816164E-02  0.1300439E+00
        -11   -1    0    0    0    0  0.00000000000E+00  0.00000000000E+00  0.45593999997E+02  0.45594000000E+02  0.51100000000E-03 0. -1.
         11   -1    0    0    0    0 -0.00000000000E+00 -0.00000000000E+00 -0.45593999997E+02  0.45594000000E+02  0.51100000000E-03 0.  1.
    9900012    2    1    2    0    0 -0.29771905106E+02 -0.12086177350E+02 -0.24914369012E+02  0.50528833753E+02  0.29999920676E+02 0.  0.
        -12    1    1    2    0    0  0.29771905106E+02  0.12086177350E+02  0.24914369012E+02  0.40659166247E+02  0.00000000000E+00 0.  1.
         11    1    3    3    0    0 -0.12412229836E+02  0.40388022353E+01 -0.17668831304E+02  0.21967316015E+02  0.51100000000E-03 0. -1.
        -11    1    3    3    0    0 -0.47400540766E+01 -0.11655889087E+02  0.13453703212E+01  0.12654559835E+02  0.51100000000E-03 0.  1.
        -12    1    3    3    0    0 -0.12619621194E+02 -0.44690904985E+01 -0.85909080296E+01  0.15906957903E+02  0.00000000000E+00 0.  1.
</event>
<event>
 7    1  0.1098446E-012  0.5052885E+02  0.7816164E-02  0.1300439E+00
        -11   -1    0    0    0    0  0.00000000000E+00  0.00000000000E+00  0.45593999997E+02  0.45594000000E+02  0.51100000000E-03 0.  1.
         11   -1    0    0    0    0 -0.00000000000E+00 -0.00000000000E+00 -0.45593999997E+02  0.45594000000E+02  0.51100000000E-03 0. -1.
    9900012    2    1    2    0    0  0.27062879376E+02 -0.27444376878E+02  0.12944995207E+02  0.50528853879E+02  0.29999981852E+02 0.  0.
        -12    1    1    2    0    0 -0.27062879376E+02  0.27444376878E+02 -0.12944995207E+02  0.40659146121E+02  0.00000000000E+00 0.  1.
         11    1    3    3    0    0  0.13441728758E+02 -0.16259766844E+02  0.11451906997E+02  0.24004296781E+02  0.51100000000E-03 0. -1.
        -11    1    3    3    0    0  0.12111482613E+02 -0.91523128809E+01 -0.76769816125E+01  0.17011434069E+02  0.51100000000E-03 0.  1.
        -12    1    3    3    0    0  0.15096680042E+01 -0.20322971533E+01  0.91700698231E+01  0.95131230289E+01  0.00000000000E+00 0.  1.
</event>
<event>
 7    1  0.1098446E-012  0.5052886E+02  0.7816164E-02  0.1300439E+00
        -11   -1    0    0    0    0  0.00000000000E+00  0.00000000000E+00  0.45593999997E+02  0.45594000000E+02  0.51100000000E-03 0.  1.
         11   -1    0    0    0    0 -0.00000000000E+00 -0.00000000000E+00 -0.45593999997E+02  0.45594000000E+02  0.51100000000E-03 0. -1.
    9900012    2    1    2    0    0  0.29746516294E+02  0.21702259257E+02 -0.17243049324E+02  0.50528855414E+02  0.29999986517E+02 0.  0.
        -12    1    1    2    0    0 -0.29746516294E+02 -0.21702259257E+02  0.17243049324E+02  0.40659144586E+02  0.00000000000E+00 0.  1.
         11    1    3    3    0    0  0.26718497991E+02  0.34069758883E+01 -0.13171435288E+02  0.29982867231E+02  0.51100000000E-03 0. -1.
        -11    1    3    3    0    0  0.54733713255E+00  0.63454949052E+01  0.23083369844E+01  0.67744596407E+01  0.51100000000E-03 0.  1.
         12    1    3    3    0    0  0.24806811705E+01  0.11949788463E+02 -0.63799510201E+01  0.13771528543E+02  0.00000000000E+00 0. -1.
</event>
<event>
 7    1  0.1098446E-012  0.5052886E+02  0.7816164E-02  0.1300439E+00
        -11   -1    0    0    0    0  0.00000000000E+00  0.00000000000E+00  0.45593999997E+02  0.45594000000E+02  0.51100000000E-03 0.  1.
         11   -1    0    0    0    0 -0.00000000000E+00 -0.00000000000E+00 -0.45593999997E+02  0.45594000000E+02  0.51100000000E-03 0. -1.
    9900012    2    1    2    0    0  0.20872134838E+02  0.34826195334E+02 -0.21577116673E+01  0.50528860636E+02  0.30000002390E+02 0.  0.
        -12    1    1    2    0    0 -0.20872134838E+02 -0.34826195334E+02  0.21577116673E+01  0.40659139364E+02  0.00000000000E+00 0.  1.
         11    1    3    3    0    0  0.29637199957E+01  0.17644603188E+02  0.66715226291E+01  0.19095153111E+02  0.51100000000E-03 0. -1.
        -11    1    3    3    0    0  0.10939507910E+02 -0.89798293014E-02 -0.65353298109E+01  0.12742976495E+02  0.51100000000E-03 0.  1.
        -12    1    3    3    0    0  0.69689069327E+01  0.17190571975E+02 -0.22939044855E+01  0.18690731031E+02  0.00000000000E+00 0.  1.
</event>
<event>
 7    1  0.1098446E-012  0.5052886E+02  0.7816164E-02  0.1300439E+00
        -11   -1    0    0    0    0  0.00000000000E+00  0.00000000000E+00  0.45593999997E+02  0.45594000000E+02  0.51100000000E-03 0. -1.
         11   -1    0    0    0    0 -0.00000000000E+00 -0.00000000000E+00 -0.45593999997E+02  0.45594000000E+02  0.51100000000E-03 0.  1.
    9900012    2    1    2    0    0  0.27151016011E+01  0.29247420483E+02  0.28113743890E+02  0.50528856168E+02  0.29999988810E+02 0.  0.
        -12    1    1    2    0    0 -0.27151016011E+01 -0.29247420483E+02 -0.28113743890E+02  0.40659143832E+02  0.00000000000E+00 0.  1.
         11    1    3    3    0    0  0.18507944008E+01  0.22579655803E+01  0.51861083374E+00  0.29652665873E+01  0.51100000000E-03 0.  1.
        -11    1    3    3    0    0 -0.52945451810E+01  0.13430936036E+02 -0.18617893696E+01  0.14556390740E+02  0.51100000000E-03 0. -1.
        -12    1    3    3    0    0  0.61588523812E+01  0.13558518867E+02  0.29456922426E+02  0.33007198841E+02  0.00000000000E+00 0.  1.
</event>
<event>
 7    1  0.1098446E-012  0.5052886E+02  0.7816164E-02  0.1300439E+00
        -11   -1    0    0    0    0  0.00000000000E+00  0.00000000000E+00  0.45593999997E+02  0.45594000000E+02  0.51100000000E-03 0.  1.
         11   -1    0    0    0    0 -0.00000000000E+00 -0.00000000000E+00 -0.45593999997E+02  0.45594000000E+02  0.51100000000E-03 0. -1.
    9900012    2    1    2    0    0  0.39010301888E+02 -0.50443332113E+01 -0.10291594063E+02  0.50528857617E+02  0.29999993213E+02 0.  0.
        -12    1    1    2    0    0 -0.39010301888E+02  0.50443332113E+01  0.10291594063E+02  0.40659142383E+02  0.00000000000E+00 0.  1.
         11    1    3    3    0    0  0.26963952225E+02 -0.41414904364E+01 -0.19853043261E+01  0.27352295994E+02  0.51100000000E-03 0. -1.
        -11    1    3    3    0    0  0.52105864126E+01  0.50737699638E+01 -0.11452714458E+02  0.13566798485E+02  0.51100000000E-03 0.  1.
        -12    1    3    3    0    0  0.68357632505E+01 -0.59766127387E+01  0.31464247209E+01  0.96097631381E+01  0.00000000000E+00 0.  1.
</event>
<event>
 7    1  0.1098446E-012  0.5052883E+02  0.7816164E-02  0.1300439E+00
        -11   -1    0    0    0    0  0.00000000000E+00  0.00000000000E+00  0.45593999997E+02  0.45594000000E+02  0.51100000000E-03 0.  1.
         11   -1    0    0    0    0 -0.00000000000E+00 -0.00000000000E+00 -0.45593999997E+02  0.45594000000E+02  0.51100000000E-03 0. -1.
    9900012    2    1    2    0    0 -0.13090053301E+02  0.37383610013E+02 -0.91806365669E+01  0.50528832758E+02  0.29999917653E+02 0.  0.
        -12    1    1    2    0    0  0.13090053301E+02 -0.37383610013E+02  0.91806365669E+01  0.40659167242E+02  0.00000000000E+00 0.  1.
         11    1    3    3    0    0 -0.50107029948E+01  0.16930594592E+02 -0.16464893343E+02  0.24142180738E+02  0.51100000000E-03 0. -1.
        -11    1    3    3    0    0  0.40725374378E+00  0.13194319094E+01  0.51673214291E+01  0.53486416209E+01  0.51100000000E-03 0.  1.
         12    1    3    3    0    0 -0.84866040498E+01  0.19133583512E+02  0.21169353475E+01  0.21038010399E+02  0.00000000000E+00 0. -1.
</event>
<event>
 7    1  0.1098446E-012  0.5052884E+02  0.7816164E-02  0.1300439E+00
        -11   -1    0    0    0    0  0.00000000000E+00  0.00000000000E+00  0.45593999997E+02  0.45594000000E+02  0.51100000000E-03 0.  1.
         11   -1    0    0    0    0 -0.00000000000E+00 -0.00000000000E+00 -0.45593999997E+02  0.45594000000E+02  0.51100000000E-03 0. -1.
    9900012    2    1    2    0    0  0.22260277302E+02 -0.28981955964E+02 -0.17823968861E+02  0.50528836420E+02  0.29999928783E+02 0.  0.
        -12    1    1    2    0    0 -0.22260277302E+02  0.28981955964E+02  0.17823968861E+02  0.40659163580E+02  0.00000000000E+00 0.  1.
         11    1    3    3    0    0 -0.18502943633E+01  0.12363500600E+01  0.15942825222E+01  0.27374966162E+01  0.51100000000E-03 0.  1.
        -11    1    3    3    0    0  0.21064174929E+02 -0.29654879631E+02 -0.23015075571E+02  0.43044222088E+02  0.51100000000E-03 0. -1.
         12    1    3    3    0    0  0.30463967358E+01 -0.56342639383E+00  0.35968241880E+01  0.47471177163E+01  0.00000000000E+00 0. -1.
</event>
<event>
 7    1  0.1098446E-012  0.5052887E+02  0.7816164E-02  0.1300439E+00
        -11   -1    0    0    0    0  0.00000000000E+00  0.00000000000E+00  0.45593999997E+02  0.45594000000E+02  0.51100000000E-03 0.  1.
         11   -1    0    0    0    0 -0.00000000000E+00 -0.00000000000E+00 -0.45593999997E+02  0.45594000000E+02  0.51100000000E-03 0. -1.
    9900012    2    1    2    0    0  0.24492526475E+02  0.11939413558E+02 -0.30178323119E+02  0.50528872666E+02  0.30000038957E+02 0.  0.
        -12    1    1    2    0    0 -0.24492526475E+02 -0.11939413558E+02  0.30178323119E+02  0.40659127334E+02  0.00000000000E+00 0.  1.
         11    1    3    3    0    0  0.60339709895E+01  0.41351929026E+00 -0.23627971628E+02  0.24389769323E+02  0.51100000000E-03 0. -1.
        -11    1    3    3    0    0  0.10175264090E+02  0.57581310843E+01  0.31829655207E+01  0.12117068237E+02  0.51100000000E-03 0.  1.
        -12    1    3    3    0    0  0.82832913956E+01  0.57677631833E+01 -0.97333170119E+01  0.14022035107E+02  0.00000000000E+00 0.  1.
</event>
<event>
 7    1  0.1098446E-012  0.5052885E+02  0.7816164E-02  0.1300439E+00
        -11   -1    0    0    0    0  0.00000000000E+00  0.00000000000E+00  0.45593999997E+02  0.45594000000E+02  0.51100000000E-03 0.  1.
         11   -1    0    0    0    0 -0.00000000000E+00 -0.00000000000E+00 -0.45593999997E+02  0.45594000000E+02  0.51100000000E-03 0. -1.
    9900012    2    1    2    0    0  0.27726484844E+02 -0.18238994174E+02 -0.23489305847E+02  0.50528851467E+02  0.29999974518E+02 0.  0.
        -12    1    1    2    0    0 -0.27726484844E+02  0.18238994174E+02  0.23489305847E+02  0.40659148533E+02  0.00000000000E+00 0.  1.
         11    1    3    3    0    0  0.86279282593E+01 -0.84925454131E+01  0.18682276298E+01  0.12249683603E+02  0.51100000000E-03 0. -1.
        -11    1    3    3    0    0  0.78833313649E+00 -0.27044042364E+01 -0.16527456975E+02  0.16765801673E+02  0.51100000000E-03 0.  1.
        -12    1    3    3    0    0  0.18310223449E+02 -0.70420445240E+01 -0.88300765016E+01  0.21513366190E+02  0.00000000000E+00 0.  1.
</event>
<event>
 7    1  0.1098446E-012  0.5052887E+02  0.7816164E-02  0.1300439E+00
        -11   -1    0    0    0    0  0.00000000000E+00  0.00000000000E+00  0.45593999997E+02  0.45594000000E+02  0.51100000000E-03 0.  1.
         11   -1    0    0    0    0 -0.00000000000E+00 -0.00000000000E+00 -0.45593999997E+02  0.45594000000E+02  0.51100000000E-03 0. -1.
    9900012    2    1    2    0    0  0.14194382013E+02  0.35298148782E+02 -0.14343115471E+02  0.50528871264E+02  0.30000034694E+02 0.  0.
        -12    1    1    2    0    0 -0.14194382013E+02 -0.35298148782E+02  0.14343115471E+02  0.40659128736E+02  0.00000000000E+00 0.  1.
         11    1    3    3    0    0  0.10011232380E+02  0.30103580635E+02 -0.15676118364E+02  0.35386311309E+02  0.51100000000E-03 0. -1.
        -11    1    3    3    0    0  0.84777219602E+01  0.58943728291E+01 -0.68087535135E+00  0.10347897960E+02  0.51100000000E-03 0.  1.
         12    1    3    3    0    0 -0.42945723274E+01 -0.69980468203E+00  0.20138782441E+01  0.47946619954E+01  0.00000000000E+00 0. -1.
</event>
<event>
 7    1  0.1098446E-012  0.5052886E+02  0.7816164E-02  0.1300439E+00
        -11   -1    0    0    0    0  0.00000000000E+00  0.00000000000E+00  0.45593999997E+02  0.45594000000E+02  0.51100000000E-03 0.  1.
         11   -1    0    0    0    0 -0.00000000000E+00 -0.00000000000E+00 -0.45593999997E+02  0.45594000000E+02  0.51100000000E-03 0. -1.
    9900012    2    1    2    0    0 -0.19930530894E+02 -0.28095449015E+02 -0.21600589733E+02  0.50528858422E+02  0.29999995659E+02 0.  0.
        -12    1    1    2    0    0  0.19930530894E+02  0.28095449015E+02  0.21600589733E+02  0.40659141578E+02  0.00000000000E+00 0.  1.
         11    1    3    3    0    0 -0.19400123774E+02 -0.77852895855E+01 -0.11782220614E+02  0.23995755025E+02  0.51100000000E-03 0. -1.
        -11    1    3    3    0    0  0.92543415793E+00 -0.20278213081E+02 -0.12242445625E+02  0.23705270074E+02  0.51100000000E-03 0.  1.
         12    1    3    3    0    0 -0.14558412775E+01 -0.31946348961E-01  0.24240765058E+01  0.28278333226E+01  0.00000000000E+00 0. -1.
</event>
<event>
 7    1  0.1098446E-012  0.5052886E+02  0.7816164E-02  0.1300439E+00
        -11   -1    0    0    0    0  0.00000000000E+00  0.00000000000E+00  0.45593999997E+02  0.45594000000E+02  0.51100000000E-03 0.  1.
         11   -1    0    0    0    0 -0.00000000000E+00 -0.00000000000E+00 -0.45593999997E+02  0.45594000000E+02  0.51100000000E-03 0. -1.
    9900012    2    1    2    0    0 -0.14154283402E+02 -0.12027478964E+02 -0.36168518565E+02  0.50528859280E+02  0.29999998268E+02 0.  0.
        -12    1    1    2    0    0  0.14154283402E+02  0.12027478964E+02  0.36168518565E+02  0.40659140720E+02  0.00000000000E+00 0.  1.
         11    1    3    3    0    0 -0.14625199408E+02 -0.20054312897E+02 -0.23432446587E+02  0.34134315239E+02  0.51100000000E-03 0. -1.
        -11    1    3    3    0    0  0.34252001479E+01  0.51404956771E+01 -0.71799666467E+01  0.94714630955E+01  0.51100000000E-03 0.  1.
        -12    1    3    3    0    0 -0.29542841420E+01  0.28863382564E+01 -0.55561053316E+01  0.69230809455E+01  0.00000000000E+00 0.  1.
</event>
<event>
 7    1  0.1098446E-012  0.5052888E+02  0.7816164E-02  0.1300439E+00
        -11   -1    0    0    0    0  0.00000000000E+00  0.00000000000E+00  0.45593999997E+02  0.45594000000E+02  0.51100000000E-03 0.  1.
         11   -1    0    0    0    0 -0.00000000000E+00 -0.00000000000E+00 -0.45593999997E+02  0.45594000000E+02  0.51100000000E-03 0. -1.
    9900012    2    1    2    0    0 -0.12899314709E+02  0.23928356678E+02 -0.30235836281E+02  0.50528875946E+02  0.30000048925E+02 0.  0.
        -12    1    1    2    0    0  0.12899314709E+02 -0.23928356678E+02  0.30235836281E+02  0.40659124054E+02  0.00000000000E+00 0.  1.
         11    1    3    3    0    0 -0.12099389278E+02  0.17696149488E+01 -0.11135979123E+01  0.12278715672E+02  0.51100000000E-03 0. -1.
        -11    1    3    3    0    0  0.35435466415E+01  0.19188203797E+02 -0.23606436980E+02  0.30626912265E+02  0.51100000000E-03 0.  1.
         12    1    3    3    0    0 -0.43434720728E+01  0.29705379320E+01 -0.55158013885E+01  0.76232480093E+01  0.00000000000E+00 0. -1.
</event>
<event>
 7    1  0.1098446E-012  0.5052886E+02  0.7816164E-02  0.1300439E+00
        -11   -1    0    0    0    0  0.00000000000E+00  0.00000000000E+00  0.45593999997E+02  0.45594000000E+02  0.51100000000E-03 0.  1.
         11   -1    0    0    0    0 -0.00000000000E+00 -0.00000000000E+00 -0.45593999997E+02  0.45594000000E+02  0.51100000000E-03 0. -1.
    9900012    2    1    2    0    0 -0.84278994277E+01 -0.38353811366E+02 -0.10541401037E+02  0.50528862394E+02  0.30000007734E+02 0.  0.
        -12    1    1    2    0    0  0.84278994277E+01  0.38353811366E+02  0.10541401037E+02  0.40659137606E+02  0.00000000000E+00 0.  1.
         11    1    3    3    0    0  0.27267985926E+01 -0.10161096380E+02  0.54147910400E+01  0.11832297853E+02  0.51100000000E-03 0.  1.
        -11    1    3    3    0    0 -0.15705336384E+02 -0.23652067501E+02 -0.10520645867E+02  0.30278075859E+02  0.51100000000E-03 0. -1.
         12    1    3    3    0    0  0.45506383635E+01 -0.45406474837E+01 -0.54355462100E+01  0.84184886820E+01  0.00000000000E+00 0. -1.
</event>
<event>
 7    1  0.1098446E-012  0.5052885E+02  0.7816164E-02  0.1300439E+00
        -11   -1    0    0    0    0  0.00000000000E+00  0.00000000000E+00  0.45593999997E+02  0.45594000000E+02  0.51100000000E-03 0.  1.
         11   -1    0    0    0    0 -0.00000000000E+00 -0.00000000000E+00 -0.45593999997E+02  0.45594000000E+02  0.51100000000E-03 0. -1.
    9900012    2    1    2    0    0  0.33187706256E+02  0.10159601737E+02  0.21178420891E+02  0.50528845245E+02  0.29999955606E+02 0.  0.
        -12    1    1    2    0    0 -0.33187706256E+02 -0.10159601737E+02 -0.21178420891E+02  0.40659154755E+02  0.00000000000E+00 0.  1.
         11    1    3    3    0    0  0.12326711108E+02  0.47892724098E+00 -0.55284475946E+01  0.13518169666E+02  0.51100000000E-03 0. -1.
        -11    1    3    3    0    0  0.14662645180E+02  0.74361589653E+01  0.10482066933E+02  0.19497778111E+02  0.51100000000E-03 0.  1.
         12    1    3    3    0    0  0.61983499686E+01  0.22445155302E+01  0.16224801553E+02  0.17512897468E+02  0.00000000000E+00 0. -1.
</event>
<event>
 7    1  0.1098446E-012  0.5052885E+02  0.7816164E-02  0.1300439E+00
        -11   -1    0    0    0    0  0.00000000000E+00  0.00000000000E+00  0.45593999997E+02  0.45594000000E+02  0.51100000000E-03 0. -1.
         11   -1    0    0    0    0 -0.00000000000E+00 -0.00000000000E+00 -0.45593999997E+02  0.45594000000E+02  0.51100000000E-03 0.  1.
    9900012    2    1    2    0    0  0.35845990136E+02  0.16003972073E+02 -0.10587928631E+02  0.50528851416E+02  0.29999974363E+02 0.  0.
        -12    1    1    2    0    0 -0.35845990136E+02 -0.16003972073E+02  0.10587928631E+02  0.40659148584E+02  0.00000000000E+00 0.  1.
         11    1    3    3    0    0  0.87108323901E+01 -0.41073837466E+01  0.27989612588E+00  0.96347051990E+01  0.51100000000E-03 0. -1.
        -11    1    3    3    0    0  0.30185582180E+02  0.20241514426E+02 -0.10420128725E+02  0.37808297512E+02  0.51100000000E-03 0.  1.
        -12    1    3    3    0    0 -0.30504244346E+01 -0.13015860623E+00 -0.44769603100E+00  0.30858487050E+01  0.00000000000E+00 0.  1.
</event>
<event>
 7    1  0.1098446E-012  0.5052893E+02  0.7816164E-02  0.1300439E+00
        -11   -1    0    0    0    0  0.00000000000E+00  0.00000000000E+00  0.45593999997E+02  0.45594000000E+02  0.51100000000E-03 0. -1.
         11   -1    0    0    0    0 -0.00000000000E+00 -0.00000000000E+00 -0.45593999997E+02  0.45594000000E+02  0.51100000000E-03 0.  1.
    9900012    2    1    2    0    0 -0.20608120687E+02 -0.33495191184E+02 -0.10321699150E+02  0.50528930359E+02  0.30000214319E+02 0.  0.
        -12    1    1    2    0    0  0.20608120687E+02  0.33495191184E+02  0.10321699150E+02  0.40659069641E+02  0.00000000000E+00 0.  1.
         11    1    3    3    0    0 -0.19727980813E+02 -0.23617186209E+02  0.30129842662E+01  0.30919941556E+02  0.51100000000E-03 0. -1.
        -11    1    3    3    0    0 -0.26198821159E+01 -0.95347695856E+01 -0.49860880046E+01  0.11074144987E+02  0.51100000000E-03 0.  1.
         12    1    3    3    0    0  0.17397422416E+01 -0.34323538887E+00 -0.83485954120E+01  0.85348438153E+01  0.00000000000E+00 0. -1.
</event>
<event>
 7    1  0.1098446E-012  0.5052888E+02  0.7816164E-02  0.1300439E+00
        -11   -1    0    0    0    0  0.00000000000E+00  0.00000000000E+00  0.45593999997E+02  0.45594000000E+02  0.51100000000E-03 0. -1.
         11   -1    0    0    0    0 -0.00000000000E+00 -0.00000000000E+00 -0.45593999997E+02  0.45594000000E+02  0.51100000000E-03 0.  1.
    9900012    2    1    2    0    0 -0.36935666092E+02  0.15892544769E+02  0.60289279400E+01  0.50528875797E+02  0.30000048472E+02 0.  0.
        -12    1    1    2    0    0  0.36935666092E+02 -0.15892544769E+02 -0.60289279400E+01  0.40659124203E+02  0.00000000000E+00 0.  1.
         11    1    3    3    0    0 -0.21698512467E+01 -0.57401680349E+01 -0.10368103545E+01  0.62235648526E+01  0.51100000000E-03 0. -1.
        -11    1    3    3    0    0 -0.32437887957E+02  0.20649294159E+02  0.10667927350E+02  0.39905069835E+02  0.51100000000E-03 0.  1.
        -12    1    3    3    0    0 -0.23279268883E+01  0.98341864502E+00 -0.36021890553E+01  0.44002411092E+01  0.00000000000E+00 0.  1.
</event>
<event>
 7    1  0.1098446E-012  0.5052885E+02  0.7816164E-02  0.1300439E+00
        -11   -1    0    0    0    0  0.00000000000E+00  0.00000000000E+00  0.45593999997E+02  0.45594000000E+02  0.51100000000E-03 0. -1.
         11   -1    0    0    0    0 -0.00000000000E+00 -0.00000000000E+00 -0.45593999997E+02  0.45594000000E+02  0.51100000000E-03 0.  1.
    9900012    2    1    2    0    0 -0.29594798804E+02 -0.17878981901E+02  0.21392913725E+02  0.50528845216E+02  0.29999955519E+02 0.  0.
        -12    1    1    2    0    0  0.29594798804E+02  0.17878981901E+02 -0.21392913725E+02  0.40659154784E+02  0.00000000000E+00 0.  1.
         11    1    3    3    0    0 -0.12615316210E+02 -0.19332448138E+02  0.11370906267E+01  0.23112393416E+02  0.51100000000E-03 0. -1.
        -11    1    3    3    0    0 -0.77933200283E+00  0.29418220883E-01  0.51882880741E+01  0.52465757598E+01  0.51100000000E-03 0.  1.
         12    1    3    3    0    0 -0.16200150591E+02  0.14240480157E+01  0.15067535024E+02  0.22169876040E+02  0.00000000000E+00 0. -1.
</event>
<event>
 7    1  0.1098446E-012  0.5052886E+02  0.7816164E-02  0.1300439E+00
        -11   -1    0    0    0    0  0.00000000000E+00  0.00000000000E+00  0.45593999997E+02  0.45594000000E+02  0.51100000000E-03 0.  1.
         11   -1    0    0    0    0 -0.00000000000E+00 -0.00000000000E+00 -0.45593999997E+02  0.45594000000E+02  0.51100000000E-03 0. -1.
    9900012    2    1    2    0    0 -0.59852839989E+01  0.90330409614E+01 -0.39188602006E+02  0.50528856124E+02  0.29999988673E+02 0.  0.
        -12    1    1    2    0    0  0.59852839989E+01 -0.90330409614E+01  0.39188602006E+02  0.40659143876E+02  0.00000000000E+00 0.  1.
         11    1    3    3    0    0 -0.15877716653E+01  0.64164789201E+01 -0.32516639209E+02  0.33181682391E+02  0.51100000000E-03 0. -1.
        -11    1    3    3    0    0  0.56316565282E+01 -0.31519912073E-01 -0.20842076022E+01  0.60050370812E+01  0.51100000000E-03 0.  1.
         12    1    3    3    0    0 -0.10029168862E+02  0.26480819534E+01 -0.45877551953E+01  0.11342136652E+02  0.00000000000E+00 0. -1.
</event>
<event>
 7    1  0.1098446E-012  0.5052885E+02  0.7816164E-02  0.1300439E+00
        -11   -1    0    0    0    0  0.00000000000E+00  0.00000000000E+00  0.45593999997E+02  0.45594000000E+02  0.51100000000E-03 0.  1.
         11   -1    0    0    0    0 -0.00000000000E+00 -0.00000000000E+00 -0.45593999997E+02  0.45594000000E+02  0.51100000000E-03 0. -1.
    9900012    2    1    2    0    0  0.36561121871E+02 -0.70837323596E+01  0.16317827288E+02  0.50528851165E+02  0.29999973601E+02 0.  0.
        -12    1    1    2    0    0 -0.36561121871E+02  0.70837323596E+01 -0.16317827288E+02  0.40659148835E+02  0.00000000000E+00 0.  1.
         11    1    3    3    0    0  0.23707122415E+02 -0.18659858247E+01  0.24081398720E+01  0.23902064643E+02  0.51100000000E-03 0. -1.
        -11    1    3    3    0    0  0.51781235967E+01 -0.11109584730E+02  0.11136785986E+02  0.16560912995E+02  0.51100000000E-03 0.  1.
         12    1    3    3    0    0  0.76758758589E+01  0.58918381952E+01  0.27729014299E+01  0.10065873527E+02  0.00000000000E+00 0. -1.
</event>
<event>
 7    1  0.1098446E-012  0.5052886E+02  0.7816164E-02  0.1300439E+00
        -11   -1    0    0    0    0  0.00000000000E+00  0.00000000000E+00  0.45593999997E+02  0.45594000000E+02  0.51100000000E-03 0.  1.
         11   -1    0    0    0    0 -0.00000000000E+00 -0.00000000000E+00 -0.45593999997E+02  0.45594000000E+02  0.51100000000E-03 0. -1.
    9900012    2    1    2    0    0  0.33995932151E+02  0.16511960524E+02 -0.14993234951E+02  0.50528864035E+02  0.30000012720E+02 0.  0.
        -12    1    1    2    0    0 -0.33995932151E+02 -0.16511960524E+02  0.14993234951E+02  0.40659135965E+02  0.00000000000E+00 0.  1.
         11    1    3    3    0    0  0.13366939285E+02 -0.40459006898E+01 -0.96511213764E+01  0.16976116232E+02  0.51100000000E-03 0.  1.
        -11    1    3    3    0    0  0.20608540394E+02  0.22266113153E+02 -0.70383530566E+01  0.31145306968E+02  0.51100000000E-03 0. -1.
        -12    1    3    3    0    0  0.20452471721E-01 -0.17082519394E+01  0.16962394822E+01  0.24074408348E+01  0.00000000000E+00 0.  1.
</event>
<event>
 7    1  0.1098446E-012  0.5052885E+02  0.7816164E-02  0.1300439E+00
        -11   -1    0    0    0    0  0.00000000000E+00  0.00000000000E+00  0.45593999997E+02  0.45594000000E+02  0.51100000000E-03 0.  1.
         11   -1    0    0    0    0 -0.00000000000E+00 -0.00000000000E+00 -0.45593999997E+02  0.45594000000E+02  0.51100000000E-03 0. -1.
    9900012    2    1    2    0    0 -0.39183774155E+02 -0.10300210696E+02  0.34211624388E+01  0.50528845436E+02  0.29999956187E+02 0.  0.
        -12    1    1    2    0    0  0.39183774155E+02  0.10300210696E+02 -0.34211624388E+01  0.40659154564E+02  0.00000000000E+00 0.  1.
         11    1    3    3    0    0 -0.23314016519E+02  0.74697451676E+01  0.54599606647E+01  0.25082895165E+02  0.51100000000E-03 0. -1.
        -11    1    3    3    0    0 -0.24645143702E+01 -0.61819579972E+01  0.25744913319E+01  0.71357159164E+01  0.51100000000E-03 0.  1.
         12    1    3    3    0    0 -0.13405243266E+02 -0.11587997866E+02 -0.46132895579E+01  0.18310234354E+02  0.00000000000E+00 0. -1.
</event>
<event>
 7    1  0.1098446E-012  0.5052885E+02  0.7816164E-02  0.1300439E+00
        -11   -1    0    0    0    0  0.00000000000E+00  0.00000000000E+00  0.45593999997E+02  0.45594000000E+02  0.51100000000E-03 0.  1.
         11   -1    0    0    0    0 -0.00000000000E+00 -0.00000000000E+00 -0.45593999997E+02  0.45594000000E+02  0.51100000000E-03 0. -1.
    9900012    2    1    2    0    0  0.34849521397E+02  0.71684053595E+01 -0.19679711504E+02  0.50528853159E+02  0.29999979661E+02 0.  0.
        -12    1    1    2    0    0 -0.34849521397E+02 -0.71684053595E+01  0.19679711504E+02  0.40659146841E+02  0.00000000000E+00 0.  1.
         11    1    3    3    0    0  0.13422393629E+02  0.12554622575E+02 -0.11697336583E+02  0.21785474109E+02  0.51100000000E-03 0. -1.
        -11    1    3    3    0    0  0.23859125366E+02 -0.63853854336E+01 -0.83853549842E+01  0.26083427475E+02  0.51100000000E-03 0.  1.
        -12    1    3    3    0    0 -0.24319975986E+01  0.99916821808E+00  0.40298006370E+00  0.26599515746E+01  0.00000000000E+00 0.  1.
</event>
<event>
 7    1  0.1098446E-012  0.5052886E+02  0.7816164E-02  0.1300439E+00
        -11   -1    0    0    0    0  0.00000000000E+00  0.00000000000E+00  0.45593999997E+02  0.45594000000E+02  0.51100000000E-03 0.  1.
         11   -1    0    0    0    0 -0.00000000000E+00 -0.00000000000E+00 -0.45593999997E+02  0.45594000000E+02  0.51100000000E-03 0. -1.
    9900012    2    1    2    0    0 -0.36332488452E+02  0.12386314198E+02 -0.13405033219E+02  0.50528863116E+02  0.30000009928E+02 0.  0.
        -12    1    1    2    0    0  0.36332488452E+02 -0.12386314198E+02  0.13405033219E+02  0.40659136884E+02  0.00000000000E+00 0.  1.
         11    1    3    3    0    0 -0.10765165477E+02 -0.26053859613E+01 -0.12148792989E+02  0.16439890361E+02  0.51100000000E-03 0. -1.
        -11    1    3    3    0    0 -0.17245995855E+02  0.17637025191E+02 -0.38817057314E+01  0.24971116720E+02  0.51100000000E-03 0.  1.
        -12    1    3    3    0    0 -0.83213271203E+01 -0.26453250320E+01  0.26254655014E+01  0.91178560346E+01  0.00000000000E+00 0.  1.
</event>
<event>
 7    1  0.1098446E-012  0.5052882E+02  0.7816164E-02  0.1300439E+00
        -11   -1    0    0    0    0  0.00000000000E+00  0.00000000000E+00  0.45593999997E+02  0.45594000000E+02  0.51100000000E-03 0.  1.
         11   -1    0    0    0    0 -0.00000000000E+00 -0.00000000000E+00 -0.45593999997E+02  0.45594000000E+02  0.51100000000E-03 0. -1.
    9900012    2    1    2    0    0  0.17788955276E+02  0.24181891401E+02 -0.27421859621E+02  0.50528816700E+02  0.29999868841E+02 0.  0.
        -12    1    1    2    0    0 -0.17788955276E+02 -0.24181891401E+02  0.27421859621E+02  0.40659183300E+02  0.00000000000E+00 0.  1.
         11    1    3    3    0    0  0.69637675889E+01  0.27326283199E+02 -0.24959079790E+02  0.37658670672E+02  0.51100000000E-03 0. -1.
        -11    1    3    3    0    0  0.40718149675E+01 -0.27712307961E+01  0.13483943563E+01  0.51066197093E+01  0.51100000000E-03 0.  1.
         12    1    3    3    0    0  0.67533727197E+01 -0.37316100183E+00 -0.38111741870E+01  0.77635263191E+01  0.00000000000E+00 0. -1.
</event>
<event>
 7    1  0.1098446E-012  0.5052886E+02  0.7816164E-02  0.1300439E+00
        -11   -1    0    0    0    0  0.00000000000E+00  0.00000000000E+00  0.45593999997E+02  0.45594000000E+02  0.51100000000E-03 0.  1.
         11   -1    0    0    0    0 -0.00000000000E+00 -0.00000000000E+00 -0.45593999997E+02  0.45594000000E+02  0.51100000000E-03 0. -1.
    9900012    2    1    2    0    0  0.15222112896E+02  0.18600687395E+02 -0.32794316427E+02  0.50528862251E+02  0.30000007298E+02 0.  0.
        -12    1    1    2    0    0 -0.15222112896E+02 -0.18600687395E+02  0.32794316427E+02  0.40659137749E+02  0.00000000000E+00 0.  1.
         11    1    3    3    0    0  0.10247264261E+02  0.11372439374E+02 -0.21420032203E+02  0.26327867023E+02  0.51100000000E-03 0. -1.
        -11    1    3    3    0    0 -0.54868043897E+01  0.28796396140E+00 -0.10207728305E+02  0.11592483041E+02  0.51100000000E-03 0.  1.
        -12    1    3    3    0    0  0.10461653025E+02  0.69402840601E+01 -0.11665559187E+01  0.12608512187E+02  0.00000000000E+00 0.  1.
</event>
<event>
 7    1  0.1098446E-012  0.5052888E+02  0.7816164E-02  0.1300439E+00
        -11   -1    0    0    0    0  0.00000000000E+00  0.00000000000E+00  0.45593999997E+02  0.45594000000E+02  0.51100000000E-03 0. -1.
         11   -1    0    0    0    0 -0.00000000000E+00 -0.00000000000E+00 -0.45593999997E+02  0.45594000000E+02  0.51100000000E-03 0.  1.
    9900012    2    1    2    0    0 -0.40158159347E+02 -0.28788290332E+01 -0.56743981274E+01  0.50528877864E+02  0.30000054756E+02 0.  0.
        -12    1    1    2    0    0  0.40158159347E+02  0.28788290332E+01  0.56743981274E+01  0.40659122136E+02  0.00000000000E+00 0.  1.
         11    1    3    3    0    0 -0.19127367012E+02  0.20742454549E+01  0.74065003341E+01  0.20615889757E+02  0.51100000000E-03 0. -1.
        -11    1    3    3    0    0  0.12457400569E+01 -0.35908429339E+01 -0.47666563276E+01  0.60964771854E+01  0.51100000000E-03 0.  1.
        -12    1    3    3    0    0 -0.22276532392E+02 -0.13622315542E+01 -0.83142421340E+01  0.23816510922E+02  0.00000000000E+00 0.  1.
</event>
<event>
 7    1  0.1098446E-012  0.5052884E+02  0.7816164E-02  0.1300439E+00
        -11   -1    0    0    0    0  0.00000000000E+00  0.00000000000E+00  0.45593999997E+02  0.45594000000E+02  0.51100000000E-03 0.  1.
         11   -1    0    0    0    0 -0.00000000000E+00 -0.00000000000E+00 -0.45593999997E+02  0.45594000000E+02  0.51100000000E-03 0. -1.
    9900012    2    1    2    0    0 -0.28517712185E+02 -0.19629611529E+02 -0.21321021250E+02  0.50528837389E+02  0.29999931729E+02 0.  0.
        -12    1    1    2    0    0  0.28517712185E+02  0.19629611529E+02  0.21321021250E+02  0.40659162611E+02  0.00000000000E+00 0.  1.
         11    1    3    3    0    0 -0.13485784948E+02 -0.96362636019E+01 -0.18195709209E+01  0.16674375864E+02  0.51100000000E-03 0. -1.
        -11    1    3    3    0    0 -0.16735894662E+02 -0.19424501345E+01 -0.19304606864E+02  0.25622863406E+02  0.51100000000E-03 0.  1.
        -12    1    3    3    0    0  0.17039674249E+01 -0.80508977926E+01 -0.19684346479E+00  0.82315981196E+01  0.00000000000E+00 0.  1.
</event>
<event>
 7    1  0.1098446E-012  0.5052887E+02  0.7816164E-02  0.1300439E+00
        -11   -1    0    0    0    0  0.00000000000E+00  0.00000000000E+00  0.45593999997E+02  0.45594000000E+02  0.51100000000E-03 0.  1.
         11   -1    0    0    0    0 -0.00000000000E+00 -0.00000000000E+00 -0.45593999997E+02  0.45594000000E+02  0.51100000000E-03 0. -1.
    9900012    2    1    2    0    0 -0.34575346943E+02  0.14473932404E+02 -0.15754863421E+02  0.50528867485E+02  0.30000023209E+02 0.  0.
        -12    1    1    2    0    0  0.34575346943E+02 -0.14473932404E+02  0.15754863421E+02  0.40659132515E+02  0.00000000000E+00 0.  1.
         11    1    3    3    0    0 -0.39524819414E+01 -0.28161682734E+01 -0.29145573443E+01  0.56610566166E+01  0.51100000000E-03 0. -1.
        -11    1    3    3    0    0 -0.79822450778E+01  0.15557038185E+02  0.22123550776E+01  0.17624760674E+02  0.51100000000E-03 0.  1.
        -12    1    3    3    0    0 -0.22640619923E+02  0.17330624926E+01 -0.15052661154E+02  0.27243050195E+02  0.00000000000E+00 0.  1.
</event>
<event>
 7    1  0.1098446E-012  0.5052886E+02  0.7816164E-02  0.1300439E+00
        -11   -1    0    0    0    0  0.00000000000E+00  0.00000000000E+00  0.45593999997E+02  0.45594000000E+02  0.51100000000E-03 0.  1.
         11   -1    0    0    0    0 -0.00000000000E+00 -0.00000000000E+00 -0.45593999997E+02  0.45594000000E+02  0.51100000000E-03 0. -1.
    9900012    2    1    2    0    0 -0.32627470680E+02  0.11134753052E+02 -0.21555309408E+02  0.50528856721E+02  0.29999990489E+02 0.  0.
        -12    1    1    2    0    0  0.32627470680E+02 -0.11134753052E+02  0.21555309408E+02  0.40659143279E+02  0.00000000000E+00 0.  1.
         11    1    3    3    0    0 -0.45243031945E+01  0.10365968546E+02 -0.16818729542E+02  0.20268011421E+02  0.51100000000E-03 0. -1.
        -11    1    3    3    0    0 -0.40909358553E+01 -0.10446003117E+01  0.27553462149E+01  0.50417138960E+01  0.51100000000E-03 0.  1.
         12    1    3    3    0    0 -0.24012231630E+02  0.18133848183E+01 -0.74919260809E+01  0.25219131404E+02  0.00000000000E+00 0. -1.
</event>
<event>
 7    1  0.1098446E-012  0.5052886E+02  0.7816164E-02  0.1300439E+00
        -11   -1    0    0    0    0  0.00000000000E+00  0.00000000000E+00  0.45593999997E+02  0.45594000000E+02  0.51100000000E-03 0.  1.
         11   -1    0    0    0    0 -0.00000000000E+00 -0.00000000000E+00 -0.45593999997E+02  0.45594000000E+02  0.51100000000E-03 0. -1.
    9900012    2    1    2    0    0  0.39599756796E+02  0.85156094332E+01  0.35368211593E+01  0.50528862697E+02  0.30000008653E+02 0.  0.
        -12    1    1    2    0    0 -0.39599756796E+02 -0.85156094332E+01 -0.35368211593E+01  0.40659137303E+02  0.00000000000E+00 0.  1.
         11    1    3    3    0    0  0.12753121105E+02  0.13015028064E+02  0.37274258504E+01  0.18599106354E+02  0.51100000000E-03 0. -1.
        -11    1    3    3    0    0  0.71820771697E+01 -0.92092450001E+01 -0.73379021366E+00  0.11701746634E+02  0.51100000000E-03 0.  1.
        -12    1    3    3    0    0  0.19664558522E+02  0.47098263693E+01  0.54318552261E+00  0.20228009709E+02  0.00000000000E+00 0.  1.
</event>
<event>
 7    1  0.1098446E-012  0.5052886E+02  0.7816164E-02  0.1300439E+00
        -11   -1    0    0    0    0  0.00000000000E+00  0.00000000000E+00  0.45593999997E+02  0.45594000000E+02  0.51100000000E-03 0.  1.
         11   -1    0    0    0    0 -0.00000000000E+00 -0.00000000000E+00 -0.45593999997E+02  0.45594000000E+02  0.51100000000E-03 0. -1.
    9900012    2    1    2    0    0 -0.12563314546E+02 -0.15795253218E+02 -0.35296447048E+02  0.50528855016E+02  0.29999985307E+02 0.  0.
        -12    1    1    2    0    0  0.12563314546E+02  0.15795253218E+02  0.35296447048E+02  0.40659144984E+02  0.00000000000E+00 0.  1.
         11    1    3    3    0    0 -0.14488758691E+02  0.30250050455E+01 -0.12154983424E+02  0.19152503915E+02  0.51100000000E-03 0. -1.
        -11    1    3    3    0    0  0.22224505047E+01 -0.75360813641E+01 -0.32447551671E+01  0.85006026214E+01  0.51100000000E-03 0.  1.
         12    1    3    3    0    0 -0.29700636011E+00 -0.11284176900E+02 -0.19896708457E+02  0.22875748480E+02  0.00000000000E+00 0. -1.
</event>
<event>
 7    1  0.1098446E-012  0.5052884E+02  0.7816164E-02  0.1300439E+00
        -11   -1    0    0    0    0  0.00000000000E+00  0.00000000000E+00  0.45593999997E+02  0.45594000000E+02  0.51100000000E-03 0.  1.
         11   -1    0    0    0    0 -0.00000000000E+00 -0.00000000000E+00 -0.45593999997E+02  0.45594000000E+02  0.51100000000E-03 0. -1.
    9900012    2    1    2    0    0 -0.36134391842E+02  0.22373692959E+01 -0.18505878484E+02  0.50528835798E+02  0.29999926891E+02 0.  0.
        -12    1    1    2    0    0  0.36134391842E+02 -0.22373692959E+01  0.18505878484E+02  0.40659164202E+02  0.00000000000E+00 0.  1.
         11    1    3    3    0    0 -0.24482464816E+02  0.10301541739E+02 -0.11082729893E+02  0.28780892061E+02  0.51100000000E-03 0. -1.
        -11    1    3    3    0    0 -0.97803890464E+01 -0.93358113796E+01  0.47789566145E+00  0.13529292980E+02  0.51100000000E-03 0.  1.
        -12    1    3    3    0    0 -0.18715379794E+01  0.12716389367E+01 -0.79010442522E+01  0.82186507573E+01  0.00000000000E+00 0.  1.
</event>
<event>
 7    1  0.1098446E-012  0.5052886E+02  0.7816164E-02  0.1300439E+00
        -11   -1    0    0    0    0  0.00000000000E+00  0.00000000000E+00  0.45593999997E+02  0.45594000000E+02  0.51100000000E-03 0.  1.
         11   -1    0    0    0    0 -0.00000000000E+00 -0.00000000000E+00 -0.45593999997E+02  0.45594000000E+02  0.51100000000E-03 0. -1.
    9900012    2    1    2    0    0  0.19638542436E+02  0.18525178336E+02 -0.30402489715E+02  0.50528856351E+02  0.29999989363E+02 0.  0.
        -12    1    1    2    0    0 -0.19638542436E+02 -0.18525178336E+02  0.30402489715E+02  0.40659143649E+02  0.00000000000E+00 0.  1.
         11    1    3    3    0    0  0.17948562752E+02  0.47288683140E+01 -0.53698900757E+01  0.19322236415E+02  0.51100000000E-03 0.  1.
        -11    1    3    3    0    0  0.61799456200E+01  0.12522363096E+02 -0.18542756388E+02  0.23212822321E+02  0.51100000000E-03 0. -1.
        -12    1    3    3    0    0 -0.44899659359E+01  0.12739469263E+01 -0.64898432515E+01  0.79937976148E+01  0.00000000000E+00 0.  1.
</event>
<event>
 7    1  0.1098446E-012  0.5052887E+02  0.7816164E-02  0.1300439E+00
        -11   -1    0    0    0    0  0.00000000000E+00  0.00000000000E+00  0.45593999997E+02  0.45594000000E+02  0.51100000000E-03 0. -1.
         11   -1    0    0    0    0 -0.00000000000E+00 -0.00000000000E+00 -0.45593999997E+02  0.45594000000E+02  0.51100000000E-03 0.  1.
    9900012    2    1    2    0    0  0.30494997439E+02 -0.26677394011E+02  0.33966016324E+01  0.50528866676E+02  0.30000020747E+02 0.  0.
        -12    1    1    2    0    0 -0.30494997439E+02  0.26677394011E+02 -0.33966016324E+01  0.40659133324E+02  0.00000000000E+00 0.  1.
         11    1    3    3    0    0  0.21676899798E+02 -0.19707293996E+02 -0.22072958241E+01  0.29379203131E+02  0.51100000000E-03 0. -1.
        -11    1    3    3    0    0  0.78309081273E+01 -0.58316836721E+01  0.11487435110E+02  0.15076233688E+02  0.51100000000E-03 0.  1.
        -12    1    3    3    0    0  0.98718951373E+00 -0.11384163437E+01 -0.58835376535E+01  0.60734298570E+01  0.00000000000E+00 0.  1.
</event>
<event>
 7    1  0.1098446E-012  0.5052885E+02  0.7816164E-02  0.1300439E+00
        -11   -1    0    0    0    0  0.00000000000E+00  0.00000000000E+00  0.45593999997E+02  0.45594000000E+02  0.51100000000E-03 0.  1.
         11   -1    0    0    0    0 -0.00000000000E+00 -0.00000000000E+00 -0.45593999997E+02  0.45594000000E+02  0.51100000000E-03 0. -1.
    9900012    2    1    2    0    0  0.45538089276E+01 -0.28867069131E+02 -0.28268738693E+02  0.50528850436E+02  0.29999971386E+02 0.  0.
        -12    1    1    2    0    0 -0.45538089276E+01  0.28867069131E+02  0.28268738693E+02  0.40659149564E+02  0.00000000000E+00 0.  1.
         11    1    3    3    0    0  0.10245229351E+02 -0.18026205606E+02 -0.31534857205E+02  0.37740641651E+02  0.51100000000E-03 0. -1.
        -11    1    3    3    0    0 -0.26284687094E+01 -0.55956962117E+01  0.24897401964E+01  0.66647933469E+01  0.51100000000E-03 0.  1.
         12    1    3    3    0    0 -0.30629517136E+01 -0.52451673135E+01  0.77637831598E+00  0.61234154388E+01  0.00000000000E+00 0. -1.
</event>
<event>
 7    1  0.1098446E-012  0.5052887E+02  0.7816164E-02  0.1300439E+00
        -11   -1    0    0    0    0  0.00000000000E+00  0.00000000000E+00  0.45593999997E+02  0.45594000000E+02  0.51100000000E-03 0.  1.
         11   -1    0    0    0    0 -0.00000000000E+00 -0.00000000000E+00 -0.45593999997E+02  0.45594000000E+02  0.51100000000E-03 0. -1.
    9900012    2    1    2    0    0 -0.27011653266E+02 -0.30244326634E+02  0.29692233888E+01  0.50528868268E+02  0.30000025587E+02 0.  0.
        -12    1    1    2    0    0  0.27011653266E+02  0.30244326634E+02 -0.29692233888E+01  0.40659131732E+02  0.00000000000E+00 0.  1.
         11    1    3    3    0    0  0.45582355510E+01 -0.12907616156E+02  0.17514404529E+01  0.13800420649E+02  0.51100000000E-03 0. -1.
        -11    1    3    3    0    0 -0.16387553221E+02 -0.77309819703E+01  0.39797043915E+01  0.18551496708E+02  0.51100000000E-03 0.  1.
         12    1    3    3    0    0 -0.15182335596E+02 -0.96057285070E+01 -0.27619214556E+01  0.18176950911E+02  0.00000000000E+00 0. -1.
</event>
<event>
 7    1  0.1098446E-012  0.5052885E+02  0.7816164E-02  0.1300439E+00
        -11   -1    0    0    0    0  0.00000000000E+00  0.00000000000E+00  0.45593999997E+02  0.45594000000E+02  0.51100000000E-03 0.  1.
         11   -1    0    0    0    0 -0.00000000000E+00 -0.00000000000E+00 -0.45593999997E+02  0.45594000000E+02  0.51100000000E-03 0. -1.
    9900012    2    1    2    0    0 -0.49221832356E+01  0.10041969718E+02 -0.39090889947E+02  0.50528847027E+02  0.29999961022E+02 0.  0.
        -12    1    1    2    0    0  0.49221832356E+01 -0.10041969718E+02  0.39090889947E+02  0.40659152973E+02  0.00000000000E+00 0.  1.
         11    1    3    3    0    0 -0.33212908067E+01  0.13028540736E+02 -0.11089877471E+02  0.17428689822E+02  0.51100000000E-03 0. -1.
        -11    1    3    3    0    0 -0.28927179209E+01 -0.88640248994E+01 -0.82405100449E+01  0.12443663466E+02  0.51100000000E-03 0.  1.
         12    1    3    3    0    0  0.12918254920E+01  0.58774538820E+01 -0.19760502431E+02  0.20656493739E+02  0.00000000000E+00 0. -1.
</event>
<event>
 7    1  0.1098446E-012  0.5052886E+02  0.7816164E-02  0.1300439E+00
        -11   -1    0    0    0    0  0.00000000000E+00  0.00000000000E+00  0.45593999997E+02  0.45594000000E+02  0.51100000000E-03 0.  1.
         11   -1    0    0    0    0 -0.00000000000E+00 -0.00000000000E+00 -0.45593999997E+02  0.45594000000E+02  0.51100000000E-03 0. -1.
    9900012    2    1    2    0    0 -0.67644344786E+01  0.39548117136E+02 -0.65844346050E+01  0.50528856848E+02  0.29999990875E+02 0.  0.
        -12    1    1    2    0    0  0.67644344786E+01 -0.39548117136E+02  0.65844346050E+01  0.40659143152E+02  0.00000000000E+00 0.  1.
         11    1    3    3    0    0 -0.12001769720E+02  0.18428138139E+02  0.44127484216E+00  0.21996215025E+02  0.51100000000E-03 0. -1.
        -11    1    3    3    0    0 -0.44228705358E+00  0.52849095209E+01 -0.10122048863E+02  0.11427237633E+02  0.51100000000E-03 0.  1.
        -12    1    3    3    0    0  0.56796222946E+01  0.15835069476E+02  0.30963394160E+01  0.17105404190E+02  0.00000000000E+00 0.  1.
</event>
<event>
 7    1  0.1098446E-012  0.5052886E+02  0.7816164E-02  0.1300439E+00
        -11   -1    0    0    0    0  0.00000000000E+00  0.00000000000E+00  0.45593999997E+02  0.45594000000E+02  0.51100000000E-03 0. -1.
         11   -1    0    0    0    0 -0.00000000000E+00 -0.00000000000E+00 -0.45593999997E+02  0.45594000000E+02  0.51100000000E-03 0.  1.
    9900012    2    1    2    0    0 -0.36437911017E+02 -0.35939102439E+01  0.17678454509E+02  0.50528864447E+02  0.30000013972E+02 0.  0.
        -12    1    1    2    0    0  0.36437911017E+02  0.35939102439E+01 -0.17678454509E+02  0.40659135553E+02  0.00000000000E+00 0.  1.
         11    1    3    3    0    0 -0.34305894883E+02 -0.62091098338E+01  0.24361549900E+02  0.42531548085E+02  0.51100000000E-03 0. -1.
        -11    1    3    3    0    0 -0.20185516663E+01  0.21677398759E+01 -0.27646772311E+01  0.40518005199E+01  0.51100000000E-03 0.  1.
         12    1    3    3    0    0 -0.11346446755E+00  0.44745971394E+00 -0.39184181605E+01  0.39455158422E+01  0.00000000000E+00 0. -1.
</event>
<event>
 7    1  0.1098446E-012  0.5052886E+02  0.7816164E-02  0.1300439E+00
        -11   -1    0    0    0    0  0.00000000000E+00  0.00000000000E+00  0.45593999997E+02  0.45594000000E+02  0.51100000000E-03 0. -1.
         11   -1    0    0    0    0 -0.00000000000E+00 -0.00000000000E+00 -0.45593999997E+02  0.45594000000E+02  0.51100000000E-03 0.  1.
    9900012    2    1    2    0    0  0.28975287641E+02 -0.21078407578E+02  0.19217155023E+02  0.50528860719E+02  0.30000002640E+02 0.  0.
        -12    1    1    2    0    0 -0.28975287641E+02  0.21078407578E+02 -0.19217155023E+02  0.40659139281E+02  0.00000000000E+00 0.  1.
         11    1    3    3    0    0  0.22200419719E+02 -0.19667019654E+02  0.16437083891E+02  0.33909114185E+02  0.51100000000E-03 0. -1.
        -11    1    3    3    0    0  0.33474744794E+01 -0.13866939486E+01 -0.61034620173E+01  0.70979401488E+01  0.51100000000E-03 0.  1.
        -12    1    3    3    0    0  0.34273934433E+01 -0.24693976210E-01  0.88835331496E+01  0.95218063847E+01  0.00000000000E+00 0.  1.
</event>
<event>
 7    1  0.1098446E-012  0.5052885E+02  0.7816164E-02  0.1300439E+00
        -11   -1    0    0    0    0  0.00000000000E+00  0.00000000000E+00  0.45593999997E+02  0.45594000000E+02  0.51100000000E-03 0.  1.
         11   -1    0    0    0    0 -0.00000000000E+00 -0.00000000000E+00 -0.45593999997E+02  0.45594000000E+02  0.51100000000E-03 0. -1.
    9900012    2    1    2    0    0  0.38670619014E+02 -0.10634601903E+02 -0.66824158306E+01  0.50528853257E+02  0.29999979960E+02 0.  0.
        -12    1    1    2    0    0 -0.38670619014E+02  0.10634601903E+02  0.66824158306E+01  0.40659146743E+02  0.00000000000E+00 0.  1.
         11    1    3    3    0    0  0.65650378253E+01 -0.11241981192E+02 -0.75376449801E+01  0.15043202946E+02  0.51100000000E-03 0. -1.
        -11    1    3    3    0    0  0.19460877906E+02  0.68572662229E+01  0.40404254027E+01  0.21025529877E+02  0.51100000000E-03 0.  1.
         12    1    3    3    0    0  0.12644703282E+02 -0.62498869335E+01 -0.31851962531E+01  0.14460120434E+02  0.00000000000E+00 0. -1.
</event>
<event>
 7    1  0.1098446E-012  0.5052886E+02  0.7816164E-02  0.1300439E+00
        -11   -1    0    0    0    0  0.00000000000E+00  0.00000000000E+00  0.45593999997E+02  0.45594000000E+02  0.51100000000E-03 0.  1.
         11   -1    0    0    0    0 -0.00000000000E+00 -0.00000000000E+00 -0.45593999997E+02  0.45594000000E+02  0.51100000000E-03 0. -1.
    9900012    2    1    2    0    0  0.31924231446E+02  0.12179660799E+02 -0.22037800367E+02  0.50528864057E+02  0.30000012788E+02 0.  0.
        -12    1    1    2    0    0 -0.31924231446E+02 -0.12179660799E+02  0.22037800367E+02  0.40659135943E+02  0.00000000000E+00 0.  1.
         11    1    3    3    0    0  0.19873867411E+02  0.13463417643E+02 -0.24841588275E+02  0.34544735183E+02  0.51100000000E-03 0. -1.
        -11    1    3    3    0    0  0.89296008253E+01  0.48743928369E+00  0.63274234962E+01  0.10954983173E+02  0.51100000000E-03 0.  1.
        -12    1    3    3    0    0  0.31207632095E+01 -0.17711961279E+01 -0.35236355877E+01  0.50291457016E+01  0.00000000000E+00 0.  1.
</event>
<event>
 7    1  0.1098446E-012  0.5052887E+02  0.7816164E-02  0.1300439E+00
        -11   -1    0    0    0    0  0.00000000000E+00  0.00000000000E+00  0.45593999997E+02  0.45594000000E+02  0.51100000000E-03 0. -1.
         11   -1    0    0    0    0 -0.00000000000E+00 -0.00000000000E+00 -0.45593999997E+02  0.45594000000E+02  0.51100000000E-03 0.  1.
    9900012    2    1    2    0    0 -0.38495598975E+02  0.80020155908E+01  0.10354795739E+02  0.50528865863E+02  0.30000018277E+02 0.  0.
        -12    1    1    2    0    0  0.38495598975E+02 -0.80020155908E+01 -0.10354795739E+02  0.40659134137E+02  0.00000000000E+00 0.  1.
         11    1    3    3    0    0 -0.28154437734E+01 -0.51272880353E+01  0.10201190713E+02  0.11759255863E+02  0.51100000000E-03 0. -1.
        -11    1    3    3    0    0 -0.15148643769E+02  0.91725106540E+01  0.17726384187E+01  0.17797713532E+02  0.51100000000E-03 0.  1.
         12    1    3    3    0    0 -0.20531511433E+02  0.39567929721E+01 -0.16190333926E+01  0.20971896468E+02  0.00000000000E+00 0. -1.
</event>
<event>
 7    1  0.1098446E-012  0.5052886E+02  0.7816164E-02  0.1300439E+00
        -11   -1    0    0    0    0  0.00000000000E+00  0.00000000000E+00  0.45593999997E+02  0.45594000000E+02  0.51100000000E-03 0.  1.
         11   -1    0    0    0    0 -0.00000000000E+00 -0.00000000000E+00 -0.45593999997E+02  0.45594000000E+02  0.51100000000E-03 0. -1.
    9900012    2    1    2    0    0  0.99765282982E+01 -0.62386217458E+01 -0.38919329669E+02  0.50528859083E+02  0.29999997670E+02 0.  0.
        -12    1    1    2    0    0 -0.99765282982E+01  0.62386217458E+01  0.38919329669E+02  0.40659140917E+02  0.00000000000E+00 0.  1.
         11    1    3    3    0    0 -0.33009125722E+01 -0.48861367713E+01  0.23218015402E+01  0.63372800956E+01  0.51100000000E-03 0.  1.
        -11    1    3    3    0    0  0.65689411605E+01 -0.16907168000E+01 -0.32321839544E+02  0.33025911389E+02  0.51100000000E-03 0. -1.
        -12    1    3    3    0    0  0.67084997100E+01  0.33823182546E+00 -0.89192916649E+01  0.11165667599E+02  0.00000000000E+00 0.  1.
</event>
<event>
 7    1  0.1098446E-012  0.5052886E+02  0.7816164E-02  0.1300439E+00
        -11   -1    0    0    0    0  0.00000000000E+00  0.00000000000E+00  0.45593999997E+02  0.45594000000E+02  0.51100000000E-03 0.  1.
         11   -1    0    0    0    0 -0.00000000000E+00 -0.00000000000E+00 -0.45593999997E+02  0.45594000000E+02  0.51100000000E-03 0. -1.
    9900012    2    1    2    0    0 -0.43889978621E+01 -0.16667860878E+02 -0.36825056786E+02  0.50528859628E+02  0.29999999326E+02 0.  0.
        -12    1    1    2    0    0  0.43889978621E+01  0.16667860878E+02  0.36825056786E+02  0.40659140372E+02  0.00000000000E+00 0.  1.
         11    1    3    3    0    0  0.51665380902E+01 -0.15053139284E+02 -0.12168423765E+02  0.20033987505E+02  0.51100000000E-03 0. -1.
        -11    1    3    3    0    0 -0.20934458844E+01  0.56723779913E+01 -0.37064126730E+01  0.70919590319E+01  0.51100000000E-03 0.  1.
         12    1    3    3    0    0 -0.74620900680E+01 -0.72870995850E+01 -0.20950220348E+02  0.23402913092E+02  0.00000000000E+00 0. -1.
</event>
<event>
 7    1  0.1098446E-012  0.5052885E+02  0.7816164E-02  0.1300439E+00
        -11   -1    0    0    0    0  0.00000000000E+00  0.00000000000E+00  0.45593999997E+02  0.45594000000E+02  0.51100000000E-03 0. -1.
         11   -1    0    0    0    0 -0.00000000000E+00 -0.00000000000E+00 -0.45593999997E+02  0.45594000000E+02  0.51100000000E-03 0.  1.
    9900012    2    1    2    0    0 -0.28526643840E+02  0.27806235159E+02  0.81369591052E+01  0.50528853108E+02  0.29999979506E+02 0.  0.
        -12    1    1    2    0    0  0.28526643840E+02 -0.27806235159E+02 -0.81369591052E+01  0.40659146892E+02  0.00000000000E+00 0.  1.
         11    1    3    3    0    0 -0.71132390660E+00  0.64247565574E+01 -0.22986949096E+01  0.68605741065E+01  0.51100000000E-03 0. -1.
        -11    1    3    3    0    0 -0.16950710361E+02  0.43871270313E+01  0.14921651107E+02  0.23004980707E+02  0.51100000000E-03 0.  1.
        -12    1    3    3    0    0 -0.10864609573E+02  0.16994351571E+02 -0.44859970918E+01  0.20663298294E+02  0.00000000000E+00 0.  1.
</event>
<event>
 7    1  0.1098446E-012  0.5052887E+02  0.7816164E-02  0.1300439E+00
        -11   -1    0    0    0    0  0.00000000000E+00  0.00000000000E+00  0.45593999997E+02  0.45594000000E+02  0.51100000000E-03 0.  1.
         11   -1    0    0    0    0 -0.00000000000E+00 -0.00000000000E+00 -0.45593999997E+02  0.45594000000E+02  0.51100000000E-03 0. -1.
    9900012    2    1    2    0    0  0.23889080756E+02  0.11078815588E+02 -0.30979616503E+02  0.50528868518E+02  0.30000026347E+02 0.  0.
        -12    1    1    2    0    0 -0.23889080756E+02 -0.11078815588E+02  0.30979616503E+02  0.40659131482E+02  0.00000000000E+00 0.  1.
         11    1    3    3    0    0  0.31976217414E+01  0.13886620641E+02 -0.51387431408E+01  0.15148257291E+02  0.51100000000E-03 0. -1.
        -11    1    3    3    0    0  0.18386823468E+02  0.10204142575E+01 -0.15335557574E+02  0.23964470552E+02  0.51100000000E-03 0.  1.
         12    1    3    3    0    0  0.23046355464E+01 -0.38282193102E+01 -0.10505315789E+02  0.11416140675E+02  0.00000000000E+00 0. -1.
</event>
<event>
 7    1  0.1098446E-012  0.5052884E+02  0.7816164E-02  0.1300439E+00
        -11   -1    0    0    0    0  0.00000000000E+00  0.00000000000E+00  0.45593999997E+02  0.45594000000E+02  0.51100000000E-03 0.  1.
         11   -1    0    0    0    0 -0.00000000000E+00 -0.00000000000E+00 -0.45593999997E+02  0.45594000000E+02  0.51100000000E-03 0. -1.
    9900012    2    1    2    0    0  0.28800782538E+02 -0.28581352570E+02 -0.26054324247E+01  0.50528842758E+02  0.29999948046E+02 0.  0.
        -12    1    1    2    0    0 -0.28800782538E+02  0.28581352570E+02  0.26054324247E+01  0.40659157242E+02  0.00000000000E+00 0.  1.
         11    1    3    3    0    0  0.22992552010E+02 -0.10901772125E+02 -0.11798317537E+02  0.28048286585E+02  0.51100000000E-03 0. -1.
        -11    1    3    3    0    0 -0.89630377723E+00 -0.35821859200E+01 -0.10140389235E+01  0.38293199953E+01  0.51100000000E-03 0.  1.
         12    1    3    3    0    0  0.67045343055E+01 -0.14097394525E+02  0.10206924036E+02  0.18651236177E+02  0.00000000000E+00 0. -1.
</event>
<event>
 7    1  0.1098446E-012  0.5052887E+02  0.7816164E-02  0.1300439E+00
        -11   -1    0    0    0    0  0.00000000000E+00  0.00000000000E+00  0.45593999997E+02  0.45594000000E+02  0.51100000000E-03 0. -1.
         11   -1    0    0    0    0 -0.00000000000E+00 -0.00000000000E+00 -0.45593999997E+02  0.45594000000E+02  0.51100000000E-03 0.  1.
    9900012    2    1    2    0    0 -0.44644764302E+01 -0.37373182223E+02  0.15377861180E+02  0.50528869246E+02  0.30000028559E+02 0.  0.
        -12    1    1    2    0    0  0.44644764302E+01  0.37373182223E+02 -0.15377861180E+02  0.40659130754E+02  0.00000000000E+00 0.  1.
         11    1    3    3    0    0  0.58946445758E+01 -0.12639203067E+02  0.90597467385E+01  0.16630553210E+02  0.51100000000E-03 0. -1.
        -11    1    3    3    0    0 -0.68592254905E+01 -0.94619662678E+01 -0.67499540724E+01  0.13495912723E+02  0.51100000000E-03 0.  1.
        -12    1    3    3    0    0 -0.34998955154E+01 -0.15272012888E+02  0.13068068514E+02  0.20402403313E+02  0.00000000000E+00 0.  1.
</event>
<event>
 7    1  0.1098446E-012  0.5052886E+02  0.7816164E-02  0.1300439E+00
        -11   -1    0    0    0    0  0.00000000000E+00  0.00000000000E+00  0.45593999997E+02  0.45594000000E+02  0.51100000000E-03 0.  1.
         11   -1    0    0    0    0 -0.00000000000E+00 -0.00000000000E+00 -0.45593999997E+02  0.45594000000E+02  0.51100000000E-03 0. -1.
    9900012    2    1    2    0    0  0.74397753539E+01 -0.34210654227E+02 -0.20674776795E+02  0.50528861845E+02  0.30000006064E+02 0.  0.
        -12    1    1    2    0    0 -0.74397753539E+01  0.34210654227E+02  0.20674776795E+02  0.40659138155E+02  0.00000000000E+00 0.  1.
         11    1    3    3    0    0  0.11502726481E+02 -0.35274896893E+01 -0.65906338792E+01  0.13718321880E+02  0.51100000000E-03 0. -1.
        -11    1    3    3    0    0 -0.66507044160E+01 -0.25860167617E+02 -0.65415865911E+01  0.27491316698E+02  0.51100000000E-03 0.  1.
         12    1    3    3    0    0  0.25877532889E+01 -0.48229969207E+01 -0.75425563251E+01  0.93192232668E+01  0.00000000000E+00 0. -1.
</event>
<event>
 7    1  0.1098446E-012  0.5052887E+02  0.7816164E-02  0.1300439E+00
        -11   -1    0    0    0    0  0.00000000000E+00  0.00000000000E+00  0.45593999997E+02  0.45594000000E+02  0.51100000000E-03 0.  1.
         11   -1    0    0    0    0 -0.00000000000E+00 -0.00000000000E+00 -0.45593999997E+02  0.45594000000E+02  0.51100000000E-03 0. -1.
    9900012    2    1    2    0    0  0.47196486464E+01  0.14942753301E+02 -0.37518049205E+02  0.50528868483E+02  0.30000026240E+02 0.  0.
        -12    1    1    2    0    0 -0.47196486464E+01 -0.14942753301E+02  0.37518049205E+02  0.40659131517E+02  0.00000000000E+00 0.  1.
         11    1    3    3    0    0 -0.18296550130E+01 -0.27249253839E+01 -0.69983102831E+01  0.77297608562E+01  0.51100000000E-03 0. -1.
        -11    1    3    3    0    0  0.89356700142E+01  0.12350710759E+02 -0.41583774734E+01  0.15801213825E+02  0.51100000000E-03 0.  1.
        -12    1    3    3    0    0 -0.23863663548E+01  0.53169679261E+01 -0.26361361449E+02  0.26997893802E+02  0.00000000000E+00 0.  1.
</event>
<event>
 7    1  0.1098446E-012  0.5052886E+02  0.7816164E-02  0.1300439E+00
        -11   -1    0    0    0    0  0.00000000000E+00  0.00000000000E+00  0.45593999997E+02  0.45594000000E+02  0.51100000000E-03 0.  1.
         11   -1    0    0    0    0 -0.00000000000E+00 -0.00000000000E+00 -0.45593999997E+02  0.45594000000E+02  0.51100000000E-03 0. -1.
    9900012    2    1    2    0    0  0.61384247960E+01 -0.33908601995E+02 -0.21579893025E+02  0.50528864112E+02  0.30000012954E+02 0.  0.
        -12    1    1    2    0    0 -0.61384247960E+01  0.33908601995E+02  0.21579893025E+02  0.40659135888E+02  0.00000000000E+00 0.  1.
         11    1    3    3    0    0  0.11068332486E+02 -0.14744867435E+02 -0.14540752104E+02  0.23480898018E+02  0.51100000000E-03 0. -1.
        -11    1    3    3    0    0 -0.77130601921E+01 -0.11623396962E+01 -0.10342228858E+01  0.78684146011E+01  0.51100000000E-03 0.  1.
         12    1    3    3    0    0  0.27831525017E+01 -0.18001394863E+02 -0.60049180353E+01  0.19179551493E+02  0.00000000000E+00 0. -1.
</event>
<event>
 7    1  0.1098446E-012  0.5052886E+02  0.7816164E-02  0.1300439E+00
        -11   -1    0    0    0    0  0.00000000000E+00  0.00000000000E+00  0.45593999997E+02  0.45594000000E+02  0.51100000000E-03 0.  1.
         11   -1    0    0    0    0 -0.00000000000E+00 -0.00000000000E+00 -0.45593999997E+02  0.45594000000E+02  0.51100000000E-03 0. -1.
    9900012    2    1    2    0    0 -0.34197672894E+02  0.15758920428E+02 -0.15340830014E+02  0.50528862405E+02  0.30000007768E+02 0.  0.
        -12    1    1    2    0    0  0.34197672894E+02 -0.15758920428E+02  0.15340830014E+02  0.40659137595E+02  0.00000000000E+00 0.  1.
         11    1    3    3    0    0 -0.69234363781E+01  0.44557786090E+01  0.74368160101E+01  0.11094781067E+02  0.51100000000E-03 0. -1.
        -11    1    3    3    0    0 -0.21488724131E+01  0.55826482951E+01 -0.70473436251E+01  0.92438448205E+01  0.51100000000E-03 0.  1.
         12    1    3    3    0    0 -0.25125364103E+02  0.57204935234E+01 -0.15730302399E+02  0.30190236518E+02  0.00000000000E+00 0. -1.
</event>
<event>
 7    1  0.1098446E-012  0.5052888E+02  0.7816164E-02  0.1300439E+00
        -11   -1    0    0    0    0  0.00000000000E+00  0.00000000000E+00  0.45593999997E+02  0.45594000000E+02  0.51100000000E-03 0.  1.
         11   -1    0    0    0    0 -0.00000000000E+00 -0.00000000000E+00 -0.45593999997E+02  0.45594000000E+02  0.51100000000E-03 0. -1.
    9900012    2    1    2    0    0 -0.10171631368E+02  0.86513162484E+01 -0.38403858295E+02  0.50528884301E+02  0.30000074320E+02 0.  0.
        -12    1    1    2    0    0  0.10171631368E+02 -0.86513162484E+01  0.38403858295E+02  0.40659115699E+02  0.00000000000E+00 0.  1.
         11    1    3    3    0    0 -0.78132414426E+01  0.50668982128E+01 -0.14671902682E+02  0.17377713541E+02  0.51100000000E-03 0. -1.
        -11    1    3    3    0    0  0.10120091356E+02 -0.11486751846E+00 -0.10894896813E+02  0.14870380641E+02  0.51100000000E-03 0.  1.
        -12    1    3    3    0    0 -0.12478481282E+02  0.36992855541E+01 -0.12837058800E+02  0.18280790118E+02  0.00000000000E+00 0.  1.
</event>
<event>
 7    1  0.1098446E-012  0.5052885E+02  0.7816164E-02  0.1300439E+00
        -11   -1    0    0    0    0  0.00000000000E+00  0.00000000000E+00  0.45593999997E+02  0.45594000000E+02  0.51100000000E-03 0. -1.
         11   -1    0    0    0    0 -0.00000000000E+00 -0.00000000000E+00 -0.45593999997E+02  0.45594000000E+02  0.51100000000E-03 0.  1.
    9900012    2    1    2    0    0  0.34794384833E+02  0.20181413142E+02 -0.59352836289E+01  0.50528852886E+02  0.29999978831E+02 0.  0.
        -12    1    1    2    0    0 -0.34794384833E+02 -0.20181413142E+02  0.59352836289E+01  0.40659147114E+02  0.00000000000E+00 0.  1.
         11    1    3    3    0    0  0.16504254286E+02  0.18174884483E+02 -0.21574529689E+01  0.24644906960E+02  0.51100000000E-03 0. -1.
        -11    1    3    3    0    0  0.21789927179E+02  0.80670027168E+00 -0.24024092308E+01  0.21936801548E+02  0.51100000000E-03 0.  1.
        -12    1    3    3    0    0 -0.34997966322E+01  0.11998283877E+01 -0.13754214292E+01  0.39471443772E+01  0.00000000000E+00 0.  1.
</event>
<event>
 7    1  0.1098446E-012  0.5052887E+02  0.7816164E-02  0.1300439E+00
        -11   -1    0    0    0    0  0.00000000000E+00  0.00000000000E+00  0.45593999997E+02  0.45594000000E+02  0.51100000000E-03 0.  1.
         11   -1    0    0    0    0 -0.00000000000E+00 -0.00000000000E+00 -0.45593999997E+02  0.45594000000E+02  0.51100000000E-03 0. -1.
    9900012    2    1    2    0    0  0.17566729761E+00  0.33745823969E+02 -0.22679361722E+02  0.50528868892E+02  0.30000027484E+02 0.  0.
        -12    1    1    2    0    0 -0.17566729761E+00 -0.33745823969E+02  0.22679361722E+02  0.40659131108E+02  0.00000000000E+00 0.  1.
         11    1    3    3    0    0 -0.70819993758E+00  0.22677269588E+01 -0.29790156098E+01  0.38103368585E+01  0.51100000000E-03 0. -1.
        -11    1    3    3    0    0 -0.12733885558E+02  0.22095388131E+02 -0.14730378795E+02  0.29450671941E+02  0.51100000000E-03 0.  1.
        -12    1    3    3    0    0  0.13617752793E+02  0.93827088795E+01 -0.49699673167E+01  0.17267860093E+02  0.00000000000E+00 0.  1.
</event>
<event>
 7    1  0.1098446E-012  0.5052886E+02  0.7816164E-02  0.1300439E+00
        -11   -1    0    0    0    0  0.00000000000E+00  0.00000000000E+00  0.45593999997E+02  0.45594000000E+02  0.51100000000E-03 0. -1.
         11   -1    0    0    0    0 -0.00000000000E+00 -0.00000000000E+00 -0.45593999997E+02  0.45594000000E+02  0.51100000000E-03 0.  1.
    9900012    2    1    2    0    0 -0.19041291509E+02 -0.31875973924E+02  0.16568563700E+02  0.50528858359E+02  0.29999995467E+02 0.  0.
        -12    1    1    2    0    0  0.19041291509E+02  0.31875973924E+02 -0.16568563700E+02  0.40659141641E+02  0.00000000000E+00 0.  1.
         11    1    3    3    0    0 -0.21855288978E+02 -0.93157781696E+01  0.88075521538E+01  0.25337923246E+02  0.51100000000E-03 0. -1.
        -11    1    3    3    0    0 -0.27710207947E+00 -0.62848925873E+01 -0.11267872157E+01  0.63911118036E+01  0.51100000000E-03 0.  1.
         12    1    3    3    0    0  0.30910995488E+01 -0.16275303167E+02  0.88877987615E+01  0.18799823309E+02  0.00000000000E+00 0. -1.
</event>
<event>
 7    1  0.1098446E-012  0.5052886E+02  0.7816164E-02  0.1300439E+00
        -11   -1    0    0    0    0  0.00000000000E+00  0.00000000000E+00  0.45593999997E+02  0.45594000000E+02  0.51100000000E-03 0. -1.
         11   -1    0    0    0    0 -0.00000000000E+00 -0.00000000000E+00 -0.45593999997E+02  0.45594000000E+02  0.51100000000E-03 0.  1.
    9900012    2    1    2    0    0  0.26729966577E+02 -0.29036214560E+02  0.97761438903E+01  0.50528857626E+02  0.29999993240E+02 0.  0.
        -12    1    1    2    0    0 -0.26729966577E+02  0.29036214560E+02 -0.97761438903E+01  0.40659142374E+02  0.00000000000E+00 0.  1.
         11    1    3    3    0    0  0.66109196336E+01 -0.75108069209E+01  0.45482782868E+01  0.10991056120E+02  0.51100000000E-03 0. -1.
        -11    1    3    3    0    0  0.10261433396E+02 -0.11672930921E+02 -0.10321070698E+02  0.18656870912E+02  0.51100000000E-03 0.  1.
        -12    1    3    3    0    0  0.98576135472E+01 -0.98524767190E+01  0.15548936301E+02  0.20880930593E+02  0.00000000000E+00 0.  1.
</event>
<event>
 7    1  0.1098446E-012  0.5052875E+02  0.7816164E-02  0.1300439E+00
        -11   -1    0    0    0    0  0.00000000000E+00  0.00000000000E+00  0.45593999997E+02  0.45594000000E+02  0.51100000000E-03 0. -1.
         11   -1    0    0    0    0 -0.00000000000E+00 -0.00000000000E+00 -0.45593999997E+02  0.45594000000E+02  0.51100000000E-03 0.  1.
    9900012    2    1    2    0    0 -0.16167253761E+02  0.67328638051E+01  0.36694178923E+02  0.50528753622E+02  0.29999677108E+02 0.  0.
        -12    1    1    2    0    0  0.16167253761E+02 -0.67328638051E+01 -0.36694178923E+02  0.40659246378E+02  0.00000000000E+00 0.  1.
         11    1    3    3    0    0 -0.20958824920E+00 -0.59026165227E+01  0.63087508151E+00  0.59399337268E+01  0.51100000000E-03 0.  1.
        -11    1    3    3    0    0 -0.19220234991E+02  0.10300774187E+02  0.27217146289E+02  0.34875441708E+02  0.51100000000E-03 0. -1.
        -12    1    3    3    0    0  0.32625694786E+01  0.23347061410E+01  0.88461575520E+01  0.97133781869E+01  0.00000000000E+00 0.  1.
</event>
<event>
 7    1  0.1098446E-012  0.5052887E+02  0.7816164E-02  0.1300439E+00
        -11   -1    0    0    0    0  0.00000000000E+00  0.00000000000E+00  0.45593999997E+02  0.45594000000E+02  0.51100000000E-03 0. -1.
         11   -1    0    0    0    0 -0.00000000000E+00 -0.00000000000E+00 -0.45593999997E+02  0.45594000000E+02  0.51100000000E-03 0.  1.
    9900012    2    1    2    0    0  0.88520509203E+01  0.13662692147E+02  0.37257712940E+02  0.50528866515E+02  0.30000020260E+02 0.  0.
        -12    1    1    2    0    0 -0.88520509203E+01 -0.13662692147E+02 -0.37257712940E+02  0.40659133485E+02  0.00000000000E+00 0.  1.
         11    1    3    3    0    0 -0.15911867640E+01  0.16553316892E+02  0.31646947835E+02  0.35750153608E+02  0.51100000000E-03 0. -1.
        -11    1    3    3    0    0 -0.13741525673E+01 -0.15553150897E+00 -0.69773816097E-01  0.13846855148E+01  0.51100000000E-03 0.  1.
         12    1    3    3    0    0  0.11817390252E+02 -0.27350932356E+01  0.56805389205E+01  0.13394027393E+02  0.00000000000E+00 0. -1.
</event>
<event>
 7    1  0.1098446E-012  0.5052885E+02  0.7816164E-02  0.1300439E+00
        -11   -1    0    0    0    0  0.00000000000E+00  0.00000000000E+00  0.45593999997E+02  0.45594000000E+02  0.51100000000E-03 0. -1.
         11   -1    0    0    0    0 -0.00000000000E+00 -0.00000000000E+00 -0.45593999997E+02  0.45594000000E+02  0.51100000000E-03 0.  1.
    9900012    2    1    2    0    0 -0.85961324643E+01 -0.29768151576E+02  0.26327361178E+02  0.50528852343E+02  0.29999977181E+02 0.  0.
        -12    1    1    2    0    0  0.85961324643E+01  0.29768151576E+02 -0.26327361178E+02  0.40659147657E+02  0.00000000000E+00 0.  1.
         11    1    3    3    0    0 -0.88107186039E+01 -0.23045321631E+02  0.20475347317E+02  0.32061744484E+02  0.51100000000E-03 0. -1.
        -11    1    3    3    0    0  0.18987198599E+01  0.46412646612E+01  0.47819365337E+01  0.69291696498E+01  0.51100000000E-03 0.  1.
        -12    1    3    3    0    0 -0.16841337203E+01 -0.11364094607E+02  0.10700773276E+01  0.11537938209E+02  0.00000000000E+00 0.  1.
</event>
<event>
 7    1  0.1098446E-012  0.5052883E+02  0.7816164E-02  0.1300439E+00
        -11   -1    0    0    0    0  0.00000000000E+00  0.00000000000E+00  0.45593999997E+02  0.45594000000E+02  0.51100000000E-03 0.  1.
         11   -1    0    0    0    0 -0.00000000000E+00 -0.00000000000E+00 -0.45593999997E+02  0.45594000000E+02  0.51100000000E-03 0. -1.
    9900012    2    1    2    0    0 -0.77469989472E+00  0.30645141245E+02 -0.26710359583E+02  0.50528829437E+02  0.29999907556E+02 0.  0.
        -12    1    1    2    0    0  0.77469989472E+00 -0.30645141245E+02  0.26710359583E+02  0.40659170563E+02  0.00000000000E+00 0.  1.
         11    1    3    3    0    0 -0.81556874467E+01  0.12014170262E+01  0.17227103933E+01  0.84217796195E+01  0.51100000000E-03 0. -1.
        -11    1    3    3    0    0  0.35261168149E+01  0.23372571819E+02 -0.23852806203E+02  0.33580753078E+02  0.51100000000E-03 0.  1.
        -12    1    3    3    0    0  0.38548707372E+01  0.60711523994E+01 -0.45802637735E+01  0.85262967396E+01  0.00000000000E+00 0.  1.
</event>
<event>
 7    1  0.1098446E-012  0.5052885E+02  0.7816164E-02  0.1300439E+00
        -11   -1    0    0    0    0  0.00000000000E+00  0.00000000000E+00  0.45593999997E+02  0.45594000000E+02  0.51100000000E-03 0.  1.
         11   -1    0    0    0    0 -0.00000000000E+00 -0.00000000000E+00 -0.45593999997E+02  0.45594000000E+02  0.51100000000E-03 0. -1.
    9900012    2    1    2    0    0 -0.64777052935E+01 -0.36745532780E+02 -0.16154607061E+02  0.50528853741E+02  0.29999981432E+02 0.  0.
        -12    1    1    2    0    0  0.64777052935E+01  0.36745532780E+02  0.16154607061E+02  0.40659146259E+02  0.00000000000E+00 0.  1.
         11    1    3    3    0    0 -0.74088136604E+01 -0.30624794487E+02 -0.12375612524E+02  0.33851504292E+02  0.51100000000E-03 0. -1.
        -11    1    3    3    0    0 -0.28177426630E+01  0.26349974188E+01  0.30829725599E+01  0.49383808255E+01  0.51100000000E-03 0.  1.
        -12    1    3    3    0    0  0.37488510298E+01 -0.87557357125E+01 -0.68619670972E+01  0.11738968624E+02  0.00000000000E+00 0.  1.
</event>
<event>
 7    1  0.1098446E-012  0.5052886E+02  0.7816164E-02  0.1300439E+00
        -11   -1    0    0    0    0  0.00000000000E+00  0.00000000000E+00  0.45593999997E+02  0.45594000000E+02  0.51100000000E-03 0. -1.
         11   -1    0    0    0    0 -0.00000000000E+00 -0.00000000000E+00 -0.45593999997E+02  0.45594000000E+02  0.51100000000E-03 0.  1.
    9900012    2    1    2    0    0 -0.17607971980E+02  0.31297391161E+02  0.19068256939E+02  0.50528858427E+02  0.29999995675E+02 0.  0.
        -12    1    1    2    0    0  0.17607971980E+02 -0.31297391161E+02 -0.19068256939E+02  0.40659141573E+02  0.00000000000E+00 0.  1.
         11    1    3    3    0    0 -0.27188930298E+01  0.18594934621E+02  0.10343322702E+02  0.21451067518E+02  0.51100000000E-03 0. -1.
        -11    1    3    3    0    0 -0.18931065875E+02  0.13924595960E+02  0.77319390796E+01  0.24739897130E+02  0.51100000000E-03 0.  1.
        -12    1    3    3    0    0  0.40419869248E+01 -0.12221394197E+01  0.99299515744E+00  0.43378937797E+01  0.00000000000E+00 0.  1.
</event>
<event>
 7    1  0.1098446E-012  0.5052885E+02  0.7816164E-02  0.1300439E+00
        -11   -1    0    0    0    0  0.00000000000E+00  0.00000000000E+00  0.45593999997E+02  0.45594000000E+02  0.51100000000E-03 0.  1.
         11   -1    0    0    0    0 -0.00000000000E+00 -0.00000000000E+00 -0.45593999997E+02  0.45594000000E+02  0.51100000000E-03 0. -1.
    9900012    2    1    2    0    0  0.35980139724E+02 -0.10512299071E+02 -0.15750785464E+02  0.50528854300E+02  0.29999983132E+02 0.  0.
        -12    1    1    2    0    0 -0.35980139724E+02  0.10512299071E+02  0.15750785464E+02  0.40659145700E+02  0.00000000000E+00 0.  1.
         11    1    3    3    0    0  0.24054419576E+02 -0.17945215162E+01 -0.76757799473E+01  0.25313099508E+02  0.51100000000E-03 0. -1.
        -11    1    3    3    0    0  0.41455732080E+01 -0.57731451400E+01 -0.13519377614E+02  0.15273786477E+02  0.51100000000E-03 0.  1.
        -12    1    3    3    0    0  0.77801469393E+01 -0.29446324148E+01  0.54443720969E+01  0.99419683155E+01  0.00000000000E+00 0.  1.
</event>
<event>
 7    1  0.1098446E-012  0.5052886E+02  0.7816164E-02  0.1300439E+00
        -11   -1    0    0    0    0  0.00000000000E+00  0.00000000000E+00  0.45593999997E+02  0.45594000000E+02  0.51100000000E-03 0.  1.
         11   -1    0    0    0    0 -0.00000000000E+00 -0.00000000000E+00 -0.45593999997E+02  0.45594000000E+02  0.51100000000E-03 0. -1.
    9900012    2    1    2    0    0  0.63050984501E+01 -0.26836650652E+02 -0.29886546771E+02  0.50528858807E+02  0.29999996829E+02 0.  0.
        -12    1    1    2    0    0 -0.63050984501E+01  0.26836650652E+02  0.29886546771E+02  0.40659141193E+02  0.00000000000E+00 0.  1.
         11    1    3    3    0    0 -0.10667498186E+01  0.66770580356E+00  0.49841585261E+01  0.51405858314E+01  0.51100000000E-03 0. -1.
        -11    1    3    3    0    0 -0.23564280797E+00 -0.83622724381E+00 -0.30869486845E+01  0.32068763584E+01  0.51100000000E-03 0.  1.
         12    1    3    3    0    0  0.76074910767E+01 -0.26668129212E+02 -0.31783756613E+02  0.42181396617E+02  0.00000000000E+00 0. -1.
</event>
<event>
 7    1  0.1098446E-012  0.5052886E+02  0.7816164E-02  0.1300439E+00
        -11   -1    0    0    0    0  0.00000000000E+00  0.00000000000E+00  0.45593999997E+02  0.45594000000E+02  0.51100000000E-03 0.  1.
         11   -1    0    0    0    0 -0.00000000000E+00 -0.00000000000E+00 -0.45593999997E+02  0.45594000000E+02  0.51100000000E-03 0. -1.
    9900012    2    1    2    0    0  0.96970612333E+01 -0.28820876906E+02 -0.26990554907E+02  0.50528855932E+02  0.29999988091E+02 0.  0.
        -12    1    1    2    0    0 -0.96970612333E+01  0.28820876906E+02  0.26990554907E+02  0.40659144068E+02  0.00000000000E+00 0.  1.
         11    1    3    3    0    0 -0.47005270610E+01 -0.14493052679E+02 -0.14323157387E+02  0.20911632371E+02  0.51100000000E-03 0. -1.
        -11    1    3    3    0    0  0.98497736706E+01 -0.16238605463E+02 -0.36517222349E+01  0.19340253987E+02  0.51100000000E-03 0.  1.
        -12    1    3    3    0    0  0.45478146237E+01  0.19107812368E+01 -0.90156752845E+01  0.10276969574E+02  0.00000000000E+00 0.  1.
</event>
<event>
 7    1  0.1098446E-012  0.5052884E+02  0.7816164E-02  0.1300439E+00
        -11   -1    0    0    0    0  0.00000000000E+00  0.00000000000E+00  0.45593999997E+02  0.45594000000E+02  0.51100000000E-03 0.  1.
         11   -1    0    0    0    0 -0.00000000000E+00 -0.00000000000E+00 -0.45593999997E+02  0.45594000000E+02  0.51100000000E-03 0. -1.
    9900012    2    1    2    0    0 -0.35201851246E+02  0.12719875650E+02 -0.15880855624E+02  0.50528841830E+02  0.29999945227E+02 0.  0.
        -12    1    1    2    0    0  0.35201851246E+02 -0.12719875650E+02  0.15880855624E+02  0.40659158170E+02  0.00000000000E+00 0.  1.
         11    1    3    3    0    0  0.15386974366E+01  0.41994775730E+01 -0.86503927768E+01  0.97381978385E+01  0.51100000000E-03 0. -1.
        -11    1    3    3    0    0 -0.22661184308E+02  0.10552539110E+02 -0.87490663809E+01  0.26484552454E+02  0.51100000000E-03 0.  1.
         12    1    3    3    0    0 -0.14079364375E+02 -0.20321410334E+01  0.15186035332E+01  0.14306091538E+02  0.00000000000E+00 0. -1.
</event>
<event>
 7    1  0.1098446E-012  0.5052883E+02  0.7816164E-02  0.1300439E+00
        -11   -1    0    0    0    0  0.00000000000E+00  0.00000000000E+00  0.45593999997E+02  0.45594000000E+02  0.51100000000E-03 0.  1.
         11   -1    0    0    0    0 -0.00000000000E+00 -0.00000000000E+00 -0.45593999997E+02  0.45594000000E+02  0.51100000000E-03 0. -1.
    9900012    2    1    2    0    0  0.68703740112E+01  0.13943306487E+02 -0.37570602510E+02  0.50528831196E+02  0.29999912903E+02 0.  0.
        -12    1    1    2    0    0 -0.68703740112E+01 -0.13943306487E+02  0.37570602510E+02  0.40659168804E+02  0.00000000000E+00 0.  1.
         11    1    3    3    0    0  0.11864442894E+02  0.25028267418E+01 -0.53183756685E+01  0.13240629399E+02  0.51100000000E-03 0. -1.
        -11    1    3    3    0    0 -0.41651773944E+01  0.77418668031E+01 -0.32322998113E+02  0.33497185130E+02  0.51100000000E-03 0.  1.
        -12    1    3    3    0    0 -0.82889148820E+00  0.36986129422E+01  0.70771271328E-01  0.37910166669E+01  0.00000000000E+00 0.  1.
</event>
<event>
 7    1  0.1098446E-012  0.5052890E+02  0.7816164E-02  0.1300439E+00
        -11   -1    0    0    0    0  0.00000000000E+00  0.00000000000E+00  0.45593999997E+02  0.45594000000E+02  0.51100000000E-03 0.  1.
         11   -1    0    0    0    0 -0.00000000000E+00 -0.00000000000E+00 -0.45593999997E+02  0.45594000000E+02  0.51100000000E-03 0. -1.
    9900012    2    1    2    0    0  0.84806707991E+01 -0.11973402544E+02 -0.37919362725E+02  0.50528902430E+02  0.30000129426E+02 0.  0.
        -12    1    1    2    0    0 -0.84806707991E+01  0.11973402544E+02  0.37919362725E+02  0.40659097570E+02  0.00000000000E+00 0.  1.
         11    1    3    3    0    0  0.10046636233E+02 -0.13933931526E+02 -0.11184432827E+02  0.20498314206E+02  0.51100000000E-03 0. -1.
        -11    1    3    3    0    0 -0.35318498485E+01  0.44681059261E+01 -0.37347475982E+01  0.68107469343E+01  0.51100000000E-03 0.  1.
        -12    1    3    3    0    0  0.19658844146E+01 -0.25075769441E+01 -0.23000182301E+02  0.23219841290E+02  0.00000000000E+00 0.  1.
</event>
<event>
 7    1  0.1098446E-012  0.5052886E+02  0.7816164E-02  0.1300439E+00
        -11   -1    0    0    0    0  0.00000000000E+00  0.00000000000E+00  0.45593999997E+02  0.45594000000E+02  0.51100000000E-03 0.  1.
         11   -1    0    0    0    0 -0.00000000000E+00 -0.00000000000E+00 -0.45593999997E+02  0.45594000000E+02  0.51100000000E-03 0. -1.
    9900012    2    1    2    0    0  0.63815378321E+01 -0.39792940238E+02 -0.53817902507E+01  0.50528858541E+02  0.29999996022E+02 0.  0.
        -12    1    1    2    0    0 -0.63815378321E+01  0.39792940238E+02  0.53817902507E+01  0.40659141459E+02  0.00000000000E+00 0.  1.
         11    1    3    3    0    0  0.15622572330E+01 -0.84583520416E+01 -0.72367182439E+00  0.86318056102E+01  0.51100000000E-03 0. -1.
        -11    1    3    3    0    0 -0.36911977260E+01 -0.57351633138E+01 -0.12119857552E+02  0.13907119984E+02  0.51100000000E-03 0.  1.
        -12    1    3    3    0    0  0.85104783252E+01 -0.25599424882E+02  0.74617391261E+01  0.27989932948E+02  0.00000000000E+00 0.  1.
</event>
<event>
 7    1  0.1098446E-012  0.5052885E+02  0.7816164E-02  0.1300439E+00
        -11   -1    0    0    0    0  0.00000000000E+00  0.00000000000E+00  0.45593999997E+02  0.45594000000E+02  0.51100000000E-03 0.  1.
         11   -1    0    0    0    0 -0.00000000000E+00 -0.00000000000E+00 -0.45593999997E+02  0.45594000000E+02  0.51100000000E-03 0. -1.
    9900012    2    1    2    0    0 -0.11135504913E+02 -0.19495504964E+02 -0.33898263736E+02  0.50528850134E+02  0.29999970468E+02 0.  0.
        -12    1    1    2    0    0  0.11135504913E+02  0.19495504964E+02  0.33898263736E+02  0.40659149866E+02  0.00000000000E+00 0.  1.
         11    1    3    3    0    0 -0.30991009393E+01 -0.93615959077E+00 -0.47215440582E+01  0.57248406061E+01  0.51100000000E-03 0. -1.
        -11    1    3    3    0    0 -0.11932948568E+02 -0.12854128185E+01 -0.17090439901E+01  0.12123051565E+02  0.51100000000E-03 0.  1.
        -12    1    3    3    0    0  0.38965445943E+01 -0.17273932555E+02 -0.27467675688E+02  0.32680957963E+02  0.00000000000E+00 0.  1.
</event>
<event>
 7    1  0.1098446E-012  0.5052885E+02  0.7816164E-02  0.1300439E+00
        -11   -1    0    0    0    0  0.00000000000E+00  0.00000000000E+00  0.45593999997E+02  0.45594000000E+02  0.51100000000E-03 0.  1.
         11   -1    0    0    0    0 -0.00000000000E+00 -0.00000000000E+00 -0.45593999997E+02  0.45594000000E+02  0.51100000000E-03 0. -1.
    9900012    2    1    2    0    0  0.30264640110E+01  0.76378872357E+01 -0.39820463966E+02  0.50528853965E+02  0.29999982111E+02 0.  0.
        -12    1    1    2    0    0 -0.30264640110E+01 -0.76378872357E+01  0.39820463966E+02  0.40659146035E+02  0.00000000000E+00 0.  1.
         11    1    3    3    0    0  0.26521563163E+01 -0.84937752223E+01 -0.14394004299E+02  0.16922337624E+02  0.51100000000E-03 0. -1.
        -11    1    3    3    0    0  0.48519007064E+01  0.92531359739E+01 -0.49798750486E+01  0.11574135889E+02  0.51100000000E-03 0.  1.
        -12    1    3    3    0    0 -0.44775930118E+01  0.68785264841E+01 -0.20446584619E+02  0.22032380451E+02  0.00000000000E+00 0.  1.
</event>
<event>
 7    1  0.1098446E-012  0.5052886E+02  0.7816164E-02  0.1300439E+00
        -11   -1    0    0    0    0  0.00000000000E+00  0.00000000000E+00  0.45593999997E+02  0.45594000000E+02  0.51100000000E-03 0. -1.
         11   -1    0    0    0    0 -0.00000000000E+00 -0.00000000000E+00 -0.45593999997E+02  0.45594000000E+02  0.51100000000E-03 0.  1.
    9900012    2    1    2    0    0 -0.31257808481E+02 -0.24280629332E+02  0.93040854773E+01  0.50528861318E+02  0.30000004462E+02 0.  0.
        -12    1    1    2    0    0  0.31257808481E+02  0.24280629332E+02 -0.93040854773E+01  0.40659138682E+02  0.00000000000E+00 0.  1.
         11    1    3    3    0    0 -0.22186579729E+02 -0.22187123043E+02  0.68057934940E+01  0.32106565907E+02  0.51100000000E-03 0. -1.
        -11    1    3    3    0    0 -0.80687766424E+01  0.55857559469E+01 -0.11145056813E+01  0.98766365317E+01  0.51100000000E-03 0.  1.
        -12    1    3    3    0    0 -0.10024521101E+01 -0.76792622355E+01  0.36127976646E+01  0.85456588792E+01  0.00000000000E+00 0.  1.
</event>
<event>
 7    1  0.1098446E-012  0.5052886E+02  0.7816164E-02  0.1300439E+00
        -11   -1    0    0    0    0  0.00000000000E+00  0.00000000000E+00  0.45593999997E+02  0.45594000000E+02  0.51100000000E-03 0.  1.
         11   -1    0    0    0    0 -0.00000000000E+00 -0.00000000000E+00 -0.45593999997E+02  0.45594000000E+02  0.51100000000E-03 0. -1.
    9900012    2    1    2    0    0 -0.14557520758E+02  0.85162711219E+01 -0.36996178855E+02  0.50528861614E+02  0.30000005361E+02 0.  0.
        -12    1    1    2    0    0  0.14557520758E+02 -0.85162711219E+01  0.36996178855E+02  0.40659138386E+02  0.00000000000E+00 0.  1.
         11    1    3    3    0    0  0.12452873478E+01 -0.46990481266E+01 -0.21605738830E+02  0.22145874210E+02  0.51100000000E-03 0.  1.
        -11    1    3    3    0    0 -0.14001700834E+02  0.53264431745E+01 -0.64090718317E+01  0.16294011941E+02  0.51100000000E-03 0. -1.
        -12    1    3    3    0    0 -0.18011072722E+01  0.78888760740E+01 -0.89813681928E+01  0.12088975462E+02  0.00000000000E+00 0.  1.
</event>
<event>
 7    1  0.1098446E-012  0.5052886E+02  0.7816164E-02  0.1300439E+00
        -11   -1    0    0    0    0  0.00000000000E+00  0.00000000000E+00  0.45593999997E+02  0.45594000000E+02  0.51100000000E-03 0.  1.
         11   -1    0    0    0    0 -0.00000000000E+00 -0.00000000000E+00 -0.45593999997E+02  0.45594000000E+02  0.51100000000E-03 0. -1.
    9900012    2    1    2    0    0  0.23070239646E+02  0.27280501179E+02 -0.19408873281E+02  0.50528855101E+02  0.29999985564E+02 0.  0.
        -12    1    1    2    0    0 -0.23070239646E+02 -0.27280501179E+02  0.19408873281E+02  0.40659144899E+02  0.00000000000E+00 0.  1.
         11    1    3    3    0    0  0.45060769713E+01  0.91226873069E+01 -0.13173240388E+02  0.16645191977E+02  0.51100000000E-03 0. -1.
        -11    1    3    3    0    0  0.55232650891E+01 -0.25332294349E+01  0.41013897548E+01  0.73311054280E+01  0.51100000000E-03 0.  1.
        -12    1    3    3    0    0  0.13040897586E+02  0.20691043307E+02 -0.10337022648E+02  0.26552557696E+02  0.00000000000E+00 0.  1.
</event>
<event>
 7    1  0.1098446E-012  0.5052887E+02  0.7816164E-02  0.1300439E+00
        -11   -1    0    0    0    0  0.00000000000E+00  0.00000000000E+00  0.45593999997E+02  0.45594000000E+02  0.51100000000E-03 0.  1.
         11   -1    0    0    0    0 -0.00000000000E+00 -0.00000000000E+00 -0.45593999997E+02  0.45594000000E+02  0.51100000000E-03 0. -1.
    9900012    2    1    2    0    0  0.37276413743E+02 -0.73128107529E+01  0.14496792775E+02  0.50528865437E+02  0.30000016982E+02 0.  0.
        -12    1    1    2    0    0 -0.37276413743E+02  0.73128107529E+01 -0.14496792775E+02  0.40659134563E+02  0.00000000000E+00 0.  1.
         11    1    3    3    0    0 -0.16062746825E+01  0.40012678200E+00 -0.53610385781E+01  0.56107891329E+01  0.51100000000E-03 0.  1.
        -11    1    3    3    0    0  0.17646249757E+02 -0.70950809570E+01  0.85819210355E+01  0.20865753597E+02  0.51100000000E-03 0. -1.
         12    1    3    3    0    0  0.21236438669E+02 -0.61785657789E+00  0.11275910318E+02  0.24052322707E+02  0.00000000000E+00 0. -1.
</event>
<event>
 7    1  0.1098446E-012  0.5052886E+02  0.7816164E-02  0.1300439E+00
        -11   -1    0    0    0    0  0.00000000000E+00  0.00000000000E+00  0.45593999997E+02  0.45594000000E+02  0.51100000000E-03 0. -1.
         11   -1    0    0    0    0 -0.00000000000E+00 -0.00000000000E+00 -0.45593999997E+02  0.45594000000E+02  0.51100000000E-03 0.  1.
    9900012    2    1    2    0    0 -0.83202745448E+01 -0.10112418938E+02  0.38492561967E+02  0.50528864347E+02  0.30000013670E+02 0.  0.
        -12    1    1    2    0    0  0.83202745448E+01  0.10112418938E+02 -0.38492561967E+02  0.40659135653E+02  0.00000000000E+00 0.  1.
         11    1    3    3    0    0 -0.14747522746E+02 -0.83555223298E+01  0.10844014016E+02  0.20122048126E+02  0.51100000000E-03 0.  1.
        -11    1    3    3    0    0  0.35710878380E+01  0.44736781231E+01  0.14255709401E+02  0.15362021842E+02  0.51100000000E-03 0. -1.
        -12    1    3    3    0    0  0.28561603629E+01 -0.62305747310E+01  0.13392838549E+02  0.15044794379E+02  0.00000000000E+00 0.  1.
</event>
<event>
 7    1  0.1098446E-012  0.5052886E+02  0.7816164E-02  0.1300439E+00
        -11   -1    0    0    0    0  0.00000000000E+00  0.00000000000E+00  0.45593999997E+02  0.45594000000E+02  0.51100000000E-03 0.  1.
         11   -1    0    0    0    0 -0.00000000000E+00 -0.00000000000E+00 -0.45593999997E+02  0.45594000000E+02  0.51100000000E-03 0. -1.
    9900012    2    1    2    0    0 -0.35139667901E-01 -0.15391007812E+02 -0.37633515634E+02  0.50528857668E+02  0.29999993367E+02 0.  0.
        -12    1    1    2    0    0  0.35139667901E-01  0.15391007812E+02  0.37633515634E+02  0.40659142332E+02  0.00000000000E+00 0.  1.
         11    1    3    3    0    0 -0.71784623264E+01 -0.55914347198E+01 -0.37979111791E+01  0.98599489442E+01  0.51100000000E-03 0. -1.
        -11    1    3    3    0    0  0.12173572787E+02 -0.10352448980E+02 -0.18126572500E+02  0.24164885788E+02  0.51100000000E-03 0.  1.
        -12    1    3    3    0    0 -0.50302501289E+01  0.55287588812E+00 -0.15709031955E+02  0.16504022936E+02  0.00000000000E+00 0.  1.
</event>
<event>
 7    1  0.1098446E-012  0.5052885E+02  0.7816164E-02  0.1300439E+00
        -11   -1    0    0    0    0  0.00000000000E+00  0.00000000000E+00  0.45593999997E+02  0.45594000000E+02  0.51100000000E-03 0.  1.
         11   -1    0    0    0    0 -0.00000000000E+00 -0.00000000000E+00 -0.45593999997E+02  0.45594000000E+02  0.51100000000E-03 0. -1.
    9900012    2    1    2    0    0 -0.97788236141E+00 -0.26166625286E+02 -0.31104956148E+02  0.50528845684E+02  0.29999956940E+02 0.  0.
        -12    1    1    2    0    0  0.97788236141E+00  0.26166625286E+02  0.31104956148E+02  0.40659154316E+02  0.00000000000E+00 0.  1.
         11    1    3    3    0    0 -0.64645573343E+00 -0.30179590304E+02 -0.25862880677E+02  0.39750649971E+02  0.51100000000E-03 0. -1.
        -11    1    3    3    0    0 -0.10089850411E+01  0.48147425815E+01 -0.71038585416E+01  0.86408682075E+01  0.51100000000E-03 0.  1.
        -12    1    3    3    0    0  0.67755841309E+00 -0.80177756346E+00  0.18617830706E+01  0.21373275056E+01  0.00000000000E+00 0.  1.
</event>
<event>
 7    1  0.1098446E-012  0.5052886E+02  0.7816164E-02  0.1300439E+00
        -11   -1    0    0    0    0  0.00000000000E+00  0.00000000000E+00  0.45593999997E+02  0.45594000000E+02  0.51100000000E-03 0.  1.
         11   -1    0    0    0    0 -0.00000000000E+00 -0.00000000000E+00 -0.45593999997E+02  0.45594000000E+02  0.51100000000E-03 0. -1.
    9900012    2    1    2    0    0 -0.35279915099E+01 -0.19875518562E+02 -0.35294232264E+02  0.50528858429E+02  0.29999995681E+02 0.  0.
        -12    1    1    2    0    0  0.35279915099E+01  0.19875518562E+02  0.35294232264E+02  0.40659141571E+02  0.00000000000E+00 0.  1.
         11    1    3    3    0    0  0.46617656368E+01 -0.14254857162E+02 -0.20099513960E+02  0.25078346701E+02  0.51100000000E-03 0. -1.
        -11    1    3    3    0    0 -0.13355158750E+02 -0.23172697380E+01 -0.71175623783E+01  0.15309790944E+02  0.51100000000E-03 0.  1.
        -12    1    3    3    0    0  0.51654016030E+01 -0.33033916616E+01 -0.80771559251E+01  0.10140720784E+02  0.00000000000E+00 0.  1.
</event>
<event>
 7    1  0.1098446E-012  0.5052886E+02  0.7816164E-02  0.1300439E+00
        -11   -1    0    0    0    0  0.00000000000E+00  0.00000000000E+00  0.45593999997E+02  0.45594000000E+02  0.51100000000E-03 0.  1.
         11   -1    0    0    0    0 -0.00000000000E+00 -0.00000000000E+00 -0.45593999997E+02  0.45594000000E+02  0.51100000000E-03 0. -1.
    9900012    2    1    2    0    0  0.24014159511E+01 -0.25991838494E+02 -0.31174075655E+02  0.50528862530E+02  0.30000008147E+02 0.  0.
        -12    1    1    2    0    0 -0.24014159511E+01  0.25991838494E+02  0.31174075655E+02  0.40659137470E+02  0.00000000000E+00 0.  1.
         11    1    3    3    0    0  0.67812787758E+01 -0.16199014690E+02 -0.35106875864E+01  0.17908622123E+02  0.51100000000E-03 0. -1.
        -11    1    3    3    0    0  0.21945965328E+01  0.24968418115E+01 -0.46674641189E+01  0.57302438461E+01  0.51100000000E-03 0.  1.
         12    1    3    3    0    0 -0.65744593575E+01 -0.12289665615E+02 -0.22995923949E+02  0.26889996561E+02  0.00000000000E+00 0. -1.
</event>
<event>
 7    1  0.1098446E-012  0.5052885E+02  0.7816164E-02  0.1300439E+00
        -11   -1    0    0    0    0  0.00000000000E+00  0.00000000000E+00  0.45593999997E+02  0.45594000000E+02  0.51100000000E-03 0.  1.
         11   -1    0    0    0    0 -0.00000000000E+00 -0.00000000000E+00 -0.45593999997E+02  0.45594000000E+02  0.51100000000E-03 0. -1.
    9900012    2    1    2    0    0  0.21187460390E+02  0.26655166839E+02 -0.22220704538E+02  0.50528854570E+02  0.29999983950E+02 0.  0.
        -12    1    1    2    0    0 -0.21187460390E+02 -0.26655166839E+02  0.22220704538E+02  0.40659145430E+02  0.00000000000E+00 0.  1.
         11    1    3    3    0    0  0.19325026533E+02  0.17125625743E+02 -0.14145265349E+02  0.29442014871E+02  0.51100000000E-03 0. -1.
        -11    1    3    3    0    0  0.35911731115E+01 -0.34154140779E+01 -0.61300975608E+01  0.78828721927E+01  0.51100000000E-03 0.  1.
        -12    1    3    3    0    0 -0.17287392548E+01  0.12944955173E+02 -0.19453416285E+01  0.13203967506E+02  0.00000000000E+00 0.  1.
</event>
<event>
 7    1  0.1098446E-012  0.5052884E+02  0.7816164E-02  0.1300439E+00
        -11   -1    0    0    0    0  0.00000000000E+00  0.00000000000E+00  0.45593999997E+02  0.45594000000E+02  0.51100000000E-03 0.  1.
         11   -1    0    0    0    0 -0.00000000000E+00 -0.00000000000E+00 -0.45593999997E+02  0.45594000000E+02  0.51100000000E-03 0. -1.
    9900012    2    1    2    0    0 -0.22975853828E+02  0.19685837020E+01 -0.33487342309E+02  0.50528840198E+02  0.29999940265E+02 0.  0.
        -12    1    1    2    0    0  0.22975853828E+02 -0.19685837020E+01  0.33487342309E+02  0.40659159802E+02  0.00000000000E+00 0.  1.
         11    1    3    3    0    0 -0.41459105004E+01  0.83462414895E+01 -0.11811336163E+02  0.15045131541E+02  0.51100000000E-03 0. -1.
        -11    1    3    3    0    0 -0.12256044717E+02 -0.11041425599E+02 -0.21903182466E+02  0.27420304772E+02  0.51100000000E-03 0.  1.
        -12    1    3    3    0    0 -0.65738986099E+01  0.46637678113E+01  0.22717631970E+00  0.80634038849E+01  0.00000000000E+00 0.  1.
</event>
<event>
 7    1  0.1098446E-012  0.5052886E+02  0.7816164E-02  0.1300439E+00
        -11   -1    0    0    0    0  0.00000000000E+00  0.00000000000E+00  0.45593999997E+02  0.45594000000E+02  0.51100000000E-03 0. -1.
         11   -1    0    0    0    0 -0.00000000000E+00 -0.00000000000E+00 -0.45593999997E+02  0.45594000000E+02  0.51100000000E-03 0.  1.
    9900012    2    1    2    0    0  0.27524304566E+01 -0.20785741797E+02  0.34835938236E+02  0.50528861688E+02  0.30000005588E+02 0.  0.
        -12    1    1    2    0    0 -0.27524304566E+01  0.20785741797E+02 -0.34835938236E+02  0.40659138312E+02  0.00000000000E+00 0.  1.
         11    1    3    3    0    0 -0.15468986940E+01 -0.13242358878E+02  0.13469878640E+02  0.18952324266E+02  0.51100000000E-03 0. -1.
        -11    1    3    3    0    0  0.66841189767E+01  0.61500707986E+01  0.61587517965E+01  0.10974107767E+02  0.51100000000E-03 0.  1.
        -12    1    3    3    0    0 -0.23847898261E+01 -0.13693453717E+02  0.15207307800E+02  0.20602429656E+02  0.00000000000E+00 0.  1.
</event>
<event>
 7    1  0.1098446E-012  0.5052887E+02  0.7816164E-02  0.1300439E+00
        -11   -1    0    0    0    0  0.00000000000E+00  0.00000000000E+00  0.45593999997E+02  0.45594000000E+02  0.51100000000E-03 0.  1.
         11   -1    0    0    0    0 -0.00000000000E+00 -0.00000000000E+00 -0.45593999997E+02  0.45594000000E+02  0.51100000000E-03 0. -1.
    9900012    2    1    2    0    0  0.26703427390E+02  0.25391635772E+02 -0.17185946174E+02  0.50528868831E+02  0.30000027299E+02 0.  0.
        -12    1    1    2    0    0 -0.26703427390E+02 -0.25391635772E+02  0.17185946174E+02  0.40659131169E+02  0.00000000000E+00 0.  1.
         11    1    3    3    0    0  0.33014752144E+01  0.70250251916E+01 -0.78793844105E+01  0.11060534186E+02  0.51100000000E-03 0. -1.
        -11    1    3    3    0    0  0.16519081235E+02  0.13373000415E+02  0.58897361673E+01  0.22054618050E+02  0.51100000000E-03 0.  1.
        -12    1    3    3    0    0  0.68828709408E+01  0.49936101652E+01 -0.15196297931E+02  0.17413716595E+02  0.00000000000E+00 0.  1.
</event>
<event>
 7    1  0.1098446E-012  0.5052886E+02  0.7816164E-02  0.1300439E+00
        -11   -1    0    0    0    0  0.00000000000E+00  0.00000000000E+00  0.45593999997E+02  0.45594000000E+02  0.51100000000E-03 0. -1.
         11   -1    0    0    0    0 -0.00000000000E+00 -0.00000000000E+00 -0.45593999997E+02  0.45594000000E+02  0.51100000000E-03 0.  1.
    9900012    2    1    2    0    0  0.38466631396E+02  0.11819414697E+02 -0.58125024099E+01  0.50528862294E+02  0.30000007428E+02 0.  0.
        -12    1    1    2    0    0 -0.38466631396E+02 -0.11819414697E+02  0.58125024099E+01  0.40659137706E+02  0.00000000000E+00 0.  1.
         11    1    3    3    0    0 -0.26813703264E+01  0.16977254145E+01 -0.68846694756E+01  0.75809427157E+01  0.51100000000E-03 0. -1.
        -11    1    3    3    0    0  0.17528130321E+02  0.11492322633E+01 -0.10160783656E+01  0.17595127247E+02  0.51100000000E-03 0.  1.
         12    1    3    3    0    0  0.23619871401E+02  0.89724570194E+01  0.20882454313E+01  0.25352792331E+02  0.00000000000E+00 0. -1.
</event>
<event>
 7    1  0.1098446E-012  0.5052886E+02  0.7816164E-02  0.1300439E+00
        -11   -1    0    0    0    0  0.00000000000E+00  0.00000000000E+00  0.45593999997E+02  0.45594000000E+02  0.51100000000E-03 0. -1.
         11   -1    0    0    0    0 -0.00000000000E+00 -0.00000000000E+00 -0.45593999997E+02  0.45594000000E+02  0.51100000000E-03 0.  1.
    9900012    2    1    2    0    0 -0.73815652289E+01  0.36508382148E+02  0.16303860618E+02  0.50528863962E+02  0.30000012500E+02 0.  0.
        -12    1    1    2    0    0  0.73815652289E+01 -0.36508382148E+02 -0.16303860618E+02  0.40659136038E+02  0.00000000000E+00 0.  1.
         11    1    3    3    0    0 -0.10977411862E+02  0.11846183699E+02  0.14579416922E+02  0.21757643197E+02  0.51100000000E-03 0. -1.
        -11    1    3    3    0    0  0.69981022373E+01  0.14647210905E+02 -0.40358448480E+01  0.16727291057E+02  0.51100000000E-03 0.  1.
        -12    1    3    3    0    0 -0.34022556040E+01  0.10014987544E+02  0.57602885441E+01  0.12043929708E+02  0.00000000000E+00 0.  1.
</event>
<event>
 7    1  0.1098446E-012  0.5052877E+02  0.7816164E-02  0.1300439E+00
        -11   -1    0    0    0    0  0.00000000000E+00  0.00000000000E+00  0.45593999997E+02  0.45594000000E+02  0.51100000000E-03 0. -1.
         11   -1    0    0    0    0 -0.00000000000E+00 -0.00000000000E+00 -0.45593999997E+02  0.45594000000E+02  0.51100000000E-03 0.  1.
    9900012    2    1    2    0    0 -0.22875923384E+02 -0.27930407217E+02  0.18701809264E+02  0.50528767497E+02  0.29999719284E+02 0.  0.
        -12    1    1    2    0    0  0.22875923384E+02  0.27930407217E+02 -0.18701809264E+02  0.40659232503E+02  0.00000000000E+00 0.  1.
         11    1    3    3    0    0 -0.39588649844E+01  0.18650857543E+01 -0.35234789149E+01  0.56183681582E+01  0.51100000000E-03 0. -1.
        -11    1    3    3    0    0 -0.16409787652E+02 -0.19234513569E+02  0.22793485500E+02  0.34041013859E+02  0.51100000000E-03 0.  1.
        -12    1    3    3    0    0 -0.25072707477E+01 -0.10560979401E+02 -0.56819732169E+00  0.10869385480E+02  0.00000000000E+00 0.  1.
</event>
<event>
 7    1  0.1098446E-012  0.5052886E+02  0.7816164E-02  0.1300439E+00
        -11   -1    0    0    0    0  0.00000000000E+00  0.00000000000E+00  0.45593999997E+02  0.45594000000E+02  0.51100000000E-03 0.  1.
         11   -1    0    0    0    0 -0.00000000000E+00 -0.00000000000E+00 -0.45593999997E+02  0.45594000000E+02  0.51100000000E-03 0. -1.
    9900012    2    1    2    0    0  0.19708537685E+02 -0.15010801899E+02 -0.32239961502E+02  0.50528858974E+02  0.29999997337E+02 0.  0.
        -12    1    1    2    0    0 -0.19708537685E+02  0.15010801899E+02  0.32239961502E+02  0.40659141026E+02  0.00000000000E+00 0.  1.
         11    1    3    3    0    0  0.49698782385E+01  0.22921993076E+01  0.23115112453E+01  0.59411237884E+01  0.51100000000E-03 0. -1.
        -11    1    3    3    0    0 -0.12044716628E+01 -0.10872190268E+02 -0.14778997803E+02  0.18386790082E+02  0.51100000000E-03 0.  1.
         12    1    3    3    0    0  0.15943131109E+02 -0.64308109390E+01 -0.19772474944E+02  0.26200945103E+02  0.00000000000E+00 0. -1.
</event>
<event>
 7    1  0.1098446E-012  0.5052886E+02  0.7816164E-02  0.1300439E+00
        -11   -1    0    0    0    0  0.00000000000E+00  0.00000000000E+00  0.45593999997E+02  0.45594000000E+02  0.51100000000E-03 0.  1.
         11   -1    0    0    0    0 -0.00000000000E+00 -0.00000000000E+00 -0.45593999997E+02  0.45594000000E+02  0.51100000000E-03 0. -1.
    9900012    2    1    2    0    0  0.11163270583E+02  0.37797182470E+02 -0.99960023971E+01  0.50528859863E+02  0.30000000040E+02 0.  0.
        -12    1    1    2    0    0 -0.11163270583E+02 -0.37797182470E+02  0.99960023971E+01  0.40659140137E+02  0.00000000000E+00 0.  1.
         11    1    3    3    0    0  0.93205294648E+01  0.12485913021E+02  0.29303765523E+01  0.15854254964E+02  0.51100000000E-03 0. -1.
        -11    1    3    3    0    0  0.36873285734E+01  0.70631903432E+01 -0.14207120877E+02  0.16288871468E+02  0.51100000000E-03 0.  1.
        -12    1    3    3    0    0 -0.18445874553E+01  0.18248079105E+02  0.12807419272E+01  0.18385733431E+02  0.00000000000E+00 0.  1.
</event>
<event>
 7    1  0.1098446E-012  0.5052887E+02  0.7816164E-02  0.1300439E+00
        -11   -1    0    0    0    0  0.00000000000E+00  0.00000000000E+00  0.45593999997E+02  0.45594000000E+02  0.51100000000E-03 0.  1.
         11   -1    0    0    0    0 -0.00000000000E+00 -0.00000000000E+00 -0.45593999997E+02  0.45594000000E+02  0.51100000000E-03 0. -1.
    9900012    2    1    2    0    0  0.15680101949E+02 -0.12571761141E+02 -0.35344735846E+02  0.50528866619E+02  0.30000020575E+02 0.  0.
        -12    1    1    2    0    0 -0.15680101949E+02  0.12571761141E+02  0.35344735846E+02  0.40659133381E+02  0.00000000000E+00 0.  1.
         11    1    3    3    0    0  0.85294957261E+01 -0.96266139962E+01 -0.99736196811E+01  0.16275659255E+02  0.51100000000E-03 0. -1.
        -11    1    3    3    0    0  0.34144302766E+01  0.77174767297E+01 -0.25954356832E+01  0.88291600866E+01  0.51100000000E-03 0.  1.
        -12    1    3    3    0    0  0.37361759460E+01 -0.10662623874E+02 -0.22775680481E+02  0.25424047278E+02  0.00000000000E+00 0.  1.
</event>
<event>
 7    1  0.1098446E-012  0.5052887E+02  0.7816164E-02  0.1300439E+00
        -11   -1    0    0    0    0  0.00000000000E+00  0.00000000000E+00  0.45593999997E+02  0.45594000000E+02  0.51100000000E-03 0.  1.
         11   -1    0    0    0    0 -0.00000000000E+00 -0.00000000000E+00 -0.45593999997E+02  0.45594000000E+02  0.51100000000E-03 0. -1.
    9900012    2    1    2    0    0  0.13921545302E+02 -0.60543504844E+01 -0.37718704345E+02  0.50528865222E+02  0.30000016330E+02 0.  0.
        -12    1    1    2    0    0 -0.13921545302E+02  0.60543504844E+01  0.37718704345E+02  0.40659134778E+02  0.00000000000E+00 0.  1.
         11    1    3    3    0    0  0.13381837709E+02 -0.10516994800E+02 -0.12234735088E+02  0.20961142694E+02  0.51100000000E-03 0. -1.
        -11    1    3    3    0    0  0.26373932801E+01  0.87506077430E+01 -0.21457386729E+02  0.23322701916E+02  0.51100000000E-03 0.  1.
         12    1    3    3    0    0 -0.20976856865E+01 -0.42879634274E+01 -0.40265825284E+01  0.62450206126E+01  0.00000000000E+00 0. -1.
</event>
<event>
 7    1  0.1098446E-012  0.5052886E+02  0.7816164E-02  0.1300439E+00
        -11   -1    0    0    0    0  0.00000000000E+00  0.00000000000E+00  0.45593999997E+02  0.45594000000E+02  0.51100000000E-03 0.  1.
         11   -1    0    0    0    0 -0.00000000000E+00 -0.00000000000E+00 -0.45593999997E+02  0.45594000000E+02  0.51100000000E-03 0. -1.
    9900012    2    1    2    0    0 -0.35848284440E+02 -0.17954419246E+02 -0.67605455210E+01  0.50528860271E+02  0.30000001281E+02 0.  0.
        -12    1    1    2    0    0  0.35848284440E+02  0.17954419246E+02  0.67605455210E+01  0.40659139729E+02  0.00000000000E+00 0.  1.
         11    1    3    3    0    0 -0.18593332871E+02 -0.30950395539E+01  0.13671923214E+01  0.18898690753E+02  0.51100000000E-03 0. -1.
        -11    1    3    3    0    0  0.23353041468E+01 -0.93310903558E+01  0.24032835281E+00  0.96218839458E+01  0.51100000000E-03 0.  1.
        -12    1    3    3    0    0 -0.19590255716E+02 -0.55282893362E+01 -0.83680661951E+01  0.22008285573E+02  0.00000000000E+00 0.  1.
</event>
<event>
 7    1  0.1098446E-012  0.5052885E+02  0.7816164E-02  0.1300439E+00
        -11   -1    0    0    0    0  0.00000000000E+00  0.00000000000E+00  0.45593999997E+02  0.45594000000E+02  0.51100000000E-03 0.  1.
         11   -1    0    0    0    0 -0.00000000000E+00 -0.00000000000E+00 -0.45593999997E+02  0.45594000000E+02  0.51100000000E-03 0. -1.
    9900012    2    1    2    0    0 -0.80897589999E+01 -0.23810011824E+02 -0.31950046022E+02  0.50528852142E+02  0.29999976572E+02 0.  0.
        -12    1    1    2    0    0  0.80897589999E+01  0.23810011824E+02  0.31950046022E+02  0.40659147858E+02  0.00000000000E+00 0.  1.
         11    1    3    3    0    0 -0.81066129259E+01 -0.17874444025E+02 -0.27211496083E+02  0.33551131749E+02  0.51100000000E-03 0. -1.
        -11    1    3    3    0    0 -0.12491633839E+00 -0.38107820752E+01  0.54041885203E+01  0.66138429026E+01  0.51100000000E-03 0.  1.
        -12    1    3    3    0    0  0.14177026447E+00 -0.21247857236E+01 -0.10142738459E+02  0.10363877490E+02  0.00000000000E+00 0.  1.
</event>
<event>
 7    1  0.1098446E-012  0.5052886E+02  0.7816164E-02  0.1300439E+00
        -11   -1    0    0    0    0  0.00000000000E+00  0.00000000000E+00  0.45593999997E+02  0.45594000000E+02  0.51100000000E-03 0. -1.
         11   -1    0    0    0    0 -0.00000000000E+00 -0.00000000000E+00 -0.45593999997E+02  0.45594000000E+02  0.51100000000E-03 0.  1.
    9900012    2    1    2    0    0 -0.38680377006E+02  0.10557605350E+02 -0.67476972135E+01  0.50528855718E+02  0.29999987439E+02 0.  0.
        -12    1    1    2    0    0  0.38680377006E+02 -0.10557605350E+02  0.67476972135E+01  0.40659144282E+02  0.00000000000E+00 0.  1.
         11    1    3    3    0    0 -0.28429195977E+02  0.68702595019E+01  0.71044540328E+01  0.30098055035E+02  0.51100000000E-03 0. -1.
        -11    1    3    3    0    0 -0.20430279626E+01  0.51217735977E+01 -0.18431133893E+01  0.58140859358E+01  0.51100000000E-03 0.  1.
         12    1    3    3    0    0 -0.82081530664E+01 -0.14344277491E+01 -0.12009037857E+02  0.14616714746E+02  0.00000000000E+00 0. -1.
</event>
<event>
 7    1  0.1098446E-012  0.5052886E+02  0.7816164E-02  0.1300439E+00
        -11   -1    0    0    0    0  0.00000000000E+00  0.00000000000E+00  0.45593999997E+02  0.45594000000E+02  0.51100000000E-03 0.  1.
         11   -1    0    0    0    0 -0.00000000000E+00 -0.00000000000E+00 -0.45593999997E+02  0.45594000000E+02  0.51100000000E-03 0. -1.
    9900012    2    1    2    0    0 -0.24191896395E+02 -0.31557483882E+02 -0.84878388286E+01  0.50528855295E+02  0.29999986153E+02 0.  0.
        -12    1    1    2    0    0  0.24191896395E+02  0.31557483882E+02  0.84878388286E+01  0.40659144705E+02  0.00000000000E+00 0.  1.
         11    1    3    3    0    0  0.26943058235E+01 -0.41360475876E+01 -0.57326526035E+01  0.75650168308E+01  0.51100000000E-03 0.  1.
        -11    1    3    3    0    0 -0.27630659051E+02 -0.23354539354E+02  0.25144857787E+01  0.36265830571E+02  0.51100000000E-03 0. -1.
         12    1    3    3    0    0  0.74445683197E+00 -0.40668969406E+01 -0.52696720038E+01  0.66980078925E+01  0.00000000000E+00 0. -1.
</event>
<event>
 7    1  0.1098446E-012  0.5052886E+02  0.7816164E-02  0.1300439E+00
        -11   -1    0    0    0    0  0.00000000000E+00  0.00000000000E+00  0.45593999997E+02  0.45594000000E+02  0.51100000000E-03 0. -1.
         11   -1    0    0    0    0 -0.00000000000E+00 -0.00000000000E+00 -0.45593999997E+02  0.45594000000E+02  0.51100000000E-03 0.  1.
    9900012    2    1    2    0    0 -0.20135228410E+02 -0.30589288983E+02  0.17664484081E+02  0.50528855623E+02  0.29999987152E+02 0.  0.
        -12    1    1    2    0    0  0.20135228410E+02  0.30589288983E+02 -0.17664484081E+02  0.40659144377E+02  0.00000000000E+00 0.  1.
         11    1    3    3    0    0 -0.90653343607E+01 -0.19458758440E+02  0.81269034455E+01  0.22953651713E+02  0.51100000000E-03 0. -1.
        -11    1    3    3    0    0 -0.70233917946E+01  0.48953768062E+01  0.65479105919E+01  0.10778120418E+02  0.51100000000E-03 0.  1.
        -12    1    3    3    0    0 -0.40465022547E+01 -0.16025907349E+02  0.29896700440E+01  0.16797083491E+02  0.00000000000E+00 0.  1.
</event>
<event>
 7    1  0.1098446E-012  0.5052886E+02  0.7816164E-02  0.1300439E+00
        -11   -1    0    0    0    0  0.00000000000E+00  0.00000000000E+00  0.45593999997E+02  0.45594000000E+02  0.51100000000E-03 0.  1.
         11   -1    0    0    0    0 -0.00000000000E+00 -0.00000000000E+00 -0.45593999997E+02  0.45594000000E+02  0.51100000000E-03 0. -1.
    9900012    2    1    2    0    0 -0.68254299887E+01  0.66726986655E+00 -0.40076603194E+02  0.50528857521E+02  0.29999992920E+02 0.  0.
        -12    1    1    2    0    0  0.68254299887E+01 -0.66726986655E+00  0.40076603194E+02  0.40659142479E+02  0.00000000000E+00 0.  1.
         11    1    3    3    0    0 -0.10024104320E+02  0.22997295598E+00 -0.25110889919E+02  0.27038719418E+02  0.51100000000E-03 0. -1.
        -11    1    3    3    0    0  0.73553907436E+01  0.54027161680E+01 -0.25318891468E+01  0.94710916950E+01  0.51100000000E-03 0.  1.
         12    1    3    3    0    0 -0.41567164119E+01 -0.49654192574E+01 -0.12433824128E+02  0.14019046408E+02  0.00000000000E+00 0. -1.
</event>
<event>
 7    1  0.1098446E-012  0.5052887E+02  0.7816164E-02  0.1300439E+00
        -11   -1    0    0    0    0  0.00000000000E+00  0.00000000000E+00  0.45593999997E+02  0.45594000000E+02  0.51100000000E-03 0.  1.
         11   -1    0    0    0    0 -0.00000000000E+00 -0.00000000000E+00 -0.45593999997E+02  0.45594000000E+02  0.51100000000E-03 0. -1.
    9900012    2    1    2    0    0  0.65826348184E+01  0.28208876593E+02 -0.28532320418E+02  0.50528866854E+02  0.30000021288E+02 0.  0.
        -12    1    1    2    0    0 -0.65826348184E+01 -0.28208876593E+02  0.28532320418E+02  0.40659133146E+02  0.00000000000E+00 0.  1.
         11    1    3    3    0    0  0.58823467354E+01  0.17434721264E+02 -0.12065465293E+02  0.22003339785E+02  0.51100000000E-03 0. -1.
        -11    1    3    3    0    0 -0.72886006901E+01 -0.30611093939E+00 -0.21876945418E+00  0.72983055748E+01  0.51100000000E-03 0.  1.
         12    1    3    3    0    0  0.79888887732E+01  0.11080266268E+02 -0.16248085670E+02  0.21227221494E+02  0.00000000000E+00 0. -1.
</event>
<event>
 7    1  0.1098446E-012  0.5052886E+02  0.7816164E-02  0.1300439E+00
        -11   -1    0    0    0    0  0.00000000000E+00  0.00000000000E+00  0.45593999997E+02  0.45594000000E+02  0.51100000000E-03 0. -1.
         11   -1    0    0    0    0 -0.00000000000E+00 -0.00000000000E+00 -0.45593999997E+02  0.45594000000E+02  0.51100000000E-03 0.  1.
    9900012    2    1    2    0    0  0.71914842746E+01 -0.30200316630E+02  0.26256214022E+02  0.50528863937E+02  0.30000012422E+02 0.  0.
        -12    1    1    2    0    0 -0.71914842746E+01  0.30200316630E+02 -0.26256214022E+02  0.40659136063E+02  0.00000000000E+00 0.  1.
         11    1    3    3    0    0  0.16819182251E+01 -0.92056034321E+01  0.92119941435E+01  0.13131367782E+02  0.51100000000E-03 0. -1.
        -11    1    3    3    0    0  0.32562760818E+01  0.34008564018E+01  0.11288468787E+02  0.12231054165E+02  0.51100000000E-03 0.  1.
        -12    1    3    3    0    0  0.22532899677E+01 -0.24395569600E+02  0.57557510920E+01  0.25166441989E+02  0.00000000000E+00 0.  1.
</event>
<event>
 7    1  0.1098446E-012  0.5052884E+02  0.7816164E-02  0.1300439E+00
        -11   -1    0    0    0    0  0.00000000000E+00  0.00000000000E+00  0.45593999997E+02  0.45594000000E+02  0.51100000000E-03 0. -1.
         11   -1    0    0    0    0 -0.00000000000E+00 -0.00000000000E+00 -0.45593999997E+02  0.45594000000E+02  0.51100000000E-03 0.  1.
    9900012    2    1    2    0    0 -0.38113369841E+02 -0.12635385351E+02  0.63941961198E+01  0.50528835380E+02  0.29999925620E+02 0.  0.
        -12    1    1    2    0    0  0.38113369841E+02  0.12635385351E+02 -0.63941961198E+01  0.40659164620E+02  0.00000000000E+00 0.  1.
         11    1    3    3    0    0 -0.61892506181E+01  0.26246197279E+01  0.87549552684E+00  0.67795239220E+01  0.51100000000E-03 0. -1.
        -11    1    3    3    0    0 -0.22106110785E+02 -0.20037626873E+02  0.10656752111E+02  0.31682061022E+02  0.51100000000E-03 0.  1.
        -12    1    3    3    0    0 -0.98180084374E+01  0.47776217943E+01 -0.51380515177E+01  0.12067250436E+02  0.00000000000E+00 0.  1.
</event>
<event>
 7    1  0.1098446E-012  0.5052886E+02  0.7816164E-02  0.1300439E+00
        -11   -1    0    0    0    0  0.00000000000E+00  0.00000000000E+00  0.45593999997E+02  0.45594000000E+02  0.51100000000E-03 0.  1.
         11   -1    0    0    0    0 -0.00000000000E+00 -0.00000000000E+00 -0.45593999997E+02  0.45594000000E+02  0.51100000000E-03 0. -1.
    9900012    2    1    2    0    0  0.22001439276E+02  0.31184994335E+02 -0.14021367991E+02  0.50528856351E+02  0.29999989365E+02 0.  0.
        -12    1    1    2    0    0 -0.22001439276E+02 -0.31184994335E+02  0.14021367991E+02  0.40659143649E+02  0.00000000000E+00 0.  1.
         11    1    3    3    0    0  0.20336093945E+01  0.11858083015E+01 -0.25909263351E+01  0.35006582284E+01  0.51100000000E-03 0. -1.
        -11    1    3    3    0    0  0.22317779414E+02  0.32744506486E+02 -0.14590593398E+02  0.42227614176E+02  0.51100000000E-03 0.  1.
        -12    1    3    3    0    0 -0.23499495326E+01 -0.27453204525E+01  0.31601517428E+01  0.48005839468E+01  0.00000000000E+00 0.  1.
</event>
<event>
 7    1  0.1098446E-012  0.5052886E+02  0.7816164E-02  0.1300439E+00
        -11   -1    0    0    0    0  0.00000000000E+00  0.00000000000E+00  0.45593999997E+02  0.45594000000E+02  0.51100000000E-03 0. -1.
         11   -1    0    0    0    0 -0.00000000000E+00 -0.00000000000E+00 -0.45593999997E+02  0.45594000000E+02  0.51100000000E-03 0.  1.
    9900012    2    1    2    0    0 -0.19742153836E+01 -0.29605997162E+02  0.27798443725E+02  0.50528855053E+02  0.29999985418E+02 0.  0.
        -12    1    1    2    0    0  0.19742153836E+01  0.29605997162E+02 -0.27798443725E+02  0.40659144947E+02  0.00000000000E+00 0.  1.
         11    1    3    3    0    0 -0.13514449811E+02 -0.11815658866E+02  0.11241950709E+02  0.21180925479E+02  0.51100000000E-03 0. -1.
        -11    1    3    3    0    0  0.11387962359E+02 -0.16003196505E+02  0.18300803495E+02  0.26845994001E+02  0.51100000000E-03 0.  1.
        -12    1    3    3    0    0  0.15227206834E+00 -0.17871417908E+01 -0.17443104793E+01  0.25019355730E+01  0.00000000000E+00 0.  1.
</event>
<event>
 7    1  0.1098446E-012  0.5052887E+02  0.7816164E-02  0.1300439E+00
        -11   -1    0    0    0    0  0.00000000000E+00  0.00000000000E+00  0.45593999997E+02  0.45594000000E+02  0.51100000000E-03 0. -1.
         11   -1    0    0    0    0 -0.00000000000E+00 -0.00000000000E+00 -0.45593999997E+02  0.45594000000E+02  0.51100000000E-03 0.  1.
    9900012    2    1    2    0    0  0.38964961366E+02  0.14771947400E+01  0.11520185251E+02  0.50528868347E+02  0.30000025828E+02 0.  0.
        -12    1    1    2    0    0 -0.38964961366E+02 -0.14771947400E+01 -0.11520185251E+02  0.40659131653E+02  0.00000000000E+00 0.  1.
         11    1    3    3    0    0  0.22947033435E+02  0.48947082925E+01  0.16954590976E+02  0.28947930292E+02  0.51100000000E-03 0. -1.
        -11    1    3    3    0    0  0.99940976197E+01 -0.84035263348E+01 -0.36918269842E+01  0.13569481524E+02  0.51100000000E-03 0.  1.
         12    1    3    3    0    0  0.60238303113E+01  0.49860127824E+01 -0.17425787414E+01  0.80114565314E+01  0.00000000000E+00 0. -1.
</event>
<event>
 7    1  0.1098446E-012  0.5052886E+02  0.7816164E-02  0.1300439E+00
        -11   -1    0    0    0    0  0.00000000000E+00  0.00000000000E+00  0.45593999997E+02  0.45594000000E+02  0.51100000000E-03 0.  1.
         11   -1    0    0    0    0 -0.00000000000E+00 -0.00000000000E+00 -0.45593999997E+02  0.45594000000E+02  0.51100000000E-03 0. -1.
    9900012    2    1    2    0    0 -0.10814569779E+02 -0.60925741226E+01 -0.38718100997E+02  0.50528859284E+02  0.29999998280E+02 0.  0.
        -12    1    1    2    0    0  0.10814569779E+02  0.60925741226E+01  0.38718100997E+02  0.40659140716E+02  0.00000000000E+00 0.  1.
         11    1    3    3    0    0  0.63618051249E+01  0.31791136226E+01 -0.21480290646E+02  0.22627023984E+02  0.51100000000E-03 0. -1.
        -11    1    3    3    0    0 -0.13713736020E+02 -0.23593259845E+01 -0.88325186595E+01  0.16481697754E+02  0.51100000000E-03 0.  1.
        -12    1    3    3    0    0 -0.34626388833E+01 -0.69123617607E+01 -0.84052916917E+01  0.11420137546E+02  0.00000000000E+00 0.  1.
</event>
<event>
 7    1  0.1098446E-012  0.5052886E+02  0.7816164E-02  0.1300439E+00
        -11   -1    0    0    0    0  0.00000000000E+00  0.00000000000E+00  0.45593999997E+02  0.45594000000E+02  0.51100000000E-03 0. -1.
         11   -1    0    0    0    0 -0.00000000000E+00 -0.00000000000E+00 -0.45593999997E+02  0.45594000000E+02  0.51100000000E-03 0.  1.
    9900012    2    1    2    0    0  0.38289621096E+02  0.38693719880E+01  0.13118636885E+02  0.50528858875E+02  0.29999997038E+02 0.  0.
        -12    1    1    2    0    0 -0.38289621096E+02 -0.38693719880E+01 -0.13118636885E+02  0.40659141125E+02  0.00000000000E+00 0.  1.
         11    1    3    3    0    0  0.80133275822E+01  0.45420325312E+01  0.18620389124E+00  0.92129338760E+01  0.51100000000E-03 0. -1.
        -11    1    3    3    0    0  0.30854896470E+02 -0.65160039807E+01  0.57780289752E+01  0.32060389317E+02  0.51100000000E-03 0.  1.
        -12    1    3    3    0    0 -0.57860295609E+00  0.58433434375E+01  0.71544040187E+01  0.92555356826E+01  0.00000000000E+00 0.  1.
</event>
<event>
 7    1  0.1098446E-012  0.5052885E+02  0.7816164E-02  0.1300439E+00
        -11   -1    0    0    0    0  0.00000000000E+00  0.00000000000E+00  0.45593999997E+02  0.45594000000E+02  0.51100000000E-03 0.  1.
         11   -1    0    0    0    0 -0.00000000000E+00 -0.00000000000E+00 -0.45593999997E+02  0.45594000000E+02  0.51100000000E-03 0. -1.
    9900012    2    1    2    0    0 -0.25201994338E+02  0.27031275933E+01 -0.31791806595E+02  0.50528851165E+02  0.29999973601E+02 0.  0.
        -12    1    1    2    0    0  0.25201994338E+02 -0.27031275933E+01  0.31791806595E+02  0.40659148835E+02  0.00000000000E+00 0.  1.
         11    1    3    3    0    0 -0.78367482305E+01  0.17474273318E+01 -0.33710637315E+01  0.87081683523E+01  0.51100000000E-03 0. -1.
        -11    1    3    3    0    0  0.63248890253E+01  0.91533885293E-01 -0.28071278270E+01  0.69204455444E+01  0.51100000000E-03 0.  1.
        -12    1    3    3    0    0 -0.23690135133E+02  0.86416637623E+00 -0.25613615037E+02  0.34900237268E+02  0.00000000000E+00 0.  1.
</event>
<event>
 7    1  0.1098446E-012  0.5052886E+02  0.7816164E-02  0.1300439E+00
        -11   -1    0    0    0    0  0.00000000000E+00  0.00000000000E+00  0.45593999997E+02  0.45594000000E+02  0.51100000000E-03 0. -1.
         11   -1    0    0    0    0 -0.00000000000E+00 -0.00000000000E+00 -0.45593999997E+02  0.45594000000E+02  0.51100000000E-03 0.  1.
    9900012    2    1    2    0    0 -0.23644130294E+02  0.16342180718E+02  0.28758544923E+02  0.50528859895E+02  0.30000000137E+02 0.  0.
        -12    1    1    2    0    0  0.23644130294E+02 -0.16342180718E+02 -0.28758544923E+02  0.40659140105E+02  0.00000000000E+00 0.  1.
         11    1    3    3    0    0 -0.39234417454E+01  0.10761087764E+02 -0.12943379570E+01  0.11526912683E+02  0.51100000000E-03 0. -1.
        -11    1    3    3    0    0 -0.12564948640E+02 -0.33586903111E+01  0.12464979778E+02  0.18014839884E+02  0.51100000000E-03 0.  1.
        -12    1    3    3    0    0 -0.71557399093E+01  0.89397832651E+01  0.17587903101E+02  0.20987107327E+02  0.00000000000E+00 0.  1.
</event>
<event>
 7    1  0.1098446E-012  0.5052886E+02  0.7816164E-02  0.1300439E+00
        -11   -1    0    0    0    0  0.00000000000E+00  0.00000000000E+00  0.45593999997E+02  0.45594000000E+02  0.51100000000E-03 0. -1.
         11   -1    0    0    0    0 -0.00000000000E+00 -0.00000000000E+00 -0.45593999997E+02  0.45594000000E+02  0.51100000000E-03 0.  1.
    9900012    2    1    2    0    0 -0.19051499796E+02  0.27170882585E+02  0.23493596671E+02  0.50528860936E+02  0.30000003300E+02 0.  0.
        -12    1    1    2    0    0  0.19051499796E+02 -0.27170882585E+02 -0.23493596671E+02  0.40659139064E+02  0.00000000000E+00 0.  1.
         11    1    3    3    0    0 -0.95661663017E+01  0.62102007528E+01  0.15724575603E+02  0.19425251845E+02  0.51100000000E-03 0. -1.
        -11    1    3    3    0    0  0.14946990646E+01  0.18830511122E+02  0.56820074052E+01  0.19725807532E+02  0.51100000000E-03 0.  1.
         12    1    3    3    0    0 -0.10980032559E+02  0.21301707102E+01  0.20870136629E+01  0.11377801558E+02  0.00000000000E+00 0. -1.
</event>
<event>
 7    1  0.1098446E-012  0.5052883E+02  0.7816164E-02  0.1300439E+00
        -11   -1    0    0    0    0  0.00000000000E+00  0.00000000000E+00  0.45593999997E+02  0.45594000000E+02  0.51100000000E-03 0.  1.
         11   -1    0    0    0    0 -0.00000000000E+00 -0.00000000000E+00 -0.45593999997E+02  0.45594000000E+02  0.51100000000E-03 0. -1.
    9900012    2    1    2    0    0  0.30558027640E+02  0.25421208093E+02  0.85520536424E+01  0.50528825197E+02  0.29999894669E+02 0.  0.
        -12    1    1    2    0    0 -0.30558027640E+02 -0.25421208093E+02 -0.85520536424E+01  0.40659174803E+02  0.00000000000E+00 0.  1.
         11    1    3    3    0    0  0.27389280315E+02  0.11801572760E+02  0.15559531128E+02  0.33638501824E+02  0.51100000000E-03 0. -1.
        -11    1    3    3    0    0  0.26607757693E+01  0.30905405106E+01 -0.44642196138E+01  0.60465217575E+01  0.51100000000E-03 0.  1.
         12    1    3    3    0    0  0.50797155573E+00  0.10529094822E+02 -0.25432578717E+01  0.10843801615E+02  0.00000000000E+00 0. -1.
</event>
<event>
 7    1  0.1098446E-012  0.5052886E+02  0.7816164E-02  0.1300439E+00
        -11   -1    0    0    0    0  0.00000000000E+00  0.00000000000E+00  0.45593999997E+02  0.45594000000E+02  0.51100000000E-03 0.  1.
         11   -1    0    0    0    0 -0.00000000000E+00 -0.00000000000E+00 -0.45593999997E+02  0.45594000000E+02  0.51100000000E-03 0. -1.
    9900012    2    1    2    0    0 -0.16717744011E+02 -0.16229049895E+01 -0.37027672830E+02  0.50528863995E+02  0.30000012601E+02 0.  0.
        -12    1    1    2    0    0  0.16717744011E+02  0.16229049895E+01  0.37027672830E+02  0.40659136005E+02  0.00000000000E+00 0.  1.
         11    1    3    3    0    0 -0.14980769764E+02  0.52822080567E+01 -0.21166725261E+02  0.26464229503E+02  0.51100000000E-03 0. -1.
        -11    1    3    3    0    0  0.62503474469E+01  0.15520526094E+01 -0.62646771798E+01  0.89845362116E+01  0.51100000000E-03 0.  1.
         12    1    3    3    0    0 -0.79873216935E+01 -0.84571656555E+01 -0.95962703896E+01  0.15080098281E+02  0.00000000000E+00 0. -1.
</event>
<event>
 7    1  0.1098446E-012  0.5052886E+02  0.7816164E-02  0.1300439E+00
        -11   -1    0    0    0    0  0.00000000000E+00  0.00000000000E+00  0.45593999997E+02  0.45594000000E+02  0.51100000000E-03 0.  1.
         11   -1    0    0    0    0 -0.00000000000E+00 -0.00000000000E+00 -0.45593999997E+02  0.45594000000E+02  0.51100000000E-03 0. -1.
    9900012    2    1    2    0    0 -0.32535723950E+02 -0.18193352113E+02 -0.16235598336E+02  0.50528855304E+02  0.29999986183E+02 0.  0.
        -12    1    1    2    0    0  0.32535723950E+02  0.18193352113E+02  0.16235598336E+02  0.40659144696E+02  0.00000000000E+00 0.  1.
         11    1    3    3    0    0 -0.24974082552E+02 -0.59065846201E+01 -0.10941580996E+02  0.27898221021E+02  0.51100000000E-03 0. -1.
        -11    1    3    3    0    0 -0.70016361021E+01 -0.15671616067E+02 -0.10826877327E+01  0.17198682253E+02  0.51100000000E-03 0.  1.
         12    1    3    3    0    0 -0.56000529623E+00  0.33848485743E+01 -0.42113296064E+01  0.54319520300E+01  0.00000000000E+00 0. -1.
</event>
<event>
 7    1  0.1098446E-012  0.5052886E+02  0.7816164E-02  0.1300439E+00
        -11   -1    0    0    0    0  0.00000000000E+00  0.00000000000E+00  0.45593999997E+02  0.45594000000E+02  0.51100000000E-03 0.  1.
         11   -1    0    0    0    0 -0.00000000000E+00 -0.00000000000E+00 -0.45593999997E+02  0.45594000000E+02  0.51100000000E-03 0. -1.
    9900012    2    1    2    0    0  0.26417597903E+02 -0.27948321255E+02 -0.13197240643E+02  0.50528864489E+02  0.30000014099E+02 0.  0.
        -12    1    1    2    0    0 -0.26417597903E+02  0.27948321255E+02  0.13197240643E+02  0.40659135511E+02  0.00000000000E+00 0.  1.
         11    1    3    3    0    0  0.25150291036E+02 -0.16134885699E+02 -0.12407434186E+02  0.32354537534E+02  0.51100000000E-03 0. -1.
        -11    1    3    3    0    0 -0.37096379707E+01 -0.38525220865E+01 -0.54989939084E+01  0.76708718257E+01  0.51100000000E-03 0.  1.
         12    1    3    3    0    0  0.49769448378E+01 -0.79609134700E+01  0.47091874512E+01  0.10503455129E+02  0.00000000000E+00 0. -1.
</event>
<event>
 7    1  0.1098446E-012  0.5052883E+02  0.7816164E-02  0.1300439E+00
        -11   -1    0    0    0    0  0.00000000000E+00  0.00000000000E+00  0.45593999997E+02  0.45594000000E+02  0.51100000000E-03 0. -1.
         11   -1    0    0    0    0 -0.00000000000E+00 -0.00000000000E+00 -0.45593999997E+02  0.45594000000E+02  0.51100000000E-03 0.  1.
    9900012    2    1    2    0    0  0.19937777174E+02  0.30435416097E+02  0.18147681975E+02  0.50528832858E+02  0.29999917954E+02 0.  0.
        -12    1    1    2    0    0 -0.19937777174E+02 -0.30435416097E+02 -0.18147681975E+02  0.40659167142E+02  0.00000000000E+00 0.  1.
         11    1    3    3    0    0  0.81630264237E+00  0.20549771418E+01  0.12472029074E+02  0.12666522432E+02  0.51100000000E-03 0. -1.
        -11    1    3    3    0    0  0.16977193648E+02  0.30185098066E+02  0.52590955343E+01  0.35028892868E+02  0.51100000000E-03 0.  1.
         12    1    3    3    0    0  0.21442808836E+01 -0.18046591113E+01  0.41655736749E+00  0.28334175577E+01  0.00000000000E+00 0. -1.
</event>
<event>
 7    1  0.1098446E-012  0.5052885E+02  0.7816164E-02  0.1300439E+00
        -11   -1    0    0    0    0  0.00000000000E+00  0.00000000000E+00  0.45593999997E+02  0.45594000000E+02  0.51100000000E-03 0.  1.
         11   -1    0    0    0    0 -0.00000000000E+00 -0.00000000000E+00 -0.45593999997E+02  0.45594000000E+02  0.51100000000E-03 0. -1.
    9900012    2    1    2    0    0 -0.19584795794E+01  0.83817353472E+01 -0.39737603169E+02  0.50528852994E+02  0.29999979159E+02 0.  0.
        -12    1    1    2    0    0  0.19584795794E+01 -0.83817353472E+01  0.39737603169E+02  0.40659147006E+02  0.00000000000E+00 0.  1.
         11    1    3    3    0    0 -0.27488323963E+01  0.30087271548E+01 -0.12221657772E+02  0.12883223106E+02  0.51100000000E-03 0. -1.
        -11    1    3    3    0    0  0.36878333313E+01  0.13826166171E+02 -0.85227713668E+01  0.16655348021E+02  0.51100000000E-03 0.  1.
        -12    1    3    3    0    0 -0.28974805145E+01 -0.84531579782E+01 -0.18993174030E+02  0.20990281867E+02  0.00000000000E+00 0.  1.
</event>
<event>
 7    1  0.1098446E-012  0.5052885E+02  0.7816164E-02  0.1300439E+00
        -11   -1    0    0    0    0  0.00000000000E+00  0.00000000000E+00  0.45593999997E+02  0.45594000000E+02  0.51100000000E-03 0.  1.
         11   -1    0    0    0    0 -0.00000000000E+00 -0.00000000000E+00 -0.45593999997E+02  0.45594000000E+02  0.51100000000E-03 0. -1.
    9900012    2    1    2    0    0  0.20398586759E+02 -0.11672221366E+02 -0.33178658283E+02  0.50528850245E+02  0.29999970803E+02 0.  0.
        -12    1    1    2    0    0 -0.20398586759E+02  0.11672221366E+02  0.33178658283E+02  0.40659149755E+02  0.00000000000E+00 0.  1.
         11    1    3    3    0    0  0.87700312342E+01 -0.44498450799E+01 -0.19722895717E+02  0.22038765501E+02  0.51100000000E-03 0. -1.
        -11    1    3    3    0    0  0.75575992042E+01 -0.13932870053E+02 -0.42858135355E+01  0.16419816429E+02  0.51100000000E-03 0.  1.
        -12    1    3    3    0    0  0.40709563209E+01  0.67104937668E+01 -0.91699490301E+01  0.12070268314E+02  0.00000000000E+00 0.  1.
</event>
<event>
 7    1  0.1098446E-012  0.5052886E+02  0.7816164E-02  0.1300439E+00
        -11   -1    0    0    0    0  0.00000000000E+00  0.00000000000E+00  0.45593999997E+02  0.45594000000E+02  0.51100000000E-03 0. -1.
         11   -1    0    0    0    0 -0.00000000000E+00 -0.00000000000E+00 -0.45593999997E+02  0.45594000000E+02  0.51100000000E-03 0.  1.
    9900012    2    1    2    0    0 -0.21652269074E+02  0.32776858801E+02  0.10489147572E+02  0.50528862704E+02  0.30000008675E+02 0.  0.
        -12    1    1    2    0    0  0.21652269074E+02 -0.32776858801E+02 -0.10489147572E+02  0.40659137296E+02  0.00000000000E+00 0.  1.
         11    1    3    3    0    0  0.14396787654E+01  0.19202105012E+02  0.80407104371E+01  0.20867355760E+02  0.51100000000E-03 0. -1.
        -11    1    3    3    0    0 -0.15611415750E+02  0.74173516006E+01  0.73756531174E+01  0.18791851044E+02  0.51100000000E-03 0.  1.
         12    1    3    3    0    0 -0.74805320885E+01  0.61574021884E+01 -0.49272159828E+01  0.10869655900E+02  0.00000000000E+00 0. -1.
</event>
<event>
 7    1  0.1098446E-012  0.5052886E+02  0.7816164E-02  0.1300439E+00
        -11   -1    0    0    0    0  0.00000000000E+00  0.00000000000E+00  0.45593999997E+02  0.45594000000E+02  0.51100000000E-03 0. -1.
         11   -1    0    0    0    0 -0.00000000000E+00 -0.00000000000E+00 -0.45593999997E+02  0.45594000000E+02  0.51100000000E-03 0.  1.
    9900012    2    1    2    0    0 -0.21127658452E+02 -0.20667851563E+02  0.27921810103E+02  0.50528861798E+02  0.30000005921E+02 0.  0.
        -12    1    1    2    0    0  0.21127658452E+02  0.20667851563E+02 -0.27921810103E+02  0.40659138202E+02  0.00000000000E+00 0.  1.
         11    1    3    3    0    0 -0.24941963680E+02 -0.12587205038E+02  0.18285533556E+02  0.33390118607E+02  0.51100000000E-03 0. -1.
        -11    1    3    3    0    0  0.52263123873E-01 -0.59739990126E+01 -0.62652096578E+00  0.60069896303E+01  0.51100000000E-03 0.  1.
         12    1    3    3    0    0  0.37620421044E+01 -0.21066475122E+01  0.10262797513E+02  0.11131753561E+02  0.00000000000E+00 0. -1.
</event>
<event>
 7    1  0.1098446E-012  0.5052886E+02  0.7816164E-02  0.1300439E+00
        -11   -1    0    0    0    0  0.00000000000E+00  0.00000000000E+00  0.45593999997E+02  0.45594000000E+02  0.51100000000E-03 0.  1.
         11   -1    0    0    0    0 -0.00000000000E+00 -0.00000000000E+00 -0.45593999997E+02  0.45594000000E+02  0.51100000000E-03 0. -1.
    9900012    2    1    2    0    0 -0.25517388005E+01  0.39793561234E+02 -0.79452493660E+01  0.50528857436E+02  0.29999992662E+02 0.  0.
        -12    1    1    2    0    0  0.25517388005E+01 -0.39793561234E+02  0.79452493660E+01  0.40659142564E+02  0.00000000000E+00 0.  1.
         11    1    3    3    0    0  0.74462764749E+01  0.32200978195E+02  0.31799568291E+01  0.33203345550E+02  0.51100000000E-03 0. -1.
        -11    1    3    3    0    0 -0.70418193241E+01  0.38988647563E+01 -0.91830908655E+01  0.12211368633E+02  0.51100000000E-03 0.  1.
         12    1    3    3    0    0 -0.29561959513E+01  0.36937182826E+01 -0.19421153296E+01  0.51141432525E+01  0.00000000000E+00 0. -1.
</event>
<event>
 7    1  0.1098446E-012  0.5052886E+02  0.7816164E-02  0.1300439E+00
        -11   -1    0    0    0    0  0.00000000000E+00  0.00000000000E+00  0.45593999997E+02  0.45594000000E+02  0.51100000000E-03 0.  1.
         11   -1    0    0    0    0 -0.00000000000E+00 -0.00000000000E+00 -0.45593999997E+02  0.45594000000E+02  0.51100000000E-03 0. -1.
    9900012    2    1    2    0    0 -0.29579383830E+02  0.27749590364E+02 -0.28611598748E+01  0.50528856515E+02  0.29999989863E+02 0.  0.
        -12    1    1    2    0    0  0.29579383830E+02 -0.27749590364E+02  0.28611598748E+01  0.40659143485E+02  0.00000000000E+00 0.  1.
         11    1    3    3    0    0 -0.15795446641E+02  0.24372418474E+02 -0.11701935735E+01  0.29066824218E+02  0.51100000000E-03 0. -1.
        -11    1    3    3    0    0 -0.23564166782E+01 -0.13689506266E+01  0.62093990280E+01  0.67811032973E+01  0.51100000000E-03 0.  1.
         12    1    3    3    0    0 -0.11427520510E+02  0.47461225166E+01 -0.79003653292E+01  0.14680929000E+02  0.00000000000E+00 0. -1.
</event>
<event>
 7    1  0.1098446E-012  0.5052886E+02  0.7816164E-02  0.1300439E+00
        -11   -1    0    0    0    0  0.00000000000E+00  0.00000000000E+00  0.45593999997E+02  0.45594000000E+02  0.51100000000E-03 0.  1.
         11   -1    0    0    0    0 -0.00000000000E+00 -0.00000000000E+00 -0.45593999997E+02  0.45594000000E+02  0.51100000000E-03 0. -1.
    9900012    2    1    2    0    0 -0.14272814630E+02  0.22534642988E+02 -0.30686192424E+02  0.50528858622E+02  0.29999996268E+02 0.  0.
        -12    1    1    2    0    0  0.14272814630E+02 -0.22534642988E+02  0.30686192424E+02  0.40659141378E+02  0.00000000000E+00 0.  1.
         11    1    3    3    0    0 -0.93352319827E+01 -0.18960373426E+01 -0.54264124345E+01  0.10963004421E+02  0.51100000000E-03 0. -1.
        -11    1    3    3    0    0 -0.10398146162E+02  0.17310261311E+02 -0.11796829769E+02  0.23386572710E+02  0.51100000000E-03 0.  1.
        -12    1    3    3    0    0  0.54605635141E+01  0.71204190198E+01 -0.13462950221E+02  0.16179281491E+02  0.00000000000E+00 0.  1.
</event>
<event>
 7    1  0.1098446E-012  0.5052883E+02  0.7816164E-02  0.1300439E+00
        -11   -1    0    0    0    0  0.00000000000E+00  0.00000000000E+00  0.45593999997E+02  0.45594000000E+02  0.51100000000E-03 0.  1.
         11   -1    0    0    0    0 -0.00000000000E+00 -0.00000000000E+00 -0.45593999997E+02  0.45594000000E+02  0.51100000000E-03 0. -1.
    9900012    2    1    2    0    0 -0.11073926249E+02 -0.17377811024E+02 -0.35050648357E+02  0.50528829954E+02  0.29999909129E+02 0.  0.
        -12    1    1    2    0    0  0.11073926249E+02  0.17377811024E+02  0.35050648357E+02  0.40659170046E+02  0.00000000000E+00 0.  1.
         11    1    3    3    0    0 -0.13605918988E+02 -0.21421446806E+02 -0.32775105360E+02  0.41451259889E+02  0.51100000000E-03 0. -1.
        -11    1    3    3    0    0  0.31389845317E+00 -0.57539804376E+00  0.21867722289E+01  0.22828903149E+01  0.51100000000E-03 0.  1.
         12    1    3    3    0    0  0.22180942858E+01  0.46190338253E+01 -0.44623152253E+01  0.67946797503E+01  0.00000000000E+00 0. -1.
</event>
<event>
 7    1  0.1098446E-012  0.5052882E+02  0.7816164E-02  0.1300439E+00
        -11   -1    0    0    0    0  0.00000000000E+00  0.00000000000E+00  0.45593999997E+02  0.45594000000E+02  0.51100000000E-03 0. -1.
         11   -1    0    0    0    0 -0.00000000000E+00 -0.00000000000E+00 -0.45593999997E+02  0.45594000000E+02  0.51100000000E-03 0.  1.
    9900012    2    1    2    0    0 -0.15279816169E+02 -0.35629619953E+02  0.12256699792E+02  0.50528815429E+02  0.29999864979E+02 0.  0.
        -12    1    1    2    0    0  0.15279816169E+02  0.35629619953E+02 -0.12256699792E+02  0.40659184571E+02  0.00000000000E+00 0.  1.
         11    1    3    3    0    0 -0.19241443634E+02 -0.20268441408E+02  0.10442435787E+02  0.29834331493E+02  0.51100000000E-03 0. -1.
        -11    1    3    3    0    0  0.79259494819E+01 -0.50045992835E+01  0.20807755833E+01  0.96018912963E+01  0.51100000000E-03 0.  1.
        -12    1    3    3    0    0 -0.39643220172E+01 -0.10356579261E+02 -0.26651157822E+00  0.11092592640E+02  0.00000000000E+00 0.  1.
</event>
<event>
 7    1  0.1098446E-012  0.5052887E+02  0.7816164E-02  0.1300439E+00
        -11   -1    0    0    0    0  0.00000000000E+00  0.00000000000E+00  0.45593999997E+02  0.45594000000E+02  0.51100000000E-03 0. -1.
         11   -1    0    0    0    0 -0.00000000000E+00 -0.00000000000E+00 -0.45593999997E+02  0.45594000000E+02  0.51100000000E-03 0.  1.
    9900012    2    1    2    0    0 -0.11542567463E+02 -0.16299960536E+02  0.35415328536E+02  0.50528867293E+02  0.30000022625E+02 0.  0.
        -12    1    1    2    0    0  0.11542567463E+02  0.16299960536E+02 -0.35415328536E+02  0.40659132707E+02  0.00000000000E+00 0.  1.
         11    1    3    3    0    0 -0.17042819361E+00 -0.14663301601E+02  0.12878473095E+02  0.19516570629E+02  0.51100000000E-03 0. -1.
        -11    1    3    3    0    0  0.39150503619E+01  0.34162078317E+01  0.51552401911E+01  0.73194669870E+01  0.51100000000E-03 0.  1.
        -12    1    3    3    0    0 -0.15287189631E+02 -0.50528667669E+01  0.17381615250E+02  0.23692829677E+02  0.00000000000E+00 0.  1.
</event>
<event>
 7    1  0.1098446E-012  0.5052885E+02  0.7816164E-02  0.1300439E+00
        -11   -1    0    0    0    0  0.00000000000E+00  0.00000000000E+00  0.45593999997E+02  0.45594000000E+02  0.51100000000E-03 0. -1.
         11   -1    0    0    0    0 -0.00000000000E+00 -0.00000000000E+00 -0.45593999997E+02  0.45594000000E+02  0.51100000000E-03 0.  1.
    9900012    2    1    2    0    0  0.18972643051E+02 -0.35340499439E+02 -0.66524060333E+01  0.50528848620E+02  0.29999965865E+02 0.  0.
        -12    1    1    2    0    0 -0.18972643051E+02  0.35340499439E+02  0.66524060333E+01  0.40659151380E+02  0.00000000000E+00 0.  1.
         11    1    3    3    0    0  0.14786677415E+02 -0.85918288402E+01  0.21421375891E+01  0.17235257628E+02  0.51100000000E-03 0. -1.
        -11    1    3    3    0    0 -0.50589418666E+01 -0.35614247251E+01  0.13775042463E+01  0.63383086934E+01  0.51100000000E-03 0.  1.
         12    1    3    3    0    0  0.92449075024E+01 -0.23187245874E+02 -0.10172047869E+02  0.26955282298E+02  0.00000000000E+00 0. -1.
</event>
<event>
 7    1  0.1098446E-012  0.5052885E+02  0.7816164E-02  0.1300439E+00
        -11   -1    0    0    0    0  0.00000000000E+00  0.00000000000E+00  0.45593999997E+02  0.45594000000E+02  0.51100000000E-03 0. -1.
         11   -1    0    0    0    0 -0.00000000000E+00 -0.00000000000E+00 -0.45593999997E+02  0.45594000000E+02  0.51100000000E-03 0.  1.
    9900012    2    1    2    0    0  0.38552095283E+02 -0.12176119756E+02  0.43179667947E+01  0.50528846292E+02  0.29999958788E+02 0.  0.
        -12    1    1    2    0    0 -0.38552095283E+02  0.12176119756E+02 -0.43179667947E+01  0.40659153708E+02  0.00000000000E+00 0.  1.
         11    1    3    3    0    0  0.32092509318E+02 -0.17268930837E+02  0.11006842405E+02  0.38069616580E+02  0.51100000000E-03 0. -1.
        -11    1    3    3    0    0  0.27857630943E+01  0.10294929370E+01 -0.63031116653E+01  0.69677506163E+01  0.51100000000E-03 0.  1.
         12    1    3    3    0    0  0.36738228713E+01  0.40633181441E+01 -0.38576394483E+00  0.54914790951E+01  0.00000000000E+00 0. -1.
</event>
<event>
 7    1  0.1098446E-012  0.5052884E+02  0.7816164E-02  0.1300439E+00
        -11   -1    0    0    0    0  0.00000000000E+00  0.00000000000E+00  0.45593999997E+02  0.45594000000E+02  0.51100000000E-03 0. -1.
         11   -1    0    0    0    0 -0.00000000000E+00 -0.00000000000E+00 -0.45593999997E+02  0.45594000000E+02  0.51100000000E-03 0.  1.
    9900012    2    1    2    0    0 -0.96886175542E+01  0.39355126698E+02 -0.32359870872E+01  0.50528844574E+02  0.29999953568E+02 0.  0.
        -12    1    1    2    0    0  0.96886175542E+01 -0.39355126698E+02  0.32359870872E+01  0.40659155426E+02  0.00000000000E+00 0.  1.
         11    1    3    3    0    0  0.40859224035E+01  0.21563595312E+01 -0.55925954529E+01  0.72540866052E+01  0.51100000000E-03 0. -1.
        -11    1    3    3    0    0 -0.45529451711E+01  0.27385960057E+02 -0.45641882685E+01  0.28134532745E+02  0.51100000000E-03 0.  1.
         12    1    3    3    0    0 -0.92215947866E+01  0.98128071092E+01  0.69207966341E+01  0.15140225224E+02  0.00000000000E+00 0. -1.
</event>
<event>
 7    1  0.1098446E-012  0.5052882E+02  0.7816164E-02  0.1300439E+00
        -11   -1    0    0    0    0  0.00000000000E+00  0.00000000000E+00  0.45593999997E+02  0.45594000000E+02  0.51100000000E-03 0.  1.
         11   -1    0    0    0    0 -0.00000000000E+00 -0.00000000000E+00 -0.45593999997E+02  0.45594000000E+02  0.51100000000E-03 0. -1.
    9900012    2    1    2    0    0 -0.91484707738E+01  0.23682523813E+02 -0.31758659099E+02  0.50528820478E+02  0.29999880323E+02 0.  0.
        -12    1    1    2    0    0  0.91484707738E+01 -0.23682523813E+02  0.31758659099E+02  0.40659179522E+02  0.00000000000E+00 0.  1.
         11    1    3    3    0    0 -0.78223592440E+01  0.63099293964E+01 -0.19418791757E+02  0.21865360429E+02  0.51100000000E-03 0. -1.
        -11    1    3    3    0    0  0.40212396333E+01  0.19431618637E+02 -0.76796680668E+01  0.21277581463E+02  0.51100000000E-03 0.  1.
        -12    1    3    3    0    0 -0.53473511631E+01 -0.20590242197E+01 -0.46601992757E+01  0.73858785861E+01  0.00000000000E+00 0.  1.
</event>
<event>
 7    1  0.1098446E-012  0.5052890E+02  0.7816164E-02  0.1300439E+00
        -11   -1    0    0    0    0  0.00000000000E+00  0.00000000000E+00  0.45593999997E+02  0.45594000000E+02  0.51100000000E-03 0. -1.
         11   -1    0    0    0    0 -0.00000000000E+00 -0.00000000000E+00 -0.45593999997E+02  0.45594000000E+02  0.51100000000E-03 0.  1.
    9900012    2    1    2    0    0  0.11297052478E+02  0.20168417620E+02  0.33448081331E+02  0.50528897591E+02  0.30000114718E+02 0.  0.
        -12    1    1    2    0    0 -0.11297052478E+02 -0.20168417620E+02 -0.33448081331E+02  0.40659102409E+02  0.00000000000E+00 0.  1.
         11    1    3    3    0    0 -0.19795870284E+01  0.16772840015E+02  0.77575863072E+01  0.18585668472E+02  0.51100000000E-03 0. -1.
        -11    1    3    3    0    0  0.11892871767E+02  0.65410124371E+01  0.24987202246E+02  0.28435638184E+02  0.51100000000E-03 0.  1.
        -12    1    3    3    0    0  0.13837677387E+01 -0.31454348322E+01  0.70329277751E+00  0.35075909353E+01  0.00000000000E+00 0.  1.
</event>
<event>
 7    1  0.1098446E-012  0.5052886E+02  0.7816164E-02  0.1300439E+00
        -11   -1    0    0    0    0  0.00000000000E+00  0.00000000000E+00  0.45593999997E+02  0.45594000000E+02  0.51100000000E-03 0. -1.
         11   -1    0    0    0    0 -0.00000000000E+00 -0.00000000000E+00 -0.45593999997E+02  0.45594000000E+02  0.51100000000E-03 0.  1.
    9900012    2    1    2    0    0  0.12525039345E+02  0.32547465032E+02 -0.20903388934E+02  0.50528858844E+02  0.29999996942E+02 0.  0.
        -12    1    1    2    0    0 -0.12525039345E+02 -0.32547465032E+02  0.20903388934E+02  0.40659141156E+02  0.00000000000E+00 0.  1.
         11    1    3    3    0    0  0.17294821895E+02  0.10975552295E+02 -0.14271681954E+02  0.24965065964E+02  0.51100000000E-03 0. -1.
        -11    1    3    3    0    0 -0.51866361818E+01  0.21664079608E+02 -0.83525936660E+01  0.23790741085E+02  0.51100000000E-03 0.  1.
        -12    1    3    3    0    0  0.41685363254E+00 -0.92166870800E-01  0.17208866856E+01  0.17730517950E+01  0.00000000000E+00 0.  1.
</event>
<event>
 7    1  0.1212292E-012  0.5052884E+02  0.7816164E-02  0.1300439E+00
        -11   -1    0    0    0    0  0.00000000000E+00  0.00000000000E+00  0.45593999997E+02  0.45594000000E+02  0.51100000000E-03 0.  1.
         11   -1    0    0    0    0 -0.00000000000E+00 -0.00000000000E+00 -0.45593999997E+02  0.45594000000E+02  0.51100000000E-03 0. -1.
    9900012    2    1    2    0    0 -0.10106017075E+02  0.36080845522E+02 -0.15786339221E+02  0.50528837432E+02  0.29999931859E+02 0.  0.
        -12    1    1    2    0    0  0.10106017075E+02 -0.36080845522E+02  0.15786339221E+02  0.40659162568E+02  0.00000000000E+00 0.  1.
         11    1    3    3    0    0 -0.84035659890E+01  0.34944918457E+02 -0.15448093993E+02  0.39120465943E+02  0.51100000000E-03 0. -1.
        -11    1    3    3    0    0  0.12846294081E+01  0.12795467346E+01  0.49839606376E+01  0.53035249090E+01  0.51100000000E-03 0.  1.
        -12    1    3    3    0    0 -0.29870804945E+01 -0.14361967003E+00 -0.53222058658E+01  0.61048465802E+01  0.00000000000E+00 0.  1.
</event>
<event>
 7    1  0.1098446E-012  0.5052886E+02  0.7816164E-02  0.1300439E+00
        -11   -1    0    0    0    0  0.00000000000E+00  0.00000000000E+00  0.45593999997E+02  0.45594000000E+02  0.51100000000E-03 0. -1.
         11   -1    0    0    0    0 -0.00000000000E+00 -0.00000000000E+00 -0.45593999997E+02  0.45594000000E+02  0.51100000000E-03 0.  1.
    9900012    2    1    2    0    0  0.26136799302E+02  0.12992569394E+02  0.28305942528E+02  0.50528861795E+02  0.30000005911E+02 0.  0.
        -12    1    1    2    0    0 -0.26136799302E+02 -0.12992569394E+02 -0.28305942528E+02  0.40659138205E+02  0.00000000000E+00 0.  1.
         11    1    3    3    0    0  0.15107242623E+02  0.28406233628E+01  0.61303641496E+01  0.16549298645E+02  0.51100000000E-03 0. -1.
        -11    1    3    3    0    0  0.23321963928E+00  0.94630691247E+01  0.18016754482E+00  0.94676570103E+01  0.51100000000E-03 0.  1.
        -12    1    3    3    0    0  0.10796337040E+02  0.68887690696E+00  0.21995410833E+02  0.24511906140E+02  0.00000000000E+00 0.  1.
</event>
<event>
 7    1  0.1098446E-012  0.5052886E+02  0.7816164E-02  0.1300439E+00
        -11   -1    0    0    0    0  0.00000000000E+00  0.00000000000E+00  0.45593999997E+02  0.45594000000E+02  0.51100000000E-03 0. -1.
         11   -1    0    0    0    0 -0.00000000000E+00 -0.00000000000E+00 -0.45593999997E+02  0.45594000000E+02  0.51100000000E-03 0.  1.
    9900012    2    1    2    0    0 -0.26275610230E+02  0.31021808494E+00  0.31026792023E+02  0.50528858943E+02  0.29999997244E+02 0.  0.
        -12    1    1    2    0    0  0.26275610230E+02 -0.31021808494E+00 -0.31026792023E+02  0.40659141057E+02  0.00000000000E+00 0.  1.
         11    1    3    3    0    0  0.29013464191E+01 -0.73795313993E+01  0.28221860899E+01  0.84166519058E+01  0.51100000000E-03 0. -1.
        -11    1    3    3    0    0 -0.83315354913E+01 -0.13537772078E+01  0.61245167349E+01  0.10428657721E+02  0.51100000000E-03 0.  1.
         12    1    3    3    0    0 -0.20845421158E+02  0.90435266920E+01  0.22080089198E+02  0.31683549316E+02  0.00000000000E+00 0. -1.
</event>
<event>
 7    1  0.1098446E-012  0.5052879E+02  0.7816164E-02  0.1300439E+00
        -11   -1    0    0    0    0  0.00000000000E+00  0.00000000000E+00  0.45593999997E+02  0.45594000000E+02  0.51100000000E-03 0. -1.
         11   -1    0    0    0    0 -0.00000000000E+00 -0.00000000000E+00 -0.45593999997E+02  0.45594000000E+02  0.51100000000E-03 0.  1.
    9900012    2    1    2    0    0 -0.36693170657E+02 -0.10360477710E+02 -0.14122430953E+02  0.50528790376E+02  0.29999788825E+02 0.  0.
        -12    1    1    2    0    0  0.36693170657E+02  0.10360477710E+02  0.14122430953E+02  0.40659209624E+02  0.00000000000E+00 0.  1.
         11    1    3    3    0    0 -0.10610726826E+02  0.21049456993E+01 -0.39360396444E+01  0.11511330441E+02  0.51100000000E-03 0. -1.
        -11    1    3    3    0    0 -0.28685762087E+01 -0.59859179295E+01 -0.13154348673E+02  0.14734206195E+02  0.51100000000E-03 0.  1.
        -12    1    3    3    0    0 -0.23213867622E+02 -0.64795054795E+01  0.29679573651E+01  0.24283253739E+02  0.00000000000E+00 0.  1.
</event>
<event>
 7    1  0.1098446E-012  0.5052886E+02  0.7816164E-02  0.1300439E+00
        -11   -1    0    0    0    0  0.00000000000E+00  0.00000000000E+00  0.45593999997E+02  0.45594000000E+02  0.51100000000E-03 0. -1.
         11   -1    0    0    0    0 -0.00000000000E+00 -0.00000000000E+00 -0.45593999997E+02  0.45594000000E+02  0.51100000000E-03 0.  1.
    9900012    2    1    2    0    0  0.26260447763E+01 -0.32665685625E+02  0.24067043786E+02  0.50528859268E+02  0.29999998230E+02 0.  0.
        -12    1    1    2    0    0 -0.26260447763E+01  0.32665685625E+02 -0.24067043786E+02  0.40659140732E+02  0.00000000000E+00 0.  1.
         11    1    3    3    0    0 -0.79130552752E+01 -0.13217745524E+02  0.90470855342E+01  0.17865469416E+02  0.51100000000E-03 0. -1.
        -11    1    3    3    0    0  0.15951343810E+02 -0.15305569040E+02  0.10409327856E+02  0.24434809589E+02  0.51100000000E-03 0.  1.
        -12    1    3    3    0    0 -0.54122437581E+01 -0.41423710608E+01  0.46106303957E+01  0.82285802632E+01  0.00000000000E+00 0.  1.
</event>
<event>
 7    1  0.1098446E-012  0.5052886E+02  0.7816164E-02  0.1300439E+00
        -11   -1    0    0    0    0  0.00000000000E+00  0.00000000000E+00  0.45593999997E+02  0.45594000000E+02  0.51100000000E-03 0.  1.
         11   -1    0    0    0    0 -0.00000000000E+00 -0.00000000000E+00 -0.45593999997E+02  0.45594000000E+02  0.51100000000E-03 0. -1.
    9900012    2    1    2    0    0 -0.39417007389E+02  0.85446765605E+01 -0.51433360948E+01  0.50528857422E+02  0.29999992618E+02 0.  0.
        -12    1    1    2    0    0  0.39417007389E+02 -0.85446765605E+01  0.51433360948E+01  0.40659142578E+02  0.00000000000E+00 0.  1.
         11    1    3    3    0    0 -0.24415350806E+02  0.16118967987E+02  0.10569657108E+01  0.29275376355E+02  0.51100000000E-03 0. -1.
        -11    1    3    3    0    0  0.18161558992E+01  0.48114860161E-01 -0.15016593807E+00  0.18229885792E+01  0.51100000000E-03 0.  1.
         12    1    3    3    0    0 -0.16817812482E+02 -0.76224062866E+01 -0.60501358676E+01  0.19430492488E+02  0.00000000000E+00 0. -1.
</event>
<event>
 7    1  0.1098446E-012  0.5052886E+02  0.7816164E-02  0.1300439E+00
        -11   -1    0    0    0    0  0.00000000000E+00  0.00000000000E+00  0.45593999997E+02  0.45594000000E+02  0.51100000000E-03 0. -1.
         11   -1    0    0    0    0 -0.00000000000E+00 -0.00000000000E+00 -0.45593999997E+02  0.45594000000E+02  0.51100000000E-03 0.  1.
    9900012    2    1    2    0    0  0.30245513846E+02 -0.39845218657E+01  0.26879318711E+02  0.50528864536E+02  0.30000014245E+02 0.  0.
        -12    1    1    2    0    0 -0.30245513846E+02  0.39845218657E+01 -0.26879318711E+02  0.40659135464E+02  0.00000000000E+00 0.  1.
         11    1    3    3    0    0  0.30934192872E+02 -0.81644886459E+01  0.16389434557E+02  0.35947137979E+02  0.51100000000E-03 0. -1.
        -11    1    3    3    0    0 -0.45178181085E+01  0.12112900737E+01  0.76471926081E+01  0.89642322120E+01  0.51100000000E-03 0.  1.
         12    1    3    3    0    0  0.38291390823E+01  0.29686767065E+01  0.28426915452E+01  0.56174943454E+01  0.00000000000E+00 0. -1.
</event>
<event>
 7    1  0.1120636E-012  0.5052886E+02  0.7816164E-02  0.1300439E+00
        -11   -1    0    0    0    0  0.00000000000E+00  0.00000000000E+00  0.45593999997E+02  0.45594000000E+02  0.51100000000E-03 0. -1.
         11   -1    0    0    0    0 -0.00000000000E+00 -0.00000000000E+00 -0.45593999997E+02  0.45594000000E+02  0.51100000000E-03 0.  1.
    9900012    2    1    2    0    0  0.51491947156E+01  0.28151240574E+02  0.28881811097E+02  0.50528861245E+02  0.30000004239E+02 0.  0.
        -12    1    1    2    0    0 -0.51491947156E+01 -0.28151240574E+02 -0.28881811097E+02  0.40659138755E+02  0.00000000000E+00 0.  1.
         11    1    3    3    0    0 -0.60521885451E+01  0.17171428814E+02  0.21838583060E+02  0.28432563444E+02  0.51100000000E-03 0. -1.
        -11    1    3    3    0    0  0.69378603219E+01 -0.18951602588E+01  0.38713242646E+01  0.81677836698E+01  0.51100000000E-03 0.  1.
        -12    1    3    3    0    0  0.42635229388E+01  0.12874972020E+02  0.31719037725E+01  0.13928514131E+02  0.00000000000E+00 0.  1.
</event>
<event>
 7    1  0.1098446E-012  0.5052890E+02  0.7816164E-02  0.1300439E+00
        -11   -1    0    0    0    0  0.00000000000E+00  0.00000000000E+00  0.45593999997E+02  0.45594000000E+02  0.51100000000E-03 0.  1.
         11   -1    0    0    0    0 -0.00000000000E+00 -0.00000000000E+00 -0.45593999997E+02  0.45594000000E+02  0.51100000000E-03 0. -1.
    9900012    2    1    2    0    0  0.23521549797E+02  0.30743594023E+01 -0.33021917265E+02  0.50528904948E+02  0.30000137080E+02 0.  0.
        -12    1    1    2    0    0 -0.23521549797E+02 -0.30743594023E+01  0.33021917265E+02  0.40659095052E+02  0.00000000000E+00 0.  1.
         11    1    3    3    0    0  0.82950368338E+01  0.21506783599E+01 -0.33658989551E+02  0.34732702621E+02  0.51100000000E-03 0. -1.
        -11    1    3    3    0    0  0.14370217506E+02 -0.12085920999E+00  0.97544677242E+00  0.14403793069E+02  0.51100000000E-03 0.  1.
         12    1    3    3    0    0  0.85629545775E+00  0.10445402524E+01 -0.33837448640E+00  0.13924092584E+01  0.00000000000E+00 0. -1.
</event>
<event>
 7    1  0.1098446E-012  0.5052886E+02  0.7816164E-02  0.1300439E+00
        -11   -1    0    0    0    0  0.00000000000E+00  0.00000000000E+00  0.45593999997E+02  0.45594000000E+02  0.51100000000E-03 0.  1.
         11   -1    0    0    0    0 -0.00000000000E+00 -0.00000000000E+00 -0.45593999997E+02  0.45594000000E+02  0.51100000000E-03 0. -1.
    9900012    2    1    2    0    0 -0.15108538057E+02  0.22955142515E+02 -0.29965967009E+02  0.50528859959E+02  0.30000000330E+02 0.  0.
        -12    1    1    2    0    0  0.15108538057E+02 -0.22955142515E+02  0.29965967009E+02  0.40659140041E+02  0.00000000000E+00 0.  1.
         11    1    3    3    0    0 -0.89438807150E+00  0.90705806162E+01 -0.15312962836E+02  0.17820274796E+02  0.51100000000E-03 0. -1.
        -11    1    3    3    0    0 -0.62556846652E+01  0.50755619958E+01  0.51918404004E+01  0.95838472029E+01  0.51100000000E-03 0.  1.
        -12    1    3    3    0    0 -0.79584653205E+01  0.88089999029E+01 -0.19844844574E+02  0.23124737960E+02  0.00000000000E+00 0.  1.
</event>
<event>
 7    1  0.1098446E-012  0.5052886E+02  0.7816164E-02  0.1300439E+00
        -11   -1    0    0    0    0  0.00000000000E+00  0.00000000000E+00  0.45593999997E+02  0.45594000000E+02  0.51100000000E-03 0.  1.
         11   -1    0    0    0    0 -0.00000000000E+00 -0.00000000000E+00 -0.45593999997E+02  0.45594000000E+02  0.51100000000E-03 0. -1.
    9900012    2    1    2    0    0 -0.10889891291E+02  0.25853710016E+02 -0.29430630446E+02  0.50528855120E+02  0.29999985623E+02 0.  0.
        -12    1    1    2    0    0  0.10889891291E+02 -0.25853710016E+02  0.29430630446E+02  0.40659144880E+02  0.00000000000E+00 0.  1.
         11    1    3    3    0    0  0.14889616196E+01  0.14309641270E+02 -0.26241253902E+02  0.29926347031E+02  0.51100000000E-03 0. -1.
        -11    1    3    3    0    0 -0.66618325951E+01  0.12847960293E+02 -0.18768491545E+01  0.14593582844E+02  0.51100000000E-03 0.  1.
         12    1    3    3    0    0 -0.57170203159E+01 -0.13038915467E+01 -0.13125273889E+01  0.60089252454E+01  0.00000000000E+00 0. -1.
</event>
<event>
 7    1  0.1098446E-012  0.5052886E+02  0.7816164E-02  0.1300439E+00
        -11   -1    0    0    0    0  0.00000000000E+00  0.00000000000E+00  0.45593999997E+02  0.45594000000E+02  0.51100000000E-03 0. -1.
         11   -1    0    0    0    0 -0.00000000000E+00 -0.00000000000E+00 -0.45593999997E+02  0.45594000000E+02  0.51100000000E-03 0.  1.
    9900012    2    1    2    0    0 -0.33743063688E+02 -0.18735976025E+02  0.12788067760E+02  0.50528858080E+02  0.29999994619E+02 0.  0.
        -12    1    1    2    0    0  0.33743063688E+02  0.18735976025E+02 -0.12788067760E+02  0.40659141920E+02  0.00000000000E+00 0.  1.
         11    1    3    3    0    0 -0.30688708667E+02 -0.20646835342E+02  0.11441324253E+02  0.38716825157E+02  0.51100000000E-03 0. -1.
        -11    1    3    3    0    0 -0.40768691778E+01  0.59606770458E+01 -0.51316982245E+00  0.72397428590E+01  0.51100000000E-03 0.  1.
         12    1    3    3    0    0  0.10225141569E+01 -0.40498177284E+01  0.18599133302E+01  0.45722900640E+01  0.00000000000E+00 0. -1.
</event>
<event>
 7    1  0.1098446E-012  0.5052887E+02  0.7816164E-02  0.1300439E+00
        -11   -1    0    0    0    0  0.00000000000E+00  0.00000000000E+00  0.45593999997E+02  0.45594000000E+02  0.51100000000E-03 0.  1.
         11   -1    0    0    0    0 -0.00000000000E+00 -0.00000000000E+00 -0.45593999997E+02  0.45594000000E+02  0.51100000000E-03 0. -1.
    9900012    2    1    2    0    0  0.32175785382E+01  0.39829407929E+02 -0.75120295354E+01  0.50528866519E+02  0.30000020272E+02 0.  0.
        -12    1    1    2    0    0 -0.32175785382E+01 -0.39829407929E+02  0.75120295354E+01  0.40659133481E+02  0.00000000000E+00 0.  1.
         11    1    3    3    0    0 -0.20168587082E+01  0.17031534674E+02 -0.44615835411E+01  0.17721360567E+02  0.51100000000E-03 0. -1.
        -11    1    3    3    0    0  0.76554706121E+01 -0.17862634512E+01  0.36434427806E+00  0.78695434699E+01  0.51100000000E-03 0.  1.
        -12    1    3    3    0    0 -0.24210333658E+01  0.24584136707E+02 -0.34147902723E+01  0.24937962482E+02  0.00000000000E+00 0.  1.
</event>
<event>
 7    1  0.1098446E-012  0.5052887E+02  0.7816164E-02  0.1300439E+00
        -11   -1    0    0    0    0  0.00000000000E+00  0.00000000000E+00  0.45593999997E+02  0.45594000000E+02  0.51100000000E-03 0. -1.
         11   -1    0    0    0    0 -0.00000000000E+00 -0.00000000000E+00 -0.45593999997E+02  0.45594000000E+02  0.51100000000E-03 0.  1.
    9900012    2    1    2    0    0 -0.35371083675E+02  0.19529985983E+02 -0.45420918401E+01  0.50528874197E+02  0.30000043608E+02 0.  0.
        -12    1    1    2    0    0  0.35371083675E+02 -0.19529985983E+02  0.45420918401E+01  0.40659125803E+02  0.00000000000E+00 0.  1.
         11    1    3    3    0    0 -0.23958170609E+02  0.13778124200E+02  0.39485007258E+01  0.27918117838E+02  0.51100000000E-03 0. -1.
        -11    1    3    3    0    0 -0.58575568807E+01  0.26784148469E+01 -0.13212264078E+02  0.14698598607E+02  0.51100000000E-03 0.  1.
         12    1    3    3    0    0 -0.55553561853E+01  0.30734469364E+01  0.47216715116E+01  0.79121577512E+01  0.00000000000E+00 0. -1.
</event>
<event>
 7    1  0.1098446E-012  0.5052886E+02  0.7816164E-02  0.1300439E+00
        -11   -1    0    0    0    0  0.00000000000E+00  0.00000000000E+00  0.45593999997E+02  0.45594000000E+02  0.51100000000E-03 0.  1.
         11   -1    0    0    0    0 -0.00000000000E+00 -0.00000000000E+00 -0.45593999997E+02  0.45594000000E+02  0.51100000000E-03 0. -1.
    9900012    2    1    2    0    0 -0.46996729691E+01 -0.30621733371E+02 -0.26332267218E+02  0.50528858623E+02  0.29999996272E+02 0.  0.
        -12    1    1    2    0    0  0.46996729691E+01  0.30621733371E+02  0.26332267218E+02  0.40659141377E+02  0.00000000000E+00 0.  1.
         11    1    3    3    0    0  0.77083192996E+01 -0.87595933753E+01 -0.74886747118E+01  0.13864664140E+02  0.51100000000E-03 0. -1.
        -11    1    3    3    0    0 -0.14231351334E+02 -0.59405428293E+01 -0.95383338949E+01  0.18132876871E+02  0.51100000000E-03 0.  1.
        -12    1    3    3    0    0  0.18233590647E+01 -0.15921597166E+02 -0.93052586114E+01  0.18531317611E+02  0.00000000000E+00 0.  1.
</event>
<event>
 7    1  0.1098446E-012  0.5052888E+02  0.7816164E-02  0.1300439E+00
        -11   -1    0    0    0    0  0.00000000000E+00  0.00000000000E+00  0.45593999997E+02  0.45594000000E+02  0.51100000000E-03 0.  1.
         11   -1    0    0    0    0 -0.00000000000E+00 -0.00000000000E+00 -0.45593999997E+02  0.45594000000E+02  0.51100000000E-03 0. -1.
    9900012    2    1    2    0    0  0.41356350329E+01  0.17599752568E+02 -0.36418532033E+02  0.50528877493E+02  0.30000053628E+02 0.  0.
        -12    1    1    2    0    0 -0.41356350329E+01 -0.17599752568E+02  0.36418532033E+02  0.40659122507E+02  0.00000000000E+00 0.  1.
         11    1    3    3    0    0 -0.46906141109E+01 -0.23918556475E+00 -0.65760616235E+01  0.80810678260E+01  0.51100000000E-03 0. -1.
        -11    1    3    3    0    0  0.14549895934E+02  0.18774232579E+02 -0.20127355764E+02  0.31133289754E+02  0.51100000000E-03 0.  1.
        -12    1    3    3    0    0 -0.57236467903E+01 -0.93529444594E+00 -0.97151146455E+01  0.11314519913E+02  0.00000000000E+00 0.  1.
</event>
<event>
 7    1  0.1098446E-012  0.5052886E+02  0.7816164E-02  0.1300439E+00
        -11   -1    0    0    0    0  0.00000000000E+00  0.00000000000E+00  0.45593999997E+02  0.45594000000E+02  0.51100000000E-03 0.  1.
         11   -1    0    0    0    0 -0.00000000000E+00 -0.00000000000E+00 -0.45593999997E+02  0.45594000000E+02  0.51100000000E-03 0. -1.
    9900012    2    1    2    0    0  0.27403336457E+02 -0.26561920788E+02 -0.14024510522E+02  0.50528863508E+02  0.30000011118E+02 0.  0.
        -12    1    1    2    0    0 -0.27403336457E+02  0.26561920788E+02  0.14024510522E+02  0.40659136492E+02  0.00000000000E+00 0.  1.
         11    1    3    3    0    0  0.80863333394E+01 -0.39287371256E+01 -0.10245011627E+02  0.13630261398E+02  0.51100000000E-03 0. -1.
        -11    1    3    3    0    0  0.91141004755E+00 -0.17461298010E+02 -0.31724597407E+01  0.17770540159E+02  0.51100000000E-03 0.  1.
        -12    1    3    3    0    0  0.18405593070E+02 -0.51718856521E+01 -0.60703915422E+00  0.19128061951E+02  0.00000000000E+00 0.  1.
</event>
<event>
 7    1  0.1098446E-012  0.5052880E+02  0.7816164E-02  0.1300439E+00
        -11   -1    0    0    0    0  0.00000000000E+00  0.00000000000E+00  0.45593999997E+02  0.45594000000E+02  0.51100000000E-03 0.  1.
         11   -1    0    0    0    0 -0.00000000000E+00 -0.00000000000E+00 -0.45593999997E+02  0.45594000000E+02  0.51100000000E-03 0. -1.
    9900012    2    1    2    0    0  0.18103801162E+02 -0.97991922464E+00 -0.36393168529E+02  0.50528799641E+02  0.29999816989E+02 0.  0.
        -12    1    1    2    0    0 -0.18103801162E+02  0.97991922464E+00  0.36393168529E+02  0.40659200359E+02  0.00000000000E+00 0.  1.
         11    1    3    3    0    0  0.13014377050E+01 -0.50240739328E+01 -0.74206958766E+01  0.90554837825E+01  0.51100000000E-03 0. -1.
        -11    1    3    3    0    0  0.19444479875E+02  0.51186003906E+00 -0.97629713105E+01  0.21763855526E+02  0.51100000000E-03 0.  1.
        -12    1    3    3    0    0 -0.26421164171E+01  0.35322946691E+01 -0.19209501342E+02  0.19709460333E+02  0.00000000000E+00 0.  1.
</event>
<event>
 7    1  0.1296340E-012  0.5052884E+02  0.7816164E-02  0.1300439E+00
        -11   -1    0    0    0    0  0.00000000000E+00  0.00000000000E+00  0.45593999997E+02  0.45594000000E+02  0.51100000000E-03 0.  1.
         11   -1    0    0    0    0 -0.00000000000E+00 -0.00000000000E+00 -0.45593999997E+02  0.45594000000E+02  0.51100000000E-03 0. -1.
    9900012    2    1    2    0    0 -0.38715086436E+02 -0.59768059462E+01 -0.10889779901E+02  0.50528838260E+02  0.29999934376E+02 0.  0.
        -12    1    1    2    0    0  0.38715086436E+02  0.59768059462E+01  0.10889779901E+02  0.40659161740E+02  0.00000000000E+00 0.  1.
         11    1    3    3    0    0 -0.15887806430E+02 -0.16562860987E+01 -0.55162007599E+01  0.16899530996E+02  0.51100000000E-03 0. -1.
        -11    1    3    3    0    0 -0.11419791443E+01  0.12423360764E+01 -0.10522864791E+02  0.10657307303E+02  0.51100000000E-03 0.  1.
        -12    1    3    3    0    0 -0.21685300862E+02 -0.55628559239E+01  0.51492856501E+01  0.22971999961E+02  0.00000000000E+00 0.  1.
</event>
<event>
 7    1  0.1098446E-012  0.5052886E+02  0.7816164E-02  0.1300439E+00
        -11   -1    0    0    0    0  0.00000000000E+00  0.00000000000E+00  0.45593999997E+02  0.45594000000E+02  0.51100000000E-03 0.  1.
         11   -1    0    0    0    0 -0.00000000000E+00 -0.00000000000E+00 -0.45593999997E+02  0.45594000000E+02  0.51100000000E-03 0. -1.
    9900012    2    1    2    0    0 -0.30681897014E+02  0.19817494343E+02 -0.17862073555E+02  0.50528861321E+02  0.30000004472E+02 0.  0.
        -12    1    1    2    0    0  0.30681897014E+02 -0.19817494343E+02  0.17862073555E+02  0.40659138679E+02  0.00000000000E+00 0.  1.
         11    1    3    3    0    0 -0.25443959036E+02  0.99108808776E+01 -0.54580560758E+00  0.27311508842E+02  0.51100000000E-03 0. -1.
        -11    1    3    3    0    0 -0.47853545202E+01 -0.69427826533E+00 -0.59745327641E+01  0.76861357133E+01  0.51100000000E-03 0.  1.
         12    1    3    3    0    0 -0.45258345790E+00  0.10600891731E+02 -0.11341735183E+02  0.15531216766E+02  0.00000000000E+00 0. -1.
</event>
<event>
 7    1  0.1104632E-012  0.5052887E+02  0.7816164E-02  0.1300439E+00
        -11   -1    0    0    0    0  0.00000000000E+00  0.00000000000E+00  0.45593999997E+02  0.45594000000E+02  0.51100000000E-03 0. -1.
         11   -1    0    0    0    0 -0.00000000000E+00 -0.00000000000E+00 -0.45593999997E+02  0.45594000000E+02  0.51100000000E-03 0.  1.
    9900012    2    1    2    0    0  0.37641020671E+02  0.15365503080E+02  0.46880880187E+00  0.50528869368E+02  0.30000028931E+02 0.  0.
        -12    1    1    2    0    0 -0.37641020671E+02 -0.15365503080E+02 -0.46880880187E+00  0.40659130632E+02  0.00000000000E+00 0.  1.
         11    1    3    3    0    0  0.27669214600E+02  0.66560467704E+01  0.78391954594E+01  0.29518492185E+02  0.51100000000E-03 0. -1.
        -11    1    3    3    0    0  0.10600237613E+02  0.89139450093E+01 -0.10771522735E+02  0.17545630663E+02  0.51100000000E-03 0.  1.
        -12    1    3    3    0    0 -0.62843154138E+00 -0.20448870011E+00  0.34011360773E+01  0.34647465199E+01  0.00000000000E+00 0.  1.
</event>
<event>
 7    1  0.1098446E-012  0.5052886E+02  0.7816164E-02  0.1300439E+00
        -11   -1    0    0    0    0  0.00000000000E+00  0.00000000000E+00  0.45593999997E+02  0.45594000000E+02  0.51100000000E-03 0. -1.
         11   -1    0    0    0    0 -0.00000000000E+00 -0.00000000000E+00 -0.45593999997E+02  0.45594000000E+02  0.51100000000E-03 0.  1.
    9900012    2    1    2    0    0  0.36125342664E+02 -0.69263290282E+01  0.17324866765E+02  0.50528862960E+02  0.30000009454E+02 0.  0.
        -12    1    1    2    0    0 -0.36125342664E+02  0.69263290282E+01 -0.17324866765E+02  0.40659137040E+02  0.00000000000E+00 0.  1.
         11    1    3    3    0    0  0.31261816687E+02 -0.16810250771E+01  0.65830786096E+01  0.31991623155E+02  0.51100000000E-03 0. -1.
        -11    1    3    3    0    0  0.79822860971E+00  0.33018276201E+01  0.79876891478E+01  0.86800007332E+01  0.51100000000E-03 0.  1.
         12    1    3    3    0    0  0.40652973675E+01 -0.85471315712E+01  0.27540990077E+01  0.98572390722E+01  0.00000000000E+00 0. -1.
</event>
<event>
 7    1  0.1098446E-012  0.5052886E+02  0.7816164E-02  0.1300439E+00
        -11   -1    0    0    0    0  0.00000000000E+00  0.00000000000E+00  0.45593999997E+02  0.45594000000E+02  0.51100000000E-03 0.  1.
         11   -1    0    0    0    0 -0.00000000000E+00 -0.00000000000E+00 -0.45593999997E+02  0.45594000000E+02  0.51100000000E-03 0. -1.
    9900012    2    1    2    0    0  0.88959656261E+01  0.23532036856E+02 -0.31941676481E+02  0.50528860075E+02  0.30000000685E+02 0.  0.
        -12    1    1    2    0    0 -0.88959656261E+01 -0.23532036856E+02  0.31941676481E+02  0.40659139925E+02  0.00000000000E+00 0.  1.
         11    1    3    3    0    0  0.12079878948E+02  0.14023140661E+02 -0.25835616348E+02  0.31781299875E+02  0.51100000000E-03 0. -1.
        -11    1    3    3    0    0  0.27971927823E+01  0.48968029157E+01  0.34163352616E+01  0.65935053755E+01  0.51100000000E-03 0.  1.
         12    1    3    3    0    0 -0.59811061041E+01  0.46120932791E+01 -0.95223953942E+01  0.12154054825E+02  0.00000000000E+00 0. -1.
</event>
<event>
 7    1  0.1098446E-012  0.5052886E+02  0.7816164E-02  0.1300439E+00
        -11   -1    0    0    0    0  0.00000000000E+00  0.00000000000E+00  0.45593999997E+02  0.45594000000E+02  0.51100000000E-03 0.  1.
         11   -1    0    0    0    0 -0.00000000000E+00 -0.00000000000E+00 -0.45593999997E+02  0.45594000000E+02  0.51100000000E-03 0. -1.
    9900012    2    1    2    0    0  0.35461047683E+02 -0.19766135598E+02 -0.22315016083E+01  0.50528860576E+02  0.30000002208E+02 0.  0.
        -12    1    1    2    0    0 -0.35461047683E+02  0.19766135598E+02  0.22315016083E+01  0.40659139424E+02  0.00000000000E+00 0.  1.
         11    1    3    3    0    0  0.38523767629E+01  0.37874533636E+01 -0.54822571925E+01  0.76968015364E+01  0.51100000000E-03 0. -1.
        -11    1    3    3    0    0  0.14687980360E+02 -0.12939875083E+02  0.96950065488E+01  0.21844227761E+02  0.51100000000E-03 0.  1.
        -12    1    3    3    0    0  0.16920690560E+02 -0.10613713879E+02 -0.64442509647E+01  0.20987831279E+02  0.00000000000E+00 0.  1.
</event>
<event>
 7    1  0.1098446E-012  0.5052886E+02  0.7816164E-02  0.1300439E+00
        -11   -1    0    0    0    0  0.00000000000E+00  0.00000000000E+00  0.45593999997E+02  0.45594000000E+02  0.51100000000E-03 0.  1.
         11   -1    0    0    0    0 -0.00000000000E+00 -0.00000000000E+00 -0.45593999997E+02  0.45594000000E+02  0.51100000000E-03 0. -1.
    9900012    2    1    2    0    0 -0.24030494091E+02  0.25903806937E+02 -0.20117000957E+02  0.50528860958E+02  0.30000003369E+02 0.  0.
        -12    1    1    2    0    0  0.24030494091E+02 -0.25903806937E+02  0.20117000957E+02  0.40659139042E+02  0.00000000000E+00 0.  1.
         11    1    3    3    0    0 -0.10262693530E+02  0.11780473785E+02 -0.12480083133E+02  0.19996372580E+02  0.51100000000E-03 0. -1.
        -11    1    3    3    0    0  0.13310638152E+01  0.29387032772E+01  0.63402645665E+01  0.71138360162E+01  0.51100000000E-03 0.  1.
        -12    1    3    3    0    0 -0.15098864376E+02  0.11184629875E+02 -0.13977182390E+02  0.23418652362E+02  0.00000000000E+00 0.  1.
</event>
<event>
 7    1  0.1098446E-012  0.5052885E+02  0.7816164E-02  0.1300439E+00
        -11   -1    0    0    0    0  0.00000000000E+00  0.00000000000E+00  0.45593999997E+02  0.45594000000E+02  0.51100000000E-03 0.  1.
         11   -1    0    0    0    0 -0.00000000000E+00 -0.00000000000E+00 -0.45593999997E+02  0.45594000000E+02  0.51100000000E-03 0. -1.
    9900012    2    1    2    0    0  0.27382607139E+02  0.26922116002E+02 -0.13362595430E+02  0.50528850226E+02  0.29999970746E+02 0.  0.
        -12    1    1    2    0    0 -0.27382607139E+02 -0.26922116002E+02  0.13362595430E+02  0.40659149774E+02  0.00000000000E+00 0.  1.
         11    1    3    3    0    0  0.18719431682E+02  0.58403961818E+01 -0.42846247784E+01  0.20072004379E+02  0.51100000000E-03 0.  1.
        -11    1    3    3    0    0  0.26388649978E+01  0.19806112860E+02 -0.61493749404E+00  0.19990594376E+02  0.51100000000E-03 0. -1.
         12    1    3    3    0    0  0.60243104592E+01  0.12756069596E+01 -0.84630331574E+01  0.10466251471E+02  0.00000000000E+00 0. -1.
</event>
<event>
 7    1  0.1098446E-012  0.5052889E+02  0.7816164E-02  0.1300439E+00
        -11   -1    0    0    0    0  0.00000000000E+00  0.00000000000E+00  0.45593999997E+02  0.45594000000E+02  0.51100000000E-03 0. -1.
         11   -1    0    0    0    0 -0.00000000000E+00 -0.00000000000E+00 -0.45593999997E+02  0.45594000000E+02  0.51100000000E-03 0.  1.
    9900012    2    1    2    0    0 -0.23458659887E+02 -0.27812508221E+02  0.18147136897E+02  0.50528893827E+02  0.30000103276E+02 0.  0.
        -12    1    1    2    0    0  0.23458659887E+02  0.27812508221E+02 -0.18147136897E+02  0.40659106173E+02  0.00000000000E+00 0.  1.
         11    1    3    3    0    0 -0.24468310352E+02 -0.18306948692E+02  0.14502393120E+02  0.33825463609E+02  0.51100000000E-03 0. -1.
        -11    1    3    3    0    0  0.26767933800E+01 -0.92436815642E+01 -0.28151341105E+01  0.10026756803E+02  0.51100000000E-03 0.  1.
        -12    1    3    3    0    0 -0.16671429152E+01 -0.26187796459E+00  0.64598778879E+01  0.66766734153E+01  0.00000000000E+00 0.  1.
</event>
<event>
 7    1  0.1098446E-012  0.5052886E+02  0.7816164E-02  0.1300439E+00
        -11   -1    0    0    0    0  0.00000000000E+00  0.00000000000E+00  0.45593999997E+02  0.45594000000E+02  0.51100000000E-03 0.  1.
         11   -1    0    0    0    0 -0.00000000000E+00 -0.00000000000E+00 -0.45593999997E+02  0.45594000000E+02  0.51100000000E-03 0. -1.
    9900012    2    1    2    0    0 -0.33108864303E+02  0.18492657746E+02 -0.14662554172E+02  0.50528858583E+02  0.29999996148E+02 0.  0.
        -12    1    1    2    0    0  0.33108864303E+02 -0.18492657746E+02  0.14662554172E+02  0.40659141417E+02  0.00000000000E+00 0.  1.
         11    1    3    3    0    0 -0.36705602610E+01  0.40755050773E+01 -0.22310366134E+01  0.59211720881E+01  0.51100000000E-03 0. -1.
        -11    1    3    3    0    0 -0.66040717247E+01  0.94867551949E+01 -0.17241002710E+02  0.20757274922E+02  0.51100000000E-03 0.  1.
        -12    1    3    3    0    0 -0.22834232317E+02  0.49303974739E+01  0.48094851517E+01  0.23850411573E+02  0.00000000000E+00 0.  1.
</event>
<event>
 7    1  0.1098446E-012  0.5052886E+02  0.7816164E-02  0.1300439E+00
        -11   -1    0    0    0    0  0.00000000000E+00  0.00000000000E+00  0.45593999997E+02  0.45594000000E+02  0.51100000000E-03 0. -1.
         11   -1    0    0    0    0 -0.00000000000E+00 -0.00000000000E+00 -0.45593999997E+02  0.45594000000E+02  0.51100000000E-03 0.  1.
    9900012    2    1    2    0    0 -0.35981738339E+02 -0.15830330221E+01  0.18867273211E+02  0.50528862210E+02  0.30000007173E+02 0.  0.
        -12    1    1    2    0    0  0.35981738339E+02  0.15830330221E+01 -0.18867273211E+02  0.40659137790E+02  0.00000000000E+00 0.  1.
         11    1    3    3    0    0 -0.16473198076E+02  0.13889424961E+01  0.14708268157E+02  0.22127552249E+02  0.51100000000E-03 0. -1.
        -11    1    3    3    0    0 -0.76428582778E+01 -0.11101730816E+02  0.18746151764E+00  0.13479497463E+02  0.51100000000E-03 0.  1.
        -12    1    3    3    0    0 -0.11865681985E+02  0.81297552976E+01  0.39715435365E+01  0.14921812498E+02  0.00000000000E+00 0.  1.
</event>
<event>
 7    1  0.1098446E-012  0.5052886E+02  0.7816164E-02  0.1300439E+00
        -11   -1    0    0    0    0  0.00000000000E+00  0.00000000000E+00  0.45593999997E+02  0.45594000000E+02  0.51100000000E-03 0. -1.
         11   -1    0    0    0    0 -0.00000000000E+00 -0.00000000000E+00 -0.45593999997E+02  0.45594000000E+02  0.51100000000E-03 0.  1.
    9900012    2    1    2    0    0 -0.21745876598E+02 -0.16114446785E+02  0.30341504017E+02  0.50528863140E+02  0.30000010001E+02 0.  0.
        -12    1    1    2    0    0  0.21745876598E+02  0.16114446785E+02 -0.30341504017E+02  0.40659136860E+02  0.00000000000E+00 0.  1.
         11    1    3    3    0    0 -0.30553019050E+00  0.28360130634E+01  0.47298300997E+01  0.55233696080E+01  0.51100000000E-03 0.  1.
        -11    1    3    3    0    0 -0.18523101179E+02 -0.22535535675E+02  0.27426839595E+02  0.40039819878E+02  0.51100000000E-03 0. -1.
        -12    1    3    3    0    0 -0.29172452282E+01  0.35850758267E+01 -0.18151656775E+01  0.49656736543E+01  0.00000000000E+00 0.  1.
</event>
<event>
 7    1  0.1098446E-012  0.5052887E+02  0.7816164E-02  0.1300439E+00
        -11   -1    0    0    0    0  0.00000000000E+00  0.00000000000E+00  0.45593999997E+02  0.45594000000E+02  0.51100000000E-03 0.  1.
         11   -1    0    0    0    0 -0.00000000000E+00 -0.00000000000E+00 -0.45593999997E+02  0.45594000000E+02  0.51100000000E-03 0. -1.
    9900012    2    1    2    0    0 -0.22656167113E+02 -0.13588363125E+02 -0.30906618860E+02  0.50528872980E+02  0.30000039911E+02 0.  0.
        -12    1    1    2    0    0  0.22656167113E+02  0.13588363125E+02  0.30906618860E+02  0.40659127020E+02  0.00000000000E+00 0.  1.
         11    1    3    3    0    0 -0.25686727738E+02 -0.54620147734E+01 -0.16831134850E+02  0.31191804819E+02  0.51100000000E-03 0. -1.
        -11    1    3    3    0    0  0.24318367832E+01 -0.94029031212E+01 -0.66305386769E+01  0.11759781488E+02  0.51100000000E-03 0.  1.
        -12    1    3    3    0    0  0.59872384179E+00  0.12765547696E+01 -0.74449453324E+01  0.75772866727E+01  0.00000000000E+00 0.  1.
</event>
<event>
 7    1  0.1098446E-012  0.5052885E+02  0.7816164E-02  0.1300439E+00
        -11   -1    0    0    0    0  0.00000000000E+00  0.00000000000E+00  0.45593999997E+02  0.45594000000E+02  0.51100000000E-03 0.  1.
         11   -1    0    0    0    0 -0.00000000000E+00 -0.00000000000E+00 -0.45593999997E+02  0.45594000000E+02  0.51100000000E-03 0. -1.
    9900012    2    1    2    0    0  0.18089431450E+02 -0.28320249754E+02 -0.22888907429E+02  0.50528853924E+02  0.29999981989E+02 0.  0.
        -12    1    1    2    0    0 -0.18089431450E+02  0.28320249754E+02  0.22888907429E+02  0.40659146076E+02  0.00000000000E+00 0.  1.
         11    1    3    3    0    0  0.16903877051E+02 -0.98843563694E+01 -0.14090957302E+02  0.24124606487E+02  0.51100000000E-03 0. -1.
        -11    1    3    3    0    0 -0.41811161903E+01 -0.10154746361E+02  0.26431131580E+01  0.11295426229E+02  0.51100000000E-03 0.  1.
         12    1    3    3    0    0  0.53666705890E+01 -0.82811470228E+01 -0.11441063285E+02  0.15108821209E+02  0.00000000000E+00 0. -1.
</event>
<event>
 7    1  0.1098446E-012  0.5052886E+02  0.7816164E-02  0.1300439E+00
        -11   -1    0    0    0    0  0.00000000000E+00  0.00000000000E+00  0.45593999997E+02  0.45594000000E+02  0.51100000000E-03 0.  1.
         11   -1    0    0    0    0 -0.00000000000E+00 -0.00000000000E+00 -0.45593999997E+02  0.45594000000E+02  0.51100000000E-03 0. -1.
    9900012    2    1    2    0    0 -0.18116767815E+02 -0.28301857920E+02 -0.22890018286E+02  0.50528863574E+02  0.30000011319E+02 0.  0.
        -12    1    1    2    0    0  0.18116767815E+02  0.28301857920E+02  0.22890018286E+02  0.40659136426E+02  0.00000000000E+00 0.  1.
         11    1    3    3    0    0 -0.18261379282E+02 -0.10210823848E+02 -0.18783473356E+02  0.28116859151E+02  0.51100000000E-03 0. -1.
        -11    1    3    3    0    0 -0.18816112626E+01  0.89058222005E+00 -0.25026589387E+01  0.32552879533E+01  0.51100000000E-03 0.  1.
         12    1    3    3    0    0  0.20262227303E+01 -0.18981616292E+02 -0.16038859910E+01  0.19156716469E+02  0.00000000000E+00 0. -1.
</event>
<event>
 7    1  0.1098446E-012  0.5052886E+02  0.7816164E-02  0.1300439E+00
        -11   -1    0    0    0    0  0.00000000000E+00  0.00000000000E+00  0.45593999997E+02  0.45594000000E+02  0.51100000000E-03 0. -1.
         11   -1    0    0    0    0 -0.00000000000E+00 -0.00000000000E+00 -0.45593999997E+02  0.45594000000E+02  0.51100000000E-03 0.  1.
    9900012    2    1    2    0    0  0.17015654814E+02 -0.18063839874E+02  0.32207623559E+02  0.50528857915E+02  0.29999994119E+02 0.  0.
        -12    1    1    2    0    0 -0.17015654814E+02  0.18063839874E+02 -0.32207623559E+02  0.40659142085E+02  0.00000000000E+00 0.  1.
         11    1    3    3    0    0  0.61206012394E+01 -0.10224338396E+02  0.53944420441E+01  0.13080476306E+02  0.51100000000E-03 0. -1.
        -11    1    3    3    0    0  0.10767478429E+02  0.40050631664E+01  0.48001793938E+01  0.12450736732E+02  0.51100000000E-03 0.  1.
        -12    1    3    3    0    0  0.12757514528E+00 -0.11844564644E+02  0.22013002121E+02  0.24997644877E+02  0.00000000000E+00 0.  1.
</event>
<event>
 7    1  0.1098446E-012  0.5052886E+02  0.7816164E-02  0.1300439E+00
        -11   -1    0    0    0    0  0.00000000000E+00  0.00000000000E+00  0.45593999997E+02  0.45594000000E+02  0.51100000000E-03 0.  1.
         11   -1    0    0    0    0 -0.00000000000E+00 -0.00000000000E+00 -0.45593999997E+02  0.45594000000E+02  0.51100000000E-03 0. -1.
    9900012    2    1    2    0    0 -0.15700166955E+02  0.26035848929E+02 -0.26996382842E+02  0.50528863777E+02  0.30000011937E+02 0.  0.
        -12    1    1    2    0    0  0.15700166955E+02 -0.26035848929E+02  0.26996382842E+02  0.40659136223E+02  0.00000000000E+00 0.  1.
         11    1    3    3    0    0 -0.37249701548E+00  0.13375300691E+02  0.23172545227E+01  0.13579657263E+02  0.51100000000E-03 0. -1.
        -11    1    3    3    0    0 -0.86448158053E+01  0.12033060081E+01 -0.79677270802E+01  0.11818014247E+02  0.51100000000E-03 0.  1.
         12    1    3    3    0    0 -0.66828541338E+01  0.11457242230E+02 -0.21345910284E+02  0.25131192267E+02  0.00000000000E+00 0. -1.
</event>
<event>
 7    1  0.1098446E-012  0.5052886E+02  0.7816164E-02  0.1300439E+00
        -11   -1    0    0    0    0  0.00000000000E+00  0.00000000000E+00  0.45593999997E+02  0.45594000000E+02  0.51100000000E-03 0.  1.
         11   -1    0    0    0    0 -0.00000000000E+00 -0.00000000000E+00 -0.45593999997E+02  0.45594000000E+02  0.51100000000E-03 0. -1.
    9900012    2    1    2    0    0 -0.99767501609E+01  0.71018111126E+01 -0.38771050409E+02  0.50528860626E+02  0.30000002358E+02 0.  0.
        -12    1    1    2    0    0  0.99767501609E+01 -0.71018111126E+01  0.38771050409E+02  0.40659139374E+02  0.00000000000E+00 0.  1.
         11    1    3    3    0    0 -0.39813726160E+01  0.17796398037E+02 -0.14423211344E+02  0.23250637340E+02  0.51100000000E-03 0. -1.
        -11    1    3    3    0    0 -0.16360307940E+01 -0.32895375780E+01 -0.82320569826E+01  0.90146778457E+01  0.51100000000E-03 0.  1.
         12    1    3    3    0    0 -0.43593467508E+01 -0.74050493463E+01 -0.16115782082E+02  0.18263545440E+02  0.00000000000E+00 0. -1.
</event>
<event>
 7    1  0.1098446E-012  0.5052885E+02  0.7816164E-02  0.1300439E+00
        -11   -1    0    0    0    0  0.00000000000E+00  0.00000000000E+00  0.45593999997E+02  0.45594000000E+02  0.51100000000E-03 0.  1.
         11   -1    0    0    0    0 -0.00000000000E+00 -0.00000000000E+00 -0.45593999997E+02  0.45594000000E+02  0.51100000000E-03 0. -1.
    9900012    2    1    2    0    0 -0.38216320415E+02 -0.12233970065E+02  0.65581328304E+01  0.50528852495E+02  0.29999977644E+02 0.  0.
        -12    1    1    2    0    0  0.38216320415E+02  0.12233970065E+02 -0.65581328304E+01  0.40659147505E+02  0.00000000000E+00 0.  1.
         11    1    3    3    0    0 -0.15159227734E+02 -0.91841886915E+00  0.32147590903E+01  0.15523541960E+02  0.51100000000E-03 0. -1.
        -11    1    3    3    0    0 -0.17259508724E+02 -0.17110138825E+02 -0.32052721341E+01  0.24513695391E+02  0.51100000000E-03 0.  1.
        -12    1    3    3    0    0 -0.57975839577E+01  0.57945876300E+01  0.65486458743E+01  0.10491615144E+02  0.00000000000E+00 0.  1.
</event>
<event>
 7    1  0.1098446E-012  0.5052886E+02  0.7816164E-02  0.1300439E+00
        -11   -1    0    0    0    0  0.00000000000E+00  0.00000000000E+00  0.45593999997E+02  0.45594000000E+02  0.51100000000E-03 0.  1.
         11   -1    0    0    0    0 -0.00000000000E+00 -0.00000000000E+00 -0.45593999997E+02  0.45594000000E+02  0.51100000000E-03 0. -1.
    9900012    2    1    2    0    0  0.74876273689E+00 -0.10042436504E+02 -0.39392317487E+02  0.50528857687E+02  0.29999993427E+02 0.  0.
        -12    1    1    2    0    0 -0.74876273689E+00  0.10042436504E+02  0.39392317487E+02  0.40659142313E+02  0.00000000000E+00 0.  1.
         11    1    3    3    0    0  0.11783992545E+02 -0.13007026461E+02 -0.18229656348E+02  0.25305445827E+02  0.51100000000E-03 0. -1.
        -11    1    3    3    0    0 -0.77940634199E+01  0.43082575097E+01 -0.94003402586E+01  0.12948934497E+02  0.51100000000E-03 0.  1.
         12    1    3    3    0    0 -0.32411663885E+01 -0.13436675522E+01 -0.11762320881E+02  0.12274477363E+02  0.00000000000E+00 0. -1.
</event>
<event>
 7    1  0.1098446E-012  0.5052886E+02  0.7816164E-02  0.1300439E+00
        -11   -1    0    0    0    0  0.00000000000E+00  0.00000000000E+00  0.45593999997E+02  0.45594000000E+02  0.51100000000E-03 0.  1.
         11   -1    0    0    0    0 -0.00000000000E+00 -0.00000000000E+00 -0.45593999997E+02  0.45594000000E+02  0.51100000000E-03 0. -1.
    9900012    2    1    2    0    0 -0.19362676049E+02  0.32853428597E+02 -0.14103346344E+02  0.50528863604E+02  0.30000011412E+02 0.  0.
        -12    1    1    2    0    0  0.19362676049E+02 -0.32853428597E+02  0.14103346344E+02  0.40659136396E+02  0.00000000000E+00 0.  1.
         11    1    3    3    0    0 -0.16092648188E+02  0.10277961375E+02 -0.27059406868E+01  0.19285536834E+02  0.51100000000E-03 0. -1.
        -11    1    3    3    0    0  0.31304420446E+01  0.83555166475E+01  0.35871218312E+01  0.96167442065E+01  0.51100000000E-03 0.  1.
        -12    1    3    3    0    0 -0.64004699056E+01  0.14219950574E+02 -0.14984527488E+02  0.21626582564E+02  0.00000000000E+00 0.  1.
</event>
<event>
 7    1  0.1098446E-012  0.5052886E+02  0.7816164E-02  0.1300439E+00
        -11   -1    0    0    0    0  0.00000000000E+00  0.00000000000E+00  0.45593999997E+02  0.45594000000E+02  0.51100000000E-03 0. -1.
         11   -1    0    0    0    0 -0.00000000000E+00 -0.00000000000E+00 -0.45593999997E+02  0.45594000000E+02  0.51100000000E-03 0.  1.
    9900012    2    1    2    0    0 -0.10048127160E+02 -0.24336419542E+02  0.30982896255E+02  0.50528855446E+02  0.29999986612E+02 0.  0.
        -12    1    1    2    0    0  0.10048127160E+02  0.24336419542E+02 -0.30982896255E+02  0.40659144554E+02  0.00000000000E+00 0.  1.
         11    1    3    3    0    0 -0.40270539916E+01 -0.17858411018E+02  0.83269568679E+01  0.20111643863E+02  0.51100000000E-03 0. -1.
        -11    1    3    3    0    0 -0.10645222834E+02 -0.12269723357E+01  0.20438752270E+02  0.23077452738E+02  0.51100000000E-03 0.  1.
        -12    1    3    3    0    0  0.46241496649E+01 -0.52510361879E+01  0.22171871176E+01  0.73397588437E+01  0.00000000000E+00 0.  1.
</event>
<event>
 7    1  0.1098446E-012  0.5052885E+02  0.7816164E-02  0.1300439E+00
        -11   -1    0    0    0    0  0.00000000000E+00  0.00000000000E+00  0.45593999997E+02  0.45594000000E+02  0.51100000000E-03 0.  1.
         11   -1    0    0    0    0 -0.00000000000E+00 -0.00000000000E+00 -0.45593999997E+02  0.45594000000E+02  0.51100000000E-03 0. -1.
    9900012    2    1    2    0    0  0.35743328288E+02  0.14439259732E+02 -0.12926284514E+02  0.50528848877E+02  0.29999966646E+02 0.  0.
        -12    1    1    2    0    0 -0.35743328288E+02 -0.14439259732E+02  0.12926284514E+02  0.40659151123E+02  0.00000000000E+00 0.  1.
         11    1    3    3    0    0  0.20982330831E+02 -0.48117789597E+01  0.14886818226E+01  0.21578405819E+02  0.51100000000E-03 0. -1.
        -11    1    3    3    0    0  0.51310477336E+01  0.53499126161E+01 -0.12458070394E+01  0.75167314230E+01  0.51100000000E-03 0.  1.
         12    1    3    3    0    0  0.96299497232E+01  0.13901126076E+02 -0.13169159298E+02  0.21433711635E+02  0.00000000000E+00 0. -1.
</event>
<event>
 7    1  0.1098446E-012  0.5052886E+02  0.7816164E-02  0.1300439E+00
        -11   -1    0    0    0    0  0.00000000000E+00  0.00000000000E+00  0.45593999997E+02  0.45594000000E+02  0.51100000000E-03 0.  1.
         11   -1    0    0    0    0 -0.00000000000E+00 -0.00000000000E+00 -0.45593999997E+02  0.45594000000E+02  0.51100000000E-03 0. -1.
    9900012    2    1    2    0    0  0.38466976720E+02 -0.97550152115E+01  0.88485639493E+01  0.50528859530E+02  0.29999999028E+02 0.  0.
        -12    1    1    2    0    0 -0.38466976720E+02  0.97550152115E+01 -0.88485639493E+01  0.40659140470E+02  0.00000000000E+00 0.  1.
         11    1    3    3    0    0  0.13290804185E+02 -0.16261258858E+02  0.94525582810E+01  0.23030954688E+02  0.51100000000E-03 0. -1.
        -11    1    3    3    0    0  0.10113781517E+02  0.39850443341E+01  0.39427721253E+01  0.11563503241E+02  0.51100000000E-03 0.  1.
         12    1    3    3    0    0  0.15062391018E+02  0.25211993124E+01 -0.45467664570E+01  0.15934401601E+02  0.00000000000E+00 0. -1.
</event>
<event>
 7    1  0.1098446E-012  0.5052875E+02  0.7816164E-02  0.1300439E+00
        -11   -1    0    0    0    0  0.00000000000E+00  0.00000000000E+00  0.45593999997E+02  0.45594000000E+02  0.51100000000E-03 0.  1.
         11   -1    0    0    0    0 -0.00000000000E+00 -0.00000000000E+00 -0.45593999997E+02  0.45594000000E+02  0.51100000000E-03 0. -1.
    9900012    2    1    2    0    0 -0.15602065057E+02 -0.26560226667E+02 -0.26538741664E+02  0.50528746641E+02  0.29999655887E+02 0.  0.
        -12    1    1    2    0    0  0.15602065057E+02  0.26560226667E+02  0.26538741664E+02  0.40659253359E+02  0.00000000000E+00 0.  1.
         11    1    3    3    0    0 -0.34586051849E+01 -0.58565339599E+01 -0.17105986816E+00  0.68036902919E+01  0.51100000000E-03 0. -1.
        -11    1    3    3    0    0 -0.17517973885E+02 -0.57183689848E+01 -0.17913052022E+02  0.25699349912E+02  0.51100000000E-03 0.  1.
        -12    1    3    3    0    0  0.53745140137E+01 -0.14985323722E+02 -0.84546297739E+01  0.18025706437E+02  0.00000000000E+00 0.  1.
</event>
<event>
 7    1  0.1098446E-012  0.5052886E+02  0.7816164E-02  0.1300439E+00
        -11   -1    0    0    0    0  0.00000000000E+00  0.00000000000E+00  0.45593999997E+02  0.45594000000E+02  0.51100000000E-03 0.  1.
         11   -1    0    0    0    0 -0.00000000000E+00 -0.00000000000E+00 -0.45593999997E+02  0.45594000000E+02  0.51100000000E-03 0. -1.
    9900012    2    1    2    0    0  0.75035112156E+01  0.43001403296E+01 -0.39728728027E+02  0.50528859354E+02  0.29999998492E+02 0.  0.
        -12    1    1    2    0    0 -0.75035112156E+01 -0.43001403296E+01  0.39728728027E+02  0.40659140646E+02  0.00000000000E+00 0.  1.
         11    1    3    3    0    0 -0.25339690695E+01  0.12094206965E+02 -0.12115812093E+02  0.17305598640E+02  0.51100000000E-03 0. -1.
        -11    1    3    3    0    0  0.23955975655E+01 -0.95026863115E+01 -0.10275544708E+02  0.14199533589E+02  0.51100000000E-03 0.  1.
         12    1    3    3    0    0  0.76418827197E+01  0.17086196764E+01 -0.17337371226E+02  0.19023727125E+02  0.00000000000E+00 0. -1.
</event>
<event>
 7    1  0.1098446E-012  0.5052875E+02  0.7816164E-02  0.1300439E+00
        -11   -1    0    0    0    0  0.00000000000E+00  0.00000000000E+00  0.45593999997E+02  0.45594000000E+02  0.51100000000E-03 0.  1.
         11   -1    0    0    0    0 -0.00000000000E+00 -0.00000000000E+00 -0.45593999997E+02  0.45594000000E+02  0.51100000000E-03 0. -1.
    9900012    2    1    2    0    0 -0.20952827588E+02 -0.73124906759E+01 -0.34068769479E+02  0.50528750651E+02  0.29999668077E+02 0.  0.
        -12    1    1    2    0    0  0.20952827588E+02  0.73124906759E+01  0.34068769479E+02  0.40659249349E+02  0.00000000000E+00 0.  1.
         11    1    3    3    0    0  0.12956289426E+01 -0.64784675463E+00 -0.19538516305E+02  0.19592140757E+02  0.51100000000E-03 0. -1.
        -11    1    3    3    0    0 -0.16664390358E+02  0.11975268291E+01 -0.51488471594E+01  0.17482751609E+02  0.51100000000E-03 0.  1.
        -12    1    3    3    0    0 -0.55840661728E+01 -0.78621707504E+01 -0.93814060143E+01  0.13453858284E+02  0.00000000000E+00 0.  1.
</event>
<event>
 7    1  0.1098446E-012  0.5052884E+02  0.7816164E-02  0.1300439E+00
        -11   -1    0    0    0    0  0.00000000000E+00  0.00000000000E+00  0.45593999997E+02  0.45594000000E+02  0.51100000000E-03 0.  1.
         11   -1    0    0    0    0 -0.00000000000E+00 -0.00000000000E+00 -0.45593999997E+02  0.45594000000E+02  0.51100000000E-03 0. -1.
    9900012    2    1    2    0    0  0.80007799557E+00  0.15294923288E+02 -0.37664206297E+02  0.50528840648E+02  0.29999941634E+02 0.  0.
        -12    1    1    2    0    0 -0.80007799557E+00 -0.15294923288E+02  0.37664206297E+02  0.40659159352E+02  0.00000000000E+00 0.  1.
         11    1    3    3    0    0  0.70122241905E+01  0.72952887269E+01 -0.33943809022E+02  0.35419975958E+02  0.51100000000E-03 0. -1.
        -11    1    3    3    0    0 -0.32083357899E+01 -0.15316094880E+01 -0.36780563078E+01  0.51154026850E+01  0.51100000000E-03 0.  1.
         12    1    3    3    0    0 -0.30038104050E+01  0.95312440495E+01 -0.42340967511E-01  0.99934620046E+01  0.00000000000E+00 0. -1.
</event>
<event>
 7    1  0.1098446E-012  0.5052886E+02  0.7816164E-02  0.1300439E+00
        -11   -1    0    0    0    0  0.00000000000E+00  0.00000000000E+00  0.45593999997E+02  0.45594000000E+02  0.51100000000E-03 0. -1.
         11   -1    0    0    0    0 -0.00000000000E+00 -0.00000000000E+00 -0.45593999997E+02  0.45594000000E+02  0.51100000000E-03 0.  1.
    9900012    2    1    2    0    0 -0.92590857165E+01 -0.15545861156E+02  0.36411002229E+02  0.50528861412E+02  0.30000004749E+02 0.  0.
        -12    1    1    2    0    0  0.92590857165E+01  0.15545861156E+02 -0.36411002229E+02  0.40659138588E+02  0.00000000000E+00 0.  1.
         11    1    3    3    0    0 -0.16777015049E+02 -0.14174538859E+02  0.25666234466E+02  0.33780784149E+02  0.51100000000E-03 0. -1.
        -11    1    3    3    0    0  0.80355754286E+01 -0.47095779939E+01  0.89746604852E+01  0.12934261805E+02  0.51100000000E-03 0.  1.
        -12    1    3    3    0    0 -0.51764609588E+00  0.33382556965E+01  0.17701072775E+01  0.38138154582E+01  0.00000000000E+00 0.  1.
</event>
<event>
 7    1  0.1098446E-012  0.5052886E+02  0.7816164E-02  0.1300439E+00
        -11   -1    0    0    0    0  0.00000000000E+00  0.00000000000E+00  0.45593999997E+02  0.45594000000E+02  0.51100000000E-03 0. -1.
         11   -1    0    0    0    0 -0.00000000000E+00 -0.00000000000E+00 -0.45593999997E+02  0.45594000000E+02  0.51100000000E-03 0.  1.
    9900012    2    1    2    0    0 -0.29039406599E+02  0.28350243267E+02 -0.24783118000E+01  0.50528862548E+02  0.30000008202E+02 0.  0.
        -12    1    1    2    0    0  0.29039406599E+02 -0.28350243267E+02  0.24783118000E+01  0.40659137452E+02  0.00000000000E+00 0.  1.
         11    1    3    3    0    0 -0.17246773884E+02  0.12852599785E+02  0.76040847732E+01  0.22813650215E+02  0.51100000000E-03 0. -1.
        -11    1    3    3    0    0  0.29819935656E+01  0.78680491013E+01 -0.66775827830E+01  0.10741908321E+02  0.51100000000E-03 0.  1.
        -12    1    3    3    0    0 -0.14774626281E+02  0.76295943810E+01 -0.34048137903E+01  0.16973304013E+02  0.00000000000E+00 0.  1.
</event>
<event>
 7    1  0.1098446E-012  0.5052880E+02  0.7816164E-02  0.1300439E+00
        -11   -1    0    0    0    0  0.00000000000E+00  0.00000000000E+00  0.45593999997E+02  0.45594000000E+02  0.51100000000E-03 0.  1.
         11   -1    0    0    0    0 -0.00000000000E+00 -0.00000000000E+00 -0.45593999997E+02  0.45594000000E+02  0.51100000000E-03 0. -1.
    9900012    2    1    2    0    0 -0.22866247110E+02 -0.11502619258E+02 -0.31591063869E+02  0.50528796576E+02  0.29999807671E+02 0.  0.
        -12    1    1    2    0    0  0.22866247110E+02  0.11502619258E+02  0.31591063869E+02  0.40659203424E+02  0.00000000000E+00 0.  1.
         11    1    3    3    0    0 -0.20169495151E+02 -0.10875547917E+02 -0.18801412810E+02  0.29640836713E+02  0.51100000000E-03 0. -1.
        -11    1    3    3    0    0  0.22433568701E+01  0.66731611321E+01 -0.86408195354E+01  0.11145738739E+02  0.51100000000E-03 0.  1.
        -12    1    3    3    0    0 -0.49401088295E+01 -0.73002324731E+01 -0.41488315237E+01  0.97422211236E+01  0.00000000000E+00 0.  1.
</event>
<event>
 7    1  0.1098446E-012  0.5052886E+02  0.7816164E-02  0.1300439E+00
        -11   -1    0    0    0    0  0.00000000000E+00  0.00000000000E+00  0.45593999997E+02  0.45594000000E+02  0.51100000000E-03 0.  1.
         11   -1    0    0    0    0 -0.00000000000E+00 -0.00000000000E+00 -0.45593999997E+02  0.45594000000E+02  0.51100000000E-03 0. -1.
    9900012    2    1    2    0    0 -0.85504778091E+01 -0.68999706795E+01 -0.39146464450E+02  0.50528856562E+02  0.29999990006E+02 0.  0.
        -12    1    1    2    0    0  0.85504778091E+01  0.68999706795E+01  0.39146464450E+02  0.40659143438E+02  0.00000000000E+00 0.  1.
         11    1    3    3    0    0 -0.17468780818E+01 -0.54796516205E+01 -0.36094409620E+02  0.36549754732E+02  0.51100000000E-03 0. -1.
        -11    1    3    3    0    0 -0.75431277830E+01 -0.53331851576E+01 -0.50455650681E+00  0.92518224262E+01  0.51100000000E-03 0.  1.
         12    1    3    3    0    0  0.73952805572E+00  0.39128660987E+01 -0.25474983233E+01  0.47272794035E+01  0.00000000000E+00 0. -1.
</event>
<event>
 7    1  0.1098446E-012  0.5052886E+02  0.7816164E-02  0.1300439E+00
        -11   -1    0    0    0    0  0.00000000000E+00  0.00000000000E+00  0.45593999997E+02  0.45594000000E+02  0.51100000000E-03 0.  1.
         11   -1    0    0    0    0 -0.00000000000E+00 -0.00000000000E+00 -0.45593999997E+02  0.45594000000E+02  0.51100000000E-03 0. -1.
    9900012    2    1    2    0    0  0.30500163069E+02  0.20996925915E+02 -0.16793894017E+02  0.50528859314E+02  0.29999998371E+02 0.  0.
        -12    1    1    2    0    0 -0.30500163069E+02 -0.20996925915E+02  0.16793894017E+02  0.40659140686E+02  0.00000000000E+00 0.  1.
         11    1    3    3    0    0  0.16535017259E+02  0.19800401847E+02 -0.18735185797E+02  0.31882125026E+02  0.51100000000E-03 0. -1.
        -11    1    3    3    0    0  0.93536500764E+01 -0.46235972747E+01 -0.13564121828E+01  0.10521800026E+02  0.51100000000E-03 0.  1.
         12    1    3    3    0    0  0.46114957334E+01  0.58201213427E+01  0.32977039631E+01  0.81249342625E+01  0.00000000000E+00 0. -1.
</event>
<event>
 7    1  0.1098446E-012  0.5052886E+02  0.7816164E-02  0.1300439E+00
        -11   -1    0    0    0    0  0.00000000000E+00  0.00000000000E+00  0.45593999997E+02  0.45594000000E+02  0.51100000000E-03 0. -1.
         11   -1    0    0    0    0 -0.00000000000E+00 -0.00000000000E+00 -0.45593999997E+02  0.45594000000E+02  0.51100000000E-03 0.  1.
    9900012    2    1    2    0    0 -0.12068766264E+02 -0.38811833329E+02 -0.10731975782E+01  0.50528864759E+02  0.30000014921E+02 0.  0.
        -12    1    1    2    0    0  0.12068766264E+02  0.38811833329E+02  0.10731975782E+01  0.40659135241E+02  0.00000000000E+00 0.  1.
         11    1    3    3    0    0  0.10476835954E+01 -0.12768980939E+02  0.10918063522E+02  0.16832962498E+02  0.51100000000E-03 0. -1.
        -11    1    3    3    0    0 -0.26057448678E+01 -0.60360567811E+01 -0.86278430172E+01  0.10847283677E+02  0.51100000000E-03 0.  1.
         12    1    3    3    0    0 -0.10510704991E+02 -0.20006795610E+02 -0.33634180828E+01  0.22848618584E+02  0.00000000000E+00 0. -1.
</event>
<event>
 7    1  0.1098446E-012  0.5052886E+02  0.7816164E-02  0.1300439E+00
        -11   -1    0    0    0    0  0.00000000000E+00  0.00000000000E+00  0.45593999997E+02  0.45594000000E+02  0.51100000000E-03 0.  1.
         11   -1    0    0    0    0 -0.00000000000E+00 -0.00000000000E+00 -0.45593999997E+02  0.45594000000E+02  0.51100000000E-03 0. -1.
    9900012    2    1    2    0    0 -0.25043319988E+02  0.27274196069E+02 -0.16796302904E+02  0.50528862793E+02  0.30000008944E+02 0.  0.
        -12    1    1    2    0    0  0.25043319988E+02 -0.27274196069E+02  0.16796302904E+02  0.40659137207E+02  0.00000000000E+00 0.  1.
         11    1    3    3    0    0 -0.14668013018E+02  0.19847789297E+02 -0.19188874221E+02  0.31261769624E+02  0.51100000000E-03 0. -1.
        -11    1    3    3    0    0 -0.79116830040E+01 -0.24730243951E+01  0.35159879820E+01  0.90040407243E+01  0.51100000000E-03 0.  1.
         12    1    3    3    0    0 -0.24636239660E+01  0.98994311672E+01 -0.11234166644E+01  0.10263052445E+02  0.00000000000E+00 0. -1.
</event>
<event>
 7    1  0.1098446E-012  0.5052886E+02  0.7816164E-02  0.1300439E+00
        -11   -1    0    0    0    0  0.00000000000E+00  0.00000000000E+00  0.45593999997E+02  0.45594000000E+02  0.51100000000E-03 0.  1.
         11   -1    0    0    0    0 -0.00000000000E+00 -0.00000000000E+00 -0.45593999997E+02  0.45594000000E+02  0.51100000000E-03 0. -1.
    9900012    2    1    2    0    0 -0.14440140566E+02 -0.97442589123E+01 -0.36738231566E+02  0.50528857118E+02  0.29999991697E+02 0.  0.
        -12    1    1    2    0    0  0.14440140566E+02  0.97442589123E+01  0.36738231566E+02  0.40659142882E+02  0.00000000000E+00 0.  1.
         11    1    3    3    0    0 -0.31456934705E+01  0.83941053028E+01 -0.18968071864E+02  0.20979612526E+02  0.51100000000E-03 0. -1.
        -11    1    3    3    0    0  0.13676575007E+01 -0.55698926855E+01 -0.36681554508E+01  0.68080508400E+01  0.51100000000E-03 0.  1.
         12    1    3    3    0    0 -0.12662104596E+02 -0.12568471530E+02 -0.14102004251E+02  0.22741193752E+02  0.00000000000E+00 0. -1.
</event>
<event>
 7    1  0.1098446E-012  0.5052886E+02  0.7816164E-02  0.1300439E+00
        -11   -1    0    0    0    0  0.00000000000E+00  0.00000000000E+00  0.45593999997E+02  0.45594000000E+02  0.51100000000E-03 0.  1.
         11   -1    0    0    0    0 -0.00000000000E+00 -0.00000000000E+00 -0.45593999997E+02  0.45594000000E+02  0.51100000000E-03 0. -1.
    9900012    2    1    2    0    0 -0.63867355051E-01 -0.13696239079E+02 -0.38282825955E+02  0.50528858260E+02  0.29999995167E+02 0.  0.
        -12    1    1    2    0    0  0.63867355051E-01  0.13696239079E+02  0.38282825955E+02  0.40659141740E+02  0.00000000000E+00 0.  1.
         11    1    3    3    0    0  0.23398257548E+01  0.48184458609E+01 -0.29086498308E+02  0.29575608010E+02  0.51100000000E-03 0. -1.
        -11    1    3    3    0    0 -0.13265494304E+01 -0.14511268653E+02 -0.61892796581E+01  0.15831735037E+02  0.51100000000E-03 0.  1.
         12    1    3    3    0    0 -0.10771436795E+01 -0.40034162868E+01 -0.30070479883E+01  0.51215152129E+01  0.00000000000E+00 0. -1.
</event>
<event>
 7    1  0.1098446E-012  0.5052886E+02  0.7816164E-02  0.1300439E+00
        -11   -1    0    0    0    0  0.00000000000E+00  0.00000000000E+00  0.45593999997E+02  0.45594000000E+02  0.51100000000E-03 0.  1.
         11   -1    0    0    0    0 -0.00000000000E+00 -0.00000000000E+00 -0.45593999997E+02  0.45594000000E+02  0.51100000000E-03 0. -1.
    9900012    2    1    2    0    0 -0.27590546741E+02 -0.29160775568E+02  0.64480126748E+01  0.50528856272E+02  0.29999989125E+02 0.  0.
        -12    1    1    2    0    0  0.27590546741E+02  0.29160775568E+02 -0.64480126748E+01  0.40659143728E+02  0.00000000000E+00 0.  1.
         11    1    3    3    0    0 -0.76281349477E+01 -0.20614264089E+02 -0.69327230273E+01  0.23047754241E+02  0.51100000000E-03 0. -1.
        -11    1    3    3    0    0 -0.61255450054E+00 -0.34443687045E+01  0.41950159891E+01  0.54623308393E+01  0.51100000000E-03 0.  1.
         12    1    3    3    0    0 -0.19349857293E+02 -0.51021427741E+01  0.91857197130E+01  0.22018771192E+02  0.00000000000E+00 0. -1.
</event>
<event>
 7    1  0.1098446E-012  0.5052886E+02  0.7816164E-02  0.1300439E+00
        -11   -1    0    0    0    0  0.00000000000E+00  0.00000000000E+00  0.45593999997E+02  0.45594000000E+02  0.51100000000E-03 0.  1.
         11   -1    0    0    0    0 -0.00000000000E+00 -0.00000000000E+00 -0.45593999997E+02  0.45594000000E+02  0.51100000000E-03 0. -1.
    9900012    2    1    2    0    0 -0.64594412161E+01  0.25525336168E+02 -0.30982225382E+02  0.50528862566E+02  0.30000008254E+02 0.  0.
        -12    1    1    2    0    0  0.64594412161E+01 -0.25525336168E+02  0.30982225382E+02  0.40659137434E+02  0.00000000000E+00 0.  1.
         11    1    3    3    0    0  0.26162850979E+01  0.26321866161E+02 -0.18546256915E+02  0.32305560384E+02  0.51100000000E-03 0. -1.
        -11    1    3    3    0    0 -0.45429986007E+01 -0.27786155484E+01 -0.12152414370E+02  0.13268033612E+02  0.51100000000E-03 0.  1.
         12    1    3    3    0    0 -0.45327277133E+01  0.19820855545E+01 -0.28355409741E+00  0.49552685694E+01  0.00000000000E+00 0. -1.
</event>
<event>
 7    1  0.1098446E-012  0.5052887E+02  0.7816164E-02  0.1300439E+00
        -11   -1    0    0    0    0  0.00000000000E+00  0.00000000000E+00  0.45593999997E+02  0.45594000000E+02  0.51100000000E-03 0. -1.
         11   -1    0    0    0    0 -0.00000000000E+00 -0.00000000000E+00 -0.45593999997E+02  0.45594000000E+02  0.51100000000E-03 0.  1.
    9900012    2    1    2    0    0  0.10804899580E+02  0.37322993333E+02  0.11975533303E+02  0.50528867149E+02  0.30000022186E+02 0.  0.
        -12    1    1    2    0    0 -0.10804899580E+02 -0.37322993333E+02 -0.11975533303E+02  0.40659132851E+02  0.00000000000E+00 0.  1.
         11    1    3    3    0    0 -0.16198046804E+01  0.63041975996E+01  0.37098161256E+01  0.74919563883E+01  0.51100000000E-03 0. -1.
        -11    1    3    3    0    0  0.13733372173E+02  0.24371050102E+02 -0.47393378487E+01  0.28372784809E+02  0.51100000000E-03 0.  1.
        -12    1    3    3    0    0 -0.13086679121E+01  0.66477456321E+01  0.13005055026E+02  0.14664125952E+02  0.00000000000E+00 0.  1.
</event>
<event>
 7    1  0.1098446E-012  0.5052886E+02  0.7816164E-02  0.1300439E+00
        -11   -1    0    0    0    0  0.00000000000E+00  0.00000000000E+00  0.45593999997E+02  0.45594000000E+02  0.51100000000E-03 0.  1.
         11   -1    0    0    0    0 -0.00000000000E+00 -0.00000000000E+00 -0.45593999997E+02  0.45594000000E+02  0.51100000000E-03 0. -1.
    9900012    2    1    2    0    0  0.21410698489E+02  0.22484457637E+02 -0.26252557475E+02  0.50528860572E+02  0.30000002195E+02 0.  0.
        -12    1    1    2    0    0 -0.21410698489E+02 -0.22484457637E+02  0.26252557475E+02  0.40659139428E+02  0.00000000000E+00 0.  1.
         11    1    3    3    0    0 -0.41657058820E+01  0.11284277764E-01 -0.33144773493E+01  0.53234380987E+01  0.51100000000E-03 0.  1.
        -11    1    3    3    0    0  0.23802097285E+02  0.24781969258E+02 -0.24204348990E+02  0.42030183747E+02  0.51100000000E-03 0. -1.
         12    1    3    3    0    0  0.17743070852E+01 -0.23087958988E+01  0.12662688643E+01  0.31752387267E+01  0.00000000000E+00 0. -1.
</event>
<event>
 7    1  0.1098446E-012  0.5052886E+02  0.7816164E-02  0.1300439E+00
        -11   -1    0    0    0    0  0.00000000000E+00  0.00000000000E+00  0.45593999997E+02  0.45594000000E+02  0.51100000000E-03 0.  1.
         11   -1    0    0    0    0 -0.00000000000E+00 -0.00000000000E+00 -0.45593999997E+02  0.45594000000E+02  0.51100000000E-03 0. -1.
    9900012    2    1    2    0    0 -0.15929042304E+02  0.18155139623E+02 -0.32708142410E+02  0.50528855107E+02  0.29999985584E+02 0.  0.
        -12    1    1    2    0    0  0.15929042304E+02 -0.18155139623E+02  0.32708142410E+02  0.40659144893E+02  0.00000000000E+00 0.  1.
         11    1    3    3    0    0 -0.20333380597E+02  0.18338702814E+02 -0.20956773218E+02  0.34481019872E+02  0.51100000000E-03 0. -1.
        -11    1    3    3    0    0  0.69593160606E+01 -0.69190921380E+00 -0.44344651556E+01  0.82810204606E+01  0.51100000000E-03 0.  1.
        -12    1    3    3    0    0 -0.25549777682E+01  0.50834602318E+00 -0.73169040361E+01  0.77668147750E+01  0.00000000000E+00 0.  1.
</event>
<event>
 7    1  0.1098446E-012  0.5052886E+02  0.7816164E-02  0.1300439E+00
        -11   -1    0    0    0    0  0.00000000000E+00  0.00000000000E+00  0.45593999997E+02  0.45594000000E+02  0.51100000000E-03 0. -1.
         11   -1    0    0    0    0 -0.00000000000E+00 -0.00000000000E+00 -0.45593999997E+02  0.45594000000E+02  0.51100000000E-03 0.  1.
    9900012    2    1    2    0    0 -0.79247847866E-02  0.40265633237E+02 -0.56431000555E+01  0.50528857596E+02  0.29999993149E+02 0.  0.
        -12    1    1    2    0    0  0.79247847866E-02 -0.40265633237E+02  0.56431000555E+01  0.40659142404E+02  0.00000000000E+00 0.  1.
         11    1    3    3    0    0 -0.66256196761E+01  0.22983070700E+01  0.34439643017E+00  0.70213717066E+01  0.51100000000E-03 0. -1.
        -11    1    3    3    0    0  0.57724514294E+00  0.17186583027E+02 -0.12092044622E+02  0.21022116723E+02  0.51100000000E-03 0.  1.
         12    1    3    3    0    0  0.60404497484E+01  0.20780743140E+02  0.61045481363E+01  0.22485369167E+02  0.00000000000E+00 0. -1.
</event>
<event>
 7    1  0.1098446E-012  0.5052886E+02  0.7816164E-02  0.1300439E+00
        -11   -1    0    0    0    0  0.00000000000E+00  0.00000000000E+00  0.45593999997E+02  0.45594000000E+02  0.51100000000E-03 0. -1.
         11   -1    0    0    0    0 -0.00000000000E+00 -0.00000000000E+00 -0.45593999997E+02  0.45594000000E+02  0.51100000000E-03 0.  1.
    9900012    2    1    2    0    0  0.22142395155E+02 -0.33662769903E+02  0.54495943021E+01  0.50528858115E+02  0.29999994728E+02 0.  0.
        -12    1    1    2    0    0 -0.22142395155E+02  0.33662769903E+02 -0.54495943021E+01  0.40659141885E+02  0.00000000000E+00 0.  1.
         11    1    3    3    0    0  0.96572987709E+01 -0.16328764154E+02  0.25372774752E+01  0.19139742307E+02  0.51100000000E-03 0. -1.
        -11    1    3    3    0    0  0.11390668563E+02  0.18225633091E+01 -0.16857271707E+01  0.11658076329E+02  0.51100000000E-03 0.  1.
        -12    1    3    3    0    0  0.10944278211E+01 -0.19156569058E+02  0.45980439976E+01  0.19731039479E+02  0.00000000000E+00 0.  1.
</event>
<event>
 7    1  0.1098446E-012  0.5052888E+02  0.7816164E-02  0.1300439E+00
        -11   -1    0    0    0    0  0.00000000000E+00  0.00000000000E+00  0.45593999997E+02  0.45594000000E+02  0.51100000000E-03 0. -1.
         11   -1    0    0    0    0 -0.00000000000E+00 -0.00000000000E+00 -0.45593999997E+02  0.45594000000E+02  0.51100000000E-03 0.  1.
    9900012    2    1    2    0    0  0.86374129369E+01 -0.29396552437E+02  0.26728301230E+02  0.50528876989E+02  0.30000052094E+02 0.  0.
        -12    1    1    2    0    0 -0.86374129369E+01  0.29396552437E+02 -0.26728301230E+02  0.40659123011E+02  0.00000000000E+00 0.  1.
         11    1    3    3    0    0  0.23321853814E+01  0.40331582838E+01  0.93850050972E+01  0.10477775304E+02  0.51100000000E-03 0. -1.
        -11    1    3    3    0    0  0.49591885468E+01 -0.23995359737E+02  0.59819394321E+01  0.25222102204E+02  0.51100000000E-03 0.  1.
         12    1    3    3    0    0  0.13460390087E+01 -0.94343509830E+01  0.11361356701E+02  0.14828999480E+02  0.00000000000E+00 0. -1.
</event>
<event>
 7    1  0.1098446E-012  0.5052886E+02  0.7816164E-02  0.1300439E+00
        -11   -1    0    0    0    0  0.00000000000E+00  0.00000000000E+00  0.45593999997E+02  0.45594000000E+02  0.51100000000E-03 0.  1.
         11   -1    0    0    0    0 -0.00000000000E+00 -0.00000000000E+00 -0.45593999997E+02  0.45594000000E+02  0.51100000000E-03 0. -1.
    9900012    2    1    2    0    0 -0.18369824888E+02 -0.26002515237E+02 -0.25290002992E+02  0.50528861834E+02  0.30000006031E+02 0.  0.
        -12    1    1    2    0    0  0.18369824888E+02  0.26002515237E+02  0.25290002992E+02  0.40659138166E+02  0.00000000000E+00 0.  1.
         11    1    3    3    0    0 -0.10785223899E+02 -0.94238745625E+01 -0.20230754273E+02  0.24787373500E+02  0.51100000000E-03 0. -1.
        -11    1    3    3    0    0 -0.33675767300E+01 -0.15642918205E+02  0.32945868503E+01  0.16336944812E+02  0.51100000000E-03 0.  1.
        -12    1    3    3    0    0 -0.42170242590E+01 -0.93572246910E+00 -0.83538355694E+01  0.94045435222E+01  0.00000000000E+00 0.  1.
</event>
<event>
 7    1  0.1098446E-012  0.5052885E+02  0.7816164E-02  0.1300439E+00
        -11   -1    0    0    0    0  0.00000000000E+00  0.00000000000E+00  0.45593999997E+02  0.45594000000E+02  0.51100000000E-03 0. -1.
         11   -1    0    0    0    0 -0.00000000000E+00 -0.00000000000E+00 -0.45593999997E+02  0.45594000000E+02  0.51100000000E-03 0.  1.
    9900012    2    1    2    0    0  0.29409729942E+02 -0.27681338883E+02  0.46880227162E+01  0.50528852264E+02  0.29999976941E+02 0.  0.
        -12    1    1    2    0    0 -0.29409729942E+02  0.27681338883E+02 -0.46880227162E+01  0.40659147736E+02  0.00000000000E+00 0.  1.
         11    1    3    3    0    0  0.98866895339E+01 -0.14354662648E+02  0.14952250400E+02  0.22964598014E+02  0.51100000000E-03 0. -1.
        -11    1    3    3    0    0  0.51813502006E+01 -0.17780273450E+01 -0.69592057914E+01  0.88565408964E+01  0.51100000000E-03 0.  1.
        -12    1    3    3    0    0  0.14341690207E+02 -0.11548648891E+02 -0.33050218922E+01  0.18707713353E+02  0.00000000000E+00 0.  1.
</event>
<event>
 7    1  0.1098446E-012  0.5052887E+02  0.7816164E-02  0.1300439E+00
        -11   -1    0    0    0    0  0.00000000000E+00  0.00000000000E+00  0.45593999997E+02  0.45594000000E+02  0.51100000000E-03 0.  1.
         11   -1    0    0    0    0 -0.00000000000E+00 -0.00000000000E+00 -0.45593999997E+02  0.45594000000E+02  0.51100000000E-03 0. -1.
    9900012    2    1    2    0    0  0.15806851298E+02 -0.26086007148E+02 -0.26885473713E+02  0.50528868017E+02  0.30000024823E+02 0.  0.
        -12    1    1    2    0    0 -0.15806851298E+02  0.26086007148E+02  0.26885473713E+02  0.40659131983E+02  0.00000000000E+00 0.  1.
         11    1    3    3    0    0  0.15333730823E+02 -0.25390797174E+02 -0.25738969470E+02  0.39272260334E+02  0.51100000000E-03 0. -1.
        -11    1    3    3    0    0 -0.45903138549E+01 -0.31395749406E+01 -0.85359099226E+00  0.56264135945E+01  0.51100000000E-03 0.  1.
         12    1    3    3    0    0  0.50634343300E+01  0.24443649661E+01 -0.29291325026E+00  0.56301940884E+01  0.00000000000E+00 0. -1.
</event>
<event>
 7    1  0.1098446E-012  0.5052885E+02  0.7816164E-02  0.1300439E+00
        -11   -1    0    0    0    0  0.00000000000E+00  0.00000000000E+00  0.45593999997E+02  0.45594000000E+02  0.51100000000E-03 0. -1.
         11   -1    0    0    0    0 -0.00000000000E+00 -0.00000000000E+00 -0.45593999997E+02  0.45594000000E+02  0.51100000000E-03 0.  1.
    9900012    2    1    2    0    0  0.39050106807E+01 -0.28111570462E+02  0.29114544144E+02  0.50528853637E+02  0.29999981115E+02 0.  0.
        -12    1    1    2    0    0 -0.39050106807E+01  0.28111570462E+02 -0.29114544144E+02  0.40659146363E+02  0.00000000000E+00 0.  1.
         11    1    3    3    0    0 -0.87170692670E+01 -0.86574979631E+01  0.13654932997E+02  0.18368363101E+02  0.51100000000E-03 0. -1.
        -11    1    3    3    0    0  0.95203164807E+01 -0.62156769905E+01 -0.26460911908E+00  0.11372822191E+02  0.51100000000E-03 0.  1.
        -12    1    3    3    0    0  0.31017634669E+01 -0.13238395508E+02  0.15724220266E+02  0.20787668345E+02  0.00000000000E+00 0.  1.
</event>
<event>
 7    1  0.1098446E-012  0.5052886E+02  0.7816164E-02  0.1300439E+00
        -11   -1    0    0    0    0  0.00000000000E+00  0.00000000000E+00  0.45593999997E+02  0.45594000000E+02  0.51100000000E-03 0.  1.
         11   -1    0    0    0    0 -0.00000000000E+00 -0.00000000000E+00 -0.45593999997E+02  0.45594000000E+02  0.51100000000E-03 0. -1.
    9900012    2    1    2    0    0 -0.68553909451E+01 -0.28396541216E+02 -0.28280835319E+02  0.50528860998E+02  0.30000003489E+02 0.  0.
        -12    1    1    2    0    0  0.68553909451E+01  0.28396541216E+02  0.28280835319E+02  0.40659139002E+02  0.00000000000E+00 0.  1.
         11    1    3    3    0    0  0.58555539804E+01 -0.14401818288E+02 -0.22263553759E+02  0.27154478612E+02  0.51100000000E-03 0. -1.
        -11    1    3    3    0    0 -0.10958700984E+02 -0.86608253689E+01 -0.93844944249E+01  0.16827708080E+02  0.51100000000E-03 0.  1.
         12    1    3    3    0    0 -0.17522439410E+01 -0.53338975586E+01  0.33672128650E+01  0.65466743063E+01  0.00000000000E+00 0. -1.
</event>
<event>
 7    1  0.1098446E-012  0.5052886E+02  0.7816164E-02  0.1300439E+00
        -11   -1    0    0    0    0  0.00000000000E+00  0.00000000000E+00  0.45593999997E+02  0.45594000000E+02  0.51100000000E-03 0.  1.
         11   -1    0    0    0    0 -0.00000000000E+00 -0.00000000000E+00 -0.45593999997E+02  0.45594000000E+02  0.51100000000E-03 0. -1.
    9900012    2    1    2    0    0  0.39493779528E+02 -0.77133598799E+01 -0.58233212724E+01  0.50528860650E+02  0.30000002431E+02 0.  0.
        -12    1    1    2    0    0 -0.39493779528E+02  0.77133598799E+01  0.58233212724E+01  0.40659139350E+02  0.00000000000E+00 0.  1.
         11    1    3    3    0    0 -0.39064329534E+00 -0.73374242989E+01 -0.61641080073E+01  0.95909658175E+01  0.51100000000E-03 0. -1.
        -11    1    3    3    0    0  0.77525859897E+01  0.25316102486E+01  0.26944326881E+01  0.85890399784E+01  0.51100000000E-03 0.  1.
         12    1    3    3    0    0  0.32131836834E+02 -0.29075458296E+01 -0.23536459533E+01  0.32348854854E+02  0.00000000000E+00 0. -1.
</event>
<event>
 7    1  0.1098446E-012  0.5052887E+02  0.7816164E-02  0.1300439E+00
        -11   -1    0    0    0    0  0.00000000000E+00  0.00000000000E+00  0.45593999997E+02  0.45594000000E+02  0.51100000000E-03 0. -1.
         11   -1    0    0    0    0 -0.00000000000E+00 -0.00000000000E+00 -0.45593999997E+02  0.45594000000E+02  0.51100000000E-03 0.  1.
    9900012    2    1    2    0    0  0.66580682468E+01 -0.38725006926E+02  0.10450313783E+02  0.50528867049E+02  0.30000021882E+02 0.  0.
        -12    1    1    2    0    0 -0.66580682468E+01  0.38725006926E+02 -0.10450313783E+02  0.40659132951E+02  0.00000000000E+00 0.  1.
         11    1    3    3    0    0  0.45815564203E+01 -0.27757023914E+02  0.19963935952E+02  0.34496402345E+02  0.51100000000E-03 0. -1.
        -11    1    3    3    0    0  0.22185407229E+01 -0.93683055310E+01 -0.10421338027E+02  0.14187718562E+02  0.51100000000E-03 0.  1.
        -12    1    3    3    0    0 -0.14202889641E+00 -0.15996774807E+01  0.90771585820E+00  0.18447461421E+01  0.00000000000E+00 0.  1.
</event>
<event>
 7    1  0.1098446E-012  0.5052885E+02  0.7816164E-02  0.1300439E+00
        -11   -1    0    0    0    0  0.00000000000E+00  0.00000000000E+00  0.45593999997E+02  0.45594000000E+02  0.51100000000E-03 0.  1.
         11   -1    0    0    0    0 -0.00000000000E+00 -0.00000000000E+00 -0.45593999997E+02  0.45594000000E+02  0.51100000000E-03 0. -1.
    9900012    2    1    2    0    0  0.39970862299E+02 -0.74442903159E+01  0.28121755715E+00  0.50528851281E+02  0.29999973955E+02 0.  0.
        -12    1    1    2    0    0 -0.39970862299E+02  0.74442903159E+01 -0.28121755715E+00  0.40659148719E+02  0.00000000000E+00 0.  1.
         11    1    3    3    0    0  0.14668563160E+02 -0.31381980710E+01 -0.84962257483E+01  0.17239515206E+02  0.51100000000E-03 0. -1.
        -11    1    3    3    0    0 -0.64739364375E+00 -0.15873257797E+01  0.69226712296E+01  0.71317668832E+01  0.51100000000E-03 0.  1.
         12    1    3    3    0    0  0.25949692782E+02 -0.27187664652E+01  0.18547720758E+01  0.26157569192E+02  0.00000000000E+00 0. -1.
</event>
<event>
 7    1  0.1098446E-012  0.5052887E+02  0.7816164E-02  0.1300439E+00
        -11   -1    0    0    0    0  0.00000000000E+00  0.00000000000E+00  0.45593999997E+02  0.45594000000E+02  0.51100000000E-03 0.  1.
         11   -1    0    0    0    0 -0.00000000000E+00 -0.00000000000E+00 -0.45593999997E+02  0.45594000000E+02  0.51100000000E-03 0. -1.
    9900012    2    1    2    0    0  0.14625382998E+02  0.15122574086E+02 -0.34793256330E+02  0.50528871125E+02  0.30000034272E+02 0.  0.
        -12    1    1    2    0    0 -0.14625382998E+02 -0.15122574086E+02  0.34793256330E+02  0.40659128875E+02  0.00000000000E+00 0.  1.
         11    1    3    3    0    0  0.12160578285E+02  0.92799027816E+01 -0.11261467557E+02  0.18995181275E+02  0.51100000000E-03 0. -1.
        -11    1    3    3    0    0 -0.12431277539E+01  0.84858066629E+01 -0.25249976465E+02  0.26666750704E+02  0.51100000000E-03 0.  1.
        -12    1    3    3    0    0  0.37079324667E+01 -0.26431353589E+01  0.17181876929E+01  0.48669391460E+01  0.00000000000E+00 0.  1.
</event>
<event>
 7    1  0.1098446E-012  0.5052884E+02  0.7816164E-02  0.1300439E+00
        -11   -1    0    0    0    0  0.00000000000E+00  0.00000000000E+00  0.45593999997E+02  0.45594000000E+02  0.51100000000E-03 0.  1.
         11   -1    0    0    0    0 -0.00000000000E+00 -0.00000000000E+00 -0.45593999997E+02  0.45594000000E+02  0.51100000000E-03 0. -1.
    9900012    2    1    2    0    0 -0.50102011732E+01  0.19420187242E+00 -0.40348825636E+02  0.50528836699E+02  0.29999929629E+02 0.  0.
        -12    1    1    2    0    0  0.50102011732E+01 -0.19420187242E+00  0.40348825636E+02  0.40659163301E+02  0.00000000000E+00 0.  1.
         11    1    3    3    0    0 -0.14695979832E+02  0.86541942931E-01 -0.21636666063E+02  0.26155776252E+02  0.51100000000E-03 0. -1.
        -11    1    3    3    0    0  0.71562676553E+01 -0.28610679166E+00 -0.19584930289E+01  0.74249389934E+01  0.51100000000E-03 0.  1.
         12    1    3    3    0    0  0.25295110034E+01  0.39376672115E+00 -0.16753666544E+02  0.16948121454E+02  0.00000000000E+00 0. -1.
</event>
<event>
 7    1  0.1098446E-012  0.5052885E+02  0.7816164E-02  0.1300439E+00
        -11   -1    0    0    0    0  0.00000000000E+00  0.00000000000E+00  0.45593999997E+02  0.45594000000E+02  0.51100000000E-03 0.  1.
         11   -1    0    0    0    0 -0.00000000000E+00 -0.00000000000E+00 -0.45593999997E+02  0.45594000000E+02  0.51100000000E-03 0. -1.
    9900012    2    1    2    0    0 -0.24190105974E+02  0.31970740179E+02 -0.67732558855E+01  0.50528850354E+02  0.29999971136E+02 0.  0.
        -12    1    1    2    0    0  0.24190105974E+02 -0.31970740179E+02  0.67732558855E+01  0.40659149646E+02  0.00000000000E+00 0.  1.
         11    1    3    3    0    0  0.22495440659E+01  0.59433056049E+01 -0.44636355224E+01  0.77657821470E+01  0.51100000000E-03 0. -1.
        -11    1    3    3    0    0 -0.21926003557E+02  0.28626246499E+02  0.18376450808E+01  0.36105242837E+02  0.51100000000E-03 0.  1.
        -12    1    3    3    0    0 -0.45136464825E+01 -0.25988119251E+01 -0.41472654440E+01  0.66578253697E+01  0.00000000000E+00 0.  1.
</event>
<event>
 7    1  0.1098446E-012  0.5052886E+02  0.7816164E-02  0.1300439E+00
        -11   -1    0    0    0    0  0.00000000000E+00  0.00000000000E+00  0.45593999997E+02  0.45594000000E+02  0.51100000000E-03 0.  1.
         11   -1    0    0    0    0 -0.00000000000E+00 -0.00000000000E+00 -0.45593999997E+02  0.45594000000E+02  0.51100000000E-03 0. -1.
    9900012    2    1    2    0    0 -0.31755269825E+01  0.15173453720E+02 -0.37587867347E+02  0.50528862760E+02  0.30000008845E+02 0.  0.
        -12    1    1    2    0    0  0.31755269825E+01 -0.15173453720E+02  0.37587867347E+02  0.40659137240E+02  0.00000000000E+00 0.  1.
         11    1    3    3    0    0 -0.95644569521E+00  0.22226489316E+02 -0.27951360344E+02  0.35724083768E+02  0.51100000000E-03 0. -1.
        -11    1    3    3    0    0 -0.29138425121E+01 -0.46661432598E+01 -0.10753852659E+02  0.12079268123E+02  0.51100000000E-03 0.  1.
         12    1    3    3    0    0  0.69476122482E+00 -0.23868923369E+01  0.11173456558E+01  0.27255108699E+01  0.00000000000E+00 0. -1.
</event>
<event>
 7    1  0.1098446E-012  0.5052886E+02  0.7816164E-02  0.1300439E+00
        -11   -1    0    0    0    0  0.00000000000E+00  0.00000000000E+00  0.45593999997E+02  0.45594000000E+02  0.51100000000E-03 0.  1.
         11   -1    0    0    0    0 -0.00000000000E+00 -0.00000000000E+00 -0.45593999997E+02  0.45594000000E+02  0.51100000000E-03 0. -1.
    9900012    2    1    2    0    0  0.33923063423E+02 -0.19121429388E+02 -0.11694559036E+02  0.50528855827E+02  0.29999987773E+02 0.  0.
        -12    1    1    2    0    0 -0.33923063423E+02  0.19121429388E+02  0.11694559036E+02  0.40659144173E+02  0.00000000000E+00 0.  1.
         11    1    3    3    0    0  0.16528376580E+02 -0.18697659472E+02  0.36254339423E+01  0.25217721420E+02  0.51100000000E-03 0. -1.
        -11    1    3    3    0    0  0.10234646445E+02  0.32720736371E+01 -0.41066457097E+01  0.11502999304E+02  0.51100000000E-03 0.  1.
         12    1    3    3    0    0  0.71600403977E+01 -0.36958435528E+01 -0.11213347268E+02  0.13808135103E+02  0.00000000000E+00 0. -1.
</event>
<event>
 7    1  0.1098446E-012  0.5052886E+02  0.7816164E-02  0.1300439E+00
        -11   -1    0    0    0    0  0.00000000000E+00  0.00000000000E+00  0.45593999997E+02  0.45594000000E+02  0.51100000000E-03 0. -1.
         11   -1    0    0    0    0 -0.00000000000E+00 -0.00000000000E+00 -0.45593999997E+02  0.45594000000E+02  0.51100000000E-03 0.  1.
    9900012    2    1    2    0    0  0.35206229732E+02 -0.11769869961E+02  0.16587862786E+02  0.50528860282E+02  0.30000001313E+02 0.  0.
        -12    1    1    2    0    0 -0.35206229732E+02  0.11769869961E+02 -0.16587862786E+02  0.40659139718E+02  0.00000000000E+00 0.  1.
         11    1    3    3    0    0  0.29286205521E+02 -0.20393010471E+02  0.17907236261E+02  0.39927757521E+02  0.51100000000E-03 0. -1.
        -11    1    3    3    0    0  0.22233925171E+01  0.42116548741E+01 -0.65492470400E+00  0.48073316603E+01  0.51100000000E-03 0.  1.
         12    1    3    3    0    0  0.36966316937E+01  0.44114856360E+01 -0.66444877138E+00  0.57937711005E+01  0.00000000000E+00 0. -1.
</event>
<event>
 7    1  0.1098446E-012  0.5052889E+02  0.7816164E-02  0.1300439E+00
        -11   -1    0    0    0    0  0.00000000000E+00  0.00000000000E+00  0.45593999997E+02  0.45594000000E+02  0.51100000000E-03 0. -1.
         11   -1    0    0    0    0 -0.00000000000E+00 -0.00000000000E+00 -0.45593999997E+02  0.45594000000E+02  0.51100000000E-03 0.  1.
    9900012    2    1    2    0    0 -0.15636384993E+02  0.15049221263E+02  0.34382954319E+02  0.50528891009E+02  0.30000094709E+02 0.  0.
        -12    1    1    2    0    0  0.15636384993E+02 -0.15049221263E+02 -0.34382954319E+02  0.40659108991E+02  0.00000000000E+00 0.  1.
         11    1    3    3    0    0 -0.60705213739E+01  0.18535542011E+02  0.14427452594E+02  0.24260439732E+02  0.51100000000E-03 0. -1.
        -11    1    3    3    0    0 -0.10206337995E+02 -0.29468450122E+01  0.21795649577E+02  0.24246722903E+02  0.51100000000E-03 0.  1.
        -12    1    3    3    0    0  0.64047437612E+00 -0.53947573552E+00 -0.18401478522E+01  0.20217283729E+01  0.00000000000E+00 0.  1.
</event>
<event>
 7    1  0.1098446E-012  0.5052883E+02  0.7816164E-02  0.1300439E+00
        -11   -1    0    0    0    0  0.00000000000E+00  0.00000000000E+00  0.45593999997E+02  0.45594000000E+02  0.51100000000E-03 0.  1.
         11   -1    0    0    0    0 -0.00000000000E+00 -0.00000000000E+00 -0.45593999997E+02  0.45594000000E+02  0.51100000000E-03 0. -1.
    9900012    2    1    2    0    0 -0.21679362912E+02  0.34220744294E+02  0.34805710891E+01  0.50528825250E+02  0.29999894828E+02 0.  0.
        -12    1    1    2    0    0  0.21679362912E+02 -0.34220744294E+02 -0.34805710891E+01  0.40659174750E+02  0.00000000000E+00 0.  1.
         11    1    3    3    0    0 -0.19532088013E+02  0.20141029727E+02  0.10129030492E+02  0.29828858503E+02  0.51100000000E-03 0. -1.
        -11    1    3    3    0    0 -0.12646138390E+01  0.15729264713E+02 -0.22750175641E+01  0.15943171634E+02  0.51100000000E-03 0.  1.
         12    1    3    3    0    0 -0.88266105992E+00 -0.16495501462E+01 -0.43734418385E+01  0.47567951129E+01  0.00000000000E+00 0. -1.
</event>
<event>
 7    1  0.1098446E-012  0.5052884E+02  0.7816164E-02  0.1300439E+00
        -11   -1    0    0    0    0  0.00000000000E+00  0.00000000000E+00  0.45593999997E+02  0.45594000000E+02  0.51100000000E-03 0. -1.
         11   -1    0    0    0    0 -0.00000000000E+00 -0.00000000000E+00 -0.45593999997E+02  0.45594000000E+02  0.51100000000E-03 0.  1.
    9900012    2    1    2    0    0  0.61274497726E+01 -0.27369934905E+02  0.29436514410E+02  0.50528839187E+02  0.29999937193E+02 0.  0.
        -12    1    1    2    0    0 -0.61274497726E+01  0.27369934905E+02 -0.29436514410E+02  0.40659160813E+02  0.00000000000E+00 0.  1.
         11    1    3    3    0    0 -0.60500948763E+01 -0.17183006173E+02  0.49168554821E+01  0.18868884897E+02  0.51100000000E-03 0. -1.
        -11    1    3    3    0    0  0.10818104597E+02 -0.12306993547E+02  0.24044668811E+02  0.29097071600E+02  0.51100000000E-03 0.  1.
         12    1    3    3    0    0  0.13594400520E+01  0.21200648149E+01  0.47499011713E+00  0.25628826906E+01  0.00000000000E+00 0. -1.
</event>
<event>
 7    1  0.1098446E-012  0.5052885E+02  0.7816164E-02  0.1300439E+00
        -11   -1    0    0    0    0  0.00000000000E+00  0.00000000000E+00  0.45593999997E+02  0.45594000000E+02  0.51100000000E-03 0.  1.
         11   -1    0    0    0    0 -0.00000000000E+00 -0.00000000000E+00 -0.45593999997E+02  0.45594000000E+02  0.51100000000E-03 0. -1.
    9900012    2    1    2    0    0 -0.23777759589E+02  0.28671683804E+02 -0.16300885451E+02  0.50528853800E+02  0.29999981610E+02 0.  0.
        -12    1    1    2    0    0  0.23777759589E+02 -0.28671683804E+02  0.16300885451E+02  0.40659146200E+02  0.00000000000E+00 0.  1.
         11    1    3    3    0    0 -0.86623289710E+01  0.94859130509E+00 -0.13052356587E+02  0.15693940914E+02  0.51100000000E-03 0. -1.
        -11    1    3    3    0    0 -0.87120376525E+01  0.23229574316E+02 -0.75171217991E+01  0.25923345528E+02  0.51100000000E-03 0.  1.
         12    1    3    3    0    0 -0.64033929660E+01  0.44935181828E+01  0.42685929351E+01  0.89115673583E+01  0.00000000000E+00 0. -1.
</event>
<event>
 7    1  0.1098446E-012  0.5052887E+02  0.7816164E-02  0.1300439E+00
        -11   -1    0    0    0    0  0.00000000000E+00  0.00000000000E+00  0.45593999997E+02  0.45594000000E+02  0.51100000000E-03 0. -1.
         11   -1    0    0    0    0 -0.00000000000E+00 -0.00000000000E+00 -0.45593999997E+02  0.45594000000E+02  0.51100000000E-03 0.  1.
    9900012    2    1    2    0    0 -0.57887977646E+01  0.36945798898E+02  0.15958145287E+02  0.50528872651E+02  0.30000038910E+02 0.  0.
        -12    1    1    2    0    0  0.57887977646E+01 -0.36945798898E+02 -0.15958145287E+02  0.40659127349E+02  0.00000000000E+00 0.  1.
         11    1    3    3    0    0 -0.68273471758E+01  0.12051554175E+01  0.11720909659E+02  0.13617811591E+02  0.51100000000E-03 0. -1.
        -11    1    3    3    0    0 -0.13854298802E+01  0.14000807632E+02 -0.18875133703E+01  0.14195236429E+02  0.51100000000E-03 0.  1.
         12    1    3    3    0    0  0.24239792915E+01  0.21739835849E+02  0.61247489980E+01  0.22715824630E+02  0.00000000000E+00 0. -1.
</event>
<event>
 7    1  0.1098446E-012  0.5052886E+02  0.7816164E-02  0.1300439E+00
        -11   -1    0    0    0    0  0.00000000000E+00  0.00000000000E+00  0.45593999997E+02  0.45594000000E+02  0.51100000000E-03 0.  1.
         11   -1    0    0    0    0 -0.00000000000E+00 -0.00000000000E+00 -0.45593999997E+02  0.45594000000E+02  0.51100000000E-03 0. -1.
    9900012    2    1    2    0    0 -0.31438076601E+01  0.13589792719E+02 -0.38191619578E+02  0.50528858362E+02  0.29999995478E+02 0.  0.
        -12    1    1    2    0    0  0.31438076601E+01 -0.13589792719E+02  0.38191619578E+02  0.40659141638E+02  0.00000000000E+00 0.  1.
         11    1    3    3    0    0 -0.73801697039E+01  0.46636755115E+01 -0.28235793558E+02  0.29554641129E+02  0.51100000000E-03 0. -1.
        -11    1    3    3    0    0  0.66621966997E+01 -0.82619645583E+00  0.15995867344E+00  0.67151360736E+01  0.51100000000E-03 0.  1.
         12    1    3    3    0    0 -0.24258346559E+01  0.97523136635E+01 -0.10115784693E+02  0.14259081160E+02  0.00000000000E+00 0. -1.
</event>
<event>
 7    1  0.1098446E-012  0.5052886E+02  0.7816164E-02  0.1300439E+00
        -11   -1    0    0    0    0  0.00000000000E+00  0.00000000000E+00  0.45593999997E+02  0.45594000000E+02  0.51100000000E-03 0.  1.
         11   -1    0    0    0    0 -0.00000000000E+00 -0.00000000000E+00 -0.45593999997E+02  0.45594000000E+02  0.51100000000E-03 0. -1.
    9900012    2    1    2    0    0  0.23632164652E+02 -0.55371012219E+01 -0.32619427553E+02  0.50528858962E+02  0.29999997300E+02 0.  0.
        -12    1    1    2    0    0 -0.23632164652E+02  0.55371012219E+01  0.32619427553E+02  0.40659141038E+02  0.00000000000E+00 0.  1.
         11    1    3    3    0    0  0.13227611173E+02  0.33806002686E+01 -0.17682785001E+02  0.22340077018E+02  0.51100000000E-03 0. -1.
        -11    1    3    3    0    0  0.94032894156E+01 -0.75077541314E+01  0.10780492460E+01  0.12080993931E+02  0.51100000000E-03 0.  1.
        -12    1    3    3    0    0  0.10012640641E+01 -0.14099473591E+01 -0.16014691798E+02  0.16107788013E+02  0.00000000000E+00 0.  1.
</event>
<event>
 7    1  0.1098446E-012  0.5052885E+02  0.7816164E-02  0.1300439E+00
        -11   -1    0    0    0    0  0.00000000000E+00  0.00000000000E+00  0.45593999997E+02  0.45594000000E+02  0.51100000000E-03 0.  1.
         11   -1    0    0    0    0 -0.00000000000E+00 -0.00000000000E+00 -0.45593999997E+02  0.45594000000E+02  0.51100000000E-03 0. -1.
    9900012    2    1    2    0    0  0.26253014357E+02 -0.24554110132E+02  0.19001083708E+02  0.50528852576E+02  0.29999977890E+02 0.  0.
        -12    1    1    2    0    0 -0.26253014357E+02  0.24554110132E+02 -0.19001083708E+02  0.40659147424E+02  0.00000000000E+00 0.  1.
         11    1    3    3    0    0 -0.17132553555E+01 -0.14212638366E+02  0.85570049632E+01  0.16678029483E+02  0.51100000000E-03 0. -1.
        -11    1    3    3    0    0  0.10870077526E+02  0.12748003244E+01  0.67366938712E+01  0.12851721513E+02  0.51100000000E-03 0.  1.
         12    1    3    3    0    0  0.17096192186E+02 -0.11616272090E+02  0.37073848739E+01  0.20999101579E+02  0.00000000000E+00 0. -1.
</event>
<event>
 7    1  0.1098446E-012  0.5052885E+02  0.7816164E-02  0.1300439E+00
        -11   -1    0    0    0    0  0.00000000000E+00  0.00000000000E+00  0.45593999997E+02  0.45594000000E+02  0.51100000000E-03 0. -1.
         11   -1    0    0    0    0 -0.00000000000E+00 -0.00000000000E+00 -0.45593999997E+02  0.45594000000E+02  0.51100000000E-03 0.  1.
    9900012    2    1    2    0    0  0.28360606598E+01  0.32526280031E+02  0.24231467055E+02  0.50528854309E+02  0.29999983156E+02 0.  0.
        -12    1    1    2    0    0 -0.28360606598E+01 -0.32526280031E+02 -0.24231467055E+02  0.40659145691E+02  0.00000000000E+00 0.  1.
         11    1    3    3    0    0  0.76484335673E+01  0.15692257772E+02 -0.11432127327E+01  0.17494354107E+02  0.51100000000E-03 0. -1.
        -11    1    3    3    0    0  0.35898306076E+01  0.52180367224E+01  0.11242146848E+02  0.12903513361E+02  0.51100000000E-03 0.  1.
         12    1    3    3    0    0 -0.84022035150E+01  0.11615985537E+02  0.14132532939E+02  0.20130986840E+02  0.00000000000E+00 0. -1.
</event>
<event>
 7    1  0.1098446E-012  0.5052887E+02  0.7816164E-02  0.1300439E+00
        -11   -1    0    0    0    0  0.00000000000E+00  0.00000000000E+00  0.45593999997E+02  0.45594000000E+02  0.51100000000E-03 0.  1.
         11   -1    0    0    0    0 -0.00000000000E+00 -0.00000000000E+00 -0.45593999997E+02  0.45594000000E+02  0.51100000000E-03 0. -1.
    9900012    2    1    2    0    0  0.17563883132E+02 -0.29152117114E+02 -0.22244741863E+02  0.50528874783E+02  0.30000045389E+02 0.  0.
        -12    1    1    2    0    0 -0.17563883132E+02  0.29152117114E+02  0.22244741863E+02  0.40659125217E+02  0.00000000000E+00 0.  1.
         11    1    3    3    0    0  0.68088014628E+01 -0.14675229001E+02 -0.18363079798E+02  0.24472940639E+02  0.51100000000E-03 0. -1.
        -11    1    3    3    0    0  0.27847650848E+01 -0.42957670941E+01  0.73309147609E+01  0.89415235278E+01  0.51100000000E-03 0.  1.
        -12    1    3    3    0    0  0.79703165843E+01 -0.10181121019E+02 -0.11212576825E+02  0.17114410616E+02  0.00000000000E+00 0.  1.
</event>
<event>
 7    1  0.1098446E-012  0.5052886E+02  0.7816164E-02  0.1300439E+00
        -11   -1    0    0    0    0  0.00000000000E+00  0.00000000000E+00  0.45593999997E+02  0.45594000000E+02  0.51100000000E-03 0. -1.
         11   -1    0    0    0    0 -0.00000000000E+00 -0.00000000000E+00 -0.45593999997E+02  0.45594000000E+02  0.51100000000E-03 0.  1.
    9900012    2    1    2    0    0 -0.33607206745E+02 -0.21702719928E+02 -0.72603963426E+01  0.50528858930E+02  0.29999997205E+02 0.  0.
        -12    1    1    2    0    0  0.33607206745E+02  0.21702719928E+02  0.72603963426E+01  0.40659141070E+02  0.00000000000E+00 0.  1.
         11    1    3    3    0    0 -0.25816379429E+02 -0.15866100796E+01 -0.64327143674E+01  0.26653003448E+02  0.51100000000E-03 0. -1.
        -11    1    3    3    0    0 -0.45469281210E+00 -0.13983713248E+02  0.13912714315E+01  0.14060107333E+02  0.51100000000E-03 0.  1.
         12    1    3    3    0    0 -0.73361345036E+01 -0.61323966003E+01 -0.22189534067E+01  0.98157481497E+01  0.00000000000E+00 0. -1.
</event>
<event>
 7    1  0.1098446E-012  0.5052886E+02  0.7816164E-02  0.1300439E+00
        -11   -1    0    0    0    0  0.00000000000E+00  0.00000000000E+00  0.45593999997E+02  0.45594000000E+02  0.51100000000E-03 0.  1.
         11   -1    0    0    0    0 -0.00000000000E+00 -0.00000000000E+00 -0.45593999997E+02  0.45594000000E+02  0.51100000000E-03 0. -1.
    9900012    2    1    2    0    0 -0.11564440881E+02  0.23104782426E+02 -0.31394243180E+02  0.50528858731E+02  0.29999996599E+02 0.  0.
        -12    1    1    2    0    0  0.11564440881E+02 -0.23104782426E+02  0.31394243180E+02  0.40659141269E+02  0.00000000000E+00 0.  1.
         11    1    3    3    0    0  0.65109603368E+01  0.10043154818E+02 -0.35387515318E+01  0.12481198896E+02  0.51100000000E-03 0. -1.
        -11    1    3    3    0    0 -0.16662690994E+02  0.12585390558E+02 -0.29294878423E+02  0.35975369751E+02  0.51100000000E-03 0.  1.
        -12    1    3    3    0    0 -0.14127102242E+01  0.47623705040E+00  0.14393867746E+01  0.20722900841E+01  0.00000000000E+00 0.  1.
</event>
<event>
 7    1  0.1098446E-012  0.5052889E+02  0.7816164E-02  0.1300439E+00
        -11   -1    0    0    0    0  0.00000000000E+00  0.00000000000E+00  0.45593999997E+02  0.45594000000E+02  0.51100000000E-03 0. -1.
         11   -1    0    0    0    0 -0.00000000000E+00 -0.00000000000E+00 -0.45593999997E+02  0.45594000000E+02  0.51100000000E-03 0.  1.
    9900012    2    1    2    0    0 -0.13239350619E+01 -0.17862850977E+02  0.36501079366E+02  0.50528892238E+02  0.30000098447E+02 0.  0.
        -12    1    1    2    0    0  0.13239350619E+01  0.17862850977E+02 -0.36501079366E+02  0.40659107762E+02  0.00000000000E+00 0.  1.
         11    1    3    3    0    0 -0.23160754801E+01 -0.41992322244E+01  0.28671206476E+02  0.29069500133E+02  0.51100000000E-03 0. -1.
        -11    1    3    3    0    0  0.61632750395E+01 -0.13284087711E+01  0.81818545335E+00  0.63576769950E+01  0.51100000000E-03 0.  1.
         12    1    3    3    0    0 -0.51711346214E+01 -0.12335209982E+02  0.70116874367E+01  0.15101715110E+02  0.00000000000E+00 0. -1.
</event>
<event>
 7    1  0.1098446E-012  0.5052886E+02  0.7816164E-02  0.1300439E+00
        -11   -1    0    0    0    0  0.00000000000E+00  0.00000000000E+00  0.45593999997E+02  0.45594000000E+02  0.51100000000E-03 0.  1.
         11   -1    0    0    0    0 -0.00000000000E+00 -0.00000000000E+00 -0.45593999997E+02  0.45594000000E+02  0.51100000000E-03 0. -1.
    9900012    2    1    2    0    0 -0.12276020204E+02  0.31726717438E+02 -0.22268370400E+02  0.50528860908E+02  0.30000003217E+02 0.  0.
        -12    1    1    2    0    0  0.12276020204E+02 -0.31726717438E+02  0.22268370400E+02  0.40659139092E+02  0.00000000000E+00 0.  1.
         11    1    3    3    0    0  0.55082001387E+01  0.25631709992E+02 -0.15348393971E+02  0.30379236719E+02  0.51100000000E-03 0. -1.
        -11    1    3    3    0    0 -0.73807925151E+01  0.14116485044E+01 -0.26747417257E+01  0.79764085409E+01  0.51100000000E-03 0.  1.
         12    1    3    3    0    0 -0.10403427828E+02  0.46833589416E+01 -0.42452347025E+01  0.12173215648E+02  0.00000000000E+00 0. -1.
</event>
<event>
 7    1  0.1098446E-012  0.5052887E+02  0.7816164E-02  0.1300439E+00
        -11   -1    0    0    0    0  0.00000000000E+00  0.00000000000E+00  0.45593999997E+02  0.45594000000E+02  0.51100000000E-03 0.  1.
         11   -1    0    0    0    0 -0.00000000000E+00 -0.00000000000E+00 -0.45593999997E+02  0.45594000000E+02  0.51100000000E-03 0. -1.
    9900012    2    1    2    0    0  0.34861820510E+02  0.10928315103E+02 -0.17843492614E+02  0.50528870288E+02  0.30000031728E+02 0.  0.
        -12    1    1    2    0    0 -0.34861820510E+02 -0.10928315103E+02  0.17843492614E+02  0.40659129712E+02  0.00000000000E+00 0.  1.
         11    1    3    3    0    0  0.11093509573E+02  0.11703753281E+02 -0.54518821420E+01  0.17022538432E+02  0.51100000000E-03 0. -1.
        -11    1    3    3    0    0  0.23697037029E+02 -0.56889177623E+01 -0.14275446635E+02  0.28243613901E+02  0.51100000000E-03 0.  1.
        -12    1    3    3    0    0  0.71273907507E-01  0.49134795841E+01  0.18838361627E+01  0.52627179557E+01  0.00000000000E+00 0.  1.
</event>
<event>
 7    1  0.1098446E-012  0.5052886E+02  0.7816164E-02  0.1300439E+00
        -11   -1    0    0    0    0  0.00000000000E+00  0.00000000000E+00  0.45593999997E+02  0.45594000000E+02  0.51100000000E-03 0.  1.
         11   -1    0    0    0    0 -0.00000000000E+00 -0.00000000000E+00 -0.45593999997E+02  0.45594000000E+02  0.51100000000E-03 0. -1.
    9900012    2    1    2    0    0 -0.10731518677E+02 -0.39189362044E+02 -0.14813272715E+01  0.50528856859E+02  0.29999990908E+02 0.  0.
        -12    1    1    2    0    0  0.10731518677E+02  0.39189362044E+02  0.14813272715E+01  0.40659143141E+02  0.00000000000E+00 0.  1.
         11    1    3    3    0    0  0.39999135659E-01 -0.20280936016E+02 -0.83600968354E+01  0.21936480688E+02  0.51100000000E-03 0. -1.
        -11    1    3    3    0    0 -0.14968127329E+02 -0.11439849293E+02  0.26043247504E+01  0.19018346281E+02  0.51100000000E-03 0.  1.
         12    1    3    3    0    0  0.41966095161E+01 -0.74685767350E+01  0.42744448135E+01  0.95740298903E+01  0.00000000000E+00 0. -1.
</event>
<event>
 7    1  0.1098446E-012  0.5052886E+02  0.7816164E-02  0.1300439E+00
        -11   -1    0    0    0    0  0.00000000000E+00  0.00000000000E+00  0.45593999997E+02  0.45594000000E+02  0.51100000000E-03 0. -1.
         11   -1    0    0    0    0 -0.00000000000E+00 -0.00000000000E+00 -0.45593999997E+02  0.45594000000E+02  0.51100000000E-03 0.  1.
    9900012    2    1    2    0    0 -0.12169954995E+02 -0.22273319302E+02  0.31764085592E+02  0.50528859690E+02  0.29999999512E+02 0.  0.
        -12    1    1    2    0    0  0.12169954995E+02  0.22273319302E+02 -0.31764085592E+02  0.40659140310E+02  0.00000000000E+00 0.  1.
         11    1    3    3    0    0 -0.11957417636E+02 -0.28199185087E+02  0.19921062630E+02  0.36537961255E+02  0.51100000000E-03 0. -1.
        -11    1    3    3    0    0  0.26216161223E+00  0.50007745917E+01  0.50254044795E+01  0.70944461145E+01  0.51100000000E-03 0.  1.
         12    1    3    3    0    0 -0.47469897107E+00  0.92509119364E+00  0.68176184821E+01  0.68964523197E+01  0.00000000000E+00 0. -1.
</event>
<event>
 7    1  0.1098446E-012  0.5052885E+02  0.7816164E-02  0.1300439E+00
        -11   -1    0    0    0    0  0.00000000000E+00  0.00000000000E+00  0.45593999997E+02  0.45594000000E+02  0.51100000000E-03 0.  1.
         11   -1    0    0    0    0 -0.00000000000E+00 -0.00000000000E+00 -0.45593999997E+02  0.45594000000E+02  0.51100000000E-03 0. -1.
    9900012    2    1    2    0    0 -0.10559344015E+02  0.29062640330E+02 -0.26401316175E+02  0.50528852140E+02  0.29999976564E+02 0.  0.
        -12    1    1    2    0    0  0.10559344015E+02 -0.29062640330E+02  0.26401316175E+02  0.40659147860E+02  0.00000000000E+00 0.  1.
         11    1    3    3    0    0 -0.10668348313E+02  0.28043567156E+02 -0.20762511445E+02  0.36487493697E+02  0.51100000000E-03 0. -1.
        -11    1    3    3    0    0 -0.37588640612E-01 -0.45687610463E+00 -0.97035940063E+01  0.97144163788E+01  0.51100000000E-03 0.  1.
         12    1    3    3    0    0  0.14659293842E+00  0.14759492787E+01  0.40647892762E+01  0.43269420638E+01  0.00000000000E+00 0. -1.
</event>
<event>
 7    1  0.1098446E-012  0.5052887E+02  0.7816164E-02  0.1300439E+00
        -11   -1    0    0    0    0  0.00000000000E+00  0.00000000000E+00  0.45593999997E+02  0.45594000000E+02  0.51100000000E-03 0.  1.
         11   -1    0    0    0    0 -0.00000000000E+00 -0.00000000000E+00 -0.45593999997E+02  0.45594000000E+02  0.51100000000E-03 0. -1.
    9900012    2    1    2    0    0 -0.29823891366E+02  0.23987022308E+02 -0.13723082160E+02  0.50528871635E+02  0.30000035823E+02 0.  0.
        -12    1    1    2    0    0  0.29823891366E+02 -0.23987022308E+02  0.13723082160E+02  0.40659128365E+02  0.00000000000E+00 0.  1.
         11    1    3    3    0    0 -0.62106129785E+01  0.57553736804E+01 -0.20052031903E+01  0.87015446827E+01  0.51100000000E-03 0. -1.
        -11    1    3    3    0    0 -0.57823596588E+01 -0.63439469482E+01 -0.70498972155E+01  0.11107762921E+02  0.51100000000E-03 0.  1.
        -12    1    3    3    0    0 -0.17830918729E+02  0.24575595576E+02 -0.46679817540E+01  0.30719564031E+02  0.00000000000E+00 0.  1.
</event>
<event>
 7    1  0.1098446E-012  0.5052885E+02  0.7816164E-02  0.1300439E+00
        -11   -1    0    0    0    0  0.00000000000E+00  0.00000000000E+00  0.45593999997E+02  0.45594000000E+02  0.51100000000E-03 0.  1.
         11   -1    0    0    0    0 -0.00000000000E+00 -0.00000000000E+00 -0.45593999997E+02  0.45594000000E+02  0.51100000000E-03 0. -1.
    9900012    2    1    2    0    0  0.15781272636E+02  0.87661796797E+01 -0.36431744768E+02  0.50528849750E+02  0.29999969301E+02 0.  0.
        -12    1    1    2    0    0 -0.15781272636E+02 -0.87661796797E+01  0.36431744768E+02  0.40659150250E+02  0.00000000000E+00 0.  1.
         11    1    3    3    0    0  0.41504937161E+01 -0.56009015134E+01  0.17406546470E+01  0.71851635132E+01  0.51100000000E-03 0. -1.
        -11    1    3    3    0    0  0.17808676519E+01  0.61222795441E+01 -0.62261505860E+01  0.89117196876E+01  0.51100000000E-03 0.  1.
         12    1    3    3    0    0  0.98499112679E+01  0.82448016491E+01 -0.31946248829E+02  0.34431966549E+02  0.00000000000E+00 0. -1.
</event>
<event>
 7    1  0.1098446E-012  0.5052883E+02  0.7816164E-02  0.1300439E+00
        -11   -1    0    0    0    0  0.00000000000E+00  0.00000000000E+00  0.45593999997E+02  0.45594000000E+02  0.51100000000E-03 0. -1.
         11   -1    0    0    0    0 -0.00000000000E+00 -0.00000000000E+00 -0.45593999997E+02  0.45594000000E+02  0.51100000000E-03 0.  1.
    9900012    2    1    2    0    0 -0.66929135937E+01  0.37608228444E+02  0.13928172326E+02  0.50528832234E+02  0.29999916060E+02 0.  0.
        -12    1    1    2    0    0  0.66929135937E+01 -0.37608228444E+02 -0.13928172326E+02  0.40659167766E+02  0.00000000000E+00 0.  1.
         11    1    3    3    0    0 -0.25598199793E+01  0.88397362923E+01  0.12650875711E+02  0.15644113032E+02  0.51100000000E-03 0. -1.
        -11    1    3    3    0    0 -0.52611890279E+01  0.22833212014E+02 -0.71657746669E+01  0.24502734699E+02  0.51100000000E-03 0.  1.
        -12    1    3    3    0    0  0.11280954135E+01  0.59352801373E+01  0.84430712820E+01  0.10381984504E+02  0.00000000000E+00 0.  1.
</event>
<event>
 7    1  0.1098446E-012  0.5052889E+02  0.7816164E-02  0.1300439E+00
        -11   -1    0    0    0    0  0.00000000000E+00  0.00000000000E+00  0.45593999997E+02  0.45594000000E+02  0.51100000000E-03 0. -1.
         11   -1    0    0    0    0 -0.00000000000E+00 -0.00000000000E+00 -0.45593999997E+02  0.45594000000E+02  0.51100000000E-03 0.  1.
    9900012    2    1    2    0    0  0.29596628241E+02 -0.13255494245E+02  0.24525394174E+02  0.50528886749E+02  0.30000081763E+02 0.  0.
        -12    1    1    2    0    0 -0.29596628241E+02  0.13255494245E+02 -0.24525394174E+02  0.40659113251E+02  0.00000000000E+00 0.  1.
         11    1    3    3    0    0  0.19771504494E+02 -0.31701069882E+01  0.24167146099E+02  0.31384915471E+02  0.51100000000E-03 0. -1.
        -11    1    3    3    0    0  0.12669802684E+02 -0.85106124610E+01  0.21786960345E+01  0.15417559508E+02  0.51100000000E-03 0.  1.
         12    1    3    3    0    0 -0.28446789367E+01 -0.15747747955E+01 -0.18204479596E+01  0.37264117705E+01  0.00000000000E+00 0. -1.
</event>
<event>
 7    1  0.1098446E-012  0.5052884E+02  0.7816164E-02  0.1300439E+00
        -11   -1    0    0    0    0  0.00000000000E+00  0.00000000000E+00  0.45593999997E+02  0.45594000000E+02  0.51100000000E-03 0. -1.
         11   -1    0    0    0    0 -0.00000000000E+00 -0.00000000000E+00 -0.45593999997E+02  0.45594000000E+02  0.51100000000E-03 0.  1.
    9900012    2    1    2    0    0 -0.35649203153E+02 -0.16882680944E+02  0.98628923967E+01  0.50528840543E+02  0.29999941314E+02 0.  0.
        -12    1    1    2    0    0  0.35649203153E+02  0.16882680944E+02 -0.98628923967E+01  0.40659159457E+02  0.00000000000E+00 0.  1.
         11    1    3    3    0    0 -0.13298870857E+02 -0.68429435503E+01 -0.27900315963E+01  0.15214142075E+02  0.51100000000E-03 0. -1.
        -11    1    3    3    0    0 -0.63988306973E+01 -0.86033442886E+01  0.15699477387E+02  0.19011474370E+02  0.51100000000E-03 0.  1.
        -12    1    3    3    0    0 -0.15951501599E+02 -0.14363931052E+01 -0.30465533938E+01  0.16303224098E+02  0.00000000000E+00 0.  1.
</event>
<event>
 7    1  0.1098446E-012  0.5052885E+02  0.7816164E-02  0.1300439E+00
        -11   -1    0    0    0    0  0.00000000000E+00  0.00000000000E+00  0.45593999997E+02  0.45594000000E+02  0.51100000000E-03 0.  1.
         11   -1    0    0    0    0 -0.00000000000E+00 -0.00000000000E+00 -0.45593999997E+02  0.45594000000E+02  0.51100000000E-03 0. -1.
    9900012    2    1    2    0    0  0.10182112400E+01 -0.70395914555E+01 -0.40032158457E+02  0.50528852042E+02  0.29999976267E+02 0.  0.
        -12    1    1    2    0    0 -0.10182112400E+01  0.70395914555E+01  0.40032158457E+02  0.40659147958E+02  0.00000000000E+00 0.  1.
         11    1    3    3    0    0 -0.20779308477E+01 -0.30105042481E+01 -0.40374139606E+02  0.40539512597E+02  0.51100000000E-03 0. -1.
        -11    1    3    3    0    0 -0.19794716172E+00  0.13909666267E+01  0.28432138421E+01  0.31714092212E+01  0.51100000000E-03 0.  1.
         12    1    3    3    0    0  0.32940892494E+01 -0.54200538342E+01 -0.25012326924E+01  0.68179302233E+01  0.00000000000E+00 0. -1.
</event>
<event>
 7    1  0.1098446E-012  0.5052886E+02  0.7816164E-02  0.1300439E+00
        -11   -1    0    0    0    0  0.00000000000E+00  0.00000000000E+00  0.45593999997E+02  0.45594000000E+02  0.51100000000E-03 0. -1.
         11   -1    0    0    0    0 -0.00000000000E+00 -0.00000000000E+00 -0.45593999997E+02  0.45594000000E+02  0.51100000000E-03 0.  1.
    9900012    2    1    2    0    0 -0.21340915353E+02  0.18824161466E+02  0.29041035655E+02  0.50528862344E+02  0.30000007581E+02 0.  0.
        -12    1    1    2    0    0  0.21340915353E+02 -0.18824161466E+02 -0.29041035655E+02  0.40659137656E+02  0.00000000000E+00 0.  1.
         11    1    3    3    0    0 -0.95441771423E+01  0.19198794151E+02  0.63400825342E+01  0.22358033478E+02  0.51100000000E-03 0. -1.
        -11    1    3    3    0    0  0.21978000625E+01 -0.18627992262E+00  0.59311986538E+01  0.63280441731E+01  0.51100000000E-03 0.  1.
         12    1    3    3    0    0 -0.13994538273E+02 -0.18835276323E+00  0.16769754467E+02  0.21842784693E+02  0.00000000000E+00 0. -1.
</event>
<event>
 7    1  0.1098446E-012  0.5052885E+02  0.7816164E-02  0.1300439E+00
        -11   -1    0    0    0    0  0.00000000000E+00  0.00000000000E+00  0.45593999997E+02  0.45594000000E+02  0.51100000000E-03 0.  1.
         11   -1    0    0    0    0 -0.00000000000E+00 -0.00000000000E+00 -0.45593999997E+02  0.45594000000E+02  0.51100000000E-03 0. -1.
    9900012    2    1    2    0    0  0.32695408752E+02  0.19533070129E+02 -0.14235027201E+02  0.50528848735E+02  0.29999966216E+02 0.  0.
        -12    1    1    2    0    0 -0.32695408752E+02 -0.19533070129E+02  0.14235027201E+02  0.40659151265E+02  0.00000000000E+00 0.  1.
         11    1    3    3    0    0  0.52485728619E+01  0.13755116421E+02  0.85233480683E+00  0.14747108860E+02  0.51100000000E-03 0. -1.
        -11    1    3    3    0    0  0.24454603744E+02  0.78235522975E+01 -0.65367688671E+01  0.26494621384E+02  0.51100000000E-03 0.  1.
         12    1    3    3    0    0  0.29922321468E+01 -0.20455985898E+01 -0.85505931409E+01  0.92871184913E+01  0.00000000000E+00 0. -1.
</event>
<event>
 7    1  0.1098446E-012  0.5052885E+02  0.7816164E-02  0.1300439E+00
        -11   -1    0    0    0    0  0.00000000000E+00  0.00000000000E+00  0.45593999997E+02  0.45594000000E+02  0.51100000000E-03 0. -1.
         11   -1    0    0    0    0 -0.00000000000E+00 -0.00000000000E+00 -0.45593999997E+02  0.45594000000E+02  0.51100000000E-03 0.  1.
    9900012    2    1    2    0    0 -0.69181449721E+00  0.20657985344E+01  0.40600745784E+02  0.50528847413E+02  0.29999962196E+02 0.  0.
        -12    1    1    2    0    0  0.69181449721E+00 -0.20657985344E+01 -0.40600745784E+02  0.40659152587E+02  0.00000000000E+00 0.  1.
         11    1    3    3    0    0  0.54352205169E+01 -0.54623358247E+01  0.21169994491E+02  0.22528812702E+02  0.51100000000E-03 0. -1.
        -11    1    3    3    0    0 -0.79232254119E+01 -0.93121153254E+00  0.15347055933E+01  0.81240370116E+01  0.51100000000E-03 0.  1.
        -12    1    3    3    0    0  0.17961903978E+01  0.84593458916E+01  0.17896045700E+02  0.19875997699E+02  0.00000000000E+00 0.  1.
</event>
<event>
 7    1  0.2563996E-012  0.5052885E+02  0.7816164E-02  0.1300439E+00
        -11   -1    0    0    0    0  0.00000000000E+00  0.00000000000E+00  0.45593999997E+02  0.45594000000E+02  0.51100000000E-03 0. -1.
         11   -1    0    0    0    0 -0.00000000000E+00 -0.00000000000E+00 -0.45593999997E+02  0.45594000000E+02  0.51100000000E-03 0.  1.
    9900012    2    1    2    0    0  0.16571600612E+02 -0.14996888400E+02  0.33965299180E+02  0.50528853957E+02  0.29999982089E+02 0.  0.
        -12    1    1    2    0    0 -0.16571600612E+02  0.14996888400E+02 -0.33965299180E+02  0.40659146043E+02  0.00000000000E+00 0.  1.
         11    1    3    3    0    0  0.56498883175E+01 -0.14621908864E+02  0.28240940243E+02  0.32299723883E+02  0.51100000000E-03 0. -1.
        -11    1    3    3    0    0  0.10895199896E+02  0.41839061173E+01  0.68507991822E+01  0.13533066943E+02  0.51100000000E-03 0.  1.
        -12    1    3    3    0    0  0.26512398645E-01 -0.45588856536E+01 -0.11264402460E+01  0.46960631318E+01  0.00000000000E+00 0.  1.
</event>
<event>
 7    1  0.1098446E-012  0.5052886E+02  0.7816164E-02  0.1300439E+00
        -11   -1    0    0    0    0  0.00000000000E+00  0.00000000000E+00  0.45593999997E+02  0.45594000000E+02  0.51100000000E-03 0. -1.
         11   -1    0    0    0    0 -0.00000000000E+00 -0.00000000000E+00 -0.45593999997E+02  0.45594000000E+02  0.51100000000E-03 0.  1.
    9900012    2    1    2    0    0 -0.31674564135E+02 -0.10379957141E+02  0.23283982548E+02  0.50528863675E+02  0.30000011627E+02 0.  0.
        -12    1    1    2    0    0  0.31674564135E+02  0.10379957141E+02 -0.23283982548E+02  0.40659136325E+02  0.00000000000E+00 0.  1.
         11    1    3    3    0    0 -0.22955664843E+02 -0.93152729097E+01  0.46845571379E+01  0.25212733561E+02  0.51100000000E-03 0. -1.
        -11    1    3    3    0    0 -0.10719899611E+01  0.53452236462E+01  0.12460275144E+02  0.13600699806E+02  0.51100000000E-03 0.  1.
        -12    1    3    3    0    0 -0.76469093310E+01 -0.64099078771E+01  0.61391502662E+01  0.11715430308E+02  0.00000000000E+00 0.  1.
</event>
<event>
 7    1  0.1098446E-012  0.5052886E+02  0.7816164E-02  0.1300439E+00
        -11   -1    0    0    0    0  0.00000000000E+00  0.00000000000E+00  0.45593999997E+02  0.45594000000E+02  0.51100000000E-03 0.  1.
         11   -1    0    0    0    0 -0.00000000000E+00 -0.00000000000E+00 -0.45593999997E+02  0.45594000000E+02  0.51100000000E-03 0. -1.
    9900012    2    1    2    0    0 -0.78362060100E+01  0.19818169279E+02 -0.34626573516E+02  0.50528861401E+02  0.30000004715E+02 0.  0.
        -12    1    1    2    0    0  0.78362060100E+01 -0.19818169279E+02  0.34626573516E+02  0.40659138599E+02  0.00000000000E+00 0.  1.
         11    1    3    3    0    0  0.58574283871E+01  0.11229574809E+02 -0.40831775687E+01  0.13307334708E+02  0.51100000000E-03 0. -1.
        -11    1    3    3    0    0 -0.48239819957E+01 -0.31338653786E+01 -0.44518770290E+01  0.72740032890E+01  0.51100000000E-03 0.  1.
         12    1    3    3    0    0 -0.88696524014E+01  0.11722459848E+02 -0.26091518918E+02  0.29947523404E+02  0.00000000000E+00 0. -1.
</event>
<event>
 7    1  0.1098446E-012  0.5052886E+02  0.7816164E-02  0.1300439E+00
        -11   -1    0    0    0    0  0.00000000000E+00  0.00000000000E+00  0.45593999997E+02  0.45594000000E+02  0.51100000000E-03 0.  1.
         11   -1    0    0    0    0 -0.00000000000E+00 -0.00000000000E+00 -0.45593999997E+02  0.45594000000E+02  0.51100000000E-03 0. -1.
    9900012    2    1    2    0    0  0.40092226511E+01  0.38606727584E+02 -0.12108365236E+02  0.50528858474E+02  0.29999995816E+02 0.  0.
        -12    1    1    2    0    0 -0.40092226511E+01 -0.38606727584E+02  0.12108365236E+02  0.40659141526E+02  0.00000000000E+00 0.  1.
         11    1    3    3    0    0  0.86456775418E+01  0.76920449202E+01 -0.11888267326E+02  0.16590545364E+02  0.51100000000E-03 0. -1.
        -11    1    3    3    0    0 -0.88377575322E+01  0.25774649386E+02  0.56411424055E+00  0.27253563699E+02  0.51100000000E-03 0.  1.
        -12    1    3    3    0    0  0.42013026415E+01  0.51400332777E+01 -0.78421215022E+00  0.66847494102E+01  0.00000000000E+00 0.  1.
</event>
<event>
 7    1  0.1098446E-012  0.5052887E+02  0.7816164E-02  0.1300439E+00
        -11   -1    0    0    0    0  0.00000000000E+00  0.00000000000E+00  0.45593999997E+02  0.45594000000E+02  0.51100000000E-03 0.  1.
         11   -1    0    0    0    0 -0.00000000000E+00 -0.00000000000E+00 -0.45593999997E+02  0.45594000000E+02  0.51100000000E-03 0. -1.
    9900012    2    1    2    0    0  0.11598242389E+02 -0.38324289990E+02  0.70636223669E+01  0.50528865840E+02  0.30000018206E+02 0.  0.
        -12    1    1    2    0    0 -0.11598242389E+02  0.38324289990E+02 -0.70636223669E+01  0.40659134160E+02  0.00000000000E+00 0.  1.
         11    1    3    3    0    0 -0.27979816689E+01 -0.42478101230E+01 -0.10108455174E+01  0.51859812169E+01  0.51100000000E-03 0. -1.
        -11    1    3    3    0    0  0.21095145840E+02 -0.28643423112E+02  0.89255302380E+01  0.36675822498E+02  0.51100000000E-03 0.  1.
        -12    1    3    3    0    0 -0.66989217823E+01 -0.54330567547E+01 -0.85106235372E+00  0.86670621248E+01  0.00000000000E+00 0.  1.
</event>
<event>
 7    1  0.1098446E-012  0.5052885E+02  0.7816164E-02  0.1300439E+00
        -11   -1    0    0    0    0  0.00000000000E+00  0.00000000000E+00  0.45593999997E+02  0.45594000000E+02  0.51100000000E-03 0.  1.
         11   -1    0    0    0    0 -0.00000000000E+00 -0.00000000000E+00 -0.45593999997E+02  0.45594000000E+02  0.51100000000E-03 0. -1.
    9900012    2    1    2    0    0  0.24809785894E+02  0.24846429866E+02  0.20501110228E+02  0.50528854979E+02  0.29999985195E+02 0.  0.
        -12    1    1    2    0    0 -0.24809785894E+02 -0.24846429866E+02 -0.20501110228E+02  0.40659145021E+02  0.00000000000E+00 0.  1.
         11    1    3    3    0    0  0.61073635707E+01  0.56837252422E+01  0.78728324255E+01  0.11471099035E+02  0.51100000000E-03 0. -1.
        -11    1    3    3    0    0  0.51160776772E+01  0.19167033625E+02 -0.93495265455E+00  0.19860099836E+02  0.51100000000E-03 0.  1.
        -12    1    3    3    0    0  0.13586344647E+02 -0.43290007587E-02  0.13563230457E+02  0.19197656108E+02  0.00000000000E+00 0.  1.
</event>
<event>
 7    1  0.1643925E-012  0.5052886E+02  0.7816164E-02  0.1300439E+00
        -11   -1    0    0    0    0  0.00000000000E+00  0.00000000000E+00  0.45593999997E+02  0.45594000000E+02  0.51100000000E-03 0. -1.
         11   -1    0    0    0    0 -0.00000000000E+00 -0.00000000000E+00 -0.45593999997E+02  0.45594000000E+02  0.51100000000E-03 0.  1.
    9900012    2    1    2    0    0 -0.18625729383E+02  0.58752805014E+01  0.35661312142E+02  0.50528857121E+02  0.29999991704E+02 0.  0.
        -12    1    1    2    0    0  0.18625729383E+02 -0.58752805014E+01 -0.35661312142E+02  0.40659142879E+02  0.00000000000E+00 0.  1.
         11    1    3    3    0    0 -0.87275520012E+01  0.65011958832E+01  0.32005783472E+02  0.33805412108E+02  0.51100000000E-03 0. -1.
        -11    1    3    3    0    0 -0.47161266364E+01  0.45724936450E+01 -0.26144126503E+01  0.70699860220E+01  0.51100000000E-03 0.  1.
        -12    1    3    3    0    0 -0.51820507455E+01 -0.51984090268E+01  0.62699413199E+01  0.96534589911E+01  0.00000000000E+00 0.  1.
</event>
<event>
 7    1  0.1098446E-012  0.5052887E+02  0.7816164E-02  0.1300439E+00
        -11   -1    0    0    0    0  0.00000000000E+00  0.00000000000E+00  0.45593999997E+02  0.45594000000E+02  0.51100000000E-03 0.  1.
         11   -1    0    0    0    0 -0.00000000000E+00 -0.00000000000E+00 -0.45593999997E+02  0.45594000000E+02  0.51100000000E-03 0. -1.
    9900012    2    1    2    0    0 -0.35863415670E+02 -0.60291242881E+01 -0.18183231199E+02  0.50528870398E+02  0.30000032061E+02 0.  0.
        -12    1    1    2    0    0  0.35863415670E+02  0.60291242881E+01  0.18183231199E+02  0.40659129602E+02  0.00000000000E+00 0.  1.
         11    1    3    3    0    0 -0.28768960004E+02 -0.12687924526E+02 -0.23110617175E+02  0.39022264350E+02  0.51100000000E-03 0. -1.
        -11    1    3    3    0    0 -0.60198979160E+01  0.33506869999E+01  0.28544610576E+01  0.74574943835E+01  0.51100000000E-03 0.  1.
         12    1    3    3    0    0 -0.10745577498E+01  0.33081132380E+01  0.20729249186E+01  0.40491116645E+01  0.00000000000E+00 0. -1.
</event>
<event>
 7    1  0.1098446E-012  0.5052885E+02  0.7816164E-02  0.1300439E+00
        -11   -1    0    0    0    0  0.00000000000E+00  0.00000000000E+00  0.45593999997E+02  0.45594000000E+02  0.51100000000E-03 0.  1.
         11   -1    0    0    0    0 -0.00000000000E+00 -0.00000000000E+00 -0.45593999997E+02  0.45594000000E+02  0.51100000000E-03 0. -1.
    9900012    2    1    2    0    0  0.12666473287E+02 -0.86387466659E+01 -0.37657649981E+02  0.50528854761E+02  0.29999984531E+02 0.  0.
        -12    1    1    2    0    0 -0.12666473287E+02  0.86387466659E+01  0.37657649981E+02  0.40659145239E+02  0.00000000000E+00 0.  1.
         11    1    3    3    0    0 -0.49178335564E+01  0.28461832476E+01 -0.12734052517E+02  0.13944243965E+02  0.51100000000E-03 0. -1.
        -11    1    3    3    0    0  0.15433497866E+02 -0.39579318560E+01 -0.77644648570E+01  0.17724135966E+02  0.51100000000E-03 0.  1.
         12    1    3    3    0    0  0.21508089767E+01 -0.75269980575E+01 -0.17159132607E+02  0.18860474830E+02  0.00000000000E+00 0. -1.
</event>
<event>
 7    1  0.1098446E-012  0.5052885E+02  0.7816164E-02  0.1300439E+00
        -11   -1    0    0    0    0  0.00000000000E+00  0.00000000000E+00  0.45593999997E+02  0.45594000000E+02  0.51100000000E-03 0. -1.
         11   -1    0    0    0    0 -0.00000000000E+00 -0.00000000000E+00 -0.45593999997E+02  0.45594000000E+02  0.51100000000E-03 0.  1.
    9900012    2    1    2    0    0 -0.80740904204E+01 -0.21741002405E+02  0.33396178705E+02  0.50528845142E+02  0.29999955295E+02 0.  0.
        -12    1    1    2    0    0  0.80740904204E+01  0.21741002405E+02 -0.33396178705E+02  0.40659154858E+02  0.00000000000E+00 0.  1.
         11    1    3    3    0    0 -0.10910539204E+02  0.29613290596E+01  0.11399308739E+02  0.16054705712E+02  0.51100000000E-03 0. -1.
        -11    1    3    3    0    0 -0.51387311972E+00 -0.14778821474E+02  0.74761346729E+01  0.16570160520E+02  0.51100000000E-03 0.  1.
         12    1    3    3    0    0  0.33503219031E+01 -0.99235099903E+01  0.14520735293E+02  0.17903978910E+02  0.00000000000E+00 0. -1.
</event>
<event>
 7    1  0.1098446E-012  0.5052883E+02  0.7816164E-02  0.1300439E+00
        -11   -1    0    0    0    0  0.00000000000E+00  0.00000000000E+00  0.45593999997E+02  0.45594000000E+02  0.51100000000E-03 0.  1.
         11   -1    0    0    0    0 -0.00000000000E+00 -0.00000000000E+00 -0.45593999997E+02  0.45594000000E+02  0.51100000000E-03 0. -1.
    9900012    2    1    2    0    0  0.12902757804E+02 -0.85501720579E-01 -0.38557485027E+02  0.50528829804E+02  0.29999908671E+02 0.  0.
        -12    1    1    2    0    0 -0.12902757804E+02  0.85501720579E-01  0.38557485027E+02  0.40659170196E+02  0.00000000000E+00 0.  1.
         11    1    3    3    0    0  0.21686740483E+02 -0.11350903041E+01 -0.33923832313E+02  0.40279393514E+02  0.51100000000E-03 0. -1.
        -11    1    3    3    0    0 -0.64066026024E+01 -0.26082003592E+00 -0.35267655687E+01  0.73178316210E+01  0.51100000000E-03 0.  1.
         12    1    3    3    0    0 -0.23773800772E+01  0.13104086194E+01 -0.11068871446E+01  0.29316046684E+01  0.00000000000E+00 0. -1.
</event>
<event>
 7    1  0.1098446E-012  0.5052886E+02  0.7816164E-02  0.1300439E+00
        -11   -1    0    0    0    0  0.00000000000E+00  0.00000000000E+00  0.45593999997E+02  0.45594000000E+02  0.51100000000E-03 0.  1.
         11   -1    0    0    0    0 -0.00000000000E+00 -0.00000000000E+00 -0.45593999997E+02  0.45594000000E+02  0.51100000000E-03 0. -1.
    9900012    2    1    2    0    0 -0.21386936660E+02 -0.30621049994E+02 -0.16065980412E+02  0.50528862170E+02  0.30000007053E+02 0.  0.
        -12    1    1    2    0    0  0.21386936660E+02  0.30621049994E+02  0.16065980412E+02  0.40659137830E+02  0.00000000000E+00 0.  1.
         11    1    3    3    0    0 -0.66504610297E+01 -0.24326326835E+01 -0.85011699723E+01  0.11064186587E+02  0.51100000000E-03 0. -1.
        -11    1    3    3    0    0 -0.18977496613E+02 -0.23934272463E+02 -0.99292354590E+00  0.30561097386E+02  0.51100000000E-03 0.  1.
        -12    1    3    3    0    0  0.42410209822E+01 -0.42541448478E+01 -0.65718868941E+01  0.89035781968E+01  0.00000000000E+00 0.  1.
</event>
<event>
 7    1  0.1098446E-012  0.5052888E+02  0.7816164E-02  0.1300439E+00
        -11   -1    0    0    0    0  0.00000000000E+00  0.00000000000E+00  0.45593999997E+02  0.45594000000E+02  0.51100000000E-03 0.  1.
         11   -1    0    0    0    0 -0.00000000000E+00 -0.00000000000E+00 -0.45593999997E+02  0.45594000000E+02  0.51100000000E-03 0. -1.
    9900012    2    1    2    0    0  0.39589170418E+02 -0.67456243156E+01 -0.63527959136E+01  0.50528881986E+02  0.30000067284E+02 0.  0.
        -12    1    1    2    0    0 -0.39589170418E+02  0.67456243156E+01  0.63527959136E+01  0.40659118014E+02  0.00000000000E+00 0.  1.
         11    1    3    3    0    0  0.21610411898E+02  0.85556381443E+01  0.44465471902E+01  0.23663909834E+02  0.51100000000E-03 0.  1.
        -11    1    3    3    0    0  0.11873222406E+02 -0.11248692117E+02 -0.39311705936E+01  0.16821432375E+02  0.51100000000E-03 0. -1.
         12    1    3    3    0    0  0.61055361143E+01 -0.40525703426E+01 -0.68681725101E+01  0.10043539777E+02  0.00000000000E+00 0. -1.
</event>
<event>
 7    1  0.1098446E-012  0.5052886E+02  0.7816164E-02  0.1300439E+00
        -11   -1    0    0    0    0  0.00000000000E+00  0.00000000000E+00  0.45593999997E+02  0.45594000000E+02  0.51100000000E-03 0.  1.
         11   -1    0    0    0    0 -0.00000000000E+00 -0.00000000000E+00 -0.45593999997E+02  0.45594000000E+02  0.51100000000E-03 0. -1.
    9900012    2    1    2    0    0  0.17443420376E+02 -0.70429064480E+01 -0.36045669402E+02  0.50528859229E+02  0.29999998111E+02 0.  0.
        -12    1    1    2    0    0 -0.17443420376E+02  0.70429064480E+01  0.36045669402E+02  0.40659140771E+02  0.00000000000E+00 0.  1.
         11    1    3    3    0    0  0.19444671836E+01  0.48391629855E+00 -0.13009117248E+02  0.13162532410E+02  0.51100000000E-03 0. -1.
        -11    1    3    3    0    0  0.10901570913E+01  0.49613775208E+01  0.23660651070E+01  0.56037464021E+01  0.51100000000E-03 0.  1.
        -12    1    3    3    0    0  0.14408796101E+02 -0.12488200267E+02 -0.25402617261E+02  0.31762580416E+02  0.00000000000E+00 0.  1.
</event>
<event>
 7    1  0.1098446E-012  0.5052886E+02  0.7816164E-02  0.1300439E+00
        -11   -1    0    0    0    0  0.00000000000E+00  0.00000000000E+00  0.45593999997E+02  0.45594000000E+02  0.51100000000E-03 0.  1.
         11   -1    0    0    0    0 -0.00000000000E+00 -0.00000000000E+00 -0.45593999997E+02  0.45594000000E+02  0.51100000000E-03 0. -1.
    9900012    2    1    2    0    0 -0.16706935708E+02 -0.18360719189E+02 -0.32201366288E+02  0.50528859567E+02  0.29999999140E+02 0.  0.
        -12    1    1    2    0    0  0.16706935708E+02  0.18360719189E+02  0.32201366288E+02  0.40659140433E+02  0.00000000000E+00 0.  1.
         11    1    3    3    0    0 -0.15683963407E+02 -0.38263058787E+01 -0.30145111912E+02  0.34195834501E+02  0.51100000000E-03 0. -1.
        -11    1    3    3    0    0  0.16047938807E+01 -0.20409590098E+01  0.16040473342E+01  0.30518593006E+01  0.51100000000E-03 0.  1.
         12    1    3    3    0    0 -0.26277661818E+01 -0.12493454301E+02 -0.36603017111E+01  0.13281165765E+02  0.00000000000E+00 0. -1.
</event>
<event>
 7    1  0.1098446E-012  0.5052886E+02  0.7816164E-02  0.1300439E+00
        -11   -1    0    0    0    0  0.00000000000E+00  0.00000000000E+00  0.45593999997E+02  0.45594000000E+02  0.51100000000E-03 0. -1.
         11   -1    0    0    0    0 -0.00000000000E+00 -0.00000000000E+00 -0.45593999997E+02  0.45594000000E+02  0.51100000000E-03 0.  1.
    9900012    2    1    2    0    0 -0.24354252097E+02  0.74592494890E+01  0.31692203255E+02  0.50528859019E+02  0.29999997474E+02 0.  0.
        -12    1    1    2    0    0  0.24354252097E+02 -0.74592494890E+01 -0.31692203255E+02  0.40659140981E+02  0.00000000000E+00 0.  1.
         11    1    3    3    0    0 -0.74831909591E+00  0.22259158170E+01  0.23795462157E+02  0.23911058157E+02  0.51100000000E-03 0. -1.
        -11    1    3    3    0    0 -0.13641179430E+02  0.69470598722E+01  0.47982228969E+01  0.16042641938E+02  0.51100000000E-03 0.  1.
         12    1    3    3    0    0 -0.99647535707E+01 -0.17137262002E+01  0.30985182018E+01  0.10575158924E+02  0.00000000000E+00 0. -1.
</event>
<event>
 7    1  0.1098446E-012  0.5052885E+02  0.7816164E-02  0.1300439E+00
        -11   -1    0    0    0    0  0.00000000000E+00  0.00000000000E+00  0.45593999997E+02  0.45594000000E+02  0.51100000000E-03 0.  1.
         11   -1    0    0    0    0 -0.00000000000E+00 -0.00000000000E+00 -0.45593999997E+02  0.45594000000E+02  0.51100000000E-03 0. -1.
    9900012    2    1    2    0    0 -0.22573275425E+01  0.11473493918E+01 -0.40580223320E+02  0.50528850193E+02  0.29999970648E+02 0.  0.
        -12    1    1    2    0    0  0.22573275425E+01 -0.11473493918E+01  0.40580223320E+02  0.40659149807E+02  0.00000000000E+00 0.  1.
         11    1    3    3    0    0 -0.36313278295E+01 -0.59330629272E+01 -0.21160196636E+02  0.22274238470E+02  0.51100000000E-03 0. -1.
        -11    1    3    3    0    0 -0.57953374614E+01  0.93239956027E+01 -0.51460850256E+01  0.12124562740E+02  0.51100000000E-03 0.  1.
        -12    1    3    3    0    0  0.71693377484E+01 -0.22435832837E+01 -0.14273941659E+02  0.16130048983E+02  0.00000000000E+00 0.  1.
</event>
<event>
 7    1  0.1098446E-012  0.5052885E+02  0.7816164E-02  0.1300439E+00
        -11   -1    0    0    0    0  0.00000000000E+00  0.00000000000E+00  0.45593999997E+02  0.45594000000E+02  0.51100000000E-03 0. -1.
         11   -1    0    0    0    0 -0.00000000000E+00 -0.00000000000E+00 -0.45593999997E+02  0.45594000000E+02  0.51100000000E-03 0.  1.
    9900012    2    1    2    0    0  0.39325127964E+02  0.76588493955E+01  0.69313025104E+01  0.50528848288E+02  0.29999964857E+02 0.  0.
        -12    1    1    2    0    0 -0.39325127964E+02 -0.76588493955E+01 -0.69313025104E+01  0.40659151712E+02  0.00000000000E+00 0.  1.
         11    1    3    3    0    0  0.25551157467E+01  0.18415952668E+01  0.54227084512E+01  0.62710331536E+01  0.51100000000E-03 0. -1.
        -11    1    3    3    0    0  0.39131835029E+02  0.14549198831E+01  0.33539211334E+00  0.39160308894E+02  0.51100000000E-03 0.  1.
        -12    1    3    3    0    0 -0.23618228118E+01  0.43623342455E+01  0.11732019459E+01  0.50975062403E+01  0.00000000000E+00 0.  1.
</event>
<event>
 7    1  0.1098446E-012  0.5052887E+02  0.7816164E-02  0.1300439E+00
        -11   -1    0    0    0    0  0.00000000000E+00  0.00000000000E+00  0.45593999997E+02  0.45594000000E+02  0.51100000000E-03 0.  1.
         11   -1    0    0    0    0 -0.00000000000E+00 -0.00000000000E+00 -0.45593999997E+02  0.45594000000E+02  0.51100000000E-03 0. -1.
    9900012    2    1    2    0    0  0.15832403881E+02 -0.71874974898E+01 -0.36753768793E+02  0.50528872448E+02  0.30000038292E+02 0.  0.
        -12    1    1    2    0    0 -0.15832403881E+02  0.71874974898E+01  0.36753768793E+02  0.40659127552E+02  0.00000000000E+00 0.  1.
         11    1    3    3    0    0 -0.34423442723E+01 -0.12686476347E+02 -0.10290717938E+02  0.16694169405E+02  0.51100000000E-03 0. -1.
        -11    1    3    3    0    0  0.14083150514E+02  0.14040700980E+01 -0.15159686425E+02  0.20739398111E+02  0.51100000000E-03 0.  1.
         12    1    3    3    0    0  0.51915976394E+01  0.40949087596E+01 -0.11303364430E+02  0.13095304931E+02  0.00000000000E+00 0. -1.
</event>
<event>
 7    1  0.1098446E-012  0.5052886E+02  0.7816164E-02  0.1300439E+00
        -11   -1    0    0    0    0  0.00000000000E+00  0.00000000000E+00  0.45593999997E+02  0.45594000000E+02  0.51100000000E-03 0.  1.
         11   -1    0    0    0    0 -0.00000000000E+00 -0.00000000000E+00 -0.45593999997E+02  0.45594000000E+02  0.51100000000E-03 0. -1.
    9900012    2    1    2    0    0  0.89048152443E+01  0.39508648062E+02  0.35967351514E+01  0.50528861913E+02  0.30000006272E+02 0.  0.
        -12    1    1    2    0    0 -0.89048152443E+01 -0.39508648062E+02 -0.35967351514E+01  0.40659138087E+02  0.00000000000E+00 0.  1.
         11    1    3    3    0    0 -0.41072989363E+01  0.15860148660E+02 -0.28672980426E+01  0.16632366590E+02  0.51100000000E-03 0. -1.
        -11    1    3    3    0    0  0.94820812639E+01  0.10600613420E+02  0.12647185364E+02  0.19032450391E+02  0.51100000000E-03 0.  1.
        -12    1    3    3    0    0  0.35300329167E+01  0.13047885982E+02 -0.61831521702E+01  0.14864044932E+02  0.00000000000E+00 0.  1.
</event>
<event>
 7    1  0.1098446E-012  0.5052887E+02  0.7816164E-02  0.1300439E+00
        -11   -1    0    0    0    0  0.00000000000E+00  0.00000000000E+00  0.45593999997E+02  0.45594000000E+02  0.51100000000E-03 0.  1.
         11   -1    0    0    0    0 -0.00000000000E+00 -0.00000000000E+00 -0.45593999997E+02  0.45594000000E+02  0.51100000000E-03 0. -1.
    9900012    2    1    2    0    0 -0.22849805249E+02  0.29005705366E+02 -0.17021172892E+02  0.50528869779E+02  0.30000030180E+02 0.  0.
        -12    1    1    2    0    0  0.22849805249E+02 -0.29005705366E+02  0.17021172892E+02  0.40659130221E+02  0.00000000000E+00 0.  1.
         11    1    3    3    0    0 -0.42459533231E+01  0.24139235434E+02 -0.41734185467E+01  0.24862586945E+02  0.51100000000E-03 0. -1.
        -11    1    3    3    0    0 -0.47621249591E+01 -0.28837196666E+00 -0.93356222740E+01  0.10484027662E+02  0.51100000000E-03 0.  1.
         12    1    3    3    0    0 -0.13841726967E+02  0.51548418989E+01 -0.35121320715E+01  0.15182255172E+02  0.00000000000E+00 0. -1.
</event>
<event>
 7    1  0.1098446E-012  0.5052886E+02  0.7816164E-02  0.1300439E+00
        -11   -1    0    0    0    0  0.00000000000E+00  0.00000000000E+00  0.45593999997E+02  0.45594000000E+02  0.51100000000E-03 0.  1.
         11   -1    0    0    0    0 -0.00000000000E+00 -0.00000000000E+00 -0.45593999997E+02  0.45594000000E+02  0.51100000000E-03 0. -1.
    9900012    2    1    2    0    0 -0.28517853302E+02 -0.27450977041E+02 -0.92920370499E+01  0.50528855272E+02  0.29999986085E+02 0.  0.
        -12    1    1    2    0    0  0.28517853302E+02  0.27450977041E+02  0.92920370499E+01  0.40659144728E+02  0.00000000000E+00 0.  1.
         11    1    3    3    0    0 -0.23640946312E+02 -0.85921360737E+01 -0.67119624238E+01  0.26034008233E+02  0.51100000000E-03 0. -1.
        -11    1    3    3    0    0  0.26980898890E+01 -0.66889270463E+01  0.45057858474E+01  0.85043248082E+01  0.51100000000E-03 0.  1.
         12    1    3    3    0    0 -0.75749968792E+01 -0.12169913921E+02 -0.70858604736E+01  0.15990522231E+02  0.00000000000E+00 0. -1.
</event>
<event>
 7    1  0.1098446E-012  0.5052886E+02  0.7816164E-02  0.1300439E+00
        -11   -1    0    0    0    0  0.00000000000E+00  0.00000000000E+00  0.45593999997E+02  0.45594000000E+02  0.51100000000E-03 0.  1.
         11   -1    0    0    0    0 -0.00000000000E+00 -0.00000000000E+00 -0.45593999997E+02  0.45594000000E+02  0.51100000000E-03 0. -1.
    9900012    2    1    2    0    0  0.20574324477E+02  0.79023661737E+01 -0.34167457834E+02  0.50528863343E+02  0.30000010618E+02 0.  0.
        -12    1    1    2    0    0 -0.20574324477E+02 -0.79023661737E+01  0.34167457834E+02  0.40659136657E+02  0.00000000000E+00 0.  1.
         11    1    3    3    0    0  0.22514322372E+02  0.10406267712E+02 -0.21412189737E+02  0.32766858091E+02  0.51100000000E-03 0. -1.
        -11    1    3    3    0    0 -0.46563216773E+01 -0.34645302024E+01 -0.13577381915E+02  0.14765825443E+02  0.51100000000E-03 0.  1.
        -12    1    3    3    0    0  0.27163237817E+01  0.96062866452E+00  0.82211381803E+00  0.29961798090E+01  0.00000000000E+00 0.  1.
</event>
<event>
 7    1  0.1098446E-012  0.5052883E+02  0.7816164E-02  0.1300439E+00
        -11   -1    0    0    0    0  0.00000000000E+00  0.00000000000E+00  0.45593999997E+02  0.45594000000E+02  0.51100000000E-03 0. -1.
         11   -1    0    0    0    0 -0.00000000000E+00 -0.00000000000E+00 -0.45593999997E+02  0.45594000000E+02  0.51100000000E-03 0.  1.
    9900012    2    1    2    0    0  0.17035323044E+02 -0.29425802116E+02  0.22295465537E+02  0.50528833200E+02  0.29999918994E+02 0.  0.
        -12    1    1    2    0    0 -0.17035323044E+02  0.29425802116E+02 -0.22295465537E+02  0.40659166800E+02  0.00000000000E+00 0.  1.
         11    1    3    3    0    0  0.12680081215E+02 -0.58690627796E+01  0.47984911104E+01  0.14773485531E+02  0.51100000000E-03 0. -1.
        -11    1    3    3    0    0 -0.68889286918E+01 -0.75550567434E+01  0.11301886622E+02  0.15240369497E+02  0.51100000000E-03 0.  1.
        -12    1    3    3    0    0  0.11244170521E+02 -0.16001682593E+02  0.61950878041E+01  0.20514978172E+02  0.00000000000E+00 0.  1.
</event>
<event>
 7    1  0.1347983E-012  0.5052886E+02  0.7816164E-02  0.1300439E+00
        -11   -1    0    0    0    0  0.00000000000E+00  0.00000000000E+00  0.45593999997E+02  0.45594000000E+02  0.51100000000E-03 0.  1.
         11   -1    0    0    0    0 -0.00000000000E+00 -0.00000000000E+00 -0.45593999997E+02  0.45594000000E+02  0.51100000000E-03 0. -1.
    9900012    2    1    2    0    0  0.19758592065E+02  0.22101100491E+02 -0.27826331547E+02  0.50528864118E+02  0.30000012973E+02 0.  0.
        -12    1    1    2    0    0 -0.19758592065E+02 -0.22101100491E+02  0.27826331547E+02  0.40659135882E+02  0.00000000000E+00 0.  1.
         11    1    3    3    0    0  0.17979934543E+02  0.15454133634E+02 -0.23773693740E+02  0.33575240980E+02  0.51100000000E-03 0. -1.
        -11    1    3    3    0    0  0.38036121857E+01  0.30328324774E+01  0.50135371724E+01  0.69857779621E+01  0.51100000000E-03 0.  1.
        -12    1    3    3    0    0 -0.20249546637E+01  0.36141343798E+01 -0.90661749790E+01  0.99678451761E+01  0.00000000000E+00 0.  1.
</event>
<event>
 7    1  0.1098446E-012  0.5052885E+02  0.7816164E-02  0.1300439E+00
        -11   -1    0    0    0    0  0.00000000000E+00  0.00000000000E+00  0.45593999997E+02  0.45594000000E+02  0.51100000000E-03 0.  1.
         11   -1    0    0    0    0 -0.00000000000E+00 -0.00000000000E+00 -0.45593999997E+02  0.45594000000E+02  0.51100000000E-03 0. -1.
    9900012    2    1    2    0    0  0.92388639050E+01 -0.12751387892E+02 -0.37486151891E+02  0.50528854866E+02  0.29999984852E+02 0.  0.
        -12    1    1    2    0    0 -0.92388639050E+01  0.12751387892E+02  0.37486151891E+02  0.40659145134E+02  0.00000000000E+00 0.  1.
         11    1    3    3    0    0  0.74782548251E+01 -0.17817823999E+02 -0.30435841891E+02  0.36051901742E+02  0.51100000000E-03 0. -1.
        -11    1    3    3    0    0  0.55212322302E+01  0.44088426088E+01 -0.74334669671E+00  0.71045382019E+01  0.51100000000E-03 0.  1.
         12    1    3    3    0    0 -0.37606231503E+01  0.65759349890E+00 -0.63069633032E+01  0.73724149229E+01  0.00000000000E+00 0. -1.
</event>
<event>
 7    1  0.1098446E-012  0.5052884E+02  0.7816164E-02  0.1300439E+00
        -11   -1    0    0    0    0  0.00000000000E+00  0.00000000000E+00  0.45593999997E+02  0.45594000000E+02  0.51100000000E-03 0.  1.
         11   -1    0    0    0    0 -0.00000000000E+00 -0.00000000000E+00 -0.45593999997E+02  0.45594000000E+02  0.51100000000E-03 0. -1.
    9900012    2    1    2    0    0  0.30417914080E+01  0.39436328220E+02  0.94175796976E+01  0.50528840075E+02  0.29999939893E+02 0.  0.
        -12    1    1    2    0    0 -0.30417914080E+01 -0.39436328220E+02 -0.94175796976E+01  0.40659159925E+02  0.00000000000E+00 0.  1.
         11    1    3    3    0    0  0.68536515933E+01  0.34376084088E+02 -0.23978003313E+00  0.35053461913E+02  0.51100000000E-03 0. -1.
        -11    1    3    3    0    0  0.16678372591E+01 -0.21034419020E+00  0.73355808081E+01  0.75257339745E+01  0.51100000000E-03 0.  1.
         12    1    3    3    0    0 -0.54796974445E+01  0.52705883222E+01  0.23217789226E+01  0.79496441877E+01  0.00000000000E+00 0. -1.
</event>
<event>
 7    1  0.1098446E-012  0.5052886E+02  0.7816164E-02  0.1300439E+00
        -11   -1    0    0    0    0  0.00000000000E+00  0.00000000000E+00  0.45593999997E+02  0.45594000000E+02  0.51100000000E-03 0.  1.
         11   -1    0    0    0    0 -0.00000000000E+00 -0.00000000000E+00 -0.45593999997E+02  0.45594000000E+02  0.51100000000E-03 0. -1.
    9900012    2    1    2    0    0  0.15969529445E+02 -0.39171029103E+01 -0.37185961380E+02  0.50528864622E+02  0.30000014506E+02 0.  0.
        -12    1    1    2    0    0 -0.15969529445E+02  0.39171029103E+01  0.37185961380E+02  0.40659135378E+02  0.00000000000E+00 0.  1.
         11    1    3    3    0    0  0.21468467971E+01 -0.77467810048E+01 -0.75723764750E+00  0.80743406061E+01  0.51100000000E-03 0. -1.
        -11    1    3    3    0    0  0.13146011037E+02 -0.37962014278E+01 -0.18960220373E+02  0.23382016772E+02  0.51100000000E-03 0.  1.
         12    1    3    3    0    0  0.67667161037E+00  0.76258795223E+01 -0.17468503359E+02  0.19072507244E+02  0.00000000000E+00 0. -1.
</event>
<event>
 7    1  0.1098446E-012  0.5052885E+02  0.7816164E-02  0.1300439E+00
        -11   -1    0    0    0    0  0.00000000000E+00  0.00000000000E+00  0.45593999997E+02  0.45594000000E+02  0.51100000000E-03 0. -1.
         11   -1    0    0    0    0 -0.00000000000E+00 -0.00000000000E+00 -0.45593999997E+02  0.45594000000E+02  0.51100000000E-03 0.  1.
    9900012    2    1    2    0    0 -0.17280154002E+02  0.13556364981E+02 -0.34216778574E+02  0.50528847405E+02  0.29999962171E+02 0.  0.
        -12    1    1    2    0    0  0.17280154002E+02 -0.13556364981E+02  0.34216778574E+02  0.40659152595E+02  0.00000000000E+00 0.  1.
         11    1    3    3    0    0 -0.23887273595E+02  0.11130656637E+02 -0.24632844414E+02  0.36073125470E+02  0.51100000000E-03 0. -1.
        -11    1    3    3    0    0  0.61947275128E+01  0.51182519012E+01 -0.78059949743E+01  0.11202888435E+02  0.51100000000E-03 0.  1.
         12    1    3    3    0    0  0.41239208095E+00 -0.26925435565E+01 -0.17779391857E+01  0.32528335003E+01  0.00000000000E+00 0. -1.
</event>
<event>
 7    1  0.1098446E-012  0.5052885E+02  0.7816164E-02  0.1300439E+00
        -11   -1    0    0    0    0  0.00000000000E+00  0.00000000000E+00  0.45593999997E+02  0.45594000000E+02  0.51100000000E-03 0. -1.
         11   -1    0    0    0    0 -0.00000000000E+00 -0.00000000000E+00 -0.45593999997E+02  0.45594000000E+02  0.51100000000E-03 0.  1.
    9900012    2    1    2    0    0 -0.30590972360E+02  0.24056792514E+02  0.11774092730E+02  0.50528854465E+02  0.29999983632E+02 0.  0.
        -12    1    1    2    0    0  0.30590972360E+02 -0.24056792514E+02 -0.11774092730E+02  0.40659145535E+02  0.00000000000E+00 0.  1.
         11    1    3    3    0    0 -0.24261449415E+02  0.23859255487E+02  0.23834376010E+01  0.34111035973E+02  0.51100000000E-03 0. -1.
        -11    1    3    3    0    0 -0.23075001616E+01 -0.38241372254E+01 -0.99574544867E+00  0.45760345032E+01  0.51100000000E-03 0.  1.
         12    1    3    3    0    0 -0.40220227829E+01  0.40216742530E+01  0.10386400578E+02  0.11841783989E+02  0.00000000000E+00 0. -1.
</event>
<event>
 7    1  0.1098446E-012  0.5052886E+02  0.7816164E-02  0.1300439E+00
        -11   -1    0    0    0    0  0.00000000000E+00  0.00000000000E+00  0.45593999997E+02  0.45594000000E+02  0.51100000000E-03 0.  1.
         11   -1    0    0    0    0 -0.00000000000E+00 -0.00000000000E+00 -0.45593999997E+02  0.45594000000E+02  0.51100000000E-03 0. -1.
    9900012    2    1    2    0    0 -0.26103664374E+02  0.29958079524E+02  0.86184617961E+01  0.50528859500E+02  0.29999998935E+02 0.  0.
        -12    1    1    2    0    0  0.26103664374E+02 -0.29958079524E+02 -0.86184617961E+01  0.40659140500E+02  0.00000000000E+00 0.  1.
         11    1    3    3    0    0 -0.21825165245E+01  0.58458511831E+01 -0.68541095084E+01  0.92690976826E+01  0.51100000000E-03 0. -1.
        -11    1    3    3    0    0 -0.18326235499E+02  0.92575243596E+01  0.14913566958E+02  0.25376507729E+02  0.51100000000E-03 0.  1.
        -12    1    3    3    0    0 -0.55949123505E+01  0.14854703981E+02  0.55900434608E+00  0.15883254088E+02  0.00000000000E+00 0.  1.
</event>
<event>
 7    1  0.1098446E-012  0.5052886E+02  0.7816164E-02  0.1300439E+00
        -11   -1    0    0    0    0  0.00000000000E+00  0.00000000000E+00  0.45593999997E+02  0.45594000000E+02  0.51100000000E-03 0.  1.
         11   -1    0    0    0    0 -0.00000000000E+00 -0.00000000000E+00 -0.45593999997E+02  0.45594000000E+02  0.51100000000E-03 0. -1.
    9900012    2    1    2    0    0 -0.48385069815E+00 -0.17282850614E+02 -0.36799931477E+02  0.50528855966E+02  0.29999988195E+02 0.  0.
        -12    1    1    2    0    0  0.48385069815E+00  0.17282850614E+02  0.36799931477E+02  0.40659144034E+02  0.00000000000E+00 0.  1.
         11    1    3    3    0    0  0.42417486694E+01  0.15769255586E+01 -0.22480746402E+02  0.22931704800E+02  0.51100000000E-03 0. -1.
        -11    1    3    3    0    0 -0.15752621177E+00 -0.17406503569E+02 -0.14706322313E+02  0.22787871713E+02  0.51100000000E-03 0.  1.
        -12    1    3    3    0    0 -0.45680731557E+01 -0.14532726033E+01  0.38713723723E+00  0.48092794529E+01  0.00000000000E+00 0.  1.
</event>
<event>
 7    1  0.1098446E-012  0.5052886E+02  0.7816164E-02  0.1300439E+00
        -11   -1    0    0    0    0  0.00000000000E+00  0.00000000000E+00  0.45593999997E+02  0.45594000000E+02  0.51100000000E-03 0. -1.
         11   -1    0    0    0    0 -0.00000000000E+00 -0.00000000000E+00 -0.45593999997E+02  0.45594000000E+02  0.51100000000E-03 0.  1.
    9900012    2    1    2    0    0 -0.18442543689E+02  0.33669057251E+02  0.13395247437E+02  0.50528862186E+02  0.30000007101E+02 0.  0.
        -12    1    1    2    0    0  0.18442543689E+02 -0.33669057251E+02 -0.13395247437E+02  0.40659137814E+02  0.00000000000E+00 0.  1.
         11    1    3    3    0    0 -0.99084691935E+01  0.97356290099E+01 -0.10029506117E+01  0.13927172871E+02  0.51100000000E-03 0. -1.
        -11    1    3    3    0    0  0.41131480884E+01 -0.18217825470E+01  0.41881584232E+01  0.61463444489E+01  0.51100000000E-03 0.  1.
        -12    1    3    3    0    0 -0.12647222584E+02  0.25755210788E+02  0.10210039625E+02  0.30455344867E+02  0.00000000000E+00 0.  1.
</event>
<event>
 7    1  0.1098446E-012  0.5052885E+02  0.7816164E-02  0.1300439E+00
        -11   -1    0    0    0    0  0.00000000000E+00  0.00000000000E+00  0.45593999997E+02  0.45594000000E+02  0.51100000000E-03 0.  1.
         11   -1    0    0    0    0 -0.00000000000E+00 -0.00000000000E+00 -0.45593999997E+02  0.45594000000E+02  0.51100000000E-03 0. -1.
    9900012    2    1    2    0    0 -0.35359879101E+02 -0.19096295722E+02  0.61787577076E+01  0.50528848420E+02  0.29999965259E+02 0.  0.
        -12    1    1    2    0    0  0.35359879101E+02  0.19096295722E+02 -0.61787577076E+01  0.40659151580E+02  0.00000000000E+00 0.  1.
         11    1    3    3    0    0 -0.27026162497E+01 -0.35036947803E+01 -0.76588461495E+01  0.88452211001E+01  0.51100000000E-03 0. -1.
        -11    1    3    3    0    0 -0.15515892386E+02 -0.75392274185E+01  0.14787043388E+02  0.22720904890E+02  0.51100000000E-03 0.  1.
         12    1    3    3    0    0 -0.17141370466E+02 -0.80533735236E+01 -0.94943953088E+00  0.18962722430E+02  0.00000000000E+00 0. -1.
</event>
<event>
 7    1  0.1098446E-012  0.5052884E+02  0.7816164E-02  0.1300439E+00
        -11   -1    0    0    0    0  0.00000000000E+00  0.00000000000E+00  0.45593999997E+02  0.45594000000E+02  0.51100000000E-03 0.  1.
         11   -1    0    0    0    0 -0.00000000000E+00 -0.00000000000E+00 -0.45593999997E+02  0.45594000000E+02  0.51100000000E-03 0. -1.
    9900012    2    1    2    0    0  0.27423554414E+02 -0.74955411129E+01 -0.29067734011E+02  0.50528835796E+02  0.29999926884E+02 0.  0.
        -12    1    1    2    0    0 -0.27423554414E+02  0.74955411129E+01  0.29067734011E+02  0.40659164204E+02  0.00000000000E+00 0.  1.
         11    1    3    3    0    0  0.23638333827E+02 -0.98939895680E+01 -0.11146908655E+02  0.27944864081E+02  0.51100000000E-03 0.  1.
        -11    1    3    3    0    0 -0.24270005161E+01  0.57170828856E+01 -0.11418130427E+02  0.12998041042E+02  0.51100000000E-03 0. -1.
         12    1    3    3    0    0  0.62122211032E+01 -0.33186344305E+01 -0.65026949284E+01  0.95859306721E+01  0.00000000000E+00 0. -1.
</event>
<event>
 7    1  0.1098446E-012  0.5052884E+02  0.7816164E-02  0.1300439E+00
        -11   -1    0    0    0    0  0.00000000000E+00  0.00000000000E+00  0.45593999997E+02  0.45594000000E+02  0.51100000000E-03 0.  1.
         11   -1    0    0    0    0 -0.00000000000E+00 -0.00000000000E+00 -0.45593999997E+02  0.45594000000E+02  0.51100000000E-03 0. -1.
    9900012    2    1    2    0    0  0.16312629376E+02  0.35694205603E+02 -0.10629628390E+02  0.50528841247E+02  0.29999943456E+02 0.  0.
        -12    1    1    2    0    0 -0.16312629376E+02 -0.35694205603E+02  0.10629628390E+02  0.40659158753E+02  0.00000000000E+00 0.  1.
         11    1    3    3    0    0  0.82460779585E+01 -0.54504681840E+00 -0.76483017914E+01  0.11260168661E+02  0.51100000000E-03 0. -1.
        -11    1    3    3    0    0 -0.29677410685E+01  0.58963373640E+01 -0.22480607524E+01  0.69733821613E+01  0.51100000000E-03 0.  1.
         12    1    3    3    0    0  0.11034292486E+02  0.30342915057E+02 -0.73326584663E+00  0.32295290425E+02  0.00000000000E+00 0. -1.
</event>
<event>
 7    1  0.1098446E-012  0.5052886E+02  0.7816164E-02  0.1300439E+00
        -11   -1    0    0    0    0  0.00000000000E+00  0.00000000000E+00  0.45593999997E+02  0.45594000000E+02  0.51100000000E-03 0.  1.
         11   -1    0    0    0    0 -0.00000000000E+00 -0.00000000000E+00 -0.45593999997E+02  0.45594000000E+02  0.51100000000E-03 0. -1.
    9900012    2    1    2    0    0 -0.13267907121E+02  0.10825418825E+02 -0.36877346924E+02  0.50528858737E+02  0.29999996616E+02 0.  0.
        -12    1    1    2    0    0  0.13267907121E+02 -0.10825418825E+02  0.36877346924E+02  0.40659141263E+02  0.00000000000E+00 0.  1.
         11    1    3    3    0    0  0.58934252132E+01  0.24167890163E+01 -0.17879061401E+02  0.18979835793E+02  0.51100000000E-03 0. -1.
        -11    1    3    3    0    0 -0.20036771743E+02  0.38067664348E+01 -0.14259217688E+02  0.24885517514E+02  0.51100000000E-03 0.  1.
         12    1    3    3    0    0  0.87543940845E+00  0.46018633741E+01 -0.47390678348E+01  0.66635054299E+01  0.00000000000E+00 0. -1.
</event>
<event>
 7    1  0.1098446E-012  0.5052887E+02  0.7816164E-02  0.1300439E+00
        -11   -1    0    0    0    0  0.00000000000E+00  0.00000000000E+00  0.45593999997E+02  0.45594000000E+02  0.51100000000E-03 0. -1.
         11   -1    0    0    0    0 -0.00000000000E+00 -0.00000000000E+00 -0.45593999997E+02  0.45594000000E+02  0.51100000000E-03 0.  1.
    9900012    2    1    2    0    0 -0.20922089575E+02 -0.25861735028E+02  0.23379521276E+02  0.50528865898E+02  0.30000018384E+02 0.  0.
        -12    1    1    2    0    0  0.20922089575E+02  0.25861735028E+02 -0.23379521276E+02  0.40659134102E+02  0.00000000000E+00 0.  1.
         11    1    3    3    0    0 -0.17379119025E+02 -0.13220980711E+02  0.18807322176E+02  0.28819151215E+02  0.51100000000E-03 0. -1.
        -11    1    3    3    0    0  0.54660176431E+01 -0.10552044864E+02  0.15718458007E+01  0.11987230671E+02  0.51100000000E-03 0.  1.
        -12    1    3    3    0    0 -0.90089881932E+01 -0.20887094530E+01  0.30003532990E+01  0.97224840120E+01  0.00000000000E+00 0.  1.
</event>
<event>
 7    1  0.1098446E-012  0.5052886E+02  0.7816164E-02  0.1300439E+00
        -11   -1    0    0    0    0  0.00000000000E+00  0.00000000000E+00  0.45593999997E+02  0.45594000000E+02  0.51100000000E-03 0.  1.
         11   -1    0    0    0    0 -0.00000000000E+00 -0.00000000000E+00 -0.45593999997E+02  0.45594000000E+02  0.51100000000E-03 0. -1.
    9900012    2    1    2    0    0 -0.83411300992E+01 -0.19228012965E+02 -0.34840710537E+02  0.50528855338E+02  0.29999986286E+02 0.  0.
        -12    1    1    2    0    0  0.83411300992E+01  0.19228012965E+02  0.34840710537E+02  0.40659144662E+02  0.00000000000E+00 0.  1.
         11    1    3    3    0    0 -0.75058284496E+01 -0.21184433283E+02 -0.21641416208E+02  0.31200457849E+02  0.51100000000E-03 0. -1.
        -11    1    3    3    0    0  0.23401563827E+01 -0.18169015110E+01  0.18491889249E+01  0.34924150580E+01  0.51100000000E-03 0.  1.
         12    1    3    3    0    0 -0.31754580323E+01  0.37733218281E+01 -0.15048483254E+02  0.15835982431E+02  0.00000000000E+00 0. -1.
</event>
<event>
 7    1  0.1098446E-012  0.5052886E+02  0.7816164E-02  0.1300439E+00
        -11   -1    0    0    0    0  0.00000000000E+00  0.00000000000E+00  0.45593999997E+02  0.45594000000E+02  0.51100000000E-03 0. -1.
         11   -1    0    0    0    0 -0.00000000000E+00 -0.00000000000E+00 -0.45593999997E+02  0.45594000000E+02  0.51100000000E-03 0.  1.
    9900012    2    1    2    0    0 -0.56860935010E+01  0.22932884915E+02  0.33089522764E+02  0.50528863430E+02  0.30000010883E+02 0.  0.
        -12    1    1    2    0    0  0.56860935010E+01 -0.22932884915E+02 -0.33089522764E+02  0.40659136570E+02  0.00000000000E+00 0.  1.
         11    1    3    3    0    0 -0.12278551602E+02  0.69904539046E+01  0.32445927180E+01  0.14496780932E+02  0.51100000000E-03 0. -1.
        -11    1    3    3    0    0  0.11702120341E+01  0.32771994433E+01  0.16459262514E+02  0.16823101829E+02  0.51100000000E-03 0.  1.
         12    1    3    3    0    0  0.54222460665E+01  0.12665231567E+02  0.13385667532E+02  0.19208980669E+02  0.00000000000E+00 0. -1.
</event>
<event>
 7    1  0.1098446E-012  0.5052886E+02  0.7816164E-02  0.1300439E+00
        -11   -1    0    0    0    0  0.00000000000E+00  0.00000000000E+00  0.45593999997E+02  0.45594000000E+02  0.51100000000E-03 0.  1.
         11   -1    0    0    0    0 -0.00000000000E+00 -0.00000000000E+00 -0.45593999997E+02  0.45594000000E+02  0.51100000000E-03 0. -1.
    9900012    2    1    2    0    0 -0.29329398174E+02  0.79052076949E+01 -0.27027020252E+02  0.50528859212E+02  0.29999998061E+02 0.  0.
        -12    1    1    2    0    0  0.29329398174E+02 -0.79052076949E+01  0.27027020252E+02  0.40659140788E+02  0.00000000000E+00 0.  1.
         11    1    3    3    0    0 -0.17649588299E+02  0.73463965159E+01 -0.83985220109E+01  0.20880916674E+02  0.51100000000E-03 0. -1.
        -11    1    3    3    0    0  0.25483585051E+01  0.63106759409E+01 -0.98355640246E+01  0.11960647217E+02  0.51100000000E-03 0.  1.
        -12    1    3    3    0    0 -0.14228168379E+02 -0.57518647618E+01 -0.87929342162E+01  0.17687295322E+02  0.00000000000E+00 0.  1.
</event>
<event>
 7    1  0.1098446E-012  0.5052887E+02  0.7816164E-02  0.1300439E+00
        -11   -1    0    0    0    0  0.00000000000E+00  0.00000000000E+00  0.45593999997E+02  0.45594000000E+02  0.51100000000E-03 0.  1.
         11   -1    0    0    0    0 -0.00000000000E+00 -0.00000000000E+00 -0.45593999997E+02  0.45594000000E+02  0.51100000000E-03 0. -1.
    9900012    2    1    2    0    0 -0.24541364258E+02  0.31977238460E+02 -0.53238019388E+01  0.50528865648E+02  0.30000017625E+02 0.  0.
        -12    1    1    2    0    0  0.24541364258E+02 -0.31977238460E+02  0.53238019388E+01  0.40659134352E+02  0.00000000000E+00 0.  1.
         11    1    3    3    0    0 -0.89601431963E+01  0.20682447795E+02 -0.11883052362E+02  0.25480477754E+02  0.51100000000E-03 0. -1.
        -11    1    3    3    0    0 -0.16649384906E+02  0.56662680740E+01  0.77134082207E+01  0.19204303639E+02  0.51100000000E-03 0.  1.
        -12    1    3    3    0    0  0.10681638444E+01  0.56285225911E+01 -0.11541577976E+01  0.58440842549E+01  0.00000000000E+00 0.  1.
</event>
<event>
 7    1  0.1098446E-012  0.5052882E+02  0.7816164E-02  0.1300439E+00
        -11   -1    0    0    0    0  0.00000000000E+00  0.00000000000E+00  0.45593999997E+02  0.45594000000E+02  0.51100000000E-03 0. -1.
         11   -1    0    0    0    0 -0.00000000000E+00 -0.00000000000E+00 -0.45593999997E+02  0.45594000000E+02  0.51100000000E-03 0.  1.
    9900012    2    1    2    0    0 -0.36508684870E+02 -0.12681317595E+02  0.12628118373E+02  0.50528815791E+02  0.29999866078E+02 0.  0.
        -12    1    1    2    0    0  0.36508684870E+02  0.12681317595E+02 -0.12628118373E+02  0.40659184209E+02  0.00000000000E+00 0.  1.
         11    1    3    3    0    0 -0.11878638619E+02 -0.14445110503E+02  0.16999843508E+02  0.25273661239E+02  0.51100000000E-03 0. -1.
        -11    1    3    3    0    0 -0.66714839538E+01  0.16268227875E+01 -0.51228547560E+00  0.68860501884E+01  0.51100000000E-03 0.  1.
         12    1    3    3    0    0 -0.17958562298E+02  0.13697012072E+00 -0.38594396597E+01  0.18369104363E+02  0.00000000000E+00 0. -1.
</event>
<event>
 7    1  0.1098446E-012  0.5052888E+02  0.7816164E-02  0.1300439E+00
        -11   -1    0    0    0    0  0.00000000000E+00  0.00000000000E+00  0.45593999997E+02  0.45594000000E+02  0.51100000000E-03 0.  1.
         11   -1    0    0    0    0 -0.00000000000E+00 -0.00000000000E+00 -0.45593999997E+02  0.45594000000E+02  0.51100000000E-03 0. -1.
    9900012    2    1    2    0    0 -0.16602626646E+02 -0.24071971034E+02 -0.28249897219E+02  0.50528884246E+02  0.30000074154E+02 0.  0.
        -12    1    1    2    0    0  0.16602626646E+02  0.24071971034E+02  0.28249897219E+02  0.40659115754E+02  0.00000000000E+00 0.  1.
         11    1    3    3    0    0 -0.10040440113E+01 -0.41782760854E+01  0.54709081943E+01  0.69567903630E+01  0.51100000000E-03 0.  1.
        -11    1    3    3    0    0 -0.79577925792E+01 -0.11353349972E+02 -0.95885247060E+01  0.16857189108E+02  0.51100000000E-03 0. -1.
         12    1    3    3    0    0 -0.76407900557E+01 -0.85403449767E+01 -0.24132280707E+02  0.26714904775E+02  0.00000000000E+00 0. -1.
</event>
<event>
 7    1  0.1098446E-012  0.5052886E+02  0.7816164E-02  0.1300439E+00
        -11   -1    0    0    0    0  0.00000000000E+00  0.00000000000E+00  0.45593999997E+02  0.45594000000E+02  0.51100000000E-03 0. -1.
         11   -1    0    0    0    0 -0.00000000000E+00 -0.00000000000E+00 -0.45593999997E+02  0.45594000000E+02  0.51100000000E-03 0.  1.
    9900012    2    1    2    0    0 -0.28364574334E+02 -0.21076331414E+01  0.29054680164E+02  0.50528860388E+02  0.30000001635E+02 0.  0.
        -12    1    1    2    0    0  0.28364574334E+02  0.21076331414E+01 -0.29054680164E+02  0.40659139612E+02  0.00000000000E+00 0.  1.
         11    1    3    3    0    0 -0.92652771677E+01  0.71333603487E+01  0.16908320854E+02  0.20557760219E+02  0.51100000000E-03 0. -1.
        -11    1    3    3    0    0 -0.13614024128E+02 -0.13304924881E+02  0.41975028198E+01  0.19493119536E+02  0.51100000000E-03 0.  1.
        -12    1    3    3    0    0 -0.54852730378E+01  0.40639313912E+01  0.79488564900E+01  0.10477980633E+02  0.00000000000E+00 0.  1.
</event>
<event>
 7    1  0.1098446E-012  0.5052884E+02  0.7816164E-02  0.1300439E+00
        -11   -1    0    0    0    0  0.00000000000E+00  0.00000000000E+00  0.45593999997E+02  0.45594000000E+02  0.51100000000E-03 0.  1.
         11   -1    0    0    0    0 -0.00000000000E+00 -0.00000000000E+00 -0.45593999997E+02  0.45594000000E+02  0.51100000000E-03 0. -1.
    9900012    2    1    2    0    0  0.30254057979E+01 -0.63614902772E+01 -0.40044291403E+02  0.50528844663E+02  0.29999953836E+02 0.  0.
        -12    1    1    2    0    0 -0.30254057979E+01  0.63614902772E+01  0.40044291403E+02  0.40659155337E+02  0.00000000000E+00 0.  1.
         11    1    3    3    0    0  0.10213094978E+02  0.36701540371E+01 -0.11462476024E+02  0.15784983261E+02  0.51100000000E-03 0.  1.
        -11    1    3    3    0    0 -0.79248492443E+01  0.15237149308E+01 -0.10005382545E+02  0.12854284222E+02  0.51100000000E-03 0. -1.
         12    1    3    3    0    0  0.73716006368E+00 -0.11555359245E+02 -0.18576432834E+02  0.21889577179E+02  0.00000000000E+00 0. -1.
</event>
<event>
 7    1  0.1098446E-012  0.5052887E+02  0.7816164E-02  0.1300439E+00
        -11   -1    0    0    0    0  0.00000000000E+00  0.00000000000E+00  0.45593999997E+02  0.45594000000E+02  0.51100000000E-03 0.  1.
         11   -1    0    0    0    0 -0.00000000000E+00 -0.00000000000E+00 -0.45593999997E+02  0.45594000000E+02  0.51100000000E-03 0. -1.
    9900012    2    1    2    0    0 -0.36081627005E+02  0.26612900827E+01 -0.18552595622E+02  0.50528867244E+02  0.30000022474E+02 0.  0.
        -12    1    1    2    0    0  0.36081627005E+02 -0.26612900827E+01  0.18552595622E+02  0.40659132756E+02  0.00000000000E+00 0.  1.
         11    1    3    3    0    0 -0.31906670360E+02 -0.53746243621E+01 -0.88855384239E+01  0.33554060765E+02  0.51100000000E-03 0. -1.
        -11    1    3    3    0    0 -0.50466758061E+01  0.67033944965E+01 -0.11696728198E+02  0.14395064615E+02  0.51100000000E-03 0.  1.
         12    1    3    3    0    0  0.87171916181E+00  0.13325199483E+01  0.20296710007E+01  0.25797418631E+01  0.00000000000E+00 0. -1.
</event>
<event>
 7    1  0.1098446E-012  0.5052884E+02  0.7816164E-02  0.1300439E+00
        -11   -1    0    0    0    0  0.00000000000E+00  0.00000000000E+00  0.45593999997E+02  0.45594000000E+02  0.51100000000E-03 0.  1.
         11   -1    0    0    0    0 -0.00000000000E+00 -0.00000000000E+00 -0.45593999997E+02  0.45594000000E+02  0.51100000000E-03 0. -1.
    9900012    2    1    2    0    0 -0.23305634477E+02 -0.50214164405E+00 -0.33313100013E+02  0.50528838953E+02  0.29999936481E+02 0.  0.
        -12    1    1    2    0    0  0.23305634477E+02  0.50214164405E+00  0.33313100013E+02  0.40659161047E+02  0.00000000000E+00 0.  1.
         11    1    3    3    0    0 -0.12400493677E+02 -0.13778013682E+02 -0.14751749074E+02  0.23690082428E+02  0.51100000000E-03 0. -1.
        -11    1    3    3    0    0  0.75049379579E+00  0.34290292415E+01 -0.11637374581E+01  0.36980762038E+01  0.51100000000E-03 0.  1.
         12    1    3    3    0    0 -0.11655634596E+02  0.98468427961E+01 -0.17397613481E+02  0.23140680321E+02  0.00000000000E+00 0. -1.
</event>
<event>
 7    1  0.1098446E-012  0.5052886E+02  0.7816164E-02  0.1300439E+00
        -11   -1    0    0    0    0  0.00000000000E+00  0.00000000000E+00  0.45593999997E+02  0.45594000000E+02  0.51100000000E-03 0.  1.
         11   -1    0    0    0    0 -0.00000000000E+00 -0.00000000000E+00 -0.45593999997E+02  0.45594000000E+02  0.51100000000E-03 0. -1.
    9900012    2    1    2    0    0  0.32294825775E+02  0.10231233276E+02  0.22484026693E+02  0.50528863726E+02  0.30000011782E+02 0.  0.
        -12    1    1    2    0    0 -0.32294825775E+02 -0.10231233276E+02 -0.22484026693E+02  0.40659136274E+02  0.00000000000E+00 0.  1.
         11    1    3    3    0    0  0.15329997636E+01  0.84929094681E+01 -0.73830077125E+00  0.86616792713E+01  0.51100000000E-03 0. -1.
        -11    1    3    3    0    0  0.30798566275E+02 -0.22128460411E+01  0.20313246711E+02  0.36960470294E+02  0.51100000000E-03 0.  1.
        -12    1    3    3    0    0 -0.36740263011E-01  0.39511698487E+01  0.29090807538E+01  0.49067141604E+01  0.00000000000E+00 0.  1.
</event>
<event>
 7    1  0.1098446E-012  0.5052891E+02  0.7816164E-02  0.1300439E+00
        -11   -1    0    0    0    0  0.00000000000E+00  0.00000000000E+00  0.45593999997E+02  0.45594000000E+02  0.51100000000E-03 0.  1.
         11   -1    0    0    0    0 -0.00000000000E+00 -0.00000000000E+00 -0.45593999997E+02  0.45594000000E+02  0.51100000000E-03 0. -1.
    9900012    2    1    2    0    0  0.27204052810E+02 -0.22647376868E+02 -0.20004944463E+02  0.50528905430E+02  0.30000138544E+02 0.  0.
        -12    1    1    2    0    0 -0.27204052810E+02  0.22647376868E+02  0.20004944463E+02  0.40659094570E+02  0.00000000000E+00 0.  1.
         11    1    3    3    0    0  0.28877845481E+01 -0.18096455088E+02 -0.11663044454E+02  0.21722053138E+02  0.51100000000E-03 0. -1.
        -11    1    3    3    0    0  0.14016849997E+02  0.35424178005E+01 -0.48690031621E+01  0.15255425257E+02  0.51100000000E-03 0.  1.
         12    1    3    3    0    0  0.10299418265E+02 -0.80933395809E+01 -0.34728968471E+01  0.13551427035E+02  0.00000000000E+00 0. -1.
</event>
<event>
 7    1  0.1098446E-012  0.5052886E+02  0.7816164E-02  0.1300439E+00
        -11   -1    0    0    0    0  0.00000000000E+00  0.00000000000E+00  0.45593999997E+02  0.45594000000E+02  0.51100000000E-03 0. -1.
         11   -1    0    0    0    0 -0.00000000000E+00 -0.00000000000E+00 -0.45593999997E+02  0.45594000000E+02  0.51100000000E-03 0.  1.
    9900012    2    1    2    0    0  0.39693571873E+02  0.83110864720E+01  0.29174872814E+01  0.50528861564E+02  0.30000005209E+02 0.  0.
        -12    1    1    2    0    0 -0.39693571873E+02 -0.83110864720E+01 -0.29174872814E+01  0.40659138436E+02  0.00000000000E+00 0.  1.
         11    1    3    3    0    0  0.10485422598E+02  0.61000089407E+01  0.28599562485E+01  0.12463287935E+02  0.51100000000E-03 0. -1.
        -11    1    3    3    0    0  0.23045235363E+02 -0.86383238111E+01  0.40983789593E+01  0.24949954340E+02  0.51100000000E-03 0.  1.
        -12    1    3    3    0    0  0.61629139114E+01  0.10849401342E+02 -0.40408479264E+01  0.13115619289E+02  0.00000000000E+00 0.  1.
</event>
<event>
 7    1  0.1098446E-012  0.5052886E+02  0.7816164E-02  0.1300439E+00
        -11   -1    0    0    0    0  0.00000000000E+00  0.00000000000E+00  0.45593999997E+02  0.45594000000E+02  0.51100000000E-03 0.  1.
         11   -1    0    0    0    0 -0.00000000000E+00 -0.00000000000E+00 -0.45593999997E+02  0.45594000000E+02  0.51100000000E-03 0. -1.
    9900012    2    1    2    0    0 -0.20174971573E+02  0.45893898282E+01 -0.35001048392E+02  0.50528863689E+02  0.30000011670E+02 0.  0.
        -12    1    1    2    0    0  0.20174971573E+02 -0.45893898282E+01  0.35001048392E+02  0.40659136311E+02  0.00000000000E+00 0.  1.
         11    1    3    3    0    0 -0.11509473024E+01  0.61844662667E+01 -0.69222514730E+01  0.93536018951E+01  0.51100000000E-03 0. -1.
        -11    1    3    3    0    0 -0.18699761584E+02 -0.46333036515E+01 -0.79915797371E+01  0.20856987630E+02  0.51100000000E-03 0.  1.
        -12    1    3    3    0    0 -0.32426268665E+00  0.30382272130E+01 -0.20087217182E+02  0.20318274164E+02  0.00000000000E+00 0.  1.
</event>
<event>
 7    1  0.1098446E-012  0.5052887E+02  0.7816164E-02  0.1300439E+00
        -11   -1    0    0    0    0  0.00000000000E+00  0.00000000000E+00  0.45593999997E+02  0.45594000000E+02  0.51100000000E-03 0.  1.
         11   -1    0    0    0    0 -0.00000000000E+00 -0.00000000000E+00 -0.45593999997E+02  0.45594000000E+02  0.51100000000E-03 0. -1.
    9900012    2    1    2    0    0  0.17177969670E+01  0.34553357570E+02 -0.21360693068E+02  0.50528873668E+02  0.30000042000E+02 0.  0.
        -12    1    1    2    0    0 -0.17177969670E+01 -0.34553357570E+02  0.21360693068E+02  0.40659126332E+02  0.00000000000E+00 0.  1.
         11    1    3    3    0    0 -0.11625590447E+02  0.12078334044E+02 -0.14913231337E+02  0.22437579542E+02  0.51100000000E-03 0. -1.
        -11    1    3    3    0    0  0.10815213089E+02  0.14251114993E+02 -0.10213886316E+01  0.17919440497E+02  0.51100000000E-03 0.  1.
        -12    1    3    3    0    0  0.25281743253E+01  0.82239085324E+01 -0.54260730995E+01  0.10171853629E+02  0.00000000000E+00 0.  1.
</event>
<event>
 7    1  0.1098446E-012  0.5052886E+02  0.7816164E-02  0.1300439E+00
        -11   -1    0    0    0    0  0.00000000000E+00  0.00000000000E+00  0.45593999997E+02  0.45594000000E+02  0.51100000000E-03 0.  1.
         11   -1    0    0    0    0 -0.00000000000E+00 -0.00000000000E+00 -0.45593999997E+02  0.45594000000E+02  0.51100000000E-03 0. -1.
    9900012    2    1    2    0    0 -0.18837831457E+02 -0.11821116561E+02 -0.34037667000E+02  0.50528862459E+02  0.30000007932E+02 0.  0.
        -12    1    1    2    0    0  0.18837831457E+02  0.11821116561E+02  0.34037667000E+02  0.40659137541E+02  0.00000000000E+00 0.  1.
         11    1    3    3    0    0 -0.11180360675E+02  0.67231510107E+01 -0.77274948938E+01  0.15162961516E+02  0.51100000000E-03 0. -1.
        -11    1    3    3    0    0  0.11491232975E+01 -0.12242490430E+02 -0.10315686890E+02  0.16050310045E+02  0.51100000000E-03 0.  1.
         12    1    3    3    0    0 -0.88065940791E+01 -0.63017771414E+01 -0.15994485217E+02  0.19315590898E+02  0.00000000000E+00 0. -1.
</event>
<event>
 7    1  0.1098446E-012  0.5052886E+02  0.7816164E-02  0.1300439E+00
        -11   -1    0    0    0    0  0.00000000000E+00  0.00000000000E+00  0.45593999997E+02  0.45594000000E+02  0.51100000000E-03 0.  1.
         11   -1    0    0    0    0 -0.00000000000E+00 -0.00000000000E+00 -0.45593999997E+02  0.45594000000E+02  0.51100000000E-03 0. -1.
    9900012    2    1    2    0    0 -0.37455875640E+02  0.22107073453E+01  0.15663208449E+02  0.50528856553E+02  0.29999989979E+02 0.  0.
        -12    1    1    2    0    0  0.37455875640E+02 -0.22107073453E+01 -0.15663208449E+02  0.40659143447E+02  0.00000000000E+00 0.  1.
         11    1    3    3    0    0 -0.32365394267E+02  0.39861080590E+01  0.23771422462E+02  0.40354532950E+02  0.51100000000E-03 0. -1.
        -11    1    3    3    0    0  0.15713141603E+00 -0.20595503589E+00 -0.18063337529E+01  0.18248149623E+01  0.51100000000E-03 0.  1.
         12    1    3    3    0    0 -0.52476127894E+01 -0.15694456778E+01 -0.63018802606E+01  0.83495086407E+01  0.00000000000E+00 0. -1.
</event>
<event>
 7    1  0.1098446E-012  0.5052885E+02  0.7816164E-02  0.1300439E+00
        -11   -1    0    0    0    0  0.00000000000E+00  0.00000000000E+00  0.45593999997E+02  0.45594000000E+02  0.51100000000E-03 0.  1.
         11   -1    0    0    0    0 -0.00000000000E+00 -0.00000000000E+00 -0.45593999997E+02  0.45594000000E+02  0.51100000000E-03 0. -1.
    9900012    2    1    2    0    0 -0.42466492324E+01  0.30843348514E+01 -0.40318965109E+02  0.50528854674E+02  0.29999984268E+02 0.  0.
        -12    1    1    2    0    0  0.42466492324E+01 -0.30843348514E+01  0.40318965109E+02  0.40659145326E+02  0.00000000000E+00 0.  1.
         11    1    3    3    0    0  0.33189798301E+00  0.51401337367E+01 -0.33444680826E+02  0.33838998314E+02  0.51100000000E-03 0. -1.
        -11    1    3    3    0    0 -0.16105579714E+01 -0.76000547025E+01 -0.57701270954E+00  0.77902292898E+01  0.51100000000E-03 0.  1.
        -12    1    3    3    0    0 -0.29679892441E+01  0.55442558172E+01 -0.62972715731E+01  0.88996270700E+01  0.00000000000E+00 0.  1.
</event>
<event>
 7    1  0.1098446E-012  0.5052886E+02  0.7816164E-02  0.1300439E+00
        -11   -1    0    0    0    0  0.00000000000E+00  0.00000000000E+00  0.45593999997E+02  0.45594000000E+02  0.51100000000E-03 0.  1.
         11   -1    0    0    0    0 -0.00000000000E+00 -0.00000000000E+00 -0.45593999997E+02  0.45594000000E+02  0.51100000000E-03 0. -1.
    9900012    2    1    2    0    0  0.25505759239E+02 -0.27049070810E+02 -0.16461146945E+02  0.50528863944E+02  0.30000012445E+02 0.  0.
        -12    1    1    2    0    0 -0.25505759239E+02  0.27049070810E+02  0.16461146945E+02  0.40659136056E+02  0.00000000000E+00 0.  1.
         11    1    3    3    0    0  0.14953123839E+02 -0.26174002160E+02 -0.21332383080E+02  0.36928916444E+02  0.51100000000E-03 0. -1.
        -11    1    3    3    0    0  0.79589658321E+01 -0.31029878998E+01  0.12738985825E+01  0.86369258930E+01  0.51100000000E-03 0.  1.
         12    1    3    3    0    0  0.25936695673E+01  0.22279192494E+01  0.35973375524E+01  0.49630216070E+01  0.00000000000E+00 0. -1.
</event>
<event>
 7    1  0.1098446E-012  0.5052884E+02  0.7816164E-02  0.1300439E+00
        -11   -1    0    0    0    0  0.00000000000E+00  0.00000000000E+00  0.45593999997E+02  0.45594000000E+02  0.51100000000E-03 0. -1.
         11   -1    0    0    0    0 -0.00000000000E+00 -0.00000000000E+00 -0.45593999997E+02  0.45594000000E+02  0.51100000000E-03 0.  1.
    9900012    2    1    2    0    0 -0.35294546220E+01  0.27007623820E+02  0.30187724419E+02  0.50528837441E+02  0.29999931887E+02 0.  0.
        -12    1    1    2    0    0  0.35294546220E+01 -0.27007623820E+02 -0.30187724419E+02  0.40659162559E+02  0.00000000000E+00 0.  1.
         11    1    3    3    0    0 -0.17827419415E+00  0.24921524577E+02  0.25305507876E+02  0.35517360517E+02  0.51100000000E-03 0. -1.
        -11    1    3    3    0    0  0.30158573747E+00  0.64324034283E+01 -0.13515920699E+01  0.65797848906E+01  0.51100000000E-03 0.  1.
         12    1    3    3    0    0 -0.36527661653E+01 -0.43463041854E+01  0.62338086130E+01  0.84316920338E+01  0.00000000000E+00 0. -1.
</event>
<event>
 7    1  0.1098446E-012  0.5052886E+02  0.7816164E-02  0.1300439E+00
        -11   -1    0    0    0    0  0.00000000000E+00  0.00000000000E+00  0.45593999997E+02  0.45594000000E+02  0.51100000000E-03 0. -1.
         11   -1    0    0    0    0 -0.00000000000E+00 -0.00000000000E+00 -0.45593999997E+02  0.45594000000E+02  0.51100000000E-03 0.  1.
    9900012    2    1    2    0    0  0.38363679187E+02 -0.10289035651E+02 -0.86907942063E+01  0.50528855404E+02  0.29999986485E+02 0.  0.
        -12    1    1    2    0    0 -0.38363679187E+02  0.10289035651E+02  0.86907942063E+01  0.40659144596E+02  0.00000000000E+00 0.  1.
         11    1    3    3    0    0  0.12747547368E+02 -0.10689957178E+02  0.72345250624E+00  0.16652283092E+02  0.51100000000E-03 0. -1.
        -11    1    3    3    0    0  0.10682232553E+02  0.86085001107E+01  0.12468018820E+01  0.13775735249E+02  0.51100000000E-03 0.  1.
        -12    1    3    3    0    0  0.14933899266E+02 -0.82075785838E+01 -0.10661048595E+02  0.20100837063E+02  0.00000000000E+00 0.  1.
</event>
<event>
 7    1  0.1098446E-012  0.5052882E+02  0.7816164E-02  0.1300439E+00
        -11   -1    0    0    0    0  0.00000000000E+00  0.00000000000E+00  0.45593999997E+02  0.45594000000E+02  0.51100000000E-03 0.  1.
         11   -1    0    0    0    0 -0.00000000000E+00 -0.00000000000E+00 -0.45593999997E+02  0.45594000000E+02  0.51100000000E-03 0. -1.
    9900012    2    1    2    0    0 -0.87196752595E+01  0.48245832182E+01 -0.39419023754E+02  0.50528821779E+02  0.29999884279E+02 0.  0.
        -12    1    1    2    0    0  0.87196752595E+01 -0.48245832182E+01  0.39419023754E+02  0.40659178221E+02  0.00000000000E+00 0.  1.
         11    1    3    3    0    0 -0.81196334374E-01  0.71936630547E+01 -0.79716194739E+01  0.10737881462E+02  0.51100000000E-03 0. -1.
        -11    1    3    3    0    0 -0.73782298115E+01 -0.12106796750E+02 -0.21947259825E+02  0.26128433110E+02  0.51100000000E-03 0.  1.
        -12    1    3    3    0    0 -0.12602491136E+01  0.97377169135E+01 -0.95001444554E+01  0.13662507207E+02  0.00000000000E+00 0.  1.
</event>
<event>
 7    1  0.1098446E-012  0.5052886E+02  0.7816164E-02  0.1300439E+00
        -11   -1    0    0    0    0  0.00000000000E+00  0.00000000000E+00  0.45593999997E+02  0.45594000000E+02  0.51100000000E-03 0.  1.
         11   -1    0    0    0    0 -0.00000000000E+00 -0.00000000000E+00 -0.45593999997E+02  0.45594000000E+02  0.51100000000E-03 0. -1.
    9900012    2    1    2    0    0 -0.17313457941E+02  0.11978488567E+02 -0.34783987580E+02  0.50528858270E+02  0.29999995198E+02 0.  0.
        -12    1    1    2    0    0  0.17313457941E+02 -0.11978488567E+02  0.34783987580E+02  0.40659141730E+02  0.00000000000E+00 0.  1.
         11    1    3    3    0    0 -0.15366905970E+02  0.58338522455E+01 -0.27347348180E+02  0.31906944132E+02  0.51100000000E-03 0. -1.
        -11    1    3    3    0    0  0.54672881440E+01  0.65061428009E+00 -0.76096913509E+01  0.93926535818E+01  0.51100000000E-03 0.  1.
        -12    1    3    3    0    0 -0.74138401151E+01  0.54940220412E+01  0.17305195001E+00  0.92292605564E+01  0.00000000000E+00 0.  1.
</event>
<event>
 7    1  0.1098446E-012  0.5052886E+02  0.7816164E-02  0.1300439E+00
        -11   -1    0    0    0    0  0.00000000000E+00  0.00000000000E+00  0.45593999997E+02  0.45594000000E+02  0.51100000000E-03 0. -1.
         11   -1    0    0    0    0 -0.00000000000E+00 -0.00000000000E+00 -0.45593999997E+02  0.45594000000E+02  0.51100000000E-03 0.  1.
    9900012    2    1    2    0    0 -0.48929848399E+01  0.39991864865E+02 -0.54658119219E+01  0.50528860118E+02  0.30000000813E+02 0.  0.
        -12    1    1    2    0    0  0.48929848399E+01 -0.39991864865E+02  0.54658119219E+01  0.40659139882E+02  0.00000000000E+00 0.  1.
         11    1    3    3    0    0  0.19108277683E+01  0.34266991130E+02 -0.12863790561E+02  0.36651808301E+02  0.51100000000E-03 0.  1.
        -11    1    3    3    0    0 -0.74996173476E+01  0.66144352791E+01  0.49002504335E+01  0.11135864088E+02  0.51100000000E-03 0. -1.
        -12    1    3    3    0    0  0.69580473944E+00 -0.88956154403E+00  0.24977282053E+01  0.27411877287E+01  0.00000000000E+00 0.  1.
</event>
<event>
 7    1  0.1098446E-012  0.5052887E+02  0.7816164E-02  0.1300439E+00
        -11   -1    0    0    0    0  0.00000000000E+00  0.00000000000E+00  0.45593999997E+02  0.45594000000E+02  0.51100000000E-03 0.  1.
         11   -1    0    0    0    0 -0.00000000000E+00 -0.00000000000E+00 -0.45593999997E+02  0.45594000000E+02  0.51100000000E-03 0. -1.
    9900012    2    1    2    0    0  0.28043106660E+02  0.37412564678E+01 -0.29201913991E+02  0.50528872958E+02  0.30000039842E+02 0.  0.
        -12    1    1    2    0    0 -0.28043106660E+02 -0.37412564678E+01  0.29201913991E+02  0.40659127042E+02  0.00000000000E+00 0.  1.
         11    1    3    3    0    0  0.93903699333E+01  0.60468651831E+01 -0.73109710745E+01  0.13348929708E+02  0.51100000000E-03 0. -1.
        -11    1    3    3    0    0 -0.18555036009E+00 -0.97815758879E+01 -0.69604566849E+01  0.12006732000E+02  0.51100000000E-03 0.  1.
        -12    1    3    3    0    0  0.18838287087E+02  0.74759671726E+01 -0.14930486232E+02  0.25173211250E+02  0.00000000000E+00 0.  1.
</event>
<event>
 7    1  0.1098446E-012  0.5052889E+02  0.7816164E-02  0.1300439E+00
        -11   -1    0    0    0    0  0.00000000000E+00  0.00000000000E+00  0.45593999997E+02  0.45594000000E+02  0.51100000000E-03 0. -1.
         11   -1    0    0    0    0 -0.00000000000E+00 -0.00000000000E+00 -0.45593999997E+02  0.45594000000E+02  0.51100000000E-03 0.  1.
    9900012    2    1    2    0    0 -0.63714286887E+01 -0.25778531573E+02  0.30790189099E+02  0.50528886159E+02  0.30000079968E+02 0.  0.
        -12    1    1    2    0    0  0.63714286887E+01  0.25778531573E+02 -0.30790189099E+02  0.40659113841E+02  0.00000000000E+00 0.  1.
         11    1    3    3    0    0  0.43540993519E+01 -0.17819588569E+02  0.21706197154E+01  0.18471803057E+02  0.51100000000E-03 0. -1.
        -11    1    3    3    0    0 -0.24820557726E+01  0.56497179438E+00  0.42116594617E+01  0.49211654788E+01  0.51100000000E-03 0.  1.
         12    1    3    3    0    0 -0.82434722680E+01 -0.85239147984E+01  0.24407909922E+02  0.27135917623E+02  0.00000000000E+00 0. -1.
</event>
<event>
 7    1  0.1098446E-012  0.5052886E+02  0.7816164E-02  0.1300439E+00
        -11   -1    0    0    0    0  0.00000000000E+00  0.00000000000E+00  0.45593999997E+02  0.45594000000E+02  0.51100000000E-03 0.  1.
         11   -1    0    0    0    0 -0.00000000000E+00 -0.00000000000E+00 -0.45593999997E+02  0.45594000000E+02  0.51100000000E-03 0. -1.
    9900012    2    1    2    0    0  0.22151579399E+02  0.33581439650E+02 -0.58957774920E+01  0.50528858948E+02  0.29999997259E+02 0.  0.
        -12    1    1    2    0    0 -0.22151579399E+02 -0.33581439650E+02  0.58957774920E+01  0.40659141052E+02  0.00000000000E+00 0.  1.
         11    1    3    3    0    0  0.94217876284E+01  0.13413326510E+02  0.40135803106E+01  0.16875907008E+02  0.51100000000E-03 0.  1.
        -11    1    3    3    0    0 -0.54161696162E+01  0.21045326131E+01 -0.48163245713E+01  0.75472467475E+01  0.51100000000E-03 0. -1.
        -12    1    3    3    0    0  0.18145961387E+02  0.18063580527E+02 -0.50930332313E+01  0.26105705193E+02  0.00000000000E+00 0.  1.
</event>
<event>
 7    1  0.1098446E-012  0.5052886E+02  0.7816164E-02  0.1300439E+00
        -11   -1    0    0    0    0  0.00000000000E+00  0.00000000000E+00  0.45593999997E+02  0.45594000000E+02  0.51100000000E-03 0.  1.
         11   -1    0    0    0    0 -0.00000000000E+00 -0.00000000000E+00 -0.45593999997E+02  0.45594000000E+02  0.51100000000E-03 0. -1.
    9900012    2    1    2    0    0  0.12272265261E+02  0.29807038687E+02 -0.24780993374E+02  0.50528859791E+02  0.29999999820E+02 0.  0.
        -12    1    1    2    0    0 -0.12272265261E+02 -0.29807038687E+02  0.24780993374E+02  0.40659140209E+02  0.00000000000E+00 0.  1.
         11    1    3    3    0    0  0.58646799782E+01 -0.19930571271E+01  0.21447520414E+01  0.65548996589E+01  0.51100000000E-03 0. -1.
        -11    1    3    3    0    0  0.57109098062E+00  0.21429758746E+02 -0.23004329176E+02  0.31444552245E+02  0.51100000000E-03 0.  1.
         12    1    3    3    0    0  0.58364943027E+01  0.10370337069E+02 -0.39214162396E+01  0.12529407887E+02  0.00000000000E+00 0. -1.
</event>
<event>
 7    1  0.1098446E-012  0.5052888E+02  0.7816164E-02  0.1300439E+00
        -11   -1    0    0    0    0  0.00000000000E+00  0.00000000000E+00  0.45593999997E+02  0.45594000000E+02  0.51100000000E-03 0. -1.
         11   -1    0    0    0    0 -0.00000000000E+00 -0.00000000000E+00 -0.45593999997E+02  0.45594000000E+02  0.51100000000E-03 0.  1.
    9900012    2    1    2    0    0  0.43230953362E+01  0.16194783144E+02  0.37043271479E+02  0.50528879053E+02  0.30000058368E+02 0.  0.
        -12    1    1    2    0    0 -0.43230953362E+01 -0.16194783144E+02 -0.37043271479E+02  0.40659120947E+02  0.00000000000E+00 0.  1.
         11    1    3    3    0    0 -0.85269276979E+01  0.21211546574E+01  0.36094523400E+01  0.94992599449E+01  0.51100000000E-03 0.  1.
        -11    1    3    3    0    0  0.15922581695E+02  0.10858895855E+02  0.28274997289E+02  0.34218703935E+02  0.51100000000E-03 0. -1.
         12    1    3    3    0    0 -0.30725586607E+01  0.32147326318E+01  0.51588218494E+01  0.68109151728E+01  0.00000000000E+00 0. -1.
</event>
<event>
 7    1  0.1098446E-012  0.5052887E+02  0.7816164E-02  0.1300439E+00
        -11   -1    0    0    0    0  0.00000000000E+00  0.00000000000E+00  0.45593999997E+02  0.45594000000E+02  0.51100000000E-03 0.  1.
         11   -1    0    0    0    0 -0.00000000000E+00 -0.00000000000E+00 -0.45593999997E+02  0.45594000000E+02  0.51100000000E-03 0. -1.
    9900012    2    1    2    0    0 -0.14713126785E+02 -0.28768297309E+02 -0.24679424883E+02  0.50528867663E+02  0.30000023748E+02 0.  0.
        -12    1    1    2    0    0  0.14713126785E+02  0.28768297309E+02  0.24679424883E+02  0.40659132337E+02  0.00000000000E+00 0.  1.
         11    1    3    3    0    0 -0.72116614927E+01 -0.18910584578E+02 -0.24535612249E+02  0.31805888437E+02  0.51100000000E-03 0. -1.
        -11    1    3    3    0    0  0.34690103267E+01 -0.33021012348E+01  0.28821152020E+01  0.55896774066E+01  0.51100000000E-03 0.  1.
         12    1    3    3    0    0 -0.10970475619E+02 -0.65556114964E+01 -0.30259278358E+01  0.13133301819E+02  0.00000000000E+00 0. -1.
</event>
<event>
 7    1  0.1098446E-012  0.5052887E+02  0.7816164E-02  0.1300439E+00
        -11   -1    0    0    0    0  0.00000000000E+00  0.00000000000E+00  0.45593999997E+02  0.45594000000E+02  0.51100000000E-03 0. -1.
         11   -1    0    0    0    0 -0.00000000000E+00 -0.00000000000E+00 -0.45593999997E+02  0.45594000000E+02  0.51100000000E-03 0.  1.
    9900012    2    1    2    0    0 -0.35318936815E+02  0.72845517049E+01  0.18779591919E+02  0.50528867398E+02  0.30000022943E+02 0.  0.
        -12    1    1    2    0    0  0.35318936815E+02 -0.72845517049E+01 -0.18779591919E+02  0.40659132602E+02  0.00000000000E+00 0.  1.
         11    1    3    3    0    0 -0.11598397465E+02 -0.53055390199E+01  0.55964286465E+01  0.13928086082E+02  0.51100000000E-03 0. -1.
        -11    1    3    3    0    0 -0.95229911170E+01  0.78921379591E+01  0.17135315389E+02  0.21132729003E+02  0.51100000000E-03 0.  1.
        -12    1    3    3    0    0 -0.14197548233E+02  0.46979527657E+01 -0.39521521159E+01  0.15468052314E+02  0.00000000000E+00 0.  1.
</event>
<event>
 7    1  0.1098446E-012  0.5052891E+02  0.7816164E-02  0.1300439E+00
        -11   -1    0    0    0    0  0.00000000000E+00  0.00000000000E+00  0.45593999997E+02  0.45594000000E+02  0.51100000000E-03 0.  1.
         11   -1    0    0    0    0 -0.00000000000E+00 -0.00000000000E+00 -0.45593999997E+02  0.45594000000E+02  0.51100000000E-03 0. -1.
    9900012    2    1    2    0    0  0.35968486098E+02  0.18680908037E+02  0.32332001420E+01  0.50528906301E+02  0.30000141193E+02 0.  0.
        -12    1    1    2    0    0 -0.35968486098E+02 -0.18680908037E+02 -0.32332001420E+01  0.40659093699E+02  0.00000000000E+00 0.  1.
         11    1    3    3    0    0  0.15387468549E+02  0.18106653668E+02  0.59537462163E+00  0.23769298824E+02  0.51100000000E-03 0. -1.
        -11    1    3    3    0    0  0.14376786968E+02 -0.69946017735E+01 -0.16536793304E+01  0.16073304361E+02  0.51100000000E-03 0.  1.
        -12    1    3    3    0    0  0.62042305813E+01  0.75688561425E+01  0.42915048508E+01  0.10686303116E+02  0.00000000000E+00 0.  1.
</event>
<event>
 7    1  0.1098446E-012  0.5052885E+02  0.7816164E-02  0.1300439E+00
        -11   -1    0    0    0    0  0.00000000000E+00  0.00000000000E+00  0.45593999997E+02  0.45594000000E+02  0.51100000000E-03 0. -1.
         11   -1    0    0    0    0 -0.00000000000E+00 -0.00000000000E+00 -0.45593999997E+02  0.45594000000E+02  0.51100000000E-03 0.  1.
    9900012    2    1    2    0    0  0.55174578300E+01 -0.29789404979E+02  0.27116700686E+02  0.50528850402E+02  0.29999971283E+02 0.  0.
        -12    1    1    2    0    0 -0.55174578300E+01  0.29789404979E+02 -0.27116700686E+02  0.40659149598E+02  0.00000000000E+00 0.  1.
         11    1    3    3    0    0  0.15812375565E+02 -0.16990215276E+02  0.19359357953E+02  0.30223887519E+02  0.51100000000E-03 0. -1.
        -11    1    3    3    0    0 -0.55801075653E+01 -0.72260324652E+01  0.90911062950E+01  0.12884151488E+02  0.51100000000E-03 0.  1.
         12    1    3    3    0    0 -0.47148101698E+01 -0.55731572379E+01 -0.13337635620E+01  0.74208113960E+01  0.00000000000E+00 0. -1.
</event>
<event>
 7    1  0.1098446E-012  0.5052885E+02  0.7816164E-02  0.1300439E+00
        -11   -1    0    0    0    0  0.00000000000E+00  0.00000000000E+00  0.45593999997E+02  0.45594000000E+02  0.51100000000E-03 0. -1.
         11   -1    0    0    0    0 -0.00000000000E+00 -0.00000000000E+00 -0.45593999997E+02  0.45594000000E+02  0.51100000000E-03 0.  1.
    9900012    2    1    2    0    0  0.40359222538E+02  0.27666014011E+01 -0.40799162771E+01  0.50528847967E+02  0.29999963880E+02 0.  0.
        -12    1    1    2    0    0 -0.40359222538E+02 -0.27666014011E+01  0.40799162771E+01  0.40659152033E+02  0.00000000000E+00 0.  1.
         11    1    3    3    0    0  0.39356523784E+02  0.72655691601E+01 -0.58066467189E+01  0.40440593541E+02  0.51100000000E-03 0.  1.
        -11    1    3    3    0    0  0.47054107381E+01 -0.17139062091E+01 -0.33077036992E+00  0.50187422733E+01  0.51100000000E-03 0. -1.
         12    1    3    3    0    0 -0.37027119839E+01 -0.27850615500E+01  0.20575008117E+01  0.50695121523E+01  0.00000000000E+00 0. -1.
</event>
<event>
 7    1  0.1098446E-012  0.5052886E+02  0.7816164E-02  0.1300439E+00
        -11   -1    0    0    0    0  0.00000000000E+00  0.00000000000E+00  0.45593999997E+02  0.45594000000E+02  0.51100000000E-03 0.  1.
         11   -1    0    0    0    0 -0.00000000000E+00 -0.00000000000E+00 -0.45593999997E+02  0.45594000000E+02  0.51100000000E-03 0. -1.
    9900012    2    1    2    0    0  0.25389848539E+02  0.13990677189E+02 -0.28509335080E+02  0.50528860268E+02  0.30000001270E+02 0.  0.
        -12    1    1    2    0    0 -0.25389848539E+02 -0.13990677189E+02  0.28509335080E+02  0.40659139732E+02  0.00000000000E+00 0.  1.
         11    1    3    3    0    0  0.47619047694E+01 -0.53129894085E+01 -0.15020723963E+02  0.16629063176E+02  0.51100000000E-03 0. -1.
        -11    1    3    3    0    0  0.14578363579E+02  0.16760098492E+02 -0.43278339961E+01  0.22630946367E+02  0.51100000000E-03 0.  1.
        -12    1    3    3    0    0  0.60495801905E+01  0.25435681050E+01 -0.91607771216E+01  0.11268850725E+02  0.00000000000E+00 0.  1.
</event>
<event>
 7    1  0.1098446E-012  0.5052885E+02  0.7816164E-02  0.1300439E+00
        -11   -1    0    0    0    0  0.00000000000E+00  0.00000000000E+00  0.45593999997E+02  0.45594000000E+02  0.51100000000E-03 0.  1.
         11   -1    0    0    0    0 -0.00000000000E+00 -0.00000000000E+00 -0.45593999997E+02  0.45594000000E+02  0.51100000000E-03 0. -1.
    9900012    2    1    2    0    0  0.21728235223E+02 -0.29903220352E+02 -0.16936568250E+02  0.50528854198E+02  0.29999982819E+02 0.  0.
        -12    1    1    2    0    0 -0.21728235223E+02  0.29903220352E+02  0.16936568250E+02  0.40659145802E+02  0.00000000000E+00 0.  1.
         11    1    3    3    0    0  0.16882647670E+02 -0.18002132856E+02 -0.52700251248E+00  0.24685589149E+02  0.51100000000E-03 0. -1.
        -11    1    3    3    0    0 -0.55742089801E+01 -0.36803998135E+01 -0.59399393542E+01  0.89386815769E+01  0.51100000000E-03 0.  1.
         12    1    3    3    0    0  0.10419796533E+02 -0.82206876820E+01 -0.10469626383E+02  0.16904583472E+02  0.00000000000E+00 0. -1.
</event>
<event>
 7    1  0.1098446E-012  0.5052886E+02  0.7816164E-02  0.1300439E+00
        -11   -1    0    0    0    0  0.00000000000E+00  0.00000000000E+00  0.45593999997E+02  0.45594000000E+02  0.51100000000E-03 0.  1.
         11   -1    0    0    0    0 -0.00000000000E+00 -0.00000000000E+00 -0.45593999997E+02  0.45594000000E+02  0.51100000000E-03 0. -1.
    9900012    2    1    2    0    0  0.24457387630E+02 -0.29983642624E+02 -0.12489312709E+02  0.50528861217E+02  0.30000004154E+02 0.  0.
        -12    1    1    2    0    0 -0.24457387630E+02  0.29983642624E+02  0.12489312709E+02  0.40659138783E+02  0.00000000000E+00 0.  1.
         11    1    3    3    0    0  0.19152050447E+02 -0.14414820165E+02 -0.14134470349E+02  0.27827528259E+02  0.51100000000E-03 0. -1.
        -11    1    3    3    0    0 -0.48100255643E+01 -0.10515871111E+01  0.79240742952E+00  0.49869921974E+01  0.51100000000E-03 0.  1.
        -12    1    3    3    0    0  0.10115362747E+02 -0.14517235347E+02  0.85275021052E+00  0.17714340760E+02  0.00000000000E+00 0.  1.
</event>
<event>
 7    1  0.1098446E-012  0.5052884E+02  0.7816164E-02  0.1300439E+00
        -11   -1    0    0    0    0  0.00000000000E+00  0.00000000000E+00  0.45593999997E+02  0.45594000000E+02  0.51100000000E-03 0.  1.
         11   -1    0    0    0    0 -0.00000000000E+00 -0.00000000000E+00 -0.45593999997E+02  0.45594000000E+02  0.51100000000E-03 0. -1.
    9900012    2    1    2    0    0 -0.40393391995E+02  0.29002623243E+01  0.36234577448E+01  0.50528842552E+02  0.29999947420E+02 0.  0.
        -12    1    1    2    0    0  0.40393391995E+02 -0.29002623243E+01 -0.36234577448E+01  0.40659157448E+02  0.00000000000E+00 0.  1.
         11    1    3    3    0    0 -0.31313415795E+02 -0.31821310431E+00 -0.18298302475E+01  0.31368448278E+02  0.51100000000E-03 0. -1.
        -11    1    3    3    0    0 -0.10444078199E+02  0.61482984821E+01  0.84329058210E+01  0.14764628153E+02  0.51100000000E-03 0.  1.
         12    1    3    3    0    0  0.13641019993E+01 -0.29298230535E+01 -0.29796178286E+01  0.43957661214E+01  0.00000000000E+00 0. -1.
</event>
<event>
 7    1  0.1098446E-012  0.5052886E+02  0.7816164E-02  0.1300439E+00
        -11   -1    0    0    0    0  0.00000000000E+00  0.00000000000E+00  0.45593999997E+02  0.45594000000E+02  0.51100000000E-03 0. -1.
         11   -1    0    0    0    0 -0.00000000000E+00 -0.00000000000E+00 -0.45593999997E+02  0.45594000000E+02  0.51100000000E-03 0.  1.
    9900012    2    1    2    0    0 -0.27241803457E+01 -0.39475924002E+02  0.93485699182E+01  0.50528862111E+02  0.30000006872E+02 0.  0.
        -12    1    1    2    0    0  0.27241803457E+01  0.39475924002E+02 -0.93485699182E+01  0.40659137889E+02  0.00000000000E+00 0.  1.
         11    1    3    3    0    0 -0.69544787758E+01 -0.31905153422E+02  0.44064908502E+01  0.32950276961E+02  0.51100000000E-03 0. -1.
        -11    1    3    3    0    0  0.35322707955E+01  0.33044754582E+01  0.46008024094E+01  0.66756181810E+01  0.51100000000E-03 0.  1.
        -12    1    3    3    0    0  0.69802763459E+00 -0.10875246038E+02  0.34127665870E+00  0.10902966969E+02  0.00000000000E+00 0.  1.
</event>
<event>
 7    1  0.1098446E-012  0.5052886E+02  0.7816164E-02  0.1300439E+00
        -11   -1    0    0    0    0  0.00000000000E+00  0.00000000000E+00  0.45593999997E+02  0.45594000000E+02  0.51100000000E-03 0. -1.
         11   -1    0    0    0    0 -0.00000000000E+00 -0.00000000000E+00 -0.45593999997E+02  0.45594000000E+02  0.51100000000E-03 0.  1.
    9900012    2    1    2    0    0  0.35481339543E+02  0.13191621232E+02  0.14839849662E+02  0.50528862472E+02  0.30000007970E+02 0.  0.
        -12    1    1    2    0    0 -0.35481339543E+02 -0.13191621232E+02 -0.14839849662E+02  0.40659137528E+02  0.00000000000E+00 0.  1.
         11    1    3    3    0    0  0.33563060071E+02  0.11441186573E+02  0.10021446750E+02  0.36848461932E+02  0.51100000000E-03 0. -1.
        -11    1    3    3    0    0  0.79217801175E+00  0.29571961117E+01 -0.38145071949E+01  0.48911164622E+01  0.51100000000E-03 0.  1.
         12    1    3    3    0    0  0.11261014609E+01 -0.12067614527E+01  0.86329101063E+01  0.87892840782E+01  0.00000000000E+00 0. -1.
</event>
<event>
 7    1  0.1098446E-012  0.5052886E+02  0.7816164E-02  0.1300439E+00
        -11   -1    0    0    0    0  0.00000000000E+00  0.00000000000E+00  0.45593999997E+02  0.45594000000E+02  0.51100000000E-03 0.  1.
         11   -1    0    0    0    0 -0.00000000000E+00 -0.00000000000E+00 -0.45593999997E+02  0.45594000000E+02  0.51100000000E-03 0. -1.
    9900012    2    1    2    0    0  0.21185430625E+02  0.29398899073E+02 -0.18440393318E+02  0.50528857816E+02  0.29999993816E+02 0.  0.
        -12    1    1    2    0    0 -0.21185430625E+02 -0.29398899073E+02  0.18440393318E+02  0.40659142184E+02  0.00000000000E+00 0.  1.
         11    1    3    3    0    0  0.16793094462E+02  0.10658076905E+01 -0.10448055542E+02  0.19806711805E+02  0.51100000000E-03 0. -1.
        -11    1    3    3    0    0  0.84554834285E-01  0.85738309817E+01 -0.58626466064E+01  0.10386931824E+02  0.51100000000E-03 0.  1.
         12    1    3    3    0    0  0.43077813289E+01  0.19759260400E+02 -0.21296911690E+01  0.20335214187E+02  0.00000000000E+00 0. -1.
</event>
<event>
 7    1  0.1098446E-012  0.5052887E+02  0.7816164E-02  0.1300439E+00
        -11   -1    0    0    0    0  0.00000000000E+00  0.00000000000E+00  0.45593999997E+02  0.45594000000E+02  0.51100000000E-03 0. -1.
         11   -1    0    0    0    0 -0.00000000000E+00 -0.00000000000E+00 -0.45593999997E+02  0.45594000000E+02  0.51100000000E-03 0.  1.
    9900012    2    1    2    0    0  0.69071198363E+01 -0.36718048626E+02  0.16038744811E+02  0.50528871450E+02  0.30000035260E+02 0.  0.
        -12    1    1    2    0    0 -0.69071198363E+01  0.36718048626E+02 -0.16038744811E+02  0.40659128550E+02  0.00000000000E+00 0.  1.
         11    1    3    3    0    0 -0.29407653077E+01 -0.24509119528E+02  0.54379036891E+01  0.25276784555E+02  0.51100000000E-03 0. -1.
        -11    1    3    3    0    0 -0.23256601677E+01  0.26763278107E+01  0.27276203484E+01  0.44734034908E+01  0.51100000000E-03 0.  1.
         12    1    3    3    0    0  0.12173545312E+02 -0.14885256909E+02  0.78732207730E+01  0.20778683405E+02  0.00000000000E+00 0. -1.
</event>
<event>
 7    1  0.1098446E-012  0.5052885E+02  0.7816164E-02  0.1300439E+00
        -11   -1    0    0    0    0  0.00000000000E+00  0.00000000000E+00  0.45593999997E+02  0.45594000000E+02  0.51100000000E-03 0.  1.
         11   -1    0    0    0    0 -0.00000000000E+00 -0.00000000000E+00 -0.45593999997E+02  0.45594000000E+02  0.51100000000E-03 0. -1.
    9900012    2    1    2    0    0  0.14496791474E+02  0.35450266004E+02 -0.13648730298E+02  0.50528853901E+02  0.29999981916E+02 0.  0.
        -12    1    1    2    0    0 -0.14496791474E+02 -0.35450266004E+02  0.13648730298E+02  0.40659146099E+02  0.00000000000E+00 0.  1.
         11    1    3    3    0    0  0.11592671952E+02  0.36090798368E+02 -0.19397465485E+02  0.42581656113E+02  0.51100000000E-03 0. -1.
        -11    1    3    3    0    0  0.38948133589E+01 -0.37034063350E+00  0.57072325791E+01  0.69194817189E+01  0.51100000000E-03 0.  1.
         12    1    3    3    0    0 -0.99069383752E+00 -0.27019173074E+00  0.41502607534E-01  0.10277160685E+01  0.00000000000E+00 0. -1.
</event>
<event>
 7    1  0.1098446E-012  0.5052886E+02  0.7816164E-02  0.1300439E+00
        -11   -1    0    0    0    0  0.00000000000E+00  0.00000000000E+00  0.45593999997E+02  0.45594000000E+02  0.51100000000E-03 0. -1.
         11   -1    0    0    0    0 -0.00000000000E+00 -0.00000000000E+00 -0.45593999997E+02  0.45594000000E+02  0.51100000000E-03 0.  1.
    9900012    2    1    2    0    0  0.38580784645E+02  0.11274531321E+02  0.61297179422E+01  0.50528862745E+02  0.30000008799E+02 0.  0.
        -12    1    1    2    0    0 -0.38580784645E+02 -0.11274531321E+02 -0.61297179422E+01  0.40659137255E+02  0.00000000000E+00 0.  1.
         11    1    3    3    0    0  0.24767763005E+02  0.19940343309E+02  0.63617525899E+00  0.31803523307E+02  0.51100000000E-03 0. -1.
        -11    1    3    3    0    0  0.30490054844E+01 -0.41189802491E+01  0.47972290846E+01  0.70196751981E+01  0.51100000000E-03 0.  1.
         12    1    3    3    0    0  0.10764016155E+02 -0.45468317389E+01  0.69631359870E+00  0.11705664239E+02  0.00000000000E+00 0. -1.
</event>
<event>
 7    1  0.1098446E-012  0.5052886E+02  0.7816164E-02  0.1300439E+00
        -11   -1    0    0    0    0  0.00000000000E+00  0.00000000000E+00  0.45593999997E+02  0.45594000000E+02  0.51100000000E-03 0.  1.
         11   -1    0    0    0    0 -0.00000000000E+00 -0.00000000000E+00 -0.45593999997E+02  0.45594000000E+02  0.51100000000E-03 0. -1.
    9900012    2    1    2    0    0  0.13928473479E+02  0.27212936480E+02 -0.26807074092E+02  0.50528861954E+02  0.30000006395E+02 0.  0.
        -12    1    1    2    0    0 -0.13928473479E+02 -0.27212936480E+02  0.26807074092E+02  0.40659138046E+02  0.00000000000E+00 0.  1.
         11    1    3    3    0    0  0.17155963154E+02  0.25089238414E+02 -0.89645145438E+01  0.31688475464E+02  0.51100000000E-03 0. -1.
        -11    1    3    3    0    0 -0.26004035166E+01  0.27142080768E+01 -0.17523060328E+02  0.17921681491E+02  0.51100000000E-03 0.  1.
         12    1    3    3    0    0 -0.62708615869E+00 -0.59051001145E+00 -0.31949922005E+00  0.91870499926E+00  0.00000000000E+00 0. -1.
</event>
<event>
 7    1  0.1098446E-012  0.5052886E+02  0.7816164E-02  0.1300439E+00
        -11   -1    0    0    0    0  0.00000000000E+00  0.00000000000E+00  0.45593999997E+02  0.45594000000E+02  0.51100000000E-03 0.  1.
         11   -1    0    0    0    0 -0.00000000000E+00 -0.00000000000E+00 -0.45593999997E+02  0.45594000000E+02  0.51100000000E-03 0. -1.
    9900012    2    1    2    0    0 -0.17909044703E+02  0.30678449497E+02 -0.19780413537E+02  0.50528857050E+02  0.29999991490E+02 0.  0.
        -12    1    1    2    0    0  0.17909044703E+02 -0.30678449497E+02  0.19780413537E+02  0.40659142950E+02  0.00000000000E+00 0.  1.
         11    1    3    3    0    0 -0.12660408637E+02  0.31171351709E+01 -0.92780404814E+01  0.16002640843E+02  0.51100000000E-03 0. -1.
        -11    1    3    3    0    0 -0.32068570255E+01  0.29171309455E+02 -0.70108368963E+01  0.30172853056E+02  0.51100000000E-03 0.  1.
        -12    1    3    3    0    0 -0.20417790409E+01 -0.16099951294E+01 -0.34915361594E+01  0.43533631506E+01  0.00000000000E+00 0.  1.
</event>
<event>
 7    1  0.1098446E-012  0.5052886E+02  0.7816164E-02  0.1300439E+00
        -11   -1    0    0    0    0  0.00000000000E+00  0.00000000000E+00  0.45593999997E+02  0.45594000000E+02  0.51100000000E-03 0.  1.
         11   -1    0    0    0    0 -0.00000000000E+00 -0.00000000000E+00 -0.45593999997E+02  0.45594000000E+02  0.51100000000E-03 0. -1.
    9900012    2    1    2    0    0 -0.49953909101E+01  0.26190443220E+02 -0.30696453276E+02  0.50528862157E+02  0.30000007014E+02 0.  0.
        -12    1    1    2    0    0  0.49953909101E+01 -0.26190443220E+02  0.30696453276E+02  0.40659137843E+02  0.00000000000E+00 0.  1.
         11    1    3    3    0    0 -0.98791767172E+01  0.29289052830E+02 -0.31558736443E+02  0.44174660094E+02  0.51100000000E-03 0. -1.
        -11    1    3    3    0    0  0.90146622638E+00 -0.15267821193E+01 -0.53274495837E+00  0.18513569210E+01  0.51100000000E-03 0.  1.
         12    1    3    3    0    0  0.39823195807E+01 -0.15718274903E+01  0.13950281263E+01  0.45028451423E+01  0.00000000000E+00 0. -1.
</event>
<event>
 7    1  0.1098446E-012  0.5052886E+02  0.7816164E-02  0.1300439E+00
        -11   -1    0    0    0    0  0.00000000000E+00  0.00000000000E+00  0.45593999997E+02  0.45594000000E+02  0.51100000000E-03 0.  1.
         11   -1    0    0    0    0 -0.00000000000E+00 -0.00000000000E+00 -0.45593999997E+02  0.45594000000E+02  0.51100000000E-03 0. -1.
    9900012    2    1    2    0    0  0.23695966742E+02  0.30507674941E+02  0.12686554333E+02  0.50528859195E+02  0.29999998008E+02 0.  0.
        -12    1    1    2    0    0 -0.23695966742E+02 -0.30507674941E+02 -0.12686554333E+02  0.40659140805E+02  0.00000000000E+00 0.  1.
         11    1    3    3    0    0  0.76371657524E+01  0.24174352318E+01 -0.22618845212E+01  0.83238462070E+01  0.51100000000E-03 0. -1.
        -11    1    3    3    0    0 -0.44522627695E+01  0.82402769885E+01  0.91195828148E+01  0.13072551380E+02  0.51100000000E-03 0.  1.
        -12    1    3    3    0    0  0.20511063759E+02  0.19849962721E+02  0.58288560397E+01  0.29132461607E+02  0.00000000000E+00 0.  1.
</event>
<event>
 7    1  0.1098446E-012  0.5052888E+02  0.7816164E-02  0.1300439E+00
        -11   -1    0    0    0    0  0.00000000000E+00  0.00000000000E+00  0.45593999997E+02  0.45594000000E+02  0.51100000000E-03 0.  1.
         11   -1    0    0    0    0 -0.00000000000E+00 -0.00000000000E+00 -0.45593999997E+02  0.45594000000E+02  0.51100000000E-03 0. -1.
    9900012    2    1    2    0    0  0.74993825358E+01 -0.27890266544E+02 -0.28619154957E+02  0.50528883719E+02  0.30000072553E+02 0.  0.
        -12    1    1    2    0    0 -0.74993825358E+01  0.27890266544E+02  0.28619154957E+02  0.40659116281E+02  0.00000000000E+00 0.  1.
         11    1    3    3    0    0 -0.23512672517E+01 -0.13682931603E+02  0.45378272422E+00  0.13890896082E+02  0.51100000000E-03 0. -1.
        -11    1    3    3    0    0  0.54429400450E+01  0.53550772856E+00 -0.14285941536E+02  0.15297074579E+02  0.51100000000E-03 0.  1.
         12    1    3    3    0    0  0.44077097425E+01 -0.14742842670E+02 -0.14786996145E+02  0.21340913058E+02  0.00000000000E+00 0. -1.
</event>
<event>
 7    1  0.1098446E-012  0.5052888E+02  0.7816164E-02  0.1300439E+00
        -11   -1    0    0    0    0  0.00000000000E+00  0.00000000000E+00  0.45593999997E+02  0.45594000000E+02  0.51100000000E-03 0.  1.
         11   -1    0    0    0    0 -0.00000000000E+00 -0.00000000000E+00 -0.45593999997E+02  0.45594000000E+02  0.51100000000E-03 0. -1.
    9900012    2    1    2    0    0  0.15048662852E+02 -0.35533559029E+02  0.12808900835E+02  0.50528880340E+02  0.30000062282E+02 0.  0.
        -12    1    1    2    0    0 -0.15048662852E+02  0.35533559029E+02 -0.12808900835E+02  0.40659119660E+02  0.00000000000E+00 0.  1.
         11    1    3    3    0    0  0.18415772643E+02 -0.27206068588E+02  0.16615924498E+01  0.32894858866E+02  0.51100000000E-03 0. -1.
        -11    1    3    3    0    0 -0.35346597060E+01  0.14385177295E+01  0.23022956795E+01  0.44568731362E+01  0.51100000000E-03 0.  1.
         12    1    3    3    0    0  0.16754991445E+00 -0.97660081706E+01  0.88450127057E+01  0.13177148338E+02  0.00000000000E+00 0. -1.
</event>
<event>
 7    1  0.1098446E-012  0.5052887E+02  0.7816164E-02  0.1300439E+00
        -11   -1    0    0    0    0  0.00000000000E+00  0.00000000000E+00  0.45593999997E+02  0.45594000000E+02  0.51100000000E-03 0. -1.
         11   -1    0    0    0    0 -0.00000000000E+00 -0.00000000000E+00 -0.45593999997E+02  0.45594000000E+02  0.51100000000E-03 0.  1.
    9900012    2    1    2    0    0 -0.33832988301E+02 -0.22212685230E+02 -0.38846377155E+01  0.50528869504E+02  0.30000029344E+02 0.  0.
        -12    1    1    2    0    0  0.33832988301E+02  0.22212685230E+02  0.38846377155E+01  0.40659130496E+02  0.00000000000E+00 0.  1.
         11    1    3    3    0    0 -0.43640638682E+01  0.45445512801E+01 -0.15474742071E+01  0.64878869030E+01  0.51100000000E-03 0. -1.
        -11    1    3    3    0    0 -0.26367985475E+02 -0.24202473656E+02  0.45378855400E+01  0.36078009847E+02  0.51100000000E-03 0.  1.
        -12    1    3    3    0    0 -0.31009389580E+01 -0.25547628549E+01 -0.68750490485E+01  0.79629727543E+01  0.00000000000E+00 0.  1.
</event>
<event>
 7    1  0.1098446E-012  0.5052887E+02  0.7816164E-02  0.1300439E+00
        -11   -1    0    0    0    0  0.00000000000E+00  0.00000000000E+00  0.45593999997E+02  0.45594000000E+02  0.51100000000E-03 0.  1.
         11   -1    0    0    0    0 -0.00000000000E+00 -0.00000000000E+00 -0.45593999997E+02  0.45594000000E+02  0.51100000000E-03 0. -1.
    9900012    2    1    2    0    0  0.27506816663E+02  0.16822717058E+02 -0.24769660492E+02  0.50528869992E+02  0.30000030826E+02 0.  0.
        -12    1    1    2    0    0 -0.27506816663E+02 -0.16822717058E+02  0.24769660492E+02  0.40659130008E+02  0.00000000000E+00 0.  1.
         11    1    3    3    0    0  0.80891936440E+01  0.14149992830E+02 -0.16496980213E+02  0.23190681476E+02  0.51100000000E-03 0. -1.
        -11    1    3    3    0    0  0.12577003593E+02 -0.29088837700E+01  0.27670828959E+01  0.13202248755E+02  0.51100000000E-03 0.  1.
        -12    1    3    3    0    0  0.68406194258E+01  0.55816079989E+01 -0.11039763174E+02  0.14135939761E+02  0.00000000000E+00 0.  1.
</event>
<event>
 7    1  0.1098446E-012  0.5052885E+02  0.7816164E-02  0.1300439E+00
        -11   -1    0    0    0    0  0.00000000000E+00  0.00000000000E+00  0.45593999997E+02  0.45594000000E+02  0.51100000000E-03 0.  1.
         11   -1    0    0    0    0 -0.00000000000E+00 -0.00000000000E+00 -0.45593999997E+02  0.45594000000E+02  0.51100000000E-03 0. -1.
    9900012    2    1    2    0    0  0.19942895838E+02  0.34807432709E+02  0.66249411423E+01  0.50528852058E+02  0.29999976315E+02 0.  0.
        -12    1    1    2    0    0 -0.19942895838E+02 -0.34807432709E+02 -0.66249411423E+01  0.40659147942E+02  0.00000000000E+00 0.  1.
         11    1    3    3    0    0  0.67985797197E+01  0.13293587537E+02 -0.98033282639E+01  0.17861842042E+02  0.51100000000E-03 0. -1.
        -11    1    3    3    0    0  0.53680788232E+01  0.14063724701E+01  0.75067905692E+01  0.93352053372E+01  0.51100000000E-03 0.  1.
         12    1    3    3    0    0  0.77762372956E+01  0.20107472702E+02  0.89214788369E+01  0.23331804679E+02  0.00000000000E+00 0. -1.
</event>
<event>
 7    1  0.1098446E-012  0.5052888E+02  0.7816164E-02  0.1300439E+00
        -11   -1    0    0    0    0  0.00000000000E+00  0.00000000000E+00  0.45593999997E+02  0.45594000000E+02  0.51100000000E-03 0. -1.
         11   -1    0    0    0    0 -0.00000000000E+00 -0.00000000000E+00 -0.45593999997E+02  0.45594000000E+02  0.51100000000E-03 0.  1.
    9900012    2    1    2    0    0  0.22561635126E+02 -0.33475344773E+02 -0.48516215096E+01  0.50528876565E+02  0.30000050807E+02 0.  0.
        -12    1    1    2    0    0 -0.22561635126E+02  0.33475344773E+02  0.48516215096E+01  0.40659123435E+02  0.00000000000E+00 0.  1.
         11    1    3    3    0    0  0.15351044337E+02 -0.22317746762E+02 -0.92487684229E+01  0.28622999500E+02  0.51100000000E-03 0. -1.
        -11    1    3    3    0    0  0.88962867506E+01 -0.16213317545E+01  0.74878222180E+01  0.11740533056E+02  0.51100000000E-03 0.  1.
        -12    1    3    3    0    0 -0.16856959613E+01 -0.95362662563E+01 -0.30906753047E+01  0.10165344009E+02  0.00000000000E+00 0.  1.
</event>
